<event>
 7    1  0.8440037E-011  0.4778727E+02  0.7816164E-02  0.1312668E+00
        -11   -1    0    0    0    0  0.00000000000E+00  0.00000000000E+00  0.45593999997E+02  0.45594000000E+02  0.51100000000E-03 0.  1.
         11   -1    0    0    0    0 -0.00000000000E+00 -0.00000000000E+00 -0.45593999997E+02  0.45594000000E+02  0.51100000000E-03 0. -1.
    9900012    2    1    2    0    0  0.86189157384E+01 -0.33306046757E+02 -0.26458359213E+02  0.47787271534E+02  0.20000002233E+02 0.  0.
         12    1    1    2    0    0 -0.86189157384E+01  0.33306046757E+02  0.26458359213E+02  0.43400728466E+02  0.00000000000E+00 0. -1.
         11    1    3    3    0    0 -0.12468694826E+01 -0.40773784214E+01 -0.83108107503E+00  0.43440067118E+01  0.51100000000E-03 0.  1.
        -11    1    3    3    0    0  0.61716569056E+01 -0.42345814402E+01 -0.13458851992E+02  0.15400056043E+02  0.51100000000E-03 0. -1.
        -12    1    3    3    0    0  0.36941283154E+01 -0.24994086896E+02 -0.12168426146E+02  0.28043208779E+02  0.00000000000E+00 0.  1.
</event>
<event>
 7    1  0.8440037E-011  0.4778729E+02  0.7816164E-02  0.1312668E+00
        -11   -1    0    0    0    0  0.00000000000E+00  0.00000000000E+00  0.45593999997E+02  0.45594000000E+02  0.51100000000E-03 0. -1.
         11   -1    0    0    0    0 -0.00000000000E+00 -0.00000000000E+00 -0.45593999997E+02  0.45594000000E+02  0.51100000000E-03 0.  1.
    9900012    2    1    2    0    0  0.30139877705E+02 -0.15138024656E+02 -0.27313914131E+02  0.47787286599E+02  0.20000070919E+02 0.  0.
         12    1    1    2    0    0 -0.30139877705E+02  0.15138024656E+02  0.27313914131E+02  0.43400713401E+02  0.00000000000E+00 0. -1.
         11    1    3    3    0    0  0.10240175631E+02 -0.88007883895E+01 -0.16542024670E+02  0.21353071294E+02  0.51100000000E-03 0. -1.
        -11    1    3    3    0    0  0.10067453905E+02 -0.90601792302E+01 -0.37654129600E+01  0.14057695787E+02  0.51100000000E-03 0.  1.
         12    1    3    3    0    0  0.98322481683E+01  0.27229429634E+01 -0.70064765015E+01  0.12376519518E+02  0.00000000000E+00 0. -1.
</event>
<event>
 7    1  0.8440037E-011  0.4778727E+02  0.7816164E-02  0.1312668E+00
        -11   -1    0    0    0    0  0.00000000000E+00  0.00000000000E+00  0.45593999997E+02  0.45594000000E+02  0.51100000000E-03 0. -1.
         11   -1    0    0    0    0 -0.00000000000E+00 -0.00000000000E+00 -0.45593999997E+02  0.45594000000E+02  0.51100000000E-03 0.  1.
    9900012    2    1    2    0    0 -0.22049156520E+02  0.14999752836E+02 -0.34241282565E+02  0.47787270512E+02  0.19999997574E+02 0.  0.
         12    1    1    2    0    0  0.22049156520E+02 -0.14999752836E+02  0.34241282565E+02  0.43400729488E+02  0.00000000000E+00 0. -1.
         11    1    3    3    0    0 -0.46650540739E+01  0.66481409951E+01 -0.10745635294E+02  0.13469565188E+02  0.51100000000E-03 0. -1.
        -11    1    3    3    0    0 -0.18593120698E+02  0.11279982833E+02 -0.21454689767E+02  0.30549073035E+02  0.51100000000E-03 0.  1.
         12    1    3    3    0    0  0.12090182523E+01 -0.29283709928E+01 -0.20409575032E+01  0.37686322898E+01  0.00000000000E+00 0. -1.
</event>
<event>
 7    1  0.8440037E-011  0.4778727E+02  0.7816164E-02  0.1312668E+00
        -11   -1    0    0    0    0  0.00000000000E+00  0.00000000000E+00  0.45593999997E+02  0.45594000000E+02  0.51100000000E-03 0. -1.
         11   -1    0    0    0    0 -0.00000000000E+00 -0.00000000000E+00 -0.45593999997E+02  0.45594000000E+02  0.51100000000E-03 0.  1.
    9900012    2    1    2    0    0 -0.12282095871E+02 -0.89380176688E+01  0.40655688176E+02  0.47787273971E+02  0.20000013342E+02 0.  0.
        -12    1    1    2    0    0  0.12282095871E+02  0.89380176688E+01 -0.40655688176E+02  0.43400726029E+02  0.00000000000E+00 0.  1.
         11    1    3    3    0    0 -0.57422594791E+01 -0.89741517143E+01  0.18123839066E+02  0.21023379501E+02  0.51100000000E-03 0. -1.
        -11    1    3    3    0    0 -0.10390553062E+02 -0.38025732586E+00  0.18136530326E+02  0.20905547615E+02  0.51100000000E-03 0.  1.
        -12    1    3    3    0    0  0.38507166701E+01  0.41639137143E+00  0.43953187842E+01  0.58583468540E+01  0.00000000000E+00 0.  1.
</event>
<event>
 7    1  0.8440037E-011  0.4778727E+02  0.7816164E-02  0.1312668E+00
        -11   -1    0    0    0    0  0.00000000000E+00  0.00000000000E+00  0.45593999997E+02  0.45594000000E+02  0.51100000000E-03 0. -1.
         11   -1    0    0    0    0 -0.00000000000E+00 -0.00000000000E+00 -0.45593999997E+02  0.45594000000E+02  0.51100000000E-03 0.  1.
    9900012    2    1    2    0    0 -0.36655213395E+02  0.19707141557E+02 -0.12314504588E+02  0.47787272810E+02  0.20000008050E+02 0.  0.
         12    1    1    2    0    0  0.36655213395E+02 -0.19707141557E+02  0.12314504588E+02  0.43400727190E+02  0.00000000000E+00 0. -1.
         11    1    3    3    0    0 -0.89571785477E+01  0.78098963822E+01  0.18908226098E+01  0.12033317890E+02  0.51100000000E-03 0. -1.
        -11    1    3    3    0    0 -0.18810460287E+02  0.14178423100E+02 -0.11327470945E+02  0.26137572498E+02  0.51100000000E-03 0.  1.
        -12    1    3    3    0    0 -0.88875745599E+01 -0.22811779247E+01 -0.28778562522E+01  0.96163824223E+01  0.00000000000E+00 0.  1.
</event>
<event>
 7    1  0.8440037E-011  0.4778728E+02  0.7816164E-02  0.1312668E+00
        -11   -1    0    0    0    0  0.00000000000E+00  0.00000000000E+00  0.45593999997E+02  0.45594000000E+02  0.51100000000E-03 0. -1.
         11   -1    0    0    0    0 -0.00000000000E+00 -0.00000000000E+00 -0.45593999997E+02  0.45594000000E+02  0.51100000000E-03 0.  1.
    9900012    2    1    2    0    0  0.38444666410E+02  0.19922315620E+02  0.29549738969E+01  0.47787275285E+02  0.20000019335E+02 0.  0.
         12    1    1    2    0    0 -0.38444666410E+02 -0.19922315620E+02 -0.29549738969E+01  0.43400724715E+02  0.00000000000E+00 0. -1.
         11    1    3    3    0    0  0.12270948909E+02  0.10632117966E+02  0.95092197137E+00  0.16264143766E+02  0.51100000000E-03 0. -1.
        -11    1    3    3    0    0  0.19328868103E+02  0.10130377473E+02 -0.42276289527E+01  0.22228417324E+02  0.51100000000E-03 0.  1.
         12    1    3    3    0    0  0.68448493979E+01 -0.84017981958E+00  0.62316808783E+01  0.92947141956E+01  0.00000000000E+00 0. -1.
</event>
<event>
 7    1  0.8440037E-011  0.4778727E+02  0.7816164E-02  0.1312668E+00
        -11   -1    0    0    0    0  0.00000000000E+00  0.00000000000E+00  0.45593999997E+02  0.45594000000E+02  0.51100000000E-03 0. -1.
         11   -1    0    0    0    0 -0.00000000000E+00 -0.00000000000E+00 -0.45593999997E+02  0.45594000000E+02  0.51100000000E-03 0.  1.
    9900012    2    1    2    0    0  0.20662464785E+02 -0.12515122180E+02  0.36056310593E+02  0.47787271115E+02  0.20000000323E+02 0.  0.
        -12    1    1    2    0    0 -0.20662464785E+02  0.12515122180E+02 -0.36056310593E+02  0.43400728885E+02  0.00000000000E+00 0.  1.
         11    1    3    3    0    0 -0.70569523643E+00  0.19872243087E+01  0.11030385819E+01  0.23798656672E+01  0.51100000000E-03 0. -1.
        -11    1    3    3    0    0  0.90369383438E+01  0.10905191352E+01  0.10704880781E+02  0.14051688845E+02  0.51100000000E-03 0.  1.
         12    1    3    3    0    0  0.12331221677E+02 -0.15592865624E+02  0.24248391230E+02  0.31355716603E+02  0.00000000000E+00 0. -1.
</event>
<event>
 7    1  0.8440037E-011  0.4778727E+02  0.7816164E-02  0.1312668E+00
        -11   -1    0    0    0    0  0.00000000000E+00  0.00000000000E+00  0.45593999997E+02  0.45594000000E+02  0.51100000000E-03 0. -1.
         11   -1    0    0    0    0 -0.00000000000E+00 -0.00000000000E+00 -0.45593999997E+02  0.45594000000E+02  0.51100000000E-03 0.  1.
    9900012    2    1    2    0    0 -0.62286345726E+01  0.61390118638E+01  0.42510466764E+02  0.47787272589E+02  0.20000007043E+02 0.  0.
        -12    1    1    2    0    0  0.62286345726E+01 -0.61390118638E+01 -0.42510466764E+02  0.43400727411E+02  0.00000000000E+00 0.  1.
         11    1    3    3    0    0 -0.32594470943E+01  0.15157509874E+01  0.58641314625E+01  0.68781926759E+01  0.51100000000E-03 0. -1.
        -11    1    3    3    0    0  0.39008490272E+01 -0.12122546024E+01  0.28399717862E+02  0.28691987719E+02  0.51100000000E-03 0.  1.
        -12    1    3    3    0    0 -0.68700365055E+01  0.58355154788E+01  0.82466174391E+01  0.12217092194E+02  0.00000000000E+00 0.  1.
</event>
<event>
 7    1  0.8440037E-011  0.4778725E+02  0.7816164E-02  0.1312668E+00
        -11   -1    0    0    0    0  0.00000000000E+00  0.00000000000E+00  0.45593999997E+02  0.45594000000E+02  0.51100000000E-03 0.  1.
         11   -1    0    0    0    0 -0.00000000000E+00 -0.00000000000E+00 -0.45593999997E+02  0.45594000000E+02  0.51100000000E-03 0. -1.
    9900012    2    1    2    0    0 -0.16516325959E+02 -0.35829306504E+02  0.18085825683E+02  0.47787247491E+02  0.19999892608E+02 0.  0.
        -12    1    1    2    0    0  0.16516325959E+02  0.35829306504E+02 -0.18085825683E+02  0.43400752509E+02  0.00000000000E+00 0.  1.
         11    1    3    3    0    0 -0.11134833475E+02 -0.31967596996E+02  0.15966293519E+02  0.37427721053E+02  0.51100000000E-03 0. -1.
        -11    1    3    3    0    0 -0.58862692402E+00 -0.46075921998E+01  0.28568454493E+01  0.54532516646E+01  0.51100000000E-03 0.  1.
        -12    1    3    3    0    0 -0.47928655598E+01  0.74588269207E+00 -0.73731328549E+00  0.49062747727E+01  0.00000000000E+00 0.  1.
</event>
<event>
 7    1  0.8440037E-011  0.4778727E+02  0.7816164E-02  0.1312668E+00
        -11   -1    0    0    0    0  0.00000000000E+00  0.00000000000E+00  0.45593999997E+02  0.45594000000E+02  0.51100000000E-03 0. -1.
         11   -1    0    0    0    0 -0.00000000000E+00 -0.00000000000E+00 -0.45593999997E+02  0.45594000000E+02  0.51100000000E-03 0.  1.
    9900012    2    1    2    0    0  0.99676049596E+00  0.58515312268E+01  0.42992896064E+02  0.47787273495E+02  0.20000011173E+02 0.  0.
        -12    1    1    2    0    0 -0.99676049596E+00 -0.58515312268E+01 -0.42992896064E+02  0.43400726505E+02  0.00000000000E+00 0.  1.
         11    1    3    3    0    0 -0.27944438807E+01  0.11171003091E+01  0.28865885575E+02  0.29022339327E+02  0.51100000000E-03 0. -1.
        -11    1    3    3    0    0  0.15520174651E+01  0.34612072948E+01  0.15422155666E+02  0.15881800899E+02  0.51100000000E-03 0.  1.
        -12    1    3    3    0    0  0.22391869116E+01  0.12732236229E+01 -0.12951451768E+01  0.28831332692E+01  0.00000000000E+00 0.  1.
</event>
<event>
 7    1  0.8440037E-011  0.4778727E+02  0.7816164E-02  0.1312668E+00
        -11   -1    0    0    0    0  0.00000000000E+00  0.00000000000E+00  0.45593999997E+02  0.45594000000E+02  0.51100000000E-03 0. -1.
         11   -1    0    0    0    0 -0.00000000000E+00 -0.00000000000E+00 -0.45593999997E+02  0.45594000000E+02  0.51100000000E-03 0.  1.
    9900012    2    1    2    0    0 -0.49001194428E+01 -0.22076364595E+02 -0.37043842194E+02  0.47787270873E+02  0.19999999218E+02 0.  0.
         12    1    1    2    0    0  0.49001194428E+01  0.22076364595E+02  0.37043842194E+02  0.43400729127E+02  0.00000000000E+00 0. -1.
         11    1    3    3    0    0  0.20070205209E-01  0.52618549611E+00 -0.64481011925E+01  0.64695659236E+01  0.51100000000E-03 0. -1.
        -11    1    3    3    0    0 -0.49535231647E+01 -0.62366096645E+01 -0.17527845244E+01  0.81550564499E+01  0.51100000000E-03 0.  1.
        -12    1    3    3    0    0  0.33333516691E-01 -0.16365940427E+02 -0.28842956477E+02  0.33162648499E+02  0.00000000000E+00 0.  1.
</event>
<event>
 7    1  0.8440037E-011  0.4778727E+02  0.7816164E-02  0.1312668E+00
        -11   -1    0    0    0    0  0.00000000000E+00  0.00000000000E+00  0.45593999997E+02  0.45594000000E+02  0.51100000000E-03 0. -1.
         11   -1    0    0    0    0 -0.00000000000E+00 -0.00000000000E+00 -0.45593999997E+02  0.45594000000E+02  0.51100000000E-03 0.  1.
    9900012    2    1    2    0    0  0.25237410400E+01 -0.23593652602E+02  0.36339967424E+02  0.47787274841E+02  0.20000017310E+02 0.  0.
        -12    1    1    2    0    0 -0.25237410400E+01  0.23593652602E+02 -0.36339967424E+02  0.43400725159E+02  0.00000000000E+00 0.  1.
         11    1    3    3    0    0 -0.26347522950E+01 -0.42275909144E+01  0.41162536153E+01  0.64620421449E+01  0.51100000000E-03 0. -1.
        -11    1    3    3    0    0 -0.58347732389E+01 -0.62830016412E+01  0.83722974303E+01  0.11983991526E+02  0.51100000000E-03 0.  1.
         12    1    3    3    0    0  0.10993266574E+02 -0.13083060046E+02  0.23851416379E+02  0.29341241170E+02  0.00000000000E+00 0. -1.
</event>
<event>
 7    1  0.8440037E-011  0.4778727E+02  0.7816164E-02  0.1312668E+00
        -11   -1    0    0    0    0  0.00000000000E+00  0.00000000000E+00  0.45593999997E+02  0.45594000000E+02  0.51100000000E-03 0. -1.
         11   -1    0    0    0    0 -0.00000000000E+00 -0.00000000000E+00 -0.45593999997E+02  0.45594000000E+02  0.51100000000E-03 0.  1.
    9900012    2    1    2    0    0 -0.12364620110E+02  0.17686273988E+02 -0.37655481770E+02  0.47787269299E+02  0.19999992040E+02 0.  0.
         12    1    1    2    0    0  0.12364620110E+02 -0.17686273988E+02  0.37655481770E+02  0.43400730701E+02  0.00000000000E+00 0. -1.
         11    1    3    3    0    0 -0.35846615096E+01  0.16185929965E+02 -0.19204698628E+02  0.25370348375E+02  0.51100000000E-03 0.  1.
        -11    1    3    3    0    0  0.11237957565E+01  0.59368456511E+00  0.19387040605E+00  0.12856765770E+01  0.51100000000E-03 0. -1.
        -12    1    3    3    0    0 -0.99037543566E+01  0.90665945810E+00 -0.18644653548E+02  0.21131244347E+02  0.00000000000E+00 0.  1.
</event>
<event>
 7    1  0.8440037E-011  0.4778726E+02  0.7816164E-02  0.1312668E+00
        -11   -1    0    0    0    0  0.00000000000E+00  0.00000000000E+00  0.45593999997E+02  0.45594000000E+02  0.51100000000E-03 0. -1.
         11   -1    0    0    0    0 -0.00000000000E+00 -0.00000000000E+00 -0.45593999997E+02  0.45594000000E+02  0.51100000000E-03 0.  1.
    9900012    2    1    2    0    0 -0.67211343095E+01  0.15931164892E+02 -0.39807644013E+02  0.47787260570E+02  0.19999952241E+02 0.  0.
         12    1    1    2    0    0  0.67211343095E+01 -0.15931164892E+02  0.39807644013E+02  0.43400739430E+02  0.00000000000E+00 0. -1.
         11    1    3    3    0    0 -0.32486677062E+01  0.15758149530E+01 -0.41568521291E+01  0.55060380053E+01  0.51100000000E-03 0. -1.
        -11    1    3    3    0    0 -0.56795682281E+01  0.16754619879E+02 -0.21918525549E+02  0.28167295664E+02  0.51100000000E-03 0.  1.
         12    1    3    3    0    0  0.22071016248E+01 -0.23992699407E+01 -0.13732266335E+02  0.14113926900E+02  0.00000000000E+00 0. -1.
</event>
<event>
 7    1  0.8440037E-011  0.4778727E+02  0.7816164E-02  0.1312668E+00
        -11   -1    0    0    0    0  0.00000000000E+00  0.00000000000E+00  0.45593999997E+02  0.45594000000E+02  0.51100000000E-03 0. -1.
         11   -1    0    0    0    0 -0.00000000000E+00 -0.00000000000E+00 -0.45593999997E+02  0.45594000000E+02  0.51100000000E-03 0.  1.
    9900012    2    1    2    0    0 -0.23610750603E+02  0.27631743561E+02 -0.23720082469E+02  0.47787272948E+02  0.20000008681E+02 0.  0.
         12    1    1    2    0    0  0.23610750603E+02 -0.27631743561E+02  0.23720082469E+02  0.43400727052E+02  0.00000000000E+00 0. -1.
         11    1    3    3    0    0 -0.64058862994E+01  0.10526721710E+00 -0.26919121886E+01  0.69493058617E+01  0.51100000000E-03 0. -1.
        -11    1    3    3    0    0 -0.94736606743E+01  0.59629733657E+01 -0.27371748818E+01  0.11523863264E+02  0.51100000000E-03 0.  1.
        -12    1    3    3    0    0 -0.77312036292E+01  0.21563502979E+02 -0.18290995399E+02  0.29314103823E+02  0.00000000000E+00 0.  1.
</event>
<event>
 7    1  0.8440037E-011  0.4778728E+02  0.7816164E-02  0.1312668E+00
        -11   -1    0    0    0    0  0.00000000000E+00  0.00000000000E+00  0.45593999997E+02  0.45594000000E+02  0.51100000000E-03 0. -1.
         11   -1    0    0    0    0 -0.00000000000E+00 -0.00000000000E+00 -0.45593999997E+02  0.45594000000E+02  0.51100000000E-03 0.  1.
    9900012    2    1    2    0    0 -0.22089150740E+02  0.29627913698E+02  0.22756950823E+02  0.47787278102E+02  0.20000032176E+02 0.  0.
        -12    1    1    2    0    0  0.22089150740E+02 -0.29627913698E+02 -0.22756950823E+02  0.43400721898E+02  0.00000000000E+00 0.  1.
         11    1    3    3    0    0 -0.40178006988E+01  0.15572443800E+02  0.10187155521E+02  0.19037380760E+02  0.51100000000E-03 0. -1.
        -11    1    3    3    0    0 -0.19367453387E+01  0.83717512624E+01  0.27337617526E+01  0.90172421110E+01  0.51100000000E-03 0.  1.
        -12    1    3    3    0    0 -0.16134604702E+02  0.56837186364E+01  0.98360335503E+01  0.19732655230E+02  0.00000000000E+00 0.  1.
</event>
<event>
 7    1  0.8440037E-011  0.4778728E+02  0.7816164E-02  0.1312668E+00
        -11   -1    0    0    0    0  0.00000000000E+00  0.00000000000E+00  0.45593999997E+02  0.45594000000E+02  0.51100000000E-03 0. -1.
         11   -1    0    0    0    0 -0.00000000000E+00 -0.00000000000E+00 -0.45593999997E+02  0.45594000000E+02  0.51100000000E-03 0.  1.
    9900012    2    1    2    0    0 -0.20629217160E+02 -0.25287439281E+02 -0.28611251767E+02  0.47787275194E+02  0.20000018918E+02 0.  0.
         12    1    1    2    0    0  0.20629217160E+02  0.25287439281E+02  0.28611251767E+02  0.43400724806E+02  0.00000000000E+00 0. -1.
         11    1    3    3    0    0  0.61399282579E+00 -0.41173549869E+01 -0.34646088874E+01  0.54160053806E+01  0.51100000000E-03 0. -1.
        -11    1    3    3    0    0 -0.15788077012E+02 -0.10758358674E+02 -0.62208585930E+01  0.20092405008E+02  0.51100000000E-03 0.  1.
        -12    1    3    3    0    0 -0.54551329733E+01 -0.10411725620E+02 -0.18925784286E+02  0.22278864805E+02  0.00000000000E+00 0.  1.
</event>
<event>
 7    1  0.8440037E-011  0.4778728E+02  0.7816164E-02  0.1312668E+00
        -11   -1    0    0    0    0  0.00000000000E+00  0.00000000000E+00  0.45593999997E+02  0.45594000000E+02  0.51100000000E-03 0. -1.
         11   -1    0    0    0    0 -0.00000000000E+00 -0.00000000000E+00 -0.45593999997E+02  0.45594000000E+02  0.51100000000E-03 0.  1.
    9900012    2    1    2    0    0 -0.18431687038E+02 -0.42795425870E+01 -0.39058681644E+02  0.47787283605E+02  0.20000057270E+02 0.  0.
         12    1    1    2    0    0  0.18431687038E+02  0.42795425870E+01  0.39058681644E+02  0.43400716395E+02  0.00000000000E+00 0. -1.
         11    1    3    3    0    0  0.10248143375E+01  0.22171173191E+01 -0.88213818200E+00  0.25969254257E+01  0.51100000000E-03 0. -1.
        -11    1    3    3    0    0 -0.97995808214E+01 -0.54556334793E+01 -0.88190681462E+01  0.14267854925E+02  0.51100000000E-03 0.  1.
        -12    1    3    3    0    0 -0.96569205539E+01 -0.10410264269E+01 -0.29357475316E+02  0.30922503255E+02  0.00000000000E+00 0.  1.
</event>
<event>
 7    1  0.8440037E-011  0.4778727E+02  0.7816164E-02  0.1312668E+00
        -11   -1    0    0    0    0  0.00000000000E+00  0.00000000000E+00  0.45593999997E+02  0.45594000000E+02  0.51100000000E-03 0. -1.
         11   -1    0    0    0    0 -0.00000000000E+00 -0.00000000000E+00 -0.45593999997E+02  0.45594000000E+02  0.51100000000E-03 0.  1.
    9900012    2    1    2    0    0 -0.26844603922E+02  0.28305167993E+02 -0.19021244228E+02  0.47787273891E+02  0.20000012976E+02 0.  0.
         12    1    1    2    0    0  0.26844603922E+02 -0.28305167993E+02  0.19021244228E+02  0.43400726109E+02  0.00000000000E+00 0. -1.
         11    1    3    3    0    0 -0.50855557971E+01  0.13751963727E+00 -0.51509981428E+01  0.72397908495E+01  0.51100000000E-03 0. -1.
        -11    1    3    3    0    0 -0.20275108410E+02  0.17382294741E+02 -0.12778303739E+02  0.29605898706E+02  0.51100000000E-03 0.  1.
         12    1    3    3    0    0 -0.14839397152E+01  0.10785353615E+02 -0.10919423470E+01  0.10941584335E+02  0.00000000000E+00 0. -1.
</event>
<event>
 7    1  0.8440037E-011  0.4778727E+02  0.7816164E-02  0.1312668E+00
        -11   -1    0    0    0    0  0.00000000000E+00  0.00000000000E+00  0.45593999997E+02  0.45594000000E+02  0.51100000000E-03 0. -1.
         11   -1    0    0    0    0 -0.00000000000E+00 -0.00000000000E+00 -0.45593999997E+02  0.45594000000E+02  0.51100000000E-03 0.  1.
    9900012    2    1    2    0    0 -0.19563899423E+02  0.20578060168E+02  0.32824089123E+02  0.47787267890E+02  0.19999985620E+02 0.  0.
        -12    1    1    2    0    0  0.19563899423E+02 -0.20578060168E+02 -0.32824089123E+02  0.43400732110E+02  0.00000000000E+00 0.  1.
         11    1    3    3    0    0 -0.34086433288E+01  0.30433669333E+01  0.73808571853E+00  0.46287906004E+01  0.51100000000E-03 0. -1.
        -11    1    3    3    0    0 -0.28031831323E-01 -0.16389900137E+00  0.11729128366E+02  0.11730306951E+02  0.51100000000E-03 0.  1.
         12    1    3    3    0    0 -0.16127224263E+02  0.17698592236E+02  0.20356875038E+02  0.31428170339E+02  0.00000000000E+00 0. -1.
</event>
<event>
 7    1  0.8440037E-011  0.4778732E+02  0.7816164E-02  0.1312668E+00
        -11   -1    0    0    0    0  0.00000000000E+00  0.00000000000E+00  0.45593999997E+02  0.45594000000E+02  0.51100000000E-03 0. -1.
         11   -1    0    0    0    0 -0.00000000000E+00 -0.00000000000E+00 -0.45593999997E+02  0.45594000000E+02  0.51100000000E-03 0.  1.
    9900012    2    1    2    0    0  0.20259527319E+02 -0.47122134190E+01  0.38091544250E+02  0.47787318602E+02  0.20000216832E+02 0.  0.
        -12    1    1    2    0    0 -0.20259527319E+02  0.47122134190E+01 -0.38091544250E+02  0.43400681398E+02  0.00000000000E+00 0.  1.
         11    1    3    3    0    0  0.42545166071E+01 -0.18927060972E+01  0.19364472514E+02  0.19916476695E+02  0.51100000000E-03 0. -1.
        -11    1    3    3    0    0  0.45362086214E+01  0.43914196281E+01  0.97619081604E+01  0.11625687343E+02  0.51100000000E-03 0.  1.
        -12    1    3    3    0    0  0.11468802091E+02 -0.72109269498E+01  0.89651635749E+01  0.16245154564E+02  0.00000000000E+00 0.  1.
</event>
<event>
 7    1  0.8440037E-011  0.4778727E+02  0.7816164E-02  0.1312668E+00
        -11   -1    0    0    0    0  0.00000000000E+00  0.00000000000E+00  0.45593999997E+02  0.45594000000E+02  0.51100000000E-03 0. -1.
         11   -1    0    0    0    0 -0.00000000000E+00 -0.00000000000E+00 -0.45593999997E+02  0.45594000000E+02  0.51100000000E-03 0.  1.
    9900012    2    1    2    0    0 -0.56301551686E+01  0.18639035618E+02  0.38788024916E+02  0.47787272208E+02  0.20000005305E+02 0.  0.
        -12    1    1    2    0    0  0.56301551686E+01 -0.18639035618E+02 -0.38788024916E+02  0.43400727792E+02  0.00000000000E+00 0.  1.
         11    1    3    3    0    0 -0.34474237541E+01  0.10178367297E+02  0.19344779377E+02  0.22129265256E+02  0.51100000000E-03 0. -1.
        -11    1    3    3    0    0 -0.61601119372E+01  0.79073640851E+01  0.61234916694E+01  0.11746086001E+02  0.51100000000E-03 0.  1.
        -12    1    3    3    0    0  0.39773805227E+01  0.55330423572E+00  0.13319753870E+02  0.13911920951E+02  0.00000000000E+00 0.  1.
</event>
<event>
 7    1  0.8440037E-011  0.4778727E+02  0.7816164E-02  0.1312668E+00
        -11   -1    0    0    0    0  0.00000000000E+00  0.00000000000E+00  0.45593999997E+02  0.45594000000E+02  0.51100000000E-03 0. -1.
         11   -1    0    0    0    0 -0.00000000000E+00 -0.00000000000E+00 -0.45593999997E+02  0.45594000000E+02  0.51100000000E-03 0.  1.
    9900012    2    1    2    0    0  0.28357287709E+02 -0.31796575083E+02 -0.82743980025E+01  0.47787267108E+02  0.19999982053E+02 0.  0.
         12    1    1    2    0    0 -0.28357287709E+02  0.31796575083E+02  0.82743980025E+01  0.43400732892E+02  0.00000000000E+00 0. -1.
         11    1    3    3    0    0  0.51189952379E+01 -0.45934911000E+01  0.13210244185E+01  0.70035261481E+01  0.51100000000E-03 0. -1.
        -11    1    3    3    0    0  0.11994781051E+02 -0.37600488858E+01 -0.76411635518E+01  0.14710544544E+02  0.51100000000E-03 0.  1.
        -12    1    3    3    0    0  0.11243511420E+02 -0.23443035097E+02 -0.19542588692E+01  0.26073196416E+02  0.00000000000E+00 0.  1.
</event>
<event>
 7    1  0.8440037E-011  0.4778727E+02  0.7816164E-02  0.1312668E+00
        -11   -1    0    0    0    0  0.00000000000E+00  0.00000000000E+00  0.45593999997E+02  0.45594000000E+02  0.51100000000E-03 0. -1.
         11   -1    0    0    0    0 -0.00000000000E+00 -0.00000000000E+00 -0.45593999997E+02  0.45594000000E+02  0.51100000000E-03 0.  1.
    9900012    2    1    2    0    0  0.18895086070E+02  0.15867377956E+02 -0.35704695567E+02  0.47787271362E+02  0.20000001446E+02 0.  0.
         12    1    1    2    0    0 -0.18895086070E+02 -0.15867377956E+02  0.35704695567E+02  0.43400728638E+02  0.00000000000E+00 0. -1.
         11    1    3    3    0    0  0.26187004517E+01  0.78580603534E+01 -0.52434091464E+01  0.98030630066E+01  0.51100000000E-03 0. -1.
        -11    1    3    3    0    0  0.13229009081E+02  0.11390043853E+02 -0.19826992500E+02  0.26416839556E+02  0.51100000000E-03 0.  1.
        -12    1    3    3    0    0  0.30473765369E+01 -0.33807262509E+01 -0.10634293921E+02  0.11567368799E+02  0.00000000000E+00 0.  1.
</event>
<event>
 7    1  0.8440037E-011  0.4778727E+02  0.7816164E-02  0.1312668E+00
        -11   -1    0    0    0    0  0.00000000000E+00  0.00000000000E+00  0.45593999997E+02  0.45594000000E+02  0.51100000000E-03 0.  1.
         11   -1    0    0    0    0 -0.00000000000E+00 -0.00000000000E+00 -0.45593999997E+02  0.45594000000E+02  0.51100000000E-03 0. -1.
    9900012    2    1    2    0    0  0.40397710242E+02 -0.82481695712E+01 -0.13550495420E+02  0.47787271663E+02  0.20000002821E+02 0.  0.
         12    1    1    2    0    0 -0.40397710242E+02  0.82481695712E+01  0.13550495420E+02  0.43400728337E+02  0.00000000000E+00 0. -1.
         11    1    3    3    0    0  0.22306253302E+02 -0.46562072296E+01 -0.45520712933E+01  0.23237266522E+02  0.51100000000E-03 0. -1.
        -11    1    3    3    0    0  0.81126827467E+01 -0.84372984534E+01 -0.53776968516E+01  0.12881119914E+02  0.51100000000E-03 0.  1.
         12    1    3    3    0    0  0.99787741935E+01  0.48453361118E+01 -0.36207272751E+01  0.11668885227E+02  0.00000000000E+00 0. -1.
</event>
<event>
 7    1  0.8440037E-011  0.4778727E+02  0.7816164E-02  0.1312668E+00
        -11   -1    0    0    0    0  0.00000000000E+00  0.00000000000E+00  0.45593999997E+02  0.45594000000E+02  0.51100000000E-03 0.  1.
         11   -1    0    0    0    0 -0.00000000000E+00 -0.00000000000E+00 -0.45593999997E+02  0.45594000000E+02  0.51100000000E-03 0. -1.
    9900012    2    1    2    0    0 -0.29772515922E+01  0.42094010450E+02  0.10141666777E+02  0.47787272496E+02  0.20000006619E+02 0.  0.
         12    1    1    2    0    0  0.29772515922E+01 -0.42094010450E+02 -0.10141666777E+02  0.43400727504E+02  0.00000000000E+00 0. -1.
         11    1    3    3    0    0 -0.57377609056E+01  0.13691931104E+02  0.11940640526E+01  0.14893510895E+02  0.51100000000E-03 0. -1.
        -11    1    3    3    0    0  0.19055355334E+01  0.29662371332E+02  0.72143669234E+01  0.30586507304E+02  0.51100000000E-03 0.  1.
        -12    1    3    3    0    0  0.85497378003E+00 -0.12602919848E+01  0.17332358011E+01  0.23072542975E+01  0.00000000000E+00 0.  1.
</event>
<event>
 7    1  0.8440037E-011  0.4778727E+02  0.7816164E-02  0.1312668E+00
        -11   -1    0    0    0    0  0.00000000000E+00  0.00000000000E+00  0.45593999997E+02  0.45594000000E+02  0.51100000000E-03 0. -1.
         11   -1    0    0    0    0 -0.00000000000E+00 -0.00000000000E+00 -0.45593999997E+02  0.45594000000E+02  0.51100000000E-03 0.  1.
    9900012    2    1    2    0    0 -0.88204958936E+01  0.19162622901E+00 -0.42494533318E+02  0.47787271546E+02  0.20000002288E+02 0.  0.
         12    1    1    2    0    0  0.88204958936E+01 -0.19162622901E+00  0.42494533318E+02  0.43400728454E+02  0.00000000000E+00 0. -1.
         11    1    3    3    0    0  0.39119267755E+01  0.13965232043E+01 -0.73595863513E+01  0.84508555591E+01  0.51100000000E-03 0. -1.
        -11    1    3    3    0    0 -0.14744548928E+01  0.44933962882E+01 -0.64410538180E+01  0.79907322556E+01  0.51100000000E-03 0.  1.
        -12    1    3    3    0    0 -0.11257967776E+02 -0.56982932635E+01 -0.28693893149E+02  0.31345683732E+02  0.00000000000E+00 0.  1.
</event>
<event>
 7    1  0.8440037E-011  0.4778727E+02  0.7816164E-02  0.1312668E+00
        -11   -1    0    0    0    0  0.00000000000E+00  0.00000000000E+00  0.45593999997E+02  0.45594000000E+02  0.51100000000E-03 0.  1.
         11   -1    0    0    0    0 -0.00000000000E+00 -0.00000000000E+00 -0.45593999997E+02  0.45594000000E+02  0.51100000000E-03 0. -1.
    9900012    2    1    2    0    0 -0.31067453615E+02  0.28445848444E+02 -0.10453233823E+02  0.47787273449E+02  0.20000010963E+02 0.  0.
         12    1    1    2    0    0  0.31067453615E+02 -0.28445848444E+02  0.10453233823E+02  0.43400726551E+02  0.00000000000E+00 0. -1.
         11    1    3    3    0    0 -0.10028365747E+01  0.95156797100E+01 -0.58250370530E+01  0.11202004217E+02  0.51100000000E-03 0. -1.
        -11    1    3    3    0    0 -0.55281810810E+01  0.72038661140E+01 -0.16339272344E+01  0.92263856153E+01  0.51100000000E-03 0.  1.
        -12    1    3    3    0    0 -0.24536435959E+02  0.11726302620E+02 -0.29942695358E+01  0.27358883617E+02  0.00000000000E+00 0.  1.
</event>
<event>
 7    1  0.8440037E-011  0.4778728E+02  0.7816164E-02  0.1312668E+00
        -11   -1    0    0    0    0  0.00000000000E+00  0.00000000000E+00  0.45593999997E+02  0.45594000000E+02  0.51100000000E-03 0. -1.
         11   -1    0    0    0    0 -0.00000000000E+00 -0.00000000000E+00 -0.45593999997E+02  0.45594000000E+02  0.51100000000E-03 0.  1.
    9900012    2    1    2    0    0 -0.16634957029E+02 -0.39467857027E+01  0.39891401007E+02  0.47787276653E+02  0.20000025572E+02 0.  0.
        -12    1    1    2    0    0  0.16634957029E+02  0.39467857027E+01 -0.39891401007E+02  0.43400723347E+02  0.00000000000E+00 0.  1.
         11    1    3    3    0    0 -0.77573472566E+01 -0.42590846928E+01  0.25796719819E+02  0.27272458498E+02  0.51100000000E-03 0. -1.
        -11    1    3    3    0    0  0.12338376535E+01 -0.26622078730E+01  0.75701202140E+01  0.81188931776E+01  0.51100000000E-03 0.  1.
        -12    1    3    3    0    0 -0.10111447426E+02  0.29745068631E+01  0.65245609745E+01  0.12395924977E+02  0.00000000000E+00 0.  1.
</event>
<event>
 7    1  0.8440037E-011  0.4778727E+02  0.7816164E-02  0.1312668E+00
        -11   -1    0    0    0    0  0.00000000000E+00  0.00000000000E+00  0.45593999997E+02  0.45594000000E+02  0.51100000000E-03 0. -1.
         11   -1    0    0    0    0 -0.00000000000E+00 -0.00000000000E+00 -0.45593999997E+02  0.45594000000E+02  0.51100000000E-03 0.  1.
    9900012    2    1    2    0    0 -0.43667630154E+01 -0.21389678745E+02 -0.37510480088E+02  0.47787273134E+02  0.20000009528E+02 0.  0.
         12    1    1    2    0    0  0.43667630154E+01  0.21389678745E+02  0.37510480088E+02  0.43400726866E+02  0.00000000000E+00 0. -1.
         11    1    3    3    0    0 -0.17372439059E+01 -0.44091545365E+01 -0.91706429808E+01  0.10322758985E+02  0.51100000000E-03 0. -1.
        -11    1    3    3    0    0 -0.58661675316E+01 -0.14583415896E+02 -0.29365808655E+02  0.33308237103E+02  0.51100000000E-03 0.  1.
         12    1    3    3    0    0  0.32366484221E+01 -0.23971083129E+01  0.10259715476E+01  0.41562770467E+01  0.00000000000E+00 0. -1.
</event>
<event>
 7    1  0.8440037E-011  0.4778728E+02  0.7816164E-02  0.1312668E+00
        -11   -1    0    0    0    0  0.00000000000E+00  0.00000000000E+00  0.45593999997E+02  0.45594000000E+02  0.51100000000E-03 0. -1.
         11   -1    0    0    0    0 -0.00000000000E+00 -0.00000000000E+00 -0.45593999997E+02  0.45594000000E+02  0.51100000000E-03 0.  1.
    9900012    2    1    2    0    0 -0.28168576692E+01 -0.23088296295E+02 -0.36641753792E+02  0.47787283026E+02  0.20000054627E+02 0.  0.
         12    1    1    2    0    0  0.28168576692E+01  0.23088296295E+02  0.36641753792E+02  0.43400716974E+02  0.00000000000E+00 0. -1.
         11    1    3    3    0    0 -0.26100574365E+01 -0.13584211874E+02 -0.10931355380E+02  0.17630591107E+02  0.51100000000E-03 0. -1.
        -11    1    3    3    0    0 -0.51960892645E+01 -0.88507165172E+01 -0.13564371458E+02  0.17009606104E+02  0.51100000000E-03 0.  1.
         12    1    3    3    0    0  0.49892890318E+01 -0.65336790393E+00 -0.12146026954E+02  0.13147085815E+02  0.00000000000E+00 0. -1.
</event>
<event>
 7    1  0.8440037E-011  0.4778727E+02  0.7816164E-02  0.1312668E+00
        -11   -1    0    0    0    0  0.00000000000E+00  0.00000000000E+00  0.45593999997E+02  0.45594000000E+02  0.51100000000E-03 0. -1.
         11   -1    0    0    0    0 -0.00000000000E+00 -0.00000000000E+00 -0.45593999997E+02  0.45594000000E+02  0.51100000000E-03 0.  1.
    9900012    2    1    2    0    0 -0.12480419374E+02  0.10995676248E+02 -0.40086877300E+02  0.47787268491E+02  0.19999988357E+02 0.  0.
         12    1    1    2    0    0  0.12480419374E+02 -0.10995676248E+02  0.40086877300E+02  0.43400731509E+02  0.00000000000E+00 0. -1.
         11    1    3    3    0    0  0.50569315080E+00 -0.76346848855E-01  0.20038828951E+00  0.54928146864E+00  0.51100000000E-03 0. -1.
        -11    1    3    3    0    0 -0.98726039013E+01 -0.22138274455E+01 -0.23629670148E+02  0.25704681506E+02  0.51100000000E-03 0.  1.
        -12    1    3    3    0    0 -0.31135086232E+01  0.13285850542E+02 -0.16657595441E+02  0.21533305516E+02  0.00000000000E+00 0.  1.
</event>
<event>
 7    1  0.8440037E-011  0.4778727E+02  0.7816164E-02  0.1312668E+00
        -11   -1    0    0    0    0  0.00000000000E+00  0.00000000000E+00  0.45593999997E+02  0.45594000000E+02  0.51100000000E-03 0. -1.
         11   -1    0    0    0    0 -0.00000000000E+00 -0.00000000000E+00 -0.45593999997E+02  0.45594000000E+02  0.51100000000E-03 0.  1.
    9900012    2    1    2    0    0  0.15469643577E+02  0.18221123041E+02 -0.36225737463E+02  0.47787271296E+02  0.20000001149E+02 0.  0.
         12    1    1    2    0    0 -0.15469643577E+02 -0.18221123041E+02  0.36225737463E+02  0.43400728704E+02  0.00000000000E+00 0. -1.
         11    1    3    3    0    0  0.20436463331E+01  0.13672305262E+01 -0.12779820070E+02  0.13014208041E+02  0.51100000000E-03 0. -1.
        -11    1    3    3    0    0  0.50653308860E+01  0.14703696046E+02 -0.20327830801E+02  0.25594471273E+02  0.51100000000E-03 0.  1.
         12    1    3    3    0    0  0.83606663576E+01  0.21501964686E+01 -0.31180865927E+01  0.91785919833E+01  0.00000000000E+00 0. -1.
</event>
<event>
 7    1  0.8440037E-011  0.4778727E+02  0.7816164E-02  0.1312668E+00
        -11   -1    0    0    0    0  0.00000000000E+00  0.00000000000E+00  0.45593999997E+02  0.45594000000E+02  0.51100000000E-03 0.  1.
         11   -1    0    0    0    0 -0.00000000000E+00 -0.00000000000E+00 -0.45593999997E+02  0.45594000000E+02  0.51100000000E-03 0. -1.
    9900012    2    1    2    0    0  0.14013252416E+02 -0.39830358438E+02 -0.10039674216E+02  0.47787265503E+02  0.19999974732E+02 0.  0.
         12    1    1    2    0    0 -0.14013252416E+02  0.39830358438E+02  0.10039674216E+02  0.43400734497E+02  0.00000000000E+00 0. -1.
         11    1    3    3    0    0  0.12818873258E+02 -0.22365649865E+02 -0.14087628426E+02  0.29376982153E+02  0.51100000000E-03 0. -1.
        -11    1    3    3    0    0  0.13653764814E-05 -0.76700366293E+00 -0.66930878055E+00  0.10179730467E+01  0.51100000000E-03 0.  1.
        -12    1    3    3    0    0  0.11943777931E+01 -0.16697704910E+02  0.47172629899E+01  0.17392310303E+02  0.00000000000E+00 0.  1.
</event>
<event>
 7    1  0.8440037E-011  0.4778721E+02  0.7816164E-02  0.1312668E+00
        -11   -1    0    0    0    0  0.00000000000E+00  0.00000000000E+00  0.45593999997E+02  0.45594000000E+02  0.51100000000E-03 0. -1.
         11   -1    0    0    0    0 -0.00000000000E+00 -0.00000000000E+00 -0.45593999997E+02  0.45594000000E+02  0.51100000000E-03 0.  1.
    9900012    2    1    2    0    0 -0.15455160559E+02  0.12763854082E+01 -0.40535626899E+02  0.47787214342E+02  0.19999741469E+02 0.  0.
         12    1    1    2    0    0  0.15455160559E+02 -0.12763854082E+01  0.40535626899E+02  0.43400785658E+02  0.00000000000E+00 0. -1.
         11    1    3    3    0    0 -0.20773332487E+01  0.64984160967E+00 -0.11130136576E+02  0.11340967684E+02  0.51100000000E-03 0.  1.
        -11    1    3    3    0    0 -0.13666313351E+01 -0.68549468294E+01 -0.13166233531E+02  0.14906632178E+02  0.51100000000E-03 0. -1.
         12    1    3    3    0    0 -0.12011195976E+02  0.74814906280E+01 -0.16239256792E+02  0.21539614480E+02  0.00000000000E+00 0. -1.
</event>
<event>
 7    1  0.1099436E-010  0.4778728E+02  0.7816164E-02  0.1312668E+00
        -11   -1    0    0    0    0  0.00000000000E+00  0.00000000000E+00  0.45593999997E+02  0.45594000000E+02  0.51100000000E-03 0. -1.
         11   -1    0    0    0    0 -0.00000000000E+00 -0.00000000000E+00 -0.45593999997E+02  0.45594000000E+02  0.51100000000E-03 0.  1.
    9900012    2    1    2    0    0 -0.32796518748E+02 -0.11360752304E+01  0.28402814369E+02  0.47787283727E+02  0.20000057826E+02 0.  0.
        -12    1    1    2    0    0  0.32796518748E+02  0.11360752304E+01 -0.28402814369E+02  0.43400716273E+02  0.00000000000E+00 0.  1.
         11    1    3    3    0    0 -0.95721789672E+01  0.17930567031E+01  0.41360660607E+01  0.10580581517E+02  0.51100000000E-03 0. -1.
        -11    1    3    3    0    0 -0.10526376157E+01  0.18967865429E+01 -0.16756031960E+01  0.27410748751E+01  0.51100000000E-03 0.  1.
         12    1    3    3    0    0 -0.22171702165E+02 -0.48259184764E+01  0.25942351504E+02  0.34465627335E+02  0.00000000000E+00 0. -1.
</event>
<event>
 7    1  0.8440037E-011  0.4778727E+02  0.7816164E-02  0.1312668E+00
        -11   -1    0    0    0    0  0.00000000000E+00  0.00000000000E+00  0.45593999997E+02  0.45594000000E+02  0.51100000000E-03 0. -1.
         11   -1    0    0    0    0 -0.00000000000E+00 -0.00000000000E+00 -0.45593999997E+02  0.45594000000E+02  0.51100000000E-03 0.  1.
    9900012    2    1    2    0    0 -0.21010437493E+02 -0.68535291898E+01  0.37352563094E+02  0.47787270563E+02  0.19999997804E+02 0.  0.
        -12    1    1    2    0    0  0.21010437493E+02  0.68535291898E+01 -0.37352563094E+02  0.43400729437E+02  0.00000000000E+00 0.  1.
         11    1    3    3    0    0 -0.13454785945E+02 -0.57480995987E+01  0.16963969095E+02  0.22401967805E+02  0.51100000000E-03 0. -1.
        -11    1    3    3    0    0 -0.38500705499E+01 -0.33524147496E+01  0.61451467878E+00  0.51419214739E+01  0.51100000000E-03 0.  1.
         12    1    3    3    0    0 -0.37055809979E+01  0.22469851585E+01  0.19774079320E+02  0.20243381284E+02  0.00000000000E+00 0. -1.
</event>
<event>
 7    1  0.8440037E-011  0.4778727E+02  0.7816164E-02  0.1312668E+00
        -11   -1    0    0    0    0  0.00000000000E+00  0.00000000000E+00  0.45593999997E+02  0.45594000000E+02  0.51100000000E-03 0. -1.
         11   -1    0    0    0    0 -0.00000000000E+00 -0.00000000000E+00 -0.45593999997E+02  0.45594000000E+02  0.51100000000E-03 0.  1.
    9900012    2    1    2    0    0  0.21298366402E+02 -0.81345928818E+01 -0.36930089495E+02  0.47787268176E+02  0.19999986924E+02 0.  0.
         12    1    1    2    0    0 -0.21298366402E+02  0.81345928818E+01  0.36930089495E+02  0.43400731824E+02  0.00000000000E+00 0. -1.
         11    1    3    3    0    0 -0.44340566251E+00  0.32046426197E+01 -0.22386308317E+01  0.39341849427E+01  0.51100000000E-03 0. -1.
        -11    1    3    3    0    0  0.20901582416E+01 -0.39923701812E+01 -0.12623855160E+02  0.13404085217E+02  0.51100000000E-03 0.  1.
        -12    1    3    3    0    0  0.19651613823E+02 -0.73468653203E+01 -0.22067603503E+02  0.30448998017E+02  0.00000000000E+00 0.  1.
</event>
<event>
 7    1  0.8440037E-011  0.4778726E+02  0.7816164E-02  0.1312668E+00
        -11   -1    0    0    0    0  0.00000000000E+00  0.00000000000E+00  0.45593999997E+02  0.45594000000E+02  0.51100000000E-03 0. -1.
         11   -1    0    0    0    0 -0.00000000000E+00 -0.00000000000E+00 -0.45593999997E+02  0.45594000000E+02  0.51100000000E-03 0.  1.
    9900012    2    1    2    0    0 -0.11664656876E+02  0.32489612308E+02 -0.26305612795E+02  0.47787258158E+02  0.19999941245E+02 0.  0.
         12    1    1    2    0    0  0.11664656876E+02 -0.32489612308E+02  0.26305612795E+02  0.43400741842E+02  0.00000000000E+00 0. -1.
         11    1    3    3    0    0  0.73336040074E+00  0.15614292396E+02 -0.34474244818E+01  0.16007144665E+02  0.51100000000E-03 0. -1.
        -11    1    3    3    0    0 -0.56006618094E+01  0.12662661104E+02 -0.12189859945E+02  0.18447305621E+02  0.51100000000E-03 0.  1.
         12    1    3    3    0    0 -0.67973554671E+01  0.42126588076E+01 -0.10668328369E+02  0.13332807872E+02  0.00000000000E+00 0. -1.
</event>
<event>
 7    1  0.8440037E-011  0.4778726E+02  0.7816164E-02  0.1312668E+00
        -11   -1    0    0    0    0  0.00000000000E+00  0.00000000000E+00  0.45593999997E+02  0.45594000000E+02  0.51100000000E-03 0. -1.
         11   -1    0    0    0    0 -0.00000000000E+00 -0.00000000000E+00 -0.45593999997E+02  0.45594000000E+02  0.51100000000E-03 0.  1.
    9900012    2    1    2    0    0 -0.36838771235E+02 -0.13329170736E+00  0.22945831333E+02  0.47787262583E+02  0.19999961419E+02 0.  0.
        -12    1    1    2    0    0  0.36838771235E+02  0.13329170736E+00 -0.22945831333E+02  0.43400737417E+02  0.00000000000E+00 0.  1.
         11    1    3    3    0    0 -0.59025806223E+01 -0.12490619376E+01 -0.66123109730E+00  0.60694184690E+01  0.51100000000E-03 0.  1.
        -11    1    3    3    0    0 -0.30193048624E+02 -0.27930155455E+01  0.19821158870E+02  0.36225674048E+02  0.51100000000E-03 0. -1.
         12    1    3    3    0    0 -0.74314198900E+00  0.39087857758E+01  0.37859035605E+01  0.54921700653E+01  0.00000000000E+00 0. -1.
</event>
<event>
 7    1  0.8440037E-011  0.4778726E+02  0.7816164E-02  0.1312668E+00
        -11   -1    0    0    0    0  0.00000000000E+00  0.00000000000E+00  0.45593999997E+02  0.45594000000E+02  0.51100000000E-03 0. -1.
         11   -1    0    0    0    0 -0.00000000000E+00 -0.00000000000E+00 -0.45593999997E+02  0.45594000000E+02  0.51100000000E-03 0.  1.
    9900012    2    1    2    0    0 -0.26551547045E+02  0.30274078451E+02 -0.16190123332E+02  0.47787256112E+02  0.19999931916E+02 0.  0.
         12    1    1    2    0    0  0.26551547045E+02 -0.30274078451E+02  0.16190123332E+02  0.43400743888E+02  0.00000000000E+00 0. -1.
         11    1    3    3    0    0 -0.68604122481E+01 -0.15614807872E+01 -0.24376447357E+01  0.74461795964E+01  0.51100000000E-03 0. -1.
        -11    1    3    3    0    0 -0.38556574130E+01  0.87284060228E+01 -0.60145345702E+01  0.11279441127E+02  0.51100000000E-03 0.  1.
        -12    1    3    3    0    0 -0.15835477384E+02  0.23107153215E+02 -0.77379440260E+01  0.29061635388E+02  0.00000000000E+00 0.  1.
</event>
<event>
 7    1  0.8440037E-011  0.4778727E+02  0.7816164E-02  0.1312668E+00
        -11   -1    0    0    0    0  0.00000000000E+00  0.00000000000E+00  0.45593999997E+02  0.45594000000E+02  0.51100000000E-03 0.  1.
         11   -1    0    0    0    0 -0.00000000000E+00 -0.00000000000E+00 -0.45593999997E+02  0.45594000000E+02  0.51100000000E-03 0. -1.
    9900012    2    1    2    0    0  0.11737504704E+02  0.29519697610E+02 -0.29570959732E+02  0.47787271629E+02  0.20000002666E+02 0.  0.
         12    1    1    2    0    0 -0.11737504704E+02 -0.29519697610E+02  0.29570959732E+02  0.43400728371E+02  0.00000000000E+00 0. -1.
         11    1    3    3    0    0  0.16628984021E+01  0.11884458024E+01 -0.92938402757E+01  0.95159393573E+01  0.51100000000E-03 0. -1.
        -11    1    3    3    0    0  0.28215179645E+01  0.30626491952E+01 -0.84993184729E+01  0.94646288085E+01  0.51100000000E-03 0.  1.
        -12    1    3    3    0    0  0.72530883370E+01  0.25268602613E+02 -0.11777800983E+02  0.28806703463E+02  0.00000000000E+00 0.  1.
</event>
<event>
 7    1  0.8440037E-011  0.4778727E+02  0.7816164E-02  0.1312668E+00
        -11   -1    0    0    0    0  0.00000000000E+00  0.00000000000E+00  0.45593999997E+02  0.45594000000E+02  0.51100000000E-03 0. -1.
         11   -1    0    0    0    0 -0.00000000000E+00 -0.00000000000E+00 -0.45593999997E+02  0.45594000000E+02  0.51100000000E-03 0.  1.
    9900012    2    1    2    0    0  0.25046098121E+02  0.22669575962E+02  0.27247144003E+02  0.47787267729E+02  0.19999984882E+02 0.  0.
        -12    1    1    2    0    0 -0.25046098121E+02 -0.22669575962E+02 -0.27247144003E+02  0.43400732271E+02  0.00000000000E+00 0.  1.
         11    1    3    3    0    0  0.20383885700E+02  0.83981508741E+01  0.18807460213E+02  0.28978479847E+02  0.51100000000E-03 0. -1.
        -11    1    3    3    0    0  0.58302241092E+01  0.59557744603E+01  0.51048976643E+01  0.97735737072E+01  0.51100000000E-03 0.  1.
        -12    1    3    3    0    0 -0.11680116886E+01  0.83156506278E+01  0.33347861257E+01  0.90352141742E+01  0.00000000000E+00 0.  1.
</event>
<event>
 7    1  0.8440037E-011  0.4778727E+02  0.7816164E-02  0.1312668E+00
        -11   -1    0    0    0    0  0.00000000000E+00  0.00000000000E+00  0.45593999997E+02  0.45594000000E+02  0.51100000000E-03 0.  1.
         11   -1    0    0    0    0 -0.00000000000E+00 -0.00000000000E+00 -0.45593999997E+02  0.45594000000E+02  0.51100000000E-03 0. -1.
    9900012    2    1    2    0    0 -0.32156728668E+02  0.27254100630E+02 -0.10333543586E+02  0.47787270481E+02  0.19999997430E+02 0.  0.
         12    1    1    2    0    0  0.32156728668E+02 -0.27254100630E+02  0.10333543586E+02  0.43400729519E+02  0.00000000000E+00 0. -1.
         11    1    3    3    0    0 -0.41017693565E+00  0.30382088239E+01  0.20191053014E+01  0.36709323687E+01  0.51100000000E-03 0. -1.
        -11    1    3    3    0    0 -0.12003557623E+02  0.18232835847E+01 -0.62119114589E+01  0.13638093813E+02  0.51100000000E-03 0.  1.
        -12    1    3    3    0    0 -0.19742994110E+02  0.22392608221E+02 -0.61407374282E+01  0.30478244299E+02  0.00000000000E+00 0.  1.
</event>
<event>
 7    1  0.8440037E-011  0.4778727E+02  0.7816164E-02  0.1312668E+00
        -11   -1    0    0    0    0  0.00000000000E+00  0.00000000000E+00  0.45593999997E+02  0.45594000000E+02  0.51100000000E-03 0. -1.
         11   -1    0    0    0    0 -0.00000000000E+00 -0.00000000000E+00 -0.45593999997E+02  0.45594000000E+02  0.51100000000E-03 0.  1.
    9900012    2    1    2    0    0 -0.26837290696E+02  0.14282599457E+02 -0.30974033022E+02  0.47787267969E+02  0.19999985979E+02 0.  0.
         12    1    1    2    0    0  0.26837290696E+02 -0.14282599457E+02  0.30974033022E+02  0.43400732031E+02  0.00000000000E+00 0. -1.
         11    1    3    3    0    0 -0.10167406480E+02  0.10203196376E+02 -0.70593608984E+01  0.16041070643E+02  0.51100000000E-03 0. -1.
        -11    1    3    3    0    0 -0.83900137512E+01 -0.84362007497E+00 -0.34179107867E+01  0.90986889156E+01  0.51100000000E-03 0.  1.
        -12    1    3    3    0    0 -0.82798704644E+01  0.49230231558E+01 -0.20496761337E+02  0.22647508411E+02  0.00000000000E+00 0.  1.
</event>
<event>
 7    1  0.8440037E-011  0.4778729E+02  0.7816164E-02  0.1312668E+00
        -11   -1    0    0    0    0  0.00000000000E+00  0.00000000000E+00  0.45593999997E+02  0.45594000000E+02  0.51100000000E-03 0. -1.
         11   -1    0    0    0    0 -0.00000000000E+00 -0.00000000000E+00 -0.45593999997E+02  0.45594000000E+02  0.51100000000E-03 0.  1.
    9900012    2    1    2    0    0  0.72044136431E+01 -0.16810579678E+02 -0.39358894647E+02  0.47787288568E+02  0.20000079895E+02 0.  0.
         12    1    1    2    0    0 -0.72044136431E+01  0.16810579678E+02  0.39358894647E+02  0.43400711432E+02  0.00000000000E+00 0. -1.
         11    1    3    3    0    0 -0.24846092470E+01 -0.30159026411E+01 -0.10675782685E+02  0.11368433843E+02  0.51100000000E-03 0. -1.
        -11    1    3    3    0    0  0.13535501103E+02 -0.10859366630E+02 -0.20002760618E+02  0.26481051080E+02  0.51100000000E-03 0.  1.
        -12    1    3    3    0    0 -0.38464782127E+01 -0.29353104069E+01 -0.86803513438E+01  0.99378036445E+01  0.00000000000E+00 0.  1.
</event>
<event>
 7    1  0.8440037E-011  0.4778724E+02  0.7816164E-02  0.1312668E+00
        -11   -1    0    0    0    0  0.00000000000E+00  0.00000000000E+00  0.45593999997E+02  0.45594000000E+02  0.51100000000E-03 0. -1.
         11   -1    0    0    0    0 -0.00000000000E+00 -0.00000000000E+00 -0.45593999997E+02  0.45594000000E+02  0.51100000000E-03 0.  1.
    9900012    2    1    2    0    0 -0.52103260663E+01 -0.10207987548E+01  0.43074773413E+02  0.47787243873E+02  0.19999876116E+02 0.  0.
        -12    1    1    2    0    0  0.52103260663E+01  0.10207987548E+01 -0.43074773413E+02  0.43400756127E+02  0.00000000000E+00 0.  1.
         11    1    3    3    0    0 -0.32435732231E+01  0.26756816426E+01  0.37512128992E+02  0.37747051028E+02  0.51100000000E-03 0. -1.
        -11    1    3    3    0    0 -0.19045857075E+01  0.19085601435E+01  0.23670539557E+01  0.35878953760E+01  0.51100000000E-03 0.  1.
        -12    1    3    3    0    0 -0.62167135678E-01 -0.56050405410E+01  0.31955904646E+01  0.64522974696E+01  0.00000000000E+00 0.  1.
</event>
<event>
 7    1  0.8440037E-011  0.4778727E+02  0.7816164E-02  0.1312668E+00
        -11   -1    0    0    0    0  0.00000000000E+00  0.00000000000E+00  0.45593999997E+02  0.45594000000E+02  0.51100000000E-03 0.  1.
         11   -1    0    0    0    0 -0.00000000000E+00 -0.00000000000E+00 -0.45593999997E+02  0.45594000000E+02  0.51100000000E-03 0. -1.
    9900012    2    1    2    0    0  0.33191792611E+02 -0.22199340478E+02  0.17003455139E+02  0.47787270731E+02  0.19999998572E+02 0.  0.
        -12    1    1    2    0    0 -0.33191792611E+02  0.22199340478E+02 -0.17003455139E+02  0.43400729269E+02  0.00000000000E+00 0.  1.
         11    1    3    3    0    0  0.30981611423E+01 -0.83429392475E+01  0.78306234851E+01  0.11854193443E+02  0.51100000000E-03 0. -1.
        -11    1    3    3    0    0  0.44602713767E+01 -0.48038702848E+01  0.53892265181E+01  0.84861624537E+01  0.51100000000E-03 0.  1.
         12    1    3    3    0    0  0.25633360092E+02 -0.90525309458E+01  0.37836051359E+01  0.27446914835E+02  0.00000000000E+00 0. -1.
</event>
<event>
 7    1  0.8440037E-011  0.4778729E+02  0.7816164E-02  0.1312668E+00
        -11   -1    0    0    0    0  0.00000000000E+00  0.00000000000E+00  0.45593999997E+02  0.45594000000E+02  0.51100000000E-03 0. -1.
         11   -1    0    0    0    0 -0.00000000000E+00 -0.00000000000E+00 -0.45593999997E+02  0.45594000000E+02  0.51100000000E-03 0.  1.
    9900012    2    1    2    0    0 -0.18603693597E+02 -0.21505894451E+02 -0.32787506693E+02  0.47787291403E+02  0.20000092823E+02 0.  0.
         12    1    1    2    0    0  0.18603693597E+02  0.21505894451E+02  0.32787506693E+02  0.43400708597E+02  0.00000000000E+00 0. -1.
         11    1    3    3    0    0 -0.36202479109E+01 -0.41101827055E+01 -0.18786251466E+00  0.54804278478E+01  0.51100000000E-03 0. -1.
        -11    1    3    3    0    0 -0.25925089277E+01 -0.11666543438E+02 -0.86971154847E+01  0.14780702160E+02  0.51100000000E-03 0.  1.
         12    1    3    3    0    0 -0.12390936758E+02 -0.57291683082E+01 -0.23902528693E+02  0.27526161396E+02  0.00000000000E+00 0. -1.
</event>
<event>
 7    1  0.9604570E-011  0.4778727E+02  0.7816164E-02  0.1312668E+00
        -11   -1    0    0    0    0  0.00000000000E+00  0.00000000000E+00  0.45593999997E+02  0.45594000000E+02  0.51100000000E-03 0. -1.
         11   -1    0    0    0    0 -0.00000000000E+00 -0.00000000000E+00 -0.45593999997E+02  0.45594000000E+02  0.51100000000E-03 0.  1.
    9900012    2    1    2    0    0 -0.66489420956E+01 -0.19364387444E+02  0.38267941665E+02  0.47787270843E+02  0.19999999080E+02 0.  0.
        -12    1    1    2    0    0  0.66489420956E+01  0.19364387444E+02 -0.38267941665E+02  0.43400729157E+02  0.00000000000E+00 0.  1.
         11    1    3    3    0    0 -0.49143556212E+01 -0.73848849036E+01  0.23273998600E+02  0.24907156147E+02  0.51100000000E-03 0. -1.
        -11    1    3    3    0    0 -0.33514139442E+01  0.15000509398E+01  0.38005116497E+01  0.52845072910E+01  0.51100000000E-03 0.  1.
         12    1    3    3    0    0  0.16168274698E+01 -0.13479553480E+02  0.11193431416E+02  0.17595607405E+02  0.00000000000E+00 0. -1.
</event>
<event>
 7    1  0.8440037E-011  0.4778727E+02  0.7816164E-02  0.1312668E+00
        -11   -1    0    0    0    0  0.00000000000E+00  0.00000000000E+00  0.45593999997E+02  0.45594000000E+02  0.51100000000E-03 0. -1.
         11   -1    0    0    0    0 -0.00000000000E+00 -0.00000000000E+00 -0.45593999997E+02  0.45594000000E+02  0.51100000000E-03 0.  1.
    9900012    2    1    2    0    0  0.22607656840E+02  0.21554941470E+02  0.30131405124E+02  0.47787271615E+02  0.20000002603E+02 0.  0.
        -12    1    1    2    0    0 -0.22607656840E+02 -0.21554941470E+02 -0.30131405124E+02  0.43400728385E+02  0.00000000000E+00 0.  1.
         11    1    3    3    0    0  0.85043262420E+01  0.11006601889E+02  0.20538308179E+02  0.24805059023E+02  0.51100000000E-03 0. -1.
        -11    1    3    3    0    0  0.37658828687E+01  0.67514281550E+01  0.91251288796E+01  0.11959583322E+02  0.51100000000E-03 0.  1.
        -12    1    3    3    0    0  0.10337447729E+02  0.37969114258E+01  0.46796806536E+00  0.11022629270E+02  0.00000000000E+00 0.  1.
</event>
<event>
 7    1  0.8440037E-011  0.4778727E+02  0.7816164E-02  0.1312668E+00
        -11   -1    0    0    0    0  0.00000000000E+00  0.00000000000E+00  0.45593999997E+02  0.45594000000E+02  0.51100000000E-03 0. -1.
         11   -1    0    0    0    0 -0.00000000000E+00 -0.00000000000E+00 -0.45593999997E+02  0.45594000000E+02  0.51100000000E-03 0.  1.
    9900012    2    1    2    0    0 -0.25329617925E+02  0.34153771776E+02 -0.86921686026E+01  0.47787268834E+02  0.19999989920E+02 0.  0.
         12    1    1    2    0    0  0.25329617925E+02 -0.34153771776E+02  0.86921686026E+01  0.43400731166E+02  0.00000000000E+00 0. -1.
         11    1    3    3    0    0 -0.43443067938E+01  0.16743553295E+02 -0.37300057925E+01  0.17695550908E+02  0.51100000000E-03 0. -1.
        -11    1    3    3    0    0 -0.62475876866E+01  0.60654076923E+01 -0.72792556204E+01  0.11349409017E+02  0.51100000000E-03 0.  1.
         12    1    3    3    0    0 -0.14737723445E+02  0.11344810788E+02  0.23170928103E+01  0.18742308909E+02  0.00000000000E+00 0. -1.
</event>
<event>
 7    1  0.8440037E-011  0.4778728E+02  0.7816164E-02  0.1312668E+00
        -11   -1    0    0    0    0  0.00000000000E+00  0.00000000000E+00  0.45593999997E+02  0.45594000000E+02  0.51100000000E-03 0. -1.
         11   -1    0    0    0    0 -0.00000000000E+00 -0.00000000000E+00 -0.45593999997E+02  0.45594000000E+02  0.51100000000E-03 0.  1.
    9900012    2    1    2    0    0  0.30310960671E+01  0.18358290379E+02 -0.39209801347E+02  0.47787275459E+02  0.20000020128E+02 0.  0.
         12    1    1    2    0    0 -0.30310960671E+01 -0.18358290379E+02  0.39209801347E+02  0.43400724541E+02  0.00000000000E+00 0. -1.
         11    1    3    3    0    0  0.28688914415E+01  0.51357875755E+01 -0.13275775269E+02  0.14520780329E+02  0.51100000000E-03 0. -1.
        -11    1    3    3    0    0 -0.43917791056E+01  0.10791162527E+02 -0.25560643222E+02  0.28090628234E+02  0.51100000000E-03 0.  1.
         12    1    3    3    0    0  0.45539837312E+01  0.24313402769E+01 -0.37338285610E+00  0.51758668959E+01  0.00000000000E+00 0. -1.
</event>
<event>
 7    1  0.8440037E-011  0.4778726E+02  0.7816164E-02  0.1312668E+00
        -11   -1    0    0    0    0  0.00000000000E+00  0.00000000000E+00  0.45593999997E+02  0.45594000000E+02  0.51100000000E-03 0. -1.
         11   -1    0    0    0    0 -0.00000000000E+00 -0.00000000000E+00 -0.45593999997E+02  0.45594000000E+02  0.51100000000E-03 0.  1.
    9900012    2    1    2    0    0  0.14316513361E+02 -0.76761266824E+01 -0.40245979399E+02  0.47787258838E+02  0.19999944345E+02 0.  0.
         12    1    1    2    0    0 -0.14316513361E+02  0.76761266824E+01  0.40245979399E+02  0.43400741162E+02  0.00000000000E+00 0. -1.
         11    1    3    3    0    0  0.13918573549E+01 -0.48166651101E+01 -0.15921331768E+02  0.16692103978E+02  0.51100000000E-03 0. -1.
        -11    1    3    3    0    0  0.10137275371E+02 -0.99624324369E+00 -0.25565585798E+02  0.27520102289E+02  0.51100000000E-03 0.  1.
        -12    1    3    3    0    0  0.27873806354E+01 -0.18632183286E+01  0.12409381676E+01  0.35750525706E+01  0.00000000000E+00 0.  1.
</event>
<event>
 7    1  0.8440037E-011  0.4778727E+02  0.7816164E-02  0.1312668E+00
        -11   -1    0    0    0    0  0.00000000000E+00  0.00000000000E+00  0.45593999997E+02  0.45594000000E+02  0.51100000000E-03 0. -1.
         11   -1    0    0    0    0 -0.00000000000E+00 -0.00000000000E+00 -0.45593999997E+02  0.45594000000E+02  0.51100000000E-03 0.  1.
    9900012    2    1    2    0    0 -0.47425067215E+01  0.67256785540E+01 -0.42613348984E+02  0.47787266899E+02  0.19999981101E+02 0.  0.
         12    1    1    2    0    0  0.47425067215E+01 -0.67256785540E+01  0.42613348984E+02  0.43400733101E+02  0.00000000000E+00 0. -1.
         11    1    3    3    0    0 -0.30682532358E+01  0.15618177596E+01 -0.10022014648E+02  0.10596897211E+02  0.51100000000E-03 0.  1.
        -11    1    3    3    0    0  0.21110713033E+01  0.29907736122E+01  0.60316289002E+00  0.37101421240E+01  0.51100000000E-03 0. -1.
         12    1    3    3    0    0 -0.37853247891E+01  0.21730871822E+01 -0.33194497227E+02  0.33480227565E+02  0.00000000000E+00 0. -1.
</event>
<event>
 7    1  0.8440037E-011  0.4778728E+02  0.7816164E-02  0.1312668E+00
        -11   -1    0    0    0    0  0.00000000000E+00  0.00000000000E+00  0.45593999997E+02  0.45594000000E+02  0.51100000000E-03 0. -1.
         11   -1    0    0    0    0 -0.00000000000E+00 -0.00000000000E+00 -0.45593999997E+02  0.45594000000E+02  0.51100000000E-03 0.  1.
    9900012    2    1    2    0    0 -0.50911514628E+01  0.31515359905E+02  0.29402120877E+02  0.47787280591E+02  0.20000043526E+02 0.  0.
        -12    1    1    2    0    0  0.50911514628E+01 -0.31515359905E+02 -0.29402120877E+02  0.43400719409E+02  0.00000000000E+00 0.  1.
         11    1    3    3    0    0 -0.13239865300E+01  0.54617368835E+01  0.18824963645E+01  0.59268290796E+01  0.51100000000E-03 0. -1.
        -11    1    3    3    0    0  0.33210103062E+01  0.20266242187E+02  0.11837923364E+02  0.23704137016E+02  0.51100000000E-03 0.  1.
        -12    1    3    3    0    0 -0.70881752391E+01  0.57873808346E+01  0.15681701149E+02  0.18156314496E+02  0.00000000000E+00 0.  1.
</event>
<event>
 7    1  0.8440037E-011  0.4778727E+02  0.7816164E-02  0.1312668E+00
        -11   -1    0    0    0    0  0.00000000000E+00  0.00000000000E+00  0.45593999997E+02  0.45594000000E+02  0.51100000000E-03 0. -1.
         11   -1    0    0    0    0 -0.00000000000E+00 -0.00000000000E+00 -0.45593999997E+02  0.45594000000E+02  0.51100000000E-03 0.  1.
    9900012    2    1    2    0    0 -0.52958980245E+01 -0.40858564783E+02 -0.13643842855E+02  0.47787270745E+02  0.19999998636E+02 0.  0.
         12    1    1    2    0    0  0.52958980245E+01  0.40858564783E+02  0.13643842855E+02  0.43400729255E+02  0.00000000000E+00 0. -1.
         11    1    3    3    0    0 -0.39989723368E+01 -0.13786112809E+02  0.19125697131E+01  0.14481250267E+02  0.51100000000E-03 0. -1.
        -11    1    3    3    0    0  0.52843363981E+00 -0.20214870873E+02 -0.54255064510E+01  0.20936961743E+02  0.51100000000E-03 0.  1.
         12    1    3    3    0    0 -0.18253593275E+01 -0.68575811010E+01 -0.10130906118E+02  0.12369058735E+02  0.00000000000E+00 0. -1.
</event>
<event>
 7    1  0.8440037E-011  0.4778727E+02  0.7816164E-02  0.1312668E+00
        -11   -1    0    0    0    0  0.00000000000E+00  0.00000000000E+00  0.45593999997E+02  0.45594000000E+02  0.51100000000E-03 0. -1.
         11   -1    0    0    0    0 -0.00000000000E+00 -0.00000000000E+00 -0.45593999997E+02  0.45594000000E+02  0.51100000000E-03 0.  1.
    9900012    2    1    2    0    0 -0.14413131058E+02 -0.19108898788E+02 -0.36204072582E+02  0.47787271535E+02  0.20000002235E+02 0.  0.
         12    1    1    2    0    0  0.14413131058E+02  0.19108898788E+02  0.36204072582E+02  0.43400728465E+02  0.00000000000E+00 0. -1.
         11    1    3    3    0    0 -0.32773788735E+01 -0.17896348721E+01 -0.24665378142E+00  0.37423045847E+01  0.51100000000E-03 0. -1.
        -11    1    3    3    0    0 -0.12239187755E+02 -0.57205598999E+01 -0.16054699730E+02  0.20982752587E+02  0.51100000000E-03 0.  1.
         12    1    3    3    0    0  0.11034355698E+01 -0.11598704016E+02 -0.19902719071E+02  0.23062214363E+02  0.00000000000E+00 0. -1.
</event>
<event>
 7    1  0.8440037E-011  0.4778727E+02  0.7816164E-02  0.1312668E+00
        -11   -1    0    0    0    0  0.00000000000E+00  0.00000000000E+00  0.45593999997E+02  0.45594000000E+02  0.51100000000E-03 0. -1.
         11   -1    0    0    0    0 -0.00000000000E+00 -0.00000000000E+00 -0.45593999997E+02  0.45594000000E+02  0.51100000000E-03 0.  1.
    9900012    2    1    2    0    0 -0.72863383467E+01  0.28877314115E+01 -0.42687161522E+02  0.47787268693E+02  0.19999989277E+02 0.  0.
         12    1    1    2    0    0  0.72863383467E+01 -0.28877314115E+01  0.42687161522E+02  0.43400731307E+02  0.00000000000E+00 0. -1.
         11    1    3    3    0    0 -0.64824355868E+01  0.29641093732E+01 -0.10298887290E+02  0.12524974858E+02  0.51100000000E-03 0. -1.
        -11    1    3    3    0    0  0.33271127680E+00  0.56216774817E+01 -0.26099968122E+02  0.26700604688E+02  0.51100000000E-03 0.  1.
        -12    1    3    3    0    0 -0.11366140367E+01 -0.56980554435E+01 -0.62883061100E+01  0.85616891463E+01  0.00000000000E+00 0.  1.
</event>
<event>
 7    1  0.8440037E-011  0.4778727E+02  0.7816164E-02  0.1312668E+00
        -11   -1    0    0    0    0  0.00000000000E+00  0.00000000000E+00  0.45593999997E+02  0.45594000000E+02  0.51100000000E-03 0. -1.
         11   -1    0    0    0    0 -0.00000000000E+00 -0.00000000000E+00 -0.45593999997E+02  0.45594000000E+02  0.51100000000E-03 0.  1.
    9900012    2    1    2    0    0  0.29429572939E+02 -0.31628542164E+02 -0.41423556213E+01  0.47787267830E+02  0.19999985345E+02 0.  0.
         12    1    1    2    0    0 -0.29429572939E+02  0.31628542164E+02  0.41423556213E+01  0.43400732170E+02  0.00000000000E+00 0. -1.
         11    1    3    3    0    0  0.18197762390E+01 -0.31391347617E+01 -0.44736826968E+01  0.57601727183E+01  0.51100000000E-03 0. -1.
        -11    1    3    3    0    0  0.52921606974E+01 -0.77040653545E+00  0.33531747781E+01  0.63122319690E+01  0.51100000000E-03 0.  1.
        -12    1    3    3    0    0  0.22317636003E+02 -0.27719000867E+02 -0.30218477027E+01  0.35714863143E+02  0.00000000000E+00 0.  1.
</event>
<event>
 7    1  0.8440037E-011  0.4778727E+02  0.7816164E-02  0.1312668E+00
        -11   -1    0    0    0    0  0.00000000000E+00  0.00000000000E+00  0.45593999997E+02  0.45594000000E+02  0.51100000000E-03 0. -1.
         11   -1    0    0    0    0 -0.00000000000E+00 -0.00000000000E+00 -0.45593999997E+02  0.45594000000E+02  0.51100000000E-03 0.  1.
    9900012    2    1    2    0    0  0.18376295645E+02 -0.16041574424E+02  0.35897117912E+02  0.47787269292E+02  0.19999992009E+02 0.  0.
        -12    1    1    2    0    0 -0.18376295645E+02  0.16041574424E+02 -0.35897117912E+02  0.43400730708E+02  0.00000000000E+00 0.  1.
         11    1    3    3    0    0  0.20982415345E+01 -0.20629716820E+01  0.14917782567E+02  0.15205219718E+02  0.51100000000E-03 0. -1.
        -11    1    3    3    0    0 -0.12029387265E+01  0.55394476379E+00  0.39846402850E+01  0.41989611624E+01  0.51100000000E-03 0.  1.
         12    1    3    3    0    0  0.17480992837E+02 -0.14532547506E+02  0.16994695060E+02  0.28383088411E+02  0.00000000000E+00 0. -1.
</event>
<event>
 7    1  0.1440932E-010  0.4778726E+02  0.7816164E-02  0.1312668E+00
        -11   -1    0    0    0    0  0.00000000000E+00  0.00000000000E+00  0.45593999997E+02  0.45594000000E+02  0.51100000000E-03 0. -1.
         11   -1    0    0    0    0 -0.00000000000E+00 -0.00000000000E+00 -0.45593999997E+02  0.45594000000E+02  0.51100000000E-03 0.  1.
    9900012    2    1    2    0    0 -0.21289550500E+02 -0.26922383886E+02  0.26562456562E+02  0.47787264832E+02  0.19999971673E+02 0.  0.
        -12    1    1    2    0    0  0.21289550500E+02  0.26922383886E+02 -0.26562456562E+02  0.43400735168E+02  0.00000000000E+00 0.  1.
         11    1    3    3    0    0 -0.46284814412E+01 -0.12485660419E+02  0.19358996716E+02  0.23496495710E+02  0.51100000000E-03 0. -1.
        -11    1    3    3    0    0 -0.18166344689E+00 -0.54728941066E+00 -0.10617908335E+01  0.12082745310E+01  0.51100000000E-03 0.  1.
         12    1    3    3    0    0 -0.16479405611E+02 -0.13889434057E+02  0.82652506788E+01  0.23082494590E+02  0.00000000000E+00 0. -1.
</event>
<event>
 7    1  0.8440037E-011  0.4778727E+02  0.7816164E-02  0.1312668E+00
        -11   -1    0    0    0    0  0.00000000000E+00  0.00000000000E+00  0.45593999997E+02  0.45594000000E+02  0.51100000000E-03 0. -1.
         11   -1    0    0    0    0 -0.00000000000E+00 -0.00000000000E+00 -0.45593999997E+02  0.45594000000E+02  0.51100000000E-03 0.  1.
    9900012    2    1    2    0    0  0.24363619430E+02  0.23906622818E+02  0.26805057705E+02  0.47787266310E+02  0.19999978414E+02 0.  0.
        -12    1    1    2    0    0 -0.24363619430E+02 -0.23906622818E+02 -0.26805057705E+02  0.43400733690E+02  0.00000000000E+00 0.  1.
         11    1    3    3    0    0  0.13129506899E+02  0.13031132951E+02  0.10773236631E+02  0.21406938248E+02  0.51100000000E-03 0. -1.
        -11    1    3    3    0    0  0.93830191707E+01  0.21329294334E+01  0.21321135127E+01  0.98557772407E+01  0.51100000000E-03 0.  1.
        -12    1    3    3    0    0  0.18510933601E+01  0.87425604337E+01  0.13899707561E+02  0.16524550821E+02  0.00000000000E+00 0.  1.
</event>
<event>
 7    1  0.8440037E-011  0.4778727E+02  0.7816164E-02  0.1312668E+00
        -11   -1    0    0    0    0  0.00000000000E+00  0.00000000000E+00  0.45593999997E+02  0.45594000000E+02  0.51100000000E-03 0. -1.
         11   -1    0    0    0    0 -0.00000000000E+00 -0.00000000000E+00 -0.45593999997E+02  0.45594000000E+02  0.51100000000E-03 0.  1.
    9900012    2    1    2    0    0 -0.72509742206E+01 -0.11823703513E+02 -0.41124769632E+02  0.47787271098E+02  0.20000000244E+02 0.  0.
         12    1    1    2    0    0  0.72509742206E+01  0.11823703513E+02  0.41124769632E+02  0.43400728902E+02  0.00000000000E+00 0. -1.
         11    1    3    3    0    0 -0.16427362699E+01 -0.84235636908E+01 -0.98780110971E+01  0.13085492394E+02  0.51100000000E-03 0. -1.
        -11    1    3    3    0    0 -0.63986564665E+01 -0.15360187379E+01 -0.31902013105E+02  0.32573618137E+02  0.51100000000E-03 0.  1.
         12    1    3    3    0    0  0.79041851575E+00 -0.18641210844E+01  0.65525456940E+00  0.21281605668E+01  0.00000000000E+00 0. -1.
</event>
<event>
 7    1  0.8440037E-011  0.4778727E+02  0.7816164E-02  0.1312668E+00
        -11   -1    0    0    0    0  0.00000000000E+00  0.00000000000E+00  0.45593999997E+02  0.45594000000E+02  0.51100000000E-03 0.  1.
         11   -1    0    0    0    0 -0.00000000000E+00 -0.00000000000E+00 -0.45593999997E+02  0.45594000000E+02  0.51100000000E-03 0. -1.
    9900012    2    1    2    0    0 -0.21389792047E+02 -0.31707907307E+02 -0.20511184749E+02  0.47787270866E+02  0.19999999184E+02 0.  0.
         12    1    1    2    0    0  0.21389792047E+02  0.31707907307E+02  0.20511184749E+02  0.43400729134E+02  0.00000000000E+00 0. -1.
         11    1    3    3    0    0 -0.35378883660E+01  0.11908331486E+01  0.14914636144E+01  0.40198509490E+01  0.51100000000E-03 0. -1.
        -11    1    3    3    0    0 -0.71839837225E+01 -0.88293391319E+01 -0.50406530500E+01  0.12448896942E+02  0.51100000000E-03 0.  1.
         12    1    3    3    0    0 -0.10667919958E+02 -0.24069401324E+02 -0.16961995314E+02  0.31318522975E+02  0.00000000000E+00 0. -1.
</event>
<event>
 7    1  0.8440037E-011  0.4778727E+02  0.7816164E-02  0.1312668E+00
        -11   -1    0    0    0    0  0.00000000000E+00  0.00000000000E+00  0.45593999997E+02  0.45594000000E+02  0.51100000000E-03 0. -1.
         11   -1    0    0    0    0 -0.00000000000E+00 -0.00000000000E+00 -0.45593999997E+02  0.45594000000E+02  0.51100000000E-03 0.  1.
    9900012    2    1    2    0    0 -0.28971009042E+02  0.20985492879E+02  0.24574635787E+02  0.47787274196E+02  0.20000014367E+02 0.  0.
        -12    1    1    2    0    0  0.28971009042E+02 -0.20985492879E+02 -0.24574635787E+02  0.43400725804E+02  0.00000000000E+00 0.  1.
         11    1    3    3    0    0 -0.42444044581E+00 -0.12487735674E+01 -0.21045566278E+00  0.13356185690E+01  0.51100000000E-03 0. -1.
        -11    1    3    3    0    0 -0.14718931812E+02  0.24528475334E+01  0.11941384260E+02  0.19111778384E+02  0.51100000000E-03 0.  1.
         12    1    3    3    0    0 -0.13827636784E+02  0.19781418912E+02  0.12843707190E+02  0.27339877242E+02  0.00000000000E+00 0. -1.
</event>
<event>
 7    1  0.8440037E-011  0.4778727E+02  0.7816164E-02  0.1312668E+00
        -11   -1    0    0    0    0  0.00000000000E+00  0.00000000000E+00  0.45593999997E+02  0.45594000000E+02  0.51100000000E-03 0. -1.
         11   -1    0    0    0    0 -0.00000000000E+00 -0.00000000000E+00 -0.45593999997E+02  0.45594000000E+02  0.51100000000E-03 0.  1.
    9900012    2    1    2    0    0  0.12329179284E+02 -0.15103393920E+02  0.38775018941E+02  0.47787271163E+02  0.20000000539E+02 0.  0.
        -12    1    1    2    0    0 -0.12329179284E+02  0.15103393920E+02 -0.38775018941E+02  0.43400728837E+02  0.00000000000E+00 0.  1.
         11    1    3    3    0    0  0.78065395123E+01 -0.10382320877E+02  0.11519185332E+02  0.17361632323E+02  0.51100000000E-03 0. -1.
        -11    1    3    3    0    0  0.17091473221E+01 -0.81289239124E+01  0.12389987588E+02  0.14916848905E+02  0.51100000000E-03 0.  1.
        -12    1    3    3    0    0  0.28134924494E+01  0.34078508699E+01  0.14865846021E+02  0.15508789935E+02  0.00000000000E+00 0.  1.
</event>
<event>
 7    1  0.8440037E-011  0.4778727E+02  0.7816164E-02  0.1312668E+00
        -11   -1    0    0    0    0  0.00000000000E+00  0.00000000000E+00  0.45593999997E+02  0.45594000000E+02  0.51100000000E-03 0. -1.
         11   -1    0    0    0    0 -0.00000000000E+00 -0.00000000000E+00 -0.45593999997E+02  0.45594000000E+02  0.51100000000E-03 0.  1.
    9900012    2    1    2    0    0 -0.24581468869E+02  0.18893055269E+01  0.35718417218E+02  0.47787269410E+02  0.19999992549E+02 0.  0.
        -12    1    1    2    0    0  0.24581468869E+02 -0.18893055269E+01 -0.35718417218E+02  0.43400730590E+02  0.00000000000E+00 0.  1.
         11    1    3    3    0    0 -0.12864047222E+02  0.94155011720E+01  0.15267580549E+02  0.22073386449E+02  0.51100000000E-03 0. -1.
        -11    1    3    3    0    0 -0.48043168322E+01 -0.97568963148E+00  0.27689374025E+01  0.56303148297E+01  0.51100000000E-03 0.  1.
         12    1    3    3    0    0 -0.69131048150E+01 -0.65505060136E+01  0.17681899266E+02  0.20083568131E+02  0.00000000000E+00 0. -1.
</event>
<event>
 7    1  0.8440037E-011  0.4778727E+02  0.7816164E-02  0.1312668E+00
        -11   -1    0    0    0    0  0.00000000000E+00  0.00000000000E+00  0.45593999997E+02  0.45594000000E+02  0.51100000000E-03 0. -1.
         11   -1    0    0    0    0 -0.00000000000E+00 -0.00000000000E+00 -0.45593999997E+02  0.45594000000E+02  0.51100000000E-03 0.  1.
    9900012    2    1    2    0    0 -0.15397824511E+01  0.20633588450E+01  0.43324299623E+02  0.47787270541E+02  0.19999997705E+02 0.  0.
        -12    1    1    2    0    0  0.15397824511E+01 -0.20633588450E+01 -0.43324299623E+02  0.43400729459E+02  0.00000000000E+00 0.  1.
         11    1    3    3    0    0 -0.70917432953E+01 -0.27247408957E+01  0.14708210919E+02  0.16554410428E+02  0.51100000000E-03 0. -1.
        -11    1    3    3    0    0 -0.77497519969E+00 -0.13376121406E+01  0.29452011190E+00  0.15737011013E+01  0.51100000000E-03 0.  1.
         12    1    3    3    0    0  0.63269360439E+01  0.61257118813E+01  0.28321568592E+02  0.29659159011E+02  0.00000000000E+00 0. -1.
</event>
<event>
 7    1  0.8440037E-011  0.4778727E+02  0.7816164E-02  0.1312668E+00
        -11   -1    0    0    0    0  0.00000000000E+00  0.00000000000E+00  0.45593999997E+02  0.45594000000E+02  0.51100000000E-03 0. -1.
         11   -1    0    0    0    0 -0.00000000000E+00 -0.00000000000E+00 -0.45593999997E+02  0.45594000000E+02  0.51100000000E-03 0.  1.
    9900012    2    1    2    0    0  0.32790694703E+02  0.19774355922E+02  0.20429599127E+02  0.47787270378E+02  0.19999996960E+02 0.  0.
        -12    1    1    2    0    0 -0.32790694703E+02 -0.19774355922E+02 -0.20429599127E+02  0.43400729622E+02  0.00000000000E+00 0.  1.
         11    1    3    3    0    0  0.18112968287E+02  0.28871552588E+01  0.76265687687E+01  0.19864033757E+02  0.51100000000E-03 0. -1.
        -11    1    3    3    0    0  0.64864640002E-01  0.52504023480E-01 -0.14575417495E+01  0.14599288704E+01  0.51100000000E-03 0.  1.
        -12    1    3    3    0    0  0.14612861776E+02  0.16834696640E+02  0.14260572108E+02  0.26463307750E+02  0.00000000000E+00 0.  1.
</event>
<event>
 7    1  0.8440037E-011  0.4778727E+02  0.7816164E-02  0.1312668E+00
        -11   -1    0    0    0    0  0.00000000000E+00  0.00000000000E+00  0.45593999997E+02  0.45594000000E+02  0.51100000000E-03 0. -1.
         11   -1    0    0    0    0 -0.00000000000E+00 -0.00000000000E+00 -0.45593999997E+02  0.45594000000E+02  0.51100000000E-03 0.  1.
    9900012    2    1    2    0    0 -0.17815157761E+02  0.52253642936E+01 -0.39229312676E+02  0.47787271307E+02  0.20000001195E+02 0.  0.
         12    1    1    2    0    0  0.17815157761E+02 -0.52253642936E+01  0.39229312676E+02  0.43400728693E+02  0.00000000000E+00 0. -1.
         11    1    3    3    0    0 -0.49969405734E+00 -0.17441091827E+01  0.12666916875E+01  0.22127175790E+01  0.51100000000E-03 0.  1.
        -11    1    3    3    0    0 -0.43697919321E+01  0.84793325929E+00 -0.28212037532E+01  0.52700344610E+01  0.51100000000E-03 0. -1.
        -12    1    3    3    0    0 -0.12945671772E+02  0.61215402169E+01 -0.37674800611E+02  0.40304519267E+02  0.00000000000E+00 0.  1.
</event>
<event>
 7    1  0.8440037E-011  0.4778727E+02  0.7816164E-02  0.1312668E+00
        -11   -1    0    0    0    0  0.00000000000E+00  0.00000000000E+00  0.45593999997E+02  0.45594000000E+02  0.51100000000E-03 0. -1.
         11   -1    0    0    0    0 -0.00000000000E+00 -0.00000000000E+00 -0.45593999997E+02  0.45594000000E+02  0.51100000000E-03 0.  1.
    9900012    2    1    2    0    0  0.21063103125E+02  0.41039643942E+01 -0.37724348136E+02  0.47787270981E+02  0.19999999713E+02 0.  0.
         12    1    1    2    0    0 -0.21063103125E+02 -0.41039643942E+01  0.37724348136E+02  0.43400729019E+02  0.00000000000E+00 0. -1.
         11    1    3    3    0    0  0.63059746668E+01 -0.13934844648E+01 -0.22826308160E+02  0.23722298791E+02  0.51100000000E-03 0.  1.
        -11    1    3    3    0    0  0.44931561225E-01  0.38851074213E+01 -0.46671978141E+01  0.60727929503E+01  0.51100000000E-03 0. -1.
        -12    1    3    3    0    0  0.14712196897E+02  0.16123414378E+01 -0.10230842162E+02  0.17992179240E+02  0.00000000000E+00 0.  1.
</event>
<event>
 7    1  0.8440037E-011  0.4778730E+02  0.7816164E-02  0.1312668E+00
        -11   -1    0    0    0    0  0.00000000000E+00  0.00000000000E+00  0.45593999997E+02  0.45594000000E+02  0.51100000000E-03 0. -1.
         11   -1    0    0    0    0 -0.00000000000E+00 -0.00000000000E+00 -0.45593999997E+02  0.45594000000E+02  0.51100000000E-03 0.  1.
    9900012    2    1    2    0    0  0.32002280972E+00  0.16624588948E+02 -0.40089163417E+02  0.47787304202E+02  0.20000151177E+02 0.  0.
         12    1    1    2    0    0 -0.32002280972E+00 -0.16624588948E+02  0.40089163417E+02  0.43400695798E+02  0.00000000000E+00 0. -1.
         11    1    3    3    0    0 -0.39394735863E+01  0.43368141871E+01 -0.51776969166E+01  0.78189484620E+01  0.51100000000E-03 0. -1.
        -11    1    3    3    0    0 -0.43493117946E+01  0.88645679192E+01 -0.14382391715E+02  0.17445637541E+02  0.51100000000E-03 0.  1.
         12    1    3    3    0    0  0.86088081906E+01  0.34232068415E+01 -0.20529074785E+02  0.22522718199E+02  0.00000000000E+00 0. -1.
</event>
<event>
 7    1  0.8440037E-011  0.4778727E+02  0.7816164E-02  0.1312668E+00
        -11   -1    0    0    0    0  0.00000000000E+00  0.00000000000E+00  0.45593999997E+02  0.45594000000E+02  0.51100000000E-03 0.  1.
         11   -1    0    0    0    0 -0.00000000000E+00 -0.00000000000E+00 -0.45593999997E+02  0.45594000000E+02  0.51100000000E-03 0. -1.
    9900012    2    1    2    0    0 -0.43283892012E+02  0.27175823520E+01 -0.16561303272E+01  0.47787270407E+02  0.19999997094E+02 0.  0.
        -12    1    1    2    0    0  0.43283892012E+02 -0.27175823520E+01  0.16561303272E+01  0.43400729593E+02  0.00000000000E+00 0.  1.
         11    1    3    3    0    0 -0.11129845173E+02 -0.32471148921E+01 -0.39985230177E+01  0.12263987740E+02  0.51100000000E-03 0. -1.
        -11    1    3    3    0    0 -0.20022685722E+02 -0.26491540026E+01  0.38769201774E+01  0.20565905542E+02  0.51100000000E-03 0.  1.
        -12    1    3    3    0    0 -0.12131361118E+02  0.86138512467E+01 -0.15345274869E+01  0.14957377125E+02  0.00000000000E+00 0.  1.
</event>
<event>
 7    1  0.8440037E-011  0.4778727E+02  0.7816164E-02  0.1312668E+00
        -11   -1    0    0    0    0  0.00000000000E+00  0.00000000000E+00  0.45593999997E+02  0.45594000000E+02  0.51100000000E-03 0. -1.
         11   -1    0    0    0    0 -0.00000000000E+00 -0.00000000000E+00 -0.45593999997E+02  0.45594000000E+02  0.51100000000E-03 0.  1.
    9900012    2    1    2    0    0  0.20275523939E+02  0.22623798836E+02  0.30995004613E+02  0.47787268950E+02  0.19999990449E+02 0.  0.
        -12    1    1    2    0    0 -0.20275523939E+02 -0.22623798836E+02 -0.30995004613E+02  0.43400731050E+02  0.00000000000E+00 0.  1.
         11    1    3    3    0    0  0.48979523865E+01  0.42195293012E+01  0.18214032260E+02  0.19327320987E+02  0.51100000000E-03 0. -1.
        -11    1    3    3    0    0  0.58936144740E+01  0.36016209984E+01  0.72893796298E+01  0.10041982923E+02  0.51100000000E-03 0.  1.
        -12    1    3    3    0    0  0.94839570779E+01  0.14802648536E+02  0.54915927229E+01  0.18417965039E+02  0.00000000000E+00 0.  1.
</event>
<event>
 7    1  0.8440037E-011  0.4778727E+02  0.7816164E-02  0.1312668E+00
        -11   -1    0    0    0    0  0.00000000000E+00  0.00000000000E+00  0.45593999997E+02  0.45594000000E+02  0.51100000000E-03 0. -1.
         11   -1    0    0    0    0 -0.00000000000E+00 -0.00000000000E+00 -0.45593999997E+02  0.45594000000E+02  0.51100000000E-03 0.  1.
    9900012    2    1    2    0    0 -0.20346511979E+02  0.32136115687E+02 -0.20902457585E+02  0.47787271731E+02  0.20000003129E+02 0.  0.
         12    1    1    2    0    0  0.20346511979E+02 -0.32136115687E+02  0.20902457585E+02  0.43400728269E+02  0.00000000000E+00 0. -1.
         11    1    3    3    0    0 -0.56524872321E+01  0.87505967923E+01  0.30097042845E+01  0.10843517707E+02  0.51100000000E-03 0. -1.
        -11    1    3    3    0    0 -0.25626805119E+01  0.29233626177E+01 -0.12363325651E+01  0.40794483540E+01  0.51100000000E-03 0.  1.
         12    1    3    3    0    0 -0.12131344235E+02  0.20462156277E+02 -0.22675829305E+02  0.32864305669E+02  0.00000000000E+00 0. -1.
</event>
<event>
 7    1  0.8440037E-011  0.4778725E+02  0.7816164E-02  0.1312668E+00
        -11   -1    0    0    0    0  0.00000000000E+00  0.00000000000E+00  0.45593999997E+02  0.45594000000E+02  0.51100000000E-03 0. -1.
         11   -1    0    0    0    0 -0.00000000000E+00 -0.00000000000E+00 -0.45593999997E+02  0.45594000000E+02  0.51100000000E-03 0.  1.
    9900012    2    1    2    0    0  0.33708856893E+02 -0.55119970098E+01 -0.26776028100E+02  0.47787253176E+02  0.19999918531E+02 0.  0.
         12    1    1    2    0    0 -0.33708856893E+02  0.55119970098E+01  0.26776028100E+02  0.43400746824E+02  0.00000000000E+00 0. -1.
         11    1    3    3    0    0  0.11557697389E+02 -0.11655143925E+01 -0.48073195676E+01  0.12571758605E+02  0.51100000000E-03 0. -1.
        -11    1    3    3    0    0  0.13365797323E+02 -0.68249772079E+01 -0.47749069478E+01  0.15748796417E+02  0.51100000000E-03 0.  1.
         12    1    3    3    0    0  0.87853621800E+01  0.24784945905E+01 -0.17193801585E+02  0.19466698154E+02  0.00000000000E+00 0. -1.
</event>
<event>
 7    1  0.8440037E-011  0.4778727E+02  0.7816164E-02  0.1312668E+00
        -11   -1    0    0    0    0  0.00000000000E+00  0.00000000000E+00  0.45593999997E+02  0.45594000000E+02  0.51100000000E-03 0. -1.
         11   -1    0    0    0    0 -0.00000000000E+00 -0.00000000000E+00 -0.45593999997E+02  0.45594000000E+02  0.51100000000E-03 0.  1.
    9900012    2    1    2    0    0  0.17347956399E+01 -0.41426623117E+02 -0.12823744726E+02  0.47787273651E+02  0.20000011885E+02 0.  0.
        -12    1    1    2    0    0 -0.17347956399E+01  0.41426623117E+02  0.12823744726E+02  0.43400726349E+02  0.00000000000E+00 0.  1.
         11    1    3    3    0    0  0.10805811009E+01 -0.13152439345E+02 -0.16838608933E+01  0.13303747743E+02  0.51100000000E-03 0. -1.
        -11    1    3    3    0    0 -0.74992336077E+01 -0.15332548858E+02 -0.36581658785E+01  0.17455879727E+02  0.51100000000E-03 0.  1.
         12    1    3    3    0    0  0.81534481467E+01 -0.12941634914E+02 -0.74817179538E+01  0.17027646181E+02  0.00000000000E+00 0. -1.
</event>
<event>
 7    1  0.8440037E-011  0.4778727E+02  0.7816164E-02  0.1312668E+00
        -11   -1    0    0    0    0  0.00000000000E+00  0.00000000000E+00  0.45593999997E+02  0.45594000000E+02  0.51100000000E-03 0. -1.
         11   -1    0    0    0    0 -0.00000000000E+00 -0.00000000000E+00 -0.45593999997E+02  0.45594000000E+02  0.51100000000E-03 0.  1.
    9900012    2    1    2    0    0 -0.33011612784E+02  0.98246484779E+01  0.26407061641E+02  0.47787271886E+02  0.20000003836E+02 0.  0.
        -12    1    1    2    0    0  0.33011612784E+02 -0.98246484779E+01 -0.26407061641E+02  0.43400728114E+02  0.00000000000E+00 0.  1.
         11    1    3    3    0    0 -0.22959036637E+02  0.79968061702E+01  0.23274081507E+02  0.33656338816E+02  0.51100000000E-03 0. -1.
        -11    1    3    3    0    0 -0.45623592139E+01  0.52262734377E+01  0.32767165785E+01  0.76724134038E+01  0.51100000000E-03 0.  1.
        -12    1    3    3    0    0 -0.54902169327E+01 -0.33984311301E+01 -0.14373644361E+00  0.64585196662E+01  0.00000000000E+00 0.  1.
</event>
<event>
 7    1  0.8440037E-011  0.4778727E+02  0.7816164E-02  0.1312668E+00
        -11   -1    0    0    0    0  0.00000000000E+00  0.00000000000E+00  0.45593999997E+02  0.45594000000E+02  0.51100000000E-03 0. -1.
         11   -1    0    0    0    0 -0.00000000000E+00 -0.00000000000E+00 -0.45593999997E+02  0.45594000000E+02  0.51100000000E-03 0.  1.
    9900012    2    1    2    0    0  0.90023727620E+01 -0.25383852916E+02 -0.34032939609E+02  0.47787266336E+02  0.19999978530E+02 0.  0.
         12    1    1    2    0    0 -0.90023727620E+01  0.25383852916E+02  0.34032939609E+02  0.43400733664E+02  0.00000000000E+00 0. -1.
         11    1    3    3    0    0  0.51601182477E+01 -0.11528309681E+02 -0.62877608599E+01  0.14109028362E+02  0.51100000000E-03 0. -1.
        -11    1    3    3    0    0  0.15784938857E+01 -0.58954402900E+01 -0.16789672084E+01  0.63298333555E+01  0.51100000000E-03 0.  1.
        -12    1    3    3    0    0  0.22637606286E+01 -0.79601029447E+01 -0.26066211540E+02  0.27348404618E+02  0.00000000000E+00 0.  1.
</event>
<event>
 7    1  0.8440037E-011  0.4778728E+02  0.7816164E-02  0.1312668E+00
        -11   -1    0    0    0    0  0.00000000000E+00  0.00000000000E+00  0.45593999997E+02  0.45594000000E+02  0.51100000000E-03 0. -1.
         11   -1    0    0    0    0 -0.00000000000E+00 -0.00000000000E+00 -0.45593999997E+02  0.45594000000E+02  0.51100000000E-03 0.  1.
    9900012    2    1    2    0    0 -0.31876629423E+02  0.25756355042E+01  0.29340576348E+02  0.47787276250E+02  0.20000023734E+02 0.  0.
        -12    1    1    2    0    0  0.31876629423E+02 -0.25756355042E+01 -0.29340576348E+02  0.43400723750E+02  0.00000000000E+00 0.  1.
         11    1    3    3    0    0 -0.13939141484E+02 -0.38531930401E+01  0.16886354477E+02  0.22232762530E+02  0.51100000000E-03 0. -1.
        -11    1    3    3    0    0 -0.16933889689E+02  0.19650693321E+01  0.12217045853E+02  0.20973181139E+02  0.51100000000E-03 0.  1.
        -12    1    3    3    0    0 -0.10035982503E+01  0.44637592122E+01  0.23717601732E+00  0.45813325808E+01  0.00000000000E+00 0.  1.
</event>
<event>
 7    1  0.8440037E-011  0.4778727E+02  0.7816164E-02  0.1312668E+00
        -11   -1    0    0    0    0  0.00000000000E+00  0.00000000000E+00  0.45593999997E+02  0.45594000000E+02  0.51100000000E-03 0. -1.
         11   -1    0    0    0    0 -0.00000000000E+00 -0.00000000000E+00 -0.45593999997E+02  0.45594000000E+02  0.51100000000E-03 0.  1.
    9900012    2    1    2    0    0 -0.26750900345E+02 -0.19517245214E+02  0.28055124408E+02  0.47787268030E+02  0.19999986254E+02 0.  0.
        -12    1    1    2    0    0  0.26750900345E+02  0.19517245214E+02 -0.28055124408E+02  0.43400731970E+02  0.00000000000E+00 0.  1.
         11    1    3    3    0    0 -0.76174223579E+01 -0.50007647214E+00  0.99223870987E+01  0.12519143974E+02  0.51100000000E-03 0. -1.
        -11    1    3    3    0    0 -0.17085105597E+02 -0.12421591248E+02  0.18867555049E+02  0.28322806997E+02  0.51100000000E-03 0.  1.
        -12    1    3    3    0    0 -0.20483723898E+01 -0.65955774945E+01 -0.73481773914E+00  0.69453170585E+01  0.00000000000E+00 0.  1.
</event>
<event>
 7    1  0.8440037E-011  0.4778727E+02  0.7816164E-02  0.1312668E+00
        -11   -1    0    0    0    0  0.00000000000E+00  0.00000000000E+00  0.45593999997E+02  0.45594000000E+02  0.51100000000E-03 0.  1.
         11   -1    0    0    0    0 -0.00000000000E+00 -0.00000000000E+00 -0.45593999997E+02  0.45594000000E+02  0.51100000000E-03 0. -1.
    9900012    2    1    2    0    0 -0.15190712512E+02  0.94076466996E+01  0.39552018354E+02  0.47787265917E+02  0.19999976621E+02 0.  0.
        -12    1    1    2    0    0  0.15190712512E+02 -0.94076466996E+01 -0.39552018354E+02  0.43400734083E+02  0.00000000000E+00 0.  1.
         11    1    3    3    0    0 -0.54654562716E+01  0.86613159179E+00  0.22732288249E+01  0.59823879633E+01  0.51100000000E-03 0. -1.
        -11    1    3    3    0    0 -0.55331671837E+01  0.23230365247E+01  0.29883704670E+01  0.67039388487E+01  0.51100000000E-03 0.  1.
        -12    1    3    3    0    0 -0.41920890569E+01  0.62184785831E+01  0.34290419063E+02  0.35100939105E+02  0.00000000000E+00 0.  1.
</event>
<event>
 7    1  0.8440037E-011  0.4778727E+02  0.7816164E-02  0.1312668E+00
        -11   -1    0    0    0    0  0.00000000000E+00  0.00000000000E+00  0.45593999997E+02  0.45594000000E+02  0.51100000000E-03 0. -1.
         11   -1    0    0    0    0 -0.00000000000E+00 -0.00000000000E+00 -0.45593999997E+02  0.45594000000E+02  0.51100000000E-03 0.  1.
    9900012    2    1    2    0    0 -0.22403992313E+02 -0.13838815360E+02  0.34498863506E+02  0.47787271143E+02  0.20000000449E+02 0.  0.
        -12    1    1    2    0    0  0.22403992313E+02  0.13838815360E+02 -0.34498863506E+02  0.43400728857E+02  0.00000000000E+00 0.  1.
         11    1    3    3    0    0 -0.99891399666E+01  0.36240093944E+01  0.15231666971E+02  0.18572023054E+02  0.51100000000E-03 0.  1.
        -11    1    3    3    0    0 -0.44596454901E+01 -0.27847671192E+01  0.42706871521E+01  0.67736352734E+01  0.51100000000E-03 0. -1.
        -12    1    3    3    0    0 -0.79552068563E+01 -0.14678057635E+02  0.14996509383E+02  0.22441612815E+02  0.00000000000E+00 0.  1.
</event>
<event>
 7    1  0.8440037E-011  0.4778727E+02  0.7816164E-02  0.1312668E+00
        -11   -1    0    0    0    0  0.00000000000E+00  0.00000000000E+00  0.45593999997E+02  0.45594000000E+02  0.51100000000E-03 0.  1.
         11   -1    0    0    0    0 -0.00000000000E+00 -0.00000000000E+00 -0.45593999997E+02  0.45594000000E+02  0.51100000000E-03 0. -1.
    9900012    2    1    2    0    0  0.14126721455E+02 -0.40783946098E+02  0.45528910251E+01  0.47787270340E+02  0.19999996787E+02 0.  0.
         12    1    1    2    0    0 -0.14126721455E+02  0.40783946098E+02 -0.45528910251E+01  0.43400729660E+02  0.00000000000E+00 0. -1.
         11    1    3    3    0    0 -0.15024980351E+01 -0.73261674800E+00 -0.68841747229E+00  0.18078015716E+01  0.51100000000E-03 0. -1.
        -11    1    3    3    0    0  0.18270707368E+01 -0.23291086359E+01 -0.37896742614E+01  0.48088008675E+01  0.51100000000E-03 0.  1.
        -12    1    3    3    0    0  0.13802148754E+02 -0.37722220714E+02  0.90309827587E+01  0.41170667901E+02  0.00000000000E+00 0.  1.
</event>
<event>
 7    1  0.8440037E-011  0.4778727E+02  0.7816164E-02  0.1312668E+00
        -11   -1    0    0    0    0  0.00000000000E+00  0.00000000000E+00  0.45593999997E+02  0.45594000000E+02  0.51100000000E-03 0. -1.
         11   -1    0    0    0    0 -0.00000000000E+00 -0.00000000000E+00 -0.45593999997E+02  0.45594000000E+02  0.51100000000E-03 0.  1.
    9900012    2    1    2    0    0 -0.81918507909E+01 -0.10357772836E+02  0.41342878191E+02  0.47787268962E+02  0.19999990506E+02 0.  0.
        -12    1    1    2    0    0  0.81918507909E+01  0.10357772836E+02 -0.41342878191E+02  0.43400731038E+02  0.00000000000E+00 0.  1.
         11    1    3    3    0    0 -0.10867884159E+01 -0.35645454920E+01  0.11030452780E+02  0.11642937019E+02  0.51100000000E-03 0. -1.
        -11    1    3    3    0    0 -0.16752507954E+01 -0.10536875856E+02  0.94098270634E+01  0.14225929272E+02  0.51100000000E-03 0.  1.
        -12    1    3    3    0    0 -0.54298115796E+01  0.37436485125E+01  0.20902598347E+02  0.21918402671E+02  0.00000000000E+00 0.  1.
</event>
<event>
 7    1  0.1400202E-010  0.4778727E+02  0.7816164E-02  0.1312668E+00
        -11   -1    0    0    0    0  0.00000000000E+00  0.00000000000E+00  0.45593999997E+02  0.45594000000E+02  0.51100000000E-03 0. -1.
         11   -1    0    0    0    0 -0.00000000000E+00 -0.00000000000E+00 -0.45593999997E+02  0.45594000000E+02  0.51100000000E-03 0.  1.
    9900012    2    1    2    0    0 -0.28738114212E+02 -0.60299277523E+01  0.31959105588E+02  0.47787266513E+02  0.19999979341E+02 0.  0.
        -12    1    1    2    0    0  0.28738114212E+02  0.60299277523E+01 -0.31959105588E+02  0.43400733487E+02  0.00000000000E+00 0.  1.
         11    1    3    3    0    0  0.64630562031E+00  0.22008817139E+01  0.87919703737E+00  0.24565380040E+01  0.51100000000E-03 0. -1.
        -11    1    3    3    0    0 -0.15328885924E+01 -0.47966383698E+00 -0.11943486765E+01  0.20015728454E+01  0.51100000000E-03 0.  1.
         12    1    3    3    0    0 -0.27851531240E+02 -0.77511456292E+01  0.32274257228E+02  0.43329155664E+02  0.00000000000E+00 0. -1.
</event>
<event>
 7    1  0.8440037E-011  0.4778727E+02  0.7816164E-02  0.1312668E+00
        -11   -1    0    0    0    0  0.00000000000E+00  0.00000000000E+00  0.45593999997E+02  0.45594000000E+02  0.51100000000E-03 0. -1.
         11   -1    0    0    0    0 -0.00000000000E+00 -0.00000000000E+00 -0.45593999997E+02  0.45594000000E+02  0.51100000000E-03 0.  1.
    9900012    2    1    2    0    0 -0.62115673183E+01 -0.18132870238E+02 -0.38938908777E+02  0.47787272260E+02  0.20000005540E+02 0.  0.
         12    1    1    2    0    0  0.62115673183E+01  0.18132870238E+02  0.38938908777E+02  0.43400727740E+02  0.00000000000E+00 0. -1.
         11    1    3    3    0    0 -0.49764620098E+01 -0.32559990281E+01 -0.18163570634E+01  0.62181876016E+01  0.51100000000E-03 0. -1.
        -11    1    3    3    0    0 -0.55583378991E+01 -0.43504852843E+01 -0.10925932788E+02  0.13007607388E+02  0.51100000000E-03 0.  1.
        -12    1    3    3    0    0  0.43232325906E+01 -0.10526385926E+02 -0.26196618926E+02  0.28561477270E+02  0.00000000000E+00 0.  1.
</event>
<event>
 7    1  0.8440037E-011  0.4778727E+02  0.7816164E-02  0.1312668E+00
        -11   -1    0    0    0    0  0.00000000000E+00  0.00000000000E+00  0.45593999997E+02  0.45594000000E+02  0.51100000000E-03 0. -1.
         11   -1    0    0    0    0 -0.00000000000E+00 -0.00000000000E+00 -0.45593999997E+02  0.45594000000E+02  0.51100000000E-03 0.  1.
    9900012    2    1    2    0    0 -0.54197246068E+01 -0.41710264628E+02 -0.10700640380E+02  0.47787270805E+02  0.19999998906E+02 0.  0.
         12    1    1    2    0    0  0.54197246068E+01  0.41710264628E+02  0.10700640380E+02  0.43400729195E+02  0.00000000000E+00 0. -1.
         11    1    3    3    0    0  0.78004674299E+00 -0.82822639784E+01  0.27351354365E+01  0.87570163667E+01  0.51100000000E-03 0. -1.
        -11    1    3    3    0    0 -0.61260434406E+01 -0.31557693351E+02 -0.77828547095E+01  0.33075508243E+02  0.51100000000E-03 0.  1.
        -12    1    3    3    0    0 -0.73727909184E-01 -0.18703072988E+01 -0.56529211073E+01  0.59547461946E+01  0.00000000000E+00 0.  1.
</event>
<event>
 7    1  0.8440037E-011  0.4778727E+02  0.7816164E-02  0.1312668E+00
        -11   -1    0    0    0    0  0.00000000000E+00  0.00000000000E+00  0.45593999997E+02  0.45594000000E+02  0.51100000000E-03 0. -1.
         11   -1    0    0    0    0 -0.00000000000E+00 -0.00000000000E+00 -0.45593999997E+02  0.45594000000E+02  0.51100000000E-03 0.  1.
    9900012    2    1    2    0    0 -0.10605290333E+02 -0.41477462411E+02  0.71253675124E+01  0.47787274969E+02  0.20000017891E+02 0.  0.
        -12    1    1    2    0    0  0.10605290333E+02  0.41477462411E+02 -0.71253675124E+01  0.43400725031E+02  0.00000000000E+00 0.  1.
         11    1    3    3    0    0 -0.62053824290E+01 -0.27303051099E+02  0.12960293355E+02  0.30853404585E+02  0.51100000000E-03 0. -1.
        -11    1    3    3    0    0 -0.66625928050E+00  0.38622014581E+00  0.92613004833E-01  0.77565769491E+00  0.51100000000E-03 0.  1.
        -12    1    3    3    0    0 -0.37336486237E+01 -0.14560631458E+02 -0.59275388476E+01  0.16158212688E+02  0.00000000000E+00 0.  1.
</event>
<event>
 7    1  0.8440037E-011  0.4778727E+02  0.7816164E-02  0.1312668E+00
        -11   -1    0    0    0    0  0.00000000000E+00  0.00000000000E+00  0.45593999997E+02  0.45594000000E+02  0.51100000000E-03 0. -1.
         11   -1    0    0    0    0 -0.00000000000E+00 -0.00000000000E+00 -0.45593999997E+02  0.45594000000E+02  0.51100000000E-03 0.  1.
    9900012    2    1    2    0    0  0.29297094346E+02  0.96047854619E+01 -0.30545893293E+02  0.47787271458E+02  0.20000001885E+02 0.  0.
         12    1    1    2    0    0 -0.29297094346E+02 -0.96047854619E+01  0.30545893293E+02  0.43400728542E+02  0.00000000000E+00 0. -1.
         11    1    3    3    0    0  0.10951393536E+02  0.46735868085E+01 -0.53903094480E+01  0.13070228393E+02  0.51100000000E-03 0. -1.
        -11    1    3    3    0    0 -0.18504373475E+01  0.28054082199E+01 -0.19706605227E+01  0.38958871665E+01  0.51100000000E-03 0.  1.
        -12    1    3    3    0    0  0.20196138158E+02  0.21257904334E+01 -0.23184923322E+02  0.30821155899E+02  0.00000000000E+00 0.  1.
</event>
<event>
 7    1  0.8440037E-011  0.4778727E+02  0.7816164E-02  0.1312668E+00
        -11   -1    0    0    0    0  0.00000000000E+00  0.00000000000E+00  0.45593999997E+02  0.45594000000E+02  0.51100000000E-03 0. -1.
         11   -1    0    0    0    0 -0.00000000000E+00 -0.00000000000E+00 -0.45593999997E+02  0.45594000000E+02  0.51100000000E-03 0.  1.
    9900012    2    1    2    0    0  0.15756852289E+01  0.14057293609E+02  0.41030877154E+02  0.47787272269E+02  0.20000005585E+02 0.  0.
        -12    1    1    2    0    0 -0.15756852289E+01 -0.14057293609E+02 -0.41030877154E+02  0.43400727731E+02  0.00000000000E+00 0.  1.
         11    1    3    3    0    0 -0.38292350135E+01  0.11487509324E+02  0.20122395907E+02  0.23484819109E+02  0.51100000000E-03 0. -1.
        -11    1    3    3    0    0  0.37622960318E+01  0.59379880733E+01  0.70870980507E+01  0.99820605503E+01  0.51100000000E-03 0.  1.
        -12    1    3    3    0    0  0.16426242107E+01 -0.33682037889E+01  0.13821383196E+02  0.14320392610E+02  0.00000000000E+00 0.  1.
</event>
<event>
 7    1  0.8440037E-011  0.4778727E+02  0.7816164E-02  0.1312668E+00
        -11   -1    0    0    0    0  0.00000000000E+00  0.00000000000E+00  0.45593999997E+02  0.45594000000E+02  0.51100000000E-03 0. -1.
         11   -1    0    0    0    0 -0.00000000000E+00 -0.00000000000E+00 -0.45593999997E+02  0.45594000000E+02  0.51100000000E-03 0.  1.
    9900012    2    1    2    0    0  0.22106397592E+02 -0.31753085696E+01  0.37213545882E+02  0.47787269636E+02  0.19999993578E+02 0.  0.
        -12    1    1    2    0    0 -0.22106397592E+02  0.31753085696E+01 -0.37213545882E+02  0.43400730364E+02  0.00000000000E+00 0.  1.
         11    1    3    3    0    0 -0.51862174239E-01 -0.60220628170E+01  0.59134976674E+01  0.84402242376E+01  0.51100000000E-03 0. -1.
        -11    1    3    3    0    0  0.28667706101E+01 -0.14043724347E+01  0.13434210663E+01  0.34634399213E+01  0.51100000000E-03 0.  1.
         12    1    3    3    0    0  0.19291489156E+02  0.42511266820E+01  0.29956627148E+02  0.35883605477E+02  0.00000000000E+00 0. -1.
</event>
<event>
 7    1  0.8440037E-011  0.4778726E+02  0.7816164E-02  0.1312668E+00
        -11   -1    0    0    0    0  0.00000000000E+00  0.00000000000E+00  0.45593999997E+02  0.45594000000E+02  0.51100000000E-03 0. -1.
         11   -1    0    0    0    0 -0.00000000000E+00 -0.00000000000E+00 -0.45593999997E+02  0.45594000000E+02  0.51100000000E-03 0.  1.
    9900012    2    1    2    0    0 -0.23969654362E+02 -0.15748460131E+00 -0.36180869279E+02  0.47787257686E+02  0.19999939095E+02 0.  0.
         12    1    1    2    0    0  0.23969654362E+02  0.15748460131E+00  0.36180869279E+02  0.43400742314E+02  0.00000000000E+00 0. -1.
         11    1    3    3    0    0  0.11931467681E+01 -0.29107103129E+00 -0.86399905628E-01  0.12311729205E+01  0.51100000000E-03 0. -1.
        -11    1    3    3    0    0 -0.18463286657E+02  0.66401459376E+01 -0.20482695010E+02  0.28364154974E+02  0.51100000000E-03 0.  1.
        -12    1    3    3    0    0 -0.66995144727E+01 -0.65065595076E+01 -0.15611774363E+02  0.18191929792E+02  0.00000000000E+00 0.  1.
</event>
<event>
 7    1  0.8440037E-011  0.4778727E+02  0.7816164E-02  0.1312668E+00
        -11   -1    0    0    0    0  0.00000000000E+00  0.00000000000E+00  0.45593999997E+02  0.45594000000E+02  0.51100000000E-03 0. -1.
         11   -1    0    0    0    0 -0.00000000000E+00 -0.00000000000E+00 -0.45593999997E+02  0.45594000000E+02  0.51100000000E-03 0.  1.
    9900012    2    1    2    0    0  0.25952633173E+02 -0.31796943294E+02  0.14108089891E+02  0.47787274524E+02  0.20000015866E+02 0.  0.
        -12    1    1    2    0    0 -0.25952633173E+02  0.31796943294E+02 -0.14108089891E+02  0.43400725476E+02  0.00000000000E+00 0.  1.
         11    1    3    3    0    0  0.65338005108E+00 -0.50413497182E+01  0.45891328476E+01  0.68485219593E+01  0.51100000000E-03 0. -1.
        -11    1    3    3    0    0  0.13115580134E+02 -0.23218631994E+02  0.34963881380E+01  0.26895130492E+02  0.51100000000E-03 0.  1.
        -12    1    3    3    0    0  0.12183672988E+02 -0.35369615818E+01  0.60225689054E+01  0.14043622073E+02  0.00000000000E+00 0.  1.
</event>
<event>
 7    1  0.8440037E-011  0.4778728E+02  0.7816164E-02  0.1312668E+00
        -11   -1    0    0    0    0  0.00000000000E+00  0.00000000000E+00  0.45593999997E+02  0.45594000000E+02  0.51100000000E-03 0. -1.
         11   -1    0    0    0    0 -0.00000000000E+00 -0.00000000000E+00 -0.45593999997E+02  0.45594000000E+02  0.51100000000E-03 0.  1.
    9900012    2    1    2    0    0  0.24705017433E+02 -0.23697792204E+02 -0.26677690699E+02  0.47787280850E+02  0.20000044709E+02 0.  0.
         12    1    1    2    0    0 -0.24705017433E+02  0.23697792204E+02  0.26677690699E+02  0.43400719150E+02  0.00000000000E+00 0. -1.
         11    1    3    3    0    0  0.24597847648E+01 -0.61775332284E+00 -0.41729129424E+01  0.48831714022E+01  0.51100000000E-03 0. -1.
        -11    1    3    3    0    0  0.20595386512E+02 -0.14139487520E+02 -0.88571762668E+01  0.26505558372E+02  0.51100000000E-03 0.  1.
        -12    1    3    3    0    0  0.16498461556E+01 -0.89405513608E+01 -0.13647601490E+02  0.16398551076E+02  0.00000000000E+00 0.  1.
</event>
<event>
 7    1  0.8440037E-011  0.4778728E+02  0.7816164E-02  0.1312668E+00
        -11   -1    0    0    0    0  0.00000000000E+00  0.00000000000E+00  0.45593999997E+02  0.45594000000E+02  0.51100000000E-03 0. -1.
         11   -1    0    0    0    0 -0.00000000000E+00 -0.00000000000E+00 -0.45593999997E+02  0.45594000000E+02  0.51100000000E-03 0.  1.
    9900012    2    1    2    0    0  0.35478637176E+01  0.27280811161E+02  0.33567733253E+02  0.47787277538E+02  0.20000029605E+02 0.  0.
        -12    1    1    2    0    0 -0.35478637176E+01 -0.27280811161E+02 -0.33567733253E+02  0.43400722462E+02  0.00000000000E+00 0.  1.
         11    1    3    3    0    0  0.43064411543E+00  0.72419118682E+01  0.10810304592E+02  0.13018964148E+02  0.51100000000E-03 0. -1.
        -11    1    3    3    0    0 -0.55526261574E+01  0.71608550772E+01  0.28008549765E+01  0.94844236272E+01  0.51100000000E-03 0.  1.
        -12    1    3    3    0    0  0.86698457596E+01  0.12878044215E+02  0.19956573685E+02  0.25283889763E+02  0.00000000000E+00 0.  1.
</event>
<event>
 7    1  0.8440037E-011  0.4778727E+02  0.7816164E-02  0.1312668E+00
        -11   -1    0    0    0    0  0.00000000000E+00  0.00000000000E+00  0.45593999997E+02  0.45594000000E+02  0.51100000000E-03 0. -1.
         11   -1    0    0    0    0 -0.00000000000E+00 -0.00000000000E+00 -0.45593999997E+02  0.45594000000E+02  0.51100000000E-03 0.  1.
    9900012    2    1    2    0    0 -0.25144968756E+00  0.51424708034E+01  0.43094257107E+02  0.47787271567E+02  0.20000002382E+02 0.  0.
        -12    1    1    2    0    0  0.25144968756E+00 -0.51424708034E+01 -0.43094257107E+02  0.43400728433E+02  0.00000000000E+00 0.  1.
         11    1    3    3    0    0 -0.83156925177E+00  0.76899948438E+00  0.20106449252E+02  0.20138325884E+02  0.51100000000E-03 0. -1.
        -11    1    3    3    0    0 -0.18181818298E+01  0.83122789554E+01  0.20940899927E+02  0.22603562918E+02  0.51100000000E-03 0.  1.
        -12    1    3    3    0    0  0.23983013940E+01 -0.39388076364E+01  0.20469079287E+01  0.50453827646E+01  0.00000000000E+00 0.  1.
</event>
<event>
 7    1  0.8440037E-011  0.4778727E+02  0.7816164E-02  0.1312668E+00
        -11   -1    0    0    0    0  0.00000000000E+00  0.00000000000E+00  0.45593999997E+02  0.45594000000E+02  0.51100000000E-03 0. -1.
         11   -1    0    0    0    0 -0.00000000000E+00 -0.00000000000E+00 -0.45593999997E+02  0.45594000000E+02  0.51100000000E-03 0.  1.
    9900012    2    1    2    0    0 -0.16972626004E+00 -0.47716395273E+01 -0.43137293523E+02  0.47787269093E+02  0.19999991103E+02 0.  0.
         12    1    1    2    0    0  0.16972626004E+00  0.47716395273E+01  0.43137293523E+02  0.43400730907E+02  0.00000000000E+00 0. -1.
         11    1    3    3    0    0  0.51580552022E+01 -0.30003813111E+01 -0.91356714624E+01  0.10911842870E+02  0.51100000000E-03 0. -1.
        -11    1    3    3    0    0  0.39884766536E+00 -0.63881275089E+01 -0.11004768867E+02  0.12730757661E+02  0.51100000000E-03 0.  1.
        -12    1    3    3    0    0 -0.57266291276E+01  0.46168692927E+01 -0.22996853193E+02  0.24144668563E+02  0.00000000000E+00 0.  1.
</event>
<event>
 7    1  0.8440037E-011  0.4778727E+02  0.7816164E-02  0.1312668E+00
        -11   -1    0    0    0    0  0.00000000000E+00  0.00000000000E+00  0.45593999997E+02  0.45594000000E+02  0.51100000000E-03 0.  1.
         11   -1    0    0    0    0 -0.00000000000E+00 -0.00000000000E+00 -0.45593999997E+02  0.45594000000E+02  0.51100000000E-03 0. -1.
    9900012    2    1    2    0    0  0.26411355102E+02 -0.27720809453E+02  0.20435766016E+02  0.47787268581E+02  0.19999988768E+02 0.  0.
         12    1    1    2    0    0 -0.26411355102E+02  0.27720809453E+02 -0.20435766016E+02  0.43400731419E+02  0.00000000000E+00 0. -1.
         11    1    3    3    0    0  0.16910084100E+02 -0.15201217354E+02  0.58697890959E+01  0.23483661929E+02  0.51100000000E-03 0. -1.
        -11    1    3    3    0    0  0.70617620254E+01 -0.14519565570E+02  0.10969153683E+02  0.19519441591E+02  0.51100000000E-03 0.  1.
         12    1    3    3    0    0  0.24395089764E+01  0.19999734709E+01  0.35968232366E+01  0.47841650604E+01  0.00000000000E+00 0. -1.
</event>
<event>
 7    1  0.8440037E-011  0.4778727E+02  0.7816164E-02  0.1312668E+00
        -11   -1    0    0    0    0  0.00000000000E+00  0.00000000000E+00  0.45593999997E+02  0.45594000000E+02  0.51100000000E-03 0. -1.
         11   -1    0    0    0    0 -0.00000000000E+00 -0.00000000000E+00 -0.45593999997E+02  0.45594000000E+02  0.51100000000E-03 0.  1.
    9900012    2    1    2    0    0  0.15373478535E+02 -0.38807359953E+02  0.11885625080E+02  0.47787272905E+02  0.20000008485E+02 0.  0.
        -12    1    1    2    0    0 -0.15373478535E+02  0.38807359953E+02 -0.11885625080E+02  0.43400727095E+02  0.00000000000E+00 0.  1.
         11    1    3    3    0    0  0.40914831340E+01 -0.10399572839E+02  0.60143684482E+01  0.12691098359E+02  0.51100000000E-03 0. -1.
        -11    1    3    3    0    0  0.11763581501E+02 -0.27498717586E+02  0.79820774949E+00  0.29919867220E+02  0.51100000000E-03 0.  1.
        -12    1    3    3    0    0 -0.48158609924E+00 -0.90906952846E+00  0.50730488823E+01  0.51763073267E+01  0.00000000000E+00 0.  1.
</event>
<event>
 7    1  0.8440037E-011  0.4778728E+02  0.7816164E-02  0.1312668E+00
        -11   -1    0    0    0    0  0.00000000000E+00  0.00000000000E+00  0.45593999997E+02  0.45594000000E+02  0.51100000000E-03 0. -1.
         11   -1    0    0    0    0 -0.00000000000E+00 -0.00000000000E+00 -0.45593999997E+02  0.45594000000E+02  0.51100000000E-03 0.  1.
    9900012    2    1    2    0    0  0.17036887839E+02  0.83139100402E+01 -0.39041591006E+02  0.47787280240E+02  0.20000041925E+02 0.  0.
         12    1    1    2    0    0 -0.17036887839E+02 -0.83139100402E+01  0.39041591006E+02  0.43400719760E+02  0.00000000000E+00 0. -1.
         11    1    3    3    0    0  0.32465886753E+01  0.64370587901E+01 -0.44548530604E+01  0.84747731500E+01  0.51100000000E-03 0. -1.
        -11    1    3    3    0    0  0.83174780126E+01  0.56697654953E+01 -0.11492873069E+02  0.15277853675E+02  0.51100000000E-03 0.  1.
        -12    1    3    3    0    0  0.54728211514E+01 -0.37929142451E+01 -0.23093864877E+02  0.24034653415E+02  0.00000000000E+00 0.  1.
</event>
<event>
 7    1  0.8440037E-011  0.4778728E+02  0.7816164E-02  0.1312668E+00
        -11   -1    0    0    0    0  0.00000000000E+00  0.00000000000E+00  0.45593999997E+02  0.45594000000E+02  0.51100000000E-03 0. -1.
         11   -1    0    0    0    0 -0.00000000000E+00 -0.00000000000E+00 -0.45593999997E+02  0.45594000000E+02  0.51100000000E-03 0.  1.
    9900012    2    1    2    0    0  0.24575585971E+02  0.85771928341E+01 -0.34728870234E+02  0.47787284678E+02  0.20000062161E+02 0.  0.
         12    1    1    2    0    0 -0.24575585971E+02 -0.85771928341E+01  0.34728870234E+02  0.43400715322E+02  0.00000000000E+00 0. -1.
         11    1    3    3    0    0  0.12307119691E-01  0.12405127055E+01 -0.40898751021E+01  0.42738860361E+01  0.51100000000E-03 0. -1.
        -11    1    3    3    0    0  0.13908950964E+02 -0.32717002772E+01 -0.21822035002E+02  0.26083790973E+02  0.51100000000E-03 0.  1.
         12    1    3    3    0    0  0.10654327888E+02  0.10608380406E+02 -0.88169601290E+01  0.17429607669E+02  0.00000000000E+00 0. -1.
</event>
<event>
 7    1  0.8440037E-011  0.4778727E+02  0.7816164E-02  0.1312668E+00
        -11   -1    0    0    0    0  0.00000000000E+00  0.00000000000E+00  0.45593999997E+02  0.45594000000E+02  0.51100000000E-03 0. -1.
         11   -1    0    0    0    0 -0.00000000000E+00 -0.00000000000E+00 -0.45593999997E+02  0.45594000000E+02  0.51100000000E-03 0.  1.
    9900012    2    1    2    0    0 -0.41792946497E+02  0.34071059813E+01  0.11196649999E+02  0.47787265913E+02  0.19999976603E+02 0.  0.
        -12    1    1    2    0    0  0.41792946497E+02 -0.34071059813E+01 -0.11196649999E+02  0.43400734087E+02  0.00000000000E+00 0.  1.
         11    1    3    3    0    0 -0.18812843341E+02  0.49882788294E+01  0.94680622252E+01  0.21643710468E+02  0.51100000000E-03 0. -1.
        -11    1    3    3    0    0 -0.96111406268E+01 -0.46526512666E+01  0.53684016235E+01  0.11951607599E+02  0.51100000000E-03 0.  1.
        -12    1    3    3    0    0 -0.13368962530E+02  0.30714784185E+01 -0.36398138499E+01  0.14191947846E+02  0.00000000000E+00 0.  1.
</event>
<event>
 7    1  0.8440037E-011  0.4778727E+02  0.7816164E-02  0.1312668E+00
        -11   -1    0    0    0    0  0.00000000000E+00  0.00000000000E+00  0.45593999997E+02  0.45594000000E+02  0.51100000000E-03 0.  1.
         11   -1    0    0    0    0 -0.00000000000E+00 -0.00000000000E+00 -0.45593999997E+02  0.45594000000E+02  0.51100000000E-03 0. -1.
    9900012    2    1    2    0    0 -0.48392619806E+01 -0.40046006784E+02  0.16016306643E+02  0.47787271961E+02  0.20000004177E+02 0.  0.
        -12    1    1    2    0    0  0.48392619806E+01  0.40046006784E+02 -0.16016306643E+02  0.43400728039E+02  0.00000000000E+00 0.  1.
         11    1    3    3    0    0 -0.87814521313E+01 -0.36618193372E+02  0.99185688081E+01  0.38940775478E+02  0.51100000000E-03 0. -1.
        -11    1    3    3    0    0  0.19846231775E+01 -0.28547865675E+01  0.14428914501E+01  0.37643686722E+01  0.51100000000E-03 0.  1.
        -12    1    3    3    0    0  0.19575669732E+01 -0.57302684490E+00  0.46548463848E+01  0.50821278108E+01  0.00000000000E+00 0.  1.
</event>
<event>
 7    1  0.8440037E-011  0.4778727E+02  0.7816164E-02  0.1312668E+00
        -11   -1    0    0    0    0  0.00000000000E+00  0.00000000000E+00  0.45593999997E+02  0.45594000000E+02  0.51100000000E-03 0.  1.
         11   -1    0    0    0    0 -0.00000000000E+00 -0.00000000000E+00 -0.45593999997E+02  0.45594000000E+02  0.51100000000E-03 0. -1.
    9900012    2    1    2    0    0  0.23884774819E+02 -0.34385567356E+02  0.11435628830E+02  0.47787270544E+02  0.19999997719E+02 0.  0.
         12    1    1    2    0    0 -0.23884774819E+02  0.34385567356E+02 -0.11435628830E+02  0.43400729456E+02  0.00000000000E+00 0. -1.
         11    1    3    3    0    0  0.14524324518E+02 -0.11193358312E+02  0.78266665868E+01  0.19937501928E+02  0.51100000000E-03 0. -1.
        -11    1    3    3    0    0  0.64537788210E+01 -0.12832840921E+02  0.77491973709E+01  0.16321247726E+02  0.51100000000E-03 0.  1.
         12    1    3    3    0    0  0.29066714801E+01 -0.10359368123E+02 -0.41402351279E+01  0.11528520891E+02  0.00000000000E+00 0. -1.
</event>
<event>
 7    1  0.8440037E-011  0.4778727E+02  0.7816164E-02  0.1312668E+00
        -11   -1    0    0    0    0  0.00000000000E+00  0.00000000000E+00  0.45593999997E+02  0.45594000000E+02  0.51100000000E-03 0. -1.
         11   -1    0    0    0    0 -0.00000000000E+00 -0.00000000000E+00 -0.45593999997E+02  0.45594000000E+02  0.51100000000E-03 0.  1.
    9900012    2    1    2    0    0 -0.10931689772E+02 -0.41510868038E+02 -0.64007252143E+01  0.47787270861E+02  0.19999999164E+02 0.  0.
         12    1    1    2    0    0  0.10931689772E+02  0.41510868038E+02  0.64007252143E+01  0.43400729139E+02  0.00000000000E+00 0. -1.
         11    1    3    3    0    0 -0.41695483367E+01 -0.99295685071E+01 -0.31354279047E+01  0.11216611453E+02  0.51100000000E-03 0. -1.
        -11    1    3    3    0    0 -0.29273553807E+01 -0.32328419320E+02 -0.35454853044E+01  0.32653737482E+02  0.51100000000E-03 0.  1.
         12    1    3    3    0    0 -0.38347860544E+01  0.74711978944E+00  0.28018799480E+00  0.39169219261E+01  0.00000000000E+00 0. -1.
</event>
<event>
 7    1  0.8440037E-011  0.4778727E+02  0.7816164E-02  0.1312668E+00
        -11   -1    0    0    0    0  0.00000000000E+00  0.00000000000E+00  0.45593999997E+02  0.45594000000E+02  0.51100000000E-03 0. -1.
         11   -1    0    0    0    0 -0.00000000000E+00 -0.00000000000E+00 -0.45593999997E+02  0.45594000000E+02  0.51100000000E-03 0.  1.
    9900012    2    1    2    0    0  0.29694393550E+02 -0.30146844859E+01 -0.31508382440E+02  0.47787268498E+02  0.19999988392E+02 0.  0.
         12    1    1    2    0    0 -0.29694393550E+02  0.30146844859E+01  0.31508382440E+02  0.43400731502E+02  0.00000000000E+00 0. -1.
         11    1    3    3    0    0  0.27977318797E+02 -0.34947324001E+01 -0.18611703263E+02  0.33783709392E+02  0.51100000000E-03 0.  1.
        -11    1    3    3    0    0 -0.15157253761E+00 -0.16108759093E+00  0.45531767681E+00  0.50619946073E+00  0.51100000000E-03 0. -1.
        -12    1    3    3    0    0  0.18686472906E+01  0.64113550515E+00 -0.13351996854E+02  0.13497359646E+02  0.00000000000E+00 0.  1.
</event>
<event>
 7    1  0.8440037E-011  0.4778728E+02  0.7816164E-02  0.1312668E+00
        -11   -1    0    0    0    0  0.00000000000E+00  0.00000000000E+00  0.45593999997E+02  0.45594000000E+02  0.51100000000E-03 0. -1.
         11   -1    0    0    0    0 -0.00000000000E+00 -0.00000000000E+00 -0.45593999997E+02  0.45594000000E+02  0.51100000000E-03 0.  1.
    9900012    2    1    2    0    0  0.62650654335E+01 -0.40557700936E+02  0.14122476426E+02  0.47787280069E+02  0.20000041148E+02 0.  0.
        -12    1    1    2    0    0 -0.62650654335E+01  0.40557700936E+02 -0.14122476426E+02  0.43400719931E+02  0.00000000000E+00 0.  1.
         11    1    3    3    0    0  0.53209416543E+01 -0.38077233696E+01  0.19155457396E+01  0.68176603824E+01  0.51100000000E-03 0. -1.
        -11    1    3    3    0    0  0.42450139680E+01 -0.10606608777E+02  0.87552896150E+01  0.14393588498E+02  0.51100000000E-03 0.  1.
         12    1    3    3    0    0 -0.33008901888E+01 -0.26143368789E+02  0.34516410713E+01  0.26576031189E+02  0.00000000000E+00 0. -1.
</event>
<event>
 7    1  0.8440037E-011  0.4778727E+02  0.7816164E-02  0.1312668E+00
        -11   -1    0    0    0    0  0.00000000000E+00  0.00000000000E+00  0.45593999997E+02  0.45594000000E+02  0.51100000000E-03 0. -1.
         11   -1    0    0    0    0 -0.00000000000E+00 -0.00000000000E+00 -0.45593999997E+02  0.45594000000E+02  0.51100000000E-03 0.  1.
    9900012    2    1    2    0    0 -0.31734854727E+02  0.22440228528E+02 -0.19312129712E+02  0.47787271723E+02  0.20000003096E+02 0.  0.
         12    1    1    2    0    0  0.31734854727E+02 -0.22440228528E+02  0.19312129712E+02  0.43400728277E+02  0.00000000000E+00 0. -1.
         11    1    3    3    0    0 -0.10009757674E+01  0.65146697121E+01 -0.87446666472E+00  0.66488770595E+01  0.51100000000E-03 0.  1.
        -11    1    3    3    0    0 -0.89554366165E+01  0.89974333643E+01 -0.16936436677E+01  0.12807110575E+02  0.51100000000E-03 0. -1.
        -12    1    3    3    0    0 -0.21778442343E+02  0.69281254514E+01 -0.16744019379E+02  0.28331284089E+02  0.00000000000E+00 0.  1.
</event>
<event>
 7    1  0.8440037E-011  0.4778727E+02  0.7816164E-02  0.1312668E+00
        -11   -1    0    0    0    0  0.00000000000E+00  0.00000000000E+00  0.45593999997E+02  0.45594000000E+02  0.51100000000E-03 0. -1.
         11   -1    0    0    0    0 -0.00000000000E+00 -0.00000000000E+00 -0.45593999997E+02  0.45594000000E+02  0.51100000000E-03 0.  1.
    9900012    2    1    2    0    0  0.13104869512E+02  0.28151044798E+02 -0.30321682325E+02  0.47787270200E+02  0.19999996151E+02 0.  0.
         12    1    1    2    0    0 -0.13104869512E+02 -0.28151044798E+02  0.30321682325E+02  0.43400729800E+02  0.00000000000E+00 0. -1.
         11    1    3    3    0    0  0.28291372036E+01  0.13624629452E+02 -0.96383466981E+01  0.16927264172E+02  0.51100000000E-03 0. -1.
        -11    1    3    3    0    0  0.67419637423E+01  0.15898908982E+02 -0.11035716144E+02  0.20494301964E+02  0.51100000000E-03 0.  1.
         12    1    3    3    0    0  0.35337685661E+01 -0.13724936358E+01 -0.96476194828E+01  0.10365704064E+02  0.00000000000E+00 0. -1.
</event>
<event>
 7    1  0.8440037E-011  0.4778727E+02  0.7816164E-02  0.1312668E+00
        -11   -1    0    0    0    0  0.00000000000E+00  0.00000000000E+00  0.45593999997E+02  0.45594000000E+02  0.51100000000E-03 0. -1.
         11   -1    0    0    0    0 -0.00000000000E+00 -0.00000000000E+00 -0.45593999997E+02  0.45594000000E+02  0.51100000000E-03 0.  1.
    9900012    2    1    2    0    0 -0.64919523085E+01 -0.53745678828E+01  0.42574547632E+02  0.47787268085E+02  0.19999986508E+02 0.  0.
        -12    1    1    2    0    0  0.64919523085E+01  0.53745678828E+01 -0.42574547632E+02  0.43400731915E+02  0.00000000000E+00 0.  1.
         11    1    3    3    0    0 -0.11147109167E+02 -0.81502787223E+01  0.25027772564E+02  0.28584514791E+02  0.51100000000E-03 0. -1.
        -11    1    3    3    0    0 -0.90568022803E+00  0.19464945038E+01  0.56566705024E+01  0.60503734564E+01  0.51100000000E-03 0.  1.
         12    1    3    3    0    0  0.55608370869E+01  0.82921633571E+00  0.11890104565E+02  0.13152379838E+02  0.00000000000E+00 0. -1.
</event>
<event>
 7    1  0.8440037E-011  0.4778727E+02  0.7816164E-02  0.1312668E+00
        -11   -1    0    0    0    0  0.00000000000E+00  0.00000000000E+00  0.45593999997E+02  0.45594000000E+02  0.51100000000E-03 0. -1.
         11   -1    0    0    0    0 -0.00000000000E+00 -0.00000000000E+00 -0.45593999997E+02  0.45594000000E+02  0.51100000000E-03 0.  1.
    9900012    2    1    2    0    0  0.25921074910E+02  0.36549217387E+01 -0.34617378037E+02  0.47787269135E+02  0.19999991295E+02 0.  0.
         12    1    1    2    0    0 -0.25921074910E+02 -0.36549217387E+01  0.34617378037E+02  0.43400730865E+02  0.00000000000E+00 0. -1.
         11    1    3    3    0    0  0.14906149907E+01  0.23042938238E+01 -0.36718381268E+01  0.45841137167E+01  0.51100000000E-03 0. -1.
        -11    1    3    3    0    0  0.84725650130E+01  0.90172667917E+01 -0.14197013753E+02  0.18832170827E+02  0.51100000000E-03 0.  1.
         12    1    3    3    0    0  0.15957894907E+02 -0.76666388768E+01 -0.16748526157E+02  0.24370984591E+02  0.00000000000E+00 0. -1.
</event>
<event>
 7    1  0.8440037E-011  0.4778727E+02  0.7816164E-02  0.1312668E+00
        -11   -1    0    0    0    0  0.00000000000E+00  0.00000000000E+00  0.45593999997E+02  0.45594000000E+02  0.51100000000E-03 0. -1.
         11   -1    0    0    0    0 -0.00000000000E+00 -0.00000000000E+00 -0.45593999997E+02  0.45594000000E+02  0.51100000000E-03 0.  1.
    9900012    2    1    2    0    0  0.78661554912E+01 -0.26713679019E+02  0.33288528850E+02  0.47787271873E+02  0.20000003778E+02 0.  0.
        -12    1    1    2    0    0 -0.78661554912E+01  0.26713679019E+02 -0.33288528850E+02  0.43400728127E+02  0.00000000000E+00 0.  1.
         11    1    3    3    0    0  0.99097256740E+01 -0.21532446736E+02  0.17062323887E+02  0.29205681332E+02  0.51100000000E-03 0. -1.
        -11    1    3    3    0    0 -0.16153054909E+01 -0.13312140135E+01  0.21010882375E+00  0.21036845195E+01  0.51100000000E-03 0.  1.
        -12    1    3    3    0    0 -0.42826469185E+00 -0.38500182698E+01  0.16016096139E+02  0.16477906022E+02  0.00000000000E+00 0.  1.
</event>
<event>
 7    1  0.8440037E-011  0.4778727E+02  0.7816164E-02  0.1312668E+00
        -11   -1    0    0    0    0  0.00000000000E+00  0.00000000000E+00  0.45593999997E+02  0.45594000000E+02  0.51100000000E-03 0. -1.
         11   -1    0    0    0    0 -0.00000000000E+00 -0.00000000000E+00 -0.45593999997E+02  0.45594000000E+02  0.51100000000E-03 0.  1.
    9900012    2    1    2    0    0 -0.23111568579E+02 -0.35290112216E+02  0.10202280679E+02  0.47787272431E+02  0.20000006324E+02 0.  0.
        -12    1    1    2    0    0  0.23111568579E+02  0.35290112216E+02 -0.10202280679E+02  0.43400727569E+02  0.00000000000E+00 0.  1.
         11    1    3    3    0    0 -0.23190686720E+01 -0.19011183572E+02  0.78128195231E+01  0.20684374041E+02  0.51100000000E-03 0. -1.
        -11    1    3    3    0    0 -0.62835202722E+01 -0.75649027040E+01  0.26180820233E+01  0.10176675964E+02  0.51100000000E-03 0.  1.
        -12    1    3    3    0    0 -0.14508979635E+02 -0.87140259406E+01 -0.22862086685E+00  0.16926222427E+02  0.00000000000E+00 0.  1.
</event>
<event>
 7    1  0.8440037E-011  0.4778732E+02  0.7816164E-02  0.1312668E+00
        -11   -1    0    0    0    0  0.00000000000E+00  0.00000000000E+00  0.45593999997E+02  0.45594000000E+02  0.51100000000E-03 0. -1.
         11   -1    0    0    0    0 -0.00000000000E+00 -0.00000000000E+00 -0.45593999997E+02  0.45594000000E+02  0.51100000000E-03 0.  1.
    9900012    2    1    2    0    0 -0.28242628543E+02 -0.83679188399E+01 -0.31873980492E+02  0.47787322988E+02  0.20000236828E+02 0.  0.
         12    1    1    2    0    0  0.28242628543E+02  0.83679188399E+01  0.31873980492E+02  0.43400677012E+02  0.00000000000E+00 0. -1.
         11    1    3    3    0    0 -0.13921101835E+02 -0.18486177629E+01 -0.17128636120E+02  0.22149596825E+02  0.51100000000E-03 0. -1.
        -11    1    3    3    0    0 -0.24676303653E+01 -0.85850941048E+01 -0.59381560336E+01  0.10726357152E+02  0.51100000000E-03 0.  1.
         12    1    3    3    0    0 -0.11853896343E+02  0.20657930279E+01 -0.88071883384E+01  0.14911369010E+02  0.00000000000E+00 0. -1.
</event>
<event>
 7    1  0.8440037E-011  0.4778727E+02  0.7816164E-02  0.1312668E+00
        -11   -1    0    0    0    0  0.00000000000E+00  0.00000000000E+00  0.45593999997E+02  0.45594000000E+02  0.51100000000E-03 0. -1.
         11   -1    0    0    0    0 -0.00000000000E+00 -0.00000000000E+00 -0.45593999997E+02  0.45594000000E+02  0.51100000000E-03 0.  1.
    9900012    2    1    2    0    0  0.79918540833E+01  0.89143935049E-01  0.42658475884E+02  0.47787271399E+02  0.20000001618E+02 0.  0.
        -12    1    1    2    0    0 -0.79918540833E+01 -0.89143935049E-01 -0.42658475884E+02  0.43400728601E+02  0.00000000000E+00 0.  1.
         11    1    3    3    0    0  0.30964422321E+01 -0.11434682247E+01  0.18781667361E+02  0.19069517645E+02  0.51100000000E-03 0. -1.
        -11    1    3    3    0    0 -0.38494214192E+01  0.20463718201E+01  0.17037016599E+02  0.17585949441E+02  0.51100000000E-03 0.  1.
        -12    1    3    3    0    0  0.87448332704E+01 -0.81375966041E+00  0.68397919240E+01  0.11131804314E+02  0.00000000000E+00 0.  1.
</event>
<event>
 7    1  0.8440037E-011  0.4778727E+02  0.7816164E-02  0.1312668E+00
        -11   -1    0    0    0    0  0.00000000000E+00  0.00000000000E+00  0.45593999997E+02  0.45594000000E+02  0.51100000000E-03 0. -1.
         11   -1    0    0    0    0 -0.00000000000E+00 -0.00000000000E+00 -0.45593999997E+02  0.45594000000E+02  0.51100000000E-03 0.  1.
    9900012    2    1    2    0    0 -0.67847334150E+01 -0.13129659116E+02  0.40806894149E+02  0.47787272286E+02  0.20000005662E+02 0.  0.
        -12    1    1    2    0    0  0.67847334150E+01  0.13129659116E+02 -0.40806894149E+02  0.43400727714E+02  0.00000000000E+00 0.  1.
         11    1    3    3    0    0 -0.92855050883E+01 -0.72786273677E+01  0.36206130100E+02  0.38079953757E+02  0.51100000000E-03 0. -1.
        -11    1    3    3    0    0  0.23321561291E+01 -0.34772564901E+00  0.32897330730E+01  0.40474941989E+01  0.51100000000E-03 0.  1.
         12    1    3    3    0    0  0.16861554426E+00 -0.55033060994E+01  0.13110309759E+01  0.56598243299E+01  0.00000000000E+00 0. -1.
</event>
<event>
 7    1  0.8440037E-011  0.4778728E+02  0.7816164E-02  0.1312668E+00
        -11   -1    0    0    0    0  0.00000000000E+00  0.00000000000E+00  0.45593999997E+02  0.45594000000E+02  0.51100000000E-03 0.  1.
         11   -1    0    0    0    0 -0.00000000000E+00 -0.00000000000E+00 -0.45593999997E+02  0.45594000000E+02  0.51100000000E-03 0. -1.
    9900012    2    1    2    0    0 -0.18122368496E+02  0.39190191029E+02 -0.43967657256E+01  0.47787275794E+02  0.20000021654E+02 0.  0.
        -12    1    1    2    0    0  0.18122368496E+02 -0.39190191029E+02  0.43967657256E+01  0.43400724206E+02  0.00000000000E+00 0.  1.
         11    1    3    3    0    0  0.19128994405E+01  0.70405171202E+01 -0.51033240473E+01  0.89034814642E+01  0.51100000000E-03 0.  1.
        -11    1    3    3    0    0 -0.68426015957E+01  0.18086069515E+02 -0.18790926881E+01  0.19428280848E+02  0.51100000000E-03 0. -1.
        -12    1    3    3    0    0 -0.13192666340E+02  0.14063604394E+02  0.25856510098E+01  0.19455513482E+02  0.00000000000E+00 0.  1.
</event>
<event>
 7    1  0.8440037E-011  0.4778727E+02  0.7816164E-02  0.1312668E+00
        -11   -1    0    0    0    0  0.00000000000E+00  0.00000000000E+00  0.45593999997E+02  0.45594000000E+02  0.51100000000E-03 0. -1.
         11   -1    0    0    0    0 -0.00000000000E+00 -0.00000000000E+00 -0.45593999997E+02  0.45594000000E+02  0.51100000000E-03 0.  1.
    9900012    2    1    2    0    0  0.32938171045E+02 -0.26081158524E+02  0.10884541309E+02  0.47787272111E+02  0.20000004863E+02 0.  0.
        -12    1    1    2    0    0 -0.32938171045E+02  0.26081158524E+02 -0.10884541309E+02  0.43400727889E+02  0.00000000000E+00 0.  1.
         11    1    3    3    0    0  0.20615069829E+02 -0.13806106561E+02  0.95966904488E+01  0.26602371140E+02  0.51100000000E-03 0. -1.
        -11    1    3    3    0    0  0.10489263969E+02 -0.13777927723E+02  0.38022973980E+01  0.17728886505E+02  0.51100000000E-03 0.  1.
        -12    1    3    3    0    0  0.18338372474E+01  0.15028757596E+01 -0.25144465377E+01  0.34560144660E+01  0.00000000000E+00 0.  1.
</event>
<event>
 7    1  0.8440037E-011  0.4778726E+02  0.7816164E-02  0.1312668E+00
        -11   -1    0    0    0    0  0.00000000000E+00  0.00000000000E+00  0.45593999997E+02  0.45594000000E+02  0.51100000000E-03 0. -1.
         11   -1    0    0    0    0 -0.00000000000E+00 -0.00000000000E+00 -0.45593999997E+02  0.45594000000E+02  0.51100000000E-03 0.  1.
    9900012    2    1    2    0    0  0.81086043541E+01 -0.42594919350E+01  0.42423241550E+02  0.47787260839E+02  0.19999953470E+02 0.  0.
        -12    1    1    2    0    0 -0.81086043541E+01  0.42594919350E+01 -0.42423241550E+02  0.43400739161E+02  0.00000000000E+00 0.  1.
         11    1    3    3    0    0 -0.81663772989E+00  0.83281224315E+00  0.23510095120E+01  0.26244464942E+01  0.51100000000E-03 0. -1.
        -11    1    3    3    0    0  0.35582190451E+01  0.14986435662E+01 -0.33109665057E+00  0.38751103938E+01  0.51100000000E-03 0.  1.
         12    1    3    3    0    0  0.53670230389E+01 -0.65909477443E+01  0.40403328688E+02  0.41287703951E+02  0.00000000000E+00 0. -1.
</event>
<event>
 7    1  0.8440037E-011  0.4778728E+02  0.7816164E-02  0.1312668E+00
        -11   -1    0    0    0    0  0.00000000000E+00  0.00000000000E+00  0.45593999997E+02  0.45594000000E+02  0.51100000000E-03 0. -1.
         11   -1    0    0    0    0 -0.00000000000E+00 -0.00000000000E+00 -0.45593999997E+02  0.45594000000E+02  0.51100000000E-03 0.  1.
    9900012    2    1    2    0    0 -0.22201120299E+02  0.23173775977E+02  0.29218298644E+02  0.47787278679E+02  0.20000034808E+02 0.  0.
        -12    1    1    2    0    0  0.22201120299E+02 -0.23173775977E+02 -0.29218298644E+02  0.43400721321E+02  0.00000000000E+00 0.  1.
         11    1    3    3    0    0 -0.58783515499E+01  0.80548611364E+01  0.10171607203E+02  0.14244205777E+02  0.51100000000E-03 0. -1.
        -11    1    3    3    0    0 -0.14797175302E+02  0.15082787247E+02  0.21822493880E+02  0.30375452383E+02  0.51100000000E-03 0.  1.
        -12    1    3    3    0    0 -0.15255934468E+01  0.36127593051E-01 -0.27758024392E+01  0.31676205185E+01  0.00000000000E+00 0.  1.
</event>
<event>
 7    1  0.8440037E-011  0.4778727E+02  0.7816164E-02  0.1312668E+00
        -11   -1    0    0    0    0  0.00000000000E+00  0.00000000000E+00  0.45593999997E+02  0.45594000000E+02  0.51100000000E-03 0. -1.
         11   -1    0    0    0    0 -0.00000000000E+00 -0.00000000000E+00 -0.45593999997E+02  0.45594000000E+02  0.51100000000E-03 0.  1.
    9900012    2    1    2    0    0  0.22313107453E+02  0.35799377862E+02  0.10205532770E+02  0.47787272833E+02  0.20000008155E+02 0.  0.
        -12    1    1    2    0    0 -0.22313107453E+02 -0.35799377862E+02 -0.10205532770E+02  0.43400727167E+02  0.00000000000E+00 0.  1.
         11    1    3    3    0    0  0.20209795054E+02  0.24597844741E+02  0.48811218389E+01  0.32207376992E+02  0.51100000000E-03 0. -1.
        -11    1    3    3    0    0  0.17213111317E+01  0.13706485888E+01 -0.22624734614E+01  0.31560063357E+01  0.51100000000E-03 0.  1.
        -12    1    3    3    0    0  0.38200126699E+00  0.98308845319E+01  0.75868843929E+01  0.12423889505E+02  0.00000000000E+00 0.  1.
</event>
<event>
 7    1  0.8440037E-011  0.4778727E+02  0.7816164E-02  0.1312668E+00
        -11   -1    0    0    0    0  0.00000000000E+00  0.00000000000E+00  0.45593999997E+02  0.45594000000E+02  0.51100000000E-03 0. -1.
         11   -1    0    0    0    0 -0.00000000000E+00 -0.00000000000E+00 -0.45593999997E+02  0.45594000000E+02  0.51100000000E-03 0.  1.
    9900012    2    1    2    0    0  0.11615852363E+02  0.36903165075E+02  0.19668544841E+02  0.47787271034E+02  0.19999999953E+02 0.  0.
        -12    1    1    2    0    0 -0.11615852363E+02 -0.36903165075E+02 -0.19668544841E+02  0.43400728966E+02  0.00000000000E+00 0.  1.
         11    1    3    3    0    0  0.51561190268E+01  0.14199896570E+02  0.30307900428E+01  0.15408060052E+02  0.51100000000E-03 0. -1.
        -11    1    3    3    0    0  0.85432575354E+01  0.13362591690E+02  0.36992275003E+01  0.16285895442E+02  0.51100000000E-03 0.  1.
         12    1    3    3    0    0 -0.20835241996E+01  0.93406768137E+01  0.12938527297E+02  0.16093315539E+02  0.00000000000E+00 0. -1.
</event>
<event>
 7    1  0.8440037E-011  0.4778727E+02  0.7816164E-02  0.1312668E+00
        -11   -1    0    0    0    0  0.00000000000E+00  0.00000000000E+00  0.45593999997E+02  0.45594000000E+02  0.51100000000E-03 0.  1.
         11   -1    0    0    0    0 -0.00000000000E+00 -0.00000000000E+00 -0.45593999997E+02  0.45594000000E+02  0.51100000000E-03 0. -1.
    9900012    2    1    2    0    0 -0.18210713524E+02 -0.34050808324E+02 -0.19812518806E+02  0.47787268025E+02  0.19999986234E+02 0.  0.
         12    1    1    2    0    0  0.18210713524E+02  0.34050808324E+02  0.19812518806E+02  0.43400731975E+02  0.00000000000E+00 0. -1.
         11    1    3    3    0    0  0.10464852655E+01 -0.94677237313E+01  0.81276755564E+00  0.95599955765E+01  0.51100000000E-03 0. -1.
        -11    1    3    3    0    0 -0.42691018288E+01 -0.55208902056E+01 -0.10381722286E+01  0.70557254003E+01  0.51100000000E-03 0.  1.
        -12    1    3    3    0    0 -0.14988096961E+02 -0.19062194387E+02 -0.19587114133E+02  0.31171547048E+02  0.00000000000E+00 0.  1.
</event>
<event>
 7    1  0.8440037E-011  0.4778727E+02  0.7816164E-02  0.1312668E+00
        -11   -1    0    0    0    0  0.00000000000E+00  0.00000000000E+00  0.45593999997E+02  0.45594000000E+02  0.51100000000E-03 0. -1.
         11   -1    0    0    0    0 -0.00000000000E+00 -0.00000000000E+00 -0.45593999997E+02  0.45594000000E+02  0.51100000000E-03 0.  1.
    9900012    2    1    2    0    0 -0.30974387480E+02 -0.23486031237E+02  0.19303286069E+02  0.47787271941E+02  0.20000004086E+02 0.  0.
        -12    1    1    2    0    0  0.30974387480E+02  0.23486031237E+02 -0.19303286069E+02  0.43400728059E+02  0.00000000000E+00 0.  1.
         11    1    3    3    0    0 -0.26053129046E+01  0.16891060880E+00 -0.58144350249E+00  0.26747453958E+01  0.51100000000E-03 0. -1.
        -11    1    3    3    0    0 -0.47035798792E+01 -0.30468155400E+00  0.89487093397E+01  0.10114143248E+02  0.51100000000E-03 0.  1.
         12    1    3    3    0    0 -0.23665494696E+02 -0.23350260292E+02  0.10936020232E+02  0.34998383297E+02  0.00000000000E+00 0. -1.
</event>
<event>
 7    1  0.8440037E-011  0.4778727E+02  0.7816164E-02  0.1312668E+00
        -11   -1    0    0    0    0  0.00000000000E+00  0.00000000000E+00  0.45593999997E+02  0.45594000000E+02  0.51100000000E-03 0. -1.
         11   -1    0    0    0    0 -0.00000000000E+00 -0.00000000000E+00 -0.45593999997E+02  0.45594000000E+02  0.51100000000E-03 0.  1.
    9900012    2    1    2    0    0 -0.22431814949E+02 -0.13476710252E+02  0.34623907008E+02  0.47787274457E+02  0.20000015559E+02 0.  0.
        -12    1    1    2    0    0  0.22431814949E+02  0.13476710252E+02 -0.34623907008E+02  0.43400725543E+02  0.00000000000E+00 0.  1.
         11    1    3    3    0    0  0.94111748135E+00 -0.33548827975E+01  0.92025411381E+01  0.98401069282E+01  0.51100000000E-03 0. -1.
        -11    1    3    3    0    0  0.75429008519E-01 -0.28554619371E+01  0.38253254937E+00  0.28819583311E+01  0.51100000000E-03 0.  1.
        -12    1    3    3    0    0 -0.23448361439E+02 -0.72663655171E+01  0.25038833321E+02  0.35065209198E+02  0.00000000000E+00 0.  1.
</event>
<event>
 7    1  0.8440037E-011  0.4778728E+02  0.7816164E-02  0.1312668E+00
        -11   -1    0    0    0    0  0.00000000000E+00  0.00000000000E+00  0.45593999997E+02  0.45594000000E+02  0.51100000000E-03 0. -1.
         11   -1    0    0    0    0 -0.00000000000E+00 -0.00000000000E+00 -0.45593999997E+02  0.45594000000E+02  0.51100000000E-03 0.  1.
    9900012    2    1    2    0    0 -0.95058889981E+01  0.15728768649E+02 -0.39317504514E+02  0.47787282839E+02  0.20000053777E+02 0.  0.
         12    1    1    2    0    0  0.95058889981E+01 -0.15728768649E+02  0.39317504514E+02  0.43400717161E+02  0.00000000000E+00 0. -1.
         11    1    3    3    0    0 -0.72844073071E+01  0.84519908429E+00 -0.34476901878E+01  0.81033029809E+01  0.51100000000E-03 0. -1.
        -11    1    3    3    0    0  0.79681077012E+00  0.49332605348E+01 -0.48340850747E+01  0.69527221776E+01  0.51100000000E-03 0.  1.
        -12    1    3    3    0    0 -0.30182924611E+01  0.99503090295E+01 -0.31035729252E+02  0.32731257681E+02  0.00000000000E+00 0.  1.
</event>
<event>
 7    1  0.8440037E-011  0.4778727E+02  0.7816164E-02  0.1312668E+00
        -11   -1    0    0    0    0  0.00000000000E+00  0.00000000000E+00  0.45593999997E+02  0.45594000000E+02  0.51100000000E-03 0. -1.
         11   -1    0    0    0    0 -0.00000000000E+00 -0.00000000000E+00 -0.45593999997E+02  0.45594000000E+02  0.51100000000E-03 0.  1.
    9900012    2    1    2    0    0 -0.23463138194E+02 -0.20142349997E+01 -0.36456097919E+02  0.47787273370E+02  0.20000010603E+02 0.  0.
         12    1    1    2    0    0  0.23463138194E+02  0.20142349997E+01  0.36456097919E+02  0.43400726630E+02  0.00000000000E+00 0. -1.
         11    1    3    3    0    0 -0.33192921839E+01  0.31621100673E+01 -0.15187628582E+01  0.48294183460E+01  0.51100000000E-03 0. -1.
        -11    1    3    3    0    0 -0.11404352431E+02  0.25547553368E+01 -0.98290271837E+01  0.15270749976E+02  0.51100000000E-03 0.  1.
        -12    1    3    3    0    0 -0.87394935788E+01 -0.77311004038E+01 -0.25108307877E+02  0.27687105048E+02  0.00000000000E+00 0.  1.
</event>
<event>
 7    1  0.8440037E-011  0.4778727E+02  0.7816164E-02  0.1312668E+00
        -11   -1    0    0    0    0  0.00000000000E+00  0.00000000000E+00  0.45593999997E+02  0.45594000000E+02  0.51100000000E-03 0. -1.
         11   -1    0    0    0    0 -0.00000000000E+00 -0.00000000000E+00 -0.45593999997E+02  0.45594000000E+02  0.51100000000E-03 0.  1.
    9900012    2    1    2    0    0  0.14725793445E+02 -0.12601020011E+02  0.38832825436E+02  0.47787273863E+02  0.20000012851E+02 0.  0.
        -12    1    1    2    0    0 -0.14725793445E+02  0.12601020011E+02 -0.38832825436E+02  0.43400726137E+02  0.00000000000E+00 0.  1.
         11    1    3    3    0    0  0.89855569735E+01 -0.50324169119E+01  0.97984283903E+01  0.14215296454E+02  0.51100000000E-03 0. -1.
        -11    1    3    3    0    0  0.39055839955E+01 -0.84247612354E+01  0.74833812046E+01  0.11926071555E+02  0.51100000000E-03 0.  1.
         12    1    3    3    0    0  0.18346524756E+01  0.85615813667E+00  0.21551015841E+02  0.21645905854E+02  0.00000000000E+00 0. -1.
</event>
<event>
 7    1  0.8440037E-011  0.4778727E+02  0.7816164E-02  0.1312668E+00
        -11   -1    0    0    0    0  0.00000000000E+00  0.00000000000E+00  0.45593999997E+02  0.45594000000E+02  0.51100000000E-03 0.  1.
         11   -1    0    0    0    0 -0.00000000000E+00 -0.00000000000E+00 -0.45593999997E+02  0.45594000000E+02  0.51100000000E-03 0. -1.
    9900012    2    1    2    0    0  0.19198511283E+02 -0.38923501596E+02  0.36276296387E-01  0.47787272726E+02  0.20000007665E+02 0.  0.
         12    1    1    2    0    0 -0.19198511283E+02  0.38923501596E+02 -0.36276296387E-01  0.43400727274E+02  0.00000000000E+00 0. -1.
         11    1    3    3    0    0  0.12939240200E+02 -0.95264336488E+01  0.59581971489E+00  0.16078926470E+02  0.51100000000E-03 0. -1.
        -11    1    3    3    0    0  0.71785634718E+01 -0.23086375132E+02 -0.39318185730E+01  0.24494319500E+02  0.51100000000E-03 0.  1.
        -12    1    3    3    0    0 -0.91929238913E+00 -0.63106928159E+01  0.33722751545E+01  0.72140267556E+01  0.00000000000E+00 0.  1.
</event>
<event>
 7    1  0.8440037E-011  0.4778727E+02  0.7816164E-02  0.1312668E+00
        -11   -1    0    0    0    0  0.00000000000E+00  0.00000000000E+00  0.45593999997E+02  0.45594000000E+02  0.51100000000E-03 0.  1.
         11   -1    0    0    0    0 -0.00000000000E+00 -0.00000000000E+00 -0.45593999997E+02  0.45594000000E+02  0.51100000000E-03 0. -1.
    9900012    2    1    2    0    0  0.41525720028E+02  0.57565491481E+01 -0.11229433759E+02  0.47787268848E+02  0.19999989987E+02 0.  0.
         12    1    1    2    0    0 -0.41525720028E+02 -0.57565491481E+01  0.11229433759E+02  0.43400731152E+02  0.00000000000E+00 0. -1.
         11    1    3    3    0    0  0.21001844282E+02  0.53661351780E+01 -0.12948699887E+02  0.25249588096E+02  0.51100000000E-03 0. -1.
        -11    1    3    3    0    0  0.86126381236E+01  0.26207705519E+01 -0.30638340576E+01  0.95096294947E+01  0.51100000000E-03 0.  1.
        -12    1    3    3    0    0  0.11911237623E+02 -0.22303565818E+01  0.47831001854E+01  0.13028051258E+02  0.00000000000E+00 0.  1.
</event>
<event>
 7    1  0.8440037E-011  0.4778730E+02  0.7816164E-02  0.1312668E+00
        -11   -1    0    0    0    0  0.00000000000E+00  0.00000000000E+00  0.45593999997E+02  0.45594000000E+02  0.51100000000E-03 0. -1.
         11   -1    0    0    0    0 -0.00000000000E+00 -0.00000000000E+00 -0.45593999997E+02  0.45594000000E+02  0.51100000000E-03 0.  1.
    9900012    2    1    2    0    0 -0.18579680717E+02  0.14306630395E+02 -0.36520357132E+02  0.47787300768E+02  0.20000135520E+02 0.  0.
         12    1    1    2    0    0  0.18579680717E+02 -0.14306630395E+02  0.36520357132E+02  0.43400699232E+02  0.00000000000E+00 0. -1.
         11    1    3    3    0    0 -0.34161791123E+01  0.45240793490E+01 -0.15785348716E+02  0.16772441922E+02  0.51100000000E-03 0. -1.
        -11    1    3    3    0    0 -0.12748647663E+02  0.11780248143E+02 -0.21650609420E+02  0.27749795532E+02  0.51100000000E-03 0.  1.
         12    1    3    3    0    0 -0.24148539412E+01 -0.19976970970E+01  0.91560100353E+00  0.32650633143E+01  0.00000000000E+00 0. -1.
</event>
<event>
 7    1  0.8995966E-011  0.4778727E+02  0.7816164E-02  0.1312668E+00
        -11   -1    0    0    0    0  0.00000000000E+00  0.00000000000E+00  0.45593999997E+02  0.45594000000E+02  0.51100000000E-03 0. -1.
         11   -1    0    0    0    0 -0.00000000000E+00 -0.00000000000E+00 -0.45593999997E+02  0.45594000000E+02  0.51100000000E-03 0.  1.
    9900012    2    1    2    0    0 -0.16122808206E+02  0.12647573609E+01  0.40275037276E+02  0.47787272089E+02  0.20000004761E+02 0.  0.
        -12    1    1    2    0    0  0.16122808206E+02 -0.12647573609E+01 -0.40275037276E+02  0.43400727911E+02  0.00000000000E+00 0.  1.
         11    1    3    3    0    0  0.21640081550E+00 -0.25012553043E+01  0.11002594643E+02  0.11285397492E+02  0.51100000000E-03 0. -1.
        -11    1    3    3    0    0 -0.45472853355E+01 -0.22228015837E+01  0.82222423182E+00  0.51278361667E+01  0.51100000000E-03 0.  1.
         12    1    3    3    0    0 -0.11791923686E+02  0.59888142490E+01  0.28450218401E+02  0.31374038430E+02  0.00000000000E+00 0. -1.
</event>
<event>
 7    1  0.8440037E-011  0.4778727E+02  0.7816164E-02  0.1312668E+00
        -11   -1    0    0    0    0  0.00000000000E+00  0.00000000000E+00  0.45593999997E+02  0.45594000000E+02  0.51100000000E-03 0. -1.
         11   -1    0    0    0    0 -0.00000000000E+00 -0.00000000000E+00 -0.45593999997E+02  0.45594000000E+02  0.51100000000E-03 0.  1.
    9900012    2    1    2    0    0 -0.95993610347E+01  0.41783750320E+02 -0.67523163103E+01  0.47787270759E+02  0.19999998698E+02 0.  0.
         12    1    1    2    0    0  0.95993610347E+01 -0.41783750320E+02  0.67523163103E+01  0.43400729241E+02  0.00000000000E+00 0. -1.
         11    1    3    3    0    0  0.67881579122E+00  0.79866305604E+01  0.42604457094E+00  0.80267411086E+01  0.51100000000E-03 0. -1.
        -11    1    3    3    0    0 -0.14326716336E+02  0.19182129152E+02 -0.44113676393E+01  0.24344795019E+02  0.51100000000E-03 0.  1.
        -12    1    3    3    0    0  0.40485395105E+01  0.14614990608E+02 -0.27669932419E+01  0.15415734632E+02  0.00000000000E+00 0.  1.
</event>
<event>
 7    1  0.8440037E-011  0.4778727E+02  0.7816164E-02  0.1312668E+00
        -11   -1    0    0    0    0  0.00000000000E+00  0.00000000000E+00  0.45593999997E+02  0.45594000000E+02  0.51100000000E-03 0.  1.
         11   -1    0    0    0    0 -0.00000000000E+00 -0.00000000000E+00 -0.45593999997E+02  0.45594000000E+02  0.51100000000E-03 0. -1.
    9900012    2    1    2    0    0 -0.20457149840E+02 -0.36325880203E+02 -0.12064777132E+02  0.47787269599E+02  0.19999993411E+02 0.  0.
         12    1    1    2    0    0  0.20457149840E+02  0.36325880203E+02  0.12064777132E+02  0.43400730401E+02  0.00000000000E+00 0. -1.
         11    1    3    3    0    0 -0.21195676501E+01 -0.61213527117E+01  0.14594446957E+01  0.66402940541E+01  0.51100000000E-03 0. -1.
        -11    1    3    3    0    0 -0.18237537765E+02 -0.14895346200E+02 -0.84840579081E+01  0.25029150225E+02  0.51100000000E-03 0.  1.
        -12    1    3    3    0    0 -0.10004442433E+00 -0.15309181292E+02 -0.50401639197E+01  0.16117825320E+02  0.00000000000E+00 0.  1.
</event>
<event>
 7    1  0.8440037E-011  0.4778727E+02  0.7816164E-02  0.1312668E+00
        -11   -1    0    0    0    0  0.00000000000E+00  0.00000000000E+00  0.45593999997E+02  0.45594000000E+02  0.51100000000E-03 0. -1.
         11   -1    0    0    0    0 -0.00000000000E+00 -0.00000000000E+00 -0.45593999997E+02  0.45594000000E+02  0.51100000000E-03 0.  1.
    9900012    2    1    2    0    0  0.46347361011E+01  0.22960354366E+01  0.43091423670E+02  0.47787270152E+02  0.19999995932E+02 0.  0.
        -12    1    1    2    0    0 -0.46347361011E+01 -0.22960354366E+01 -0.43091423670E+02  0.43400729848E+02  0.00000000000E+00 0.  1.
         11    1    3    3    0    0  0.39278999548E+01  0.75813278044E+01  0.20239112877E+02  0.21966488560E+02  0.51100000000E-03 0. -1.
        -11    1    3    3    0    0 -0.12253193423E+01  0.19131311509E+01  0.14287841868E+02  0.14467339209E+02  0.51100000000E-03 0.  1.
        -12    1    3    3    0    0  0.19321554886E+01 -0.71984235187E+01  0.85644689246E+01  0.11353442383E+02  0.00000000000E+00 0.  1.
</event>
<event>
 7    1  0.8440037E-011  0.4778727E+02  0.7816164E-02  0.1312668E+00
        -11   -1    0    0    0    0  0.00000000000E+00  0.00000000000E+00  0.45593999997E+02  0.45594000000E+02  0.51100000000E-03 0. -1.
         11   -1    0    0    0    0 -0.00000000000E+00 -0.00000000000E+00 -0.45593999997E+02  0.45594000000E+02  0.51100000000E-03 0.  1.
    9900012    2    1    2    0    0 -0.10631541310E+02  0.15197315885E+02  0.39238186642E+02  0.47787269918E+02  0.19999994864E+02 0.  0.
        -12    1    1    2    0    0  0.10631541310E+02 -0.15197315885E+02 -0.39238186642E+02  0.43400730082E+02  0.00000000000E+00 0.  1.
         11    1    3    3    0    0 -0.40083015680E+01  0.12753680408E+01  0.81834078242E+00  0.42851752586E+01  0.51100000000E-03 0. -1.
        -11    1    3    3    0    0 -0.93942807864E+01  0.11112046999E+02  0.20415781170E+02  0.25070584777E+02  0.51100000000E-03 0.  1.
        -12    1    3    3    0    0  0.27710410448E+01  0.28099008459E+01  0.18004064689E+02  0.18431509883E+02  0.00000000000E+00 0.  1.
</event>
<event>
 7    1  0.8440037E-011  0.4778727E+02  0.7816164E-02  0.1312668E+00
        -11   -1    0    0    0    0  0.00000000000E+00  0.00000000000E+00  0.45593999997E+02  0.45594000000E+02  0.51100000000E-03 0. -1.
         11   -1    0    0    0    0 -0.00000000000E+00 -0.00000000000E+00 -0.45593999997E+02  0.45594000000E+02  0.51100000000E-03 0.  1.
    9900012    2    1    2    0    0  0.18276018800E+02 -0.61660955752E+01 -0.38879166984E+02  0.47787271628E+02  0.20000002663E+02 0.  0.
         12    1    1    2    0    0 -0.18276018800E+02  0.61660955752E+01  0.38879166984E+02  0.43400728372E+02  0.00000000000E+00 0. -1.
         11    1    3    3    0    0  0.35884804159E-01  0.26863284097E+01  0.19305285153E-01  0.26866374893E+01  0.51100000000E-03 0. -1.
        -11    1    3    3    0    0  0.84303133262E+01 -0.20494837358E+01 -0.73556966645E+01  0.11374394052E+02  0.51100000000E-03 0.  1.
        -12    1    3    3    0    0  0.98098206693E+01 -0.68029402490E+01 -0.31542775605E+02  0.33726240088E+02  0.00000000000E+00 0.  1.
</event>
<event>
 7    1  0.8440037E-011  0.4778728E+02  0.7816164E-02  0.1312668E+00
        -11   -1    0    0    0    0  0.00000000000E+00  0.00000000000E+00  0.45593999997E+02  0.45594000000E+02  0.51100000000E-03 0.  1.
         11   -1    0    0    0    0 -0.00000000000E+00 -0.00000000000E+00 -0.45593999997E+02  0.45594000000E+02  0.51100000000E-03 0. -1.
    9900012    2    1    2    0    0  0.27226231161E+02 -0.28682147745E+02  0.17879854133E+02  0.47787280578E+02  0.20000043468E+02 0.  0.
        -12    1    1    2    0    0 -0.27226231161E+02  0.28682147745E+02 -0.17879854133E+02  0.43400719422E+02  0.00000000000E+00 0.  1.
         11    1    3    3    0    0  0.28276903220E+01 -0.42341379655E+01 -0.38868719750E+00  0.51063524034E+01  0.51100000000E-03 0. -1.
        -11    1    3    3    0    0 -0.21941612522E+01 -0.11241522914E+01 -0.67448057152E+00  0.25559707114E+01  0.51100000000E-03 0.  1.
         12    1    3    3    0    0  0.26592702091E+02 -0.23323857488E+02  0.18943021902E+02  0.40124957463E+02  0.00000000000E+00 0. -1.
</event>
<event>
 7    1  0.8440037E-011  0.4778728E+02  0.7816164E-02  0.1312668E+00
        -11   -1    0    0    0    0  0.00000000000E+00  0.00000000000E+00  0.45593999997E+02  0.45594000000E+02  0.51100000000E-03 0. -1.
         11   -1    0    0    0    0 -0.00000000000E+00 -0.00000000000E+00 -0.45593999997E+02  0.45594000000E+02  0.51100000000E-03 0.  1.
    9900012    2    1    2    0    0  0.20130715733E+01 -0.48009747751E+01 -0.43087357936E+02  0.47787283073E+02  0.20000054841E+02 0.  0.
         12    1    1    2    0    0 -0.20130715733E+01  0.48009747751E+01  0.43087357936E+02  0.43400716927E+02  0.00000000000E+00 0. -1.
         11    1    3    3    0    0 -0.62438798189E+01  0.71987547773E+00 -0.19401462164E+02  0.20394141076E+02  0.51100000000E-03 0.  1.
        -11    1    3    3    0    0 -0.34326605924E-01  0.94724282013E+00  0.46233116184E+00  0.10546078136E+01  0.51100000000E-03 0. -1.
        -12    1    3    3    0    0  0.82912779981E+01 -0.64680930730E+01 -0.24148226934E+02  0.26338534183E+02  0.00000000000E+00 0.  1.
</event>
<event>
 7    1  0.8440037E-011  0.4778728E+02  0.7816164E-02  0.1312668E+00
        -11   -1    0    0    0    0  0.00000000000E+00  0.00000000000E+00  0.45593999997E+02  0.45594000000E+02  0.51100000000E-03 0. -1.
         11   -1    0    0    0    0 -0.00000000000E+00 -0.00000000000E+00 -0.45593999997E+02  0.45594000000E+02  0.51100000000E-03 0.  1.
    9900012    2    1    2    0    0 -0.18788053336E+02  0.20796883759E+02 -0.33137917043E+02  0.47787275718E+02  0.20000021311E+02 0.  0.
         12    1    1    2    0    0  0.18788053336E+02 -0.20796883759E+02  0.33137917043E+02  0.43400724282E+02  0.00000000000E+00 0. -1.
         11    1    3    3    0    0 -0.44301112285E+01  0.15424017133E+01 -0.59951429065E+01  0.76122682082E+01  0.51100000000E-03 0. -1.
        -11    1    3    3    0    0 -0.57149041393E+01  0.20052008361E+02 -0.17712446703E+02  0.27358251719E+02  0.51100000000E-03 0.  1.
        -12    1    3    3    0    0 -0.86430379678E+01 -0.79752631490E+00 -0.94303274329E+01  0.12816755792E+02  0.00000000000E+00 0.  1.
</event>
<event>
 7    1  0.8440037E-011  0.4778728E+02  0.7816164E-02  0.1312668E+00
        -11   -1    0    0    0    0  0.00000000000E+00  0.00000000000E+00  0.45593999997E+02  0.45594000000E+02  0.51100000000E-03 0. -1.
         11   -1    0    0    0    0 -0.00000000000E+00 -0.00000000000E+00 -0.45593999997E+02  0.45594000000E+02  0.51100000000E-03 0.  1.
    9900012    2    1    2    0    0 -0.29048146779E+02 -0.25569279547E+02 -0.19647894312E+02  0.47787278362E+02  0.20000033362E+02 0.  0.
         12    1    1    2    0    0  0.29048146779E+02  0.25569279547E+02  0.19647894312E+02  0.43400721638E+02  0.00000000000E+00 0. -1.
         11    1    3    3    0    0  0.11727782536E+01 -0.19989949869E+01 -0.39931450382E+00  0.23517742502E+01  0.51100000000E-03 0. -1.
        -11    1    3    3    0    0  0.76251329877E+00  0.12355531957E+01 -0.91063145035E+00  0.17138460053E+01  0.51100000000E-03 0.  1.
        -12    1    3    3    0    0 -0.30983438331E+02 -0.24805837756E+02 -0.18337948358E+02  0.43721658106E+02  0.00000000000E+00 0.  1.
</event>
<event>
 7    1  0.8440037E-011  0.4778726E+02  0.7816164E-02  0.1312668E+00
        -11   -1    0    0    0    0  0.00000000000E+00  0.00000000000E+00  0.45593999997E+02  0.45594000000E+02  0.51100000000E-03 0. -1.
         11   -1    0    0    0    0 -0.00000000000E+00 -0.00000000000E+00 -0.45593999997E+02  0.45594000000E+02  0.51100000000E-03 0.  1.
    9900012    2    1    2    0    0 -0.34367225526E+01 -0.25885528248E+02  0.34666300541E+02  0.47787262359E+02  0.19999960401E+02 0.  0.
        -12    1    1    2    0    0  0.34367225526E+01  0.25885528248E+02 -0.34666300541E+02  0.43400737641E+02  0.00000000000E+00 0.  1.
         11    1    3    3    0    0 -0.95296678459E+01 -0.20256710761E+02  0.26146972266E+02  0.34421113565E+02  0.51100000000E-03 0. -1.
        -11    1    3    3    0    0 -0.15238434776E+00 -0.71689357387E+00 -0.82295106898E+00  0.11020009568E+01  0.51100000000E-03 0.  1.
         12    1    3    3    0    0  0.62453296410E+01 -0.49119239132E+01  0.93422793433E+01  0.12264147838E+02  0.00000000000E+00 0. -1.
</event>
<event>
 7    1  0.8440037E-011  0.4778727E+02  0.7816164E-02  0.1312668E+00
        -11   -1    0    0    0    0  0.00000000000E+00  0.00000000000E+00  0.45593999997E+02  0.45594000000E+02  0.51100000000E-03 0. -1.
         11   -1    0    0    0    0 -0.00000000000E+00 -0.00000000000E+00 -0.45593999997E+02  0.45594000000E+02  0.51100000000E-03 0.  1.
    9900012    2    1    2    0    0  0.84272606380E+00  0.65529471266E+01 -0.42894893394E+02  0.47787272096E+02  0.20000004796E+02 0.  0.
         12    1    1    2    0    0 -0.84272606380E+00 -0.65529471266E+01  0.42894893394E+02  0.43400727904E+02  0.00000000000E+00 0. -1.
         11    1    3    3    0    0  0.42870969604E+01  0.37004585126E+01 -0.18537272237E+02  0.19383061053E+02  0.51100000000E-03 0. -1.
        -11    1    3    3    0    0  0.25358757872E+01  0.33746133562E+01 -0.10691720359E+01  0.43545160943E+01  0.51100000000E-03 0.  1.
        -12    1    3    3    0    0 -0.59802466839E+01 -0.52212474217E+00 -0.23288449121E+02  0.24049694949E+02  0.00000000000E+00 0.  1.
</event>
<event>
 7    1  0.8440037E-011  0.4778727E+02  0.7816164E-02  0.1312668E+00
        -11   -1    0    0    0    0  0.00000000000E+00  0.00000000000E+00  0.45593999997E+02  0.45594000000E+02  0.51100000000E-03 0.  1.
         11   -1    0    0    0    0 -0.00000000000E+00 -0.00000000000E+00 -0.45593999997E+02  0.45594000000E+02  0.51100000000E-03 0. -1.
    9900012    2    1    2    0    0 -0.29833439233E+02  0.44169705685E+01 -0.31210247162E+02  0.47787271280E+02  0.20000001076E+02 0.  0.
         12    1    1    2    0    0  0.29833439233E+02 -0.44169705685E+01  0.31210247162E+02  0.43400728720E+02  0.00000000000E+00 0. -1.
         11    1    3    3    0    0 -0.25953202144E+00 -0.65036331967E+00 -0.66004505955E+01  0.66374903120E+01  0.51100000000E-03 0. -1.
        -11    1    3    3    0    0 -0.12085961513E+02 -0.43935509821E+01 -0.12108401844E+02  0.17663158025E+02  0.51100000000E-03 0.  1.
         12    1    3    3    0    0 -0.17487945699E+02  0.94608848702E+01 -0.12501394722E+02  0.23486622944E+02  0.00000000000E+00 0. -1.
</event>
<event>
 7    1  0.8440037E-011  0.4778727E+02  0.7816164E-02  0.1312668E+00
        -11   -1    0    0    0    0  0.00000000000E+00  0.00000000000E+00  0.45593999997E+02  0.45594000000E+02  0.51100000000E-03 0. -1.
         11   -1    0    0    0    0 -0.00000000000E+00 -0.00000000000E+00 -0.45593999997E+02  0.45594000000E+02  0.51100000000E-03 0.  1.
    9900012    2    1    2    0    0 -0.13483915936E+02 -0.31851963225E+02 -0.26215641326E+02  0.47787269588E+02  0.19999993357E+02 0.  0.
         12    1    1    2    0    0  0.13483915936E+02  0.31851963225E+02  0.26215641326E+02  0.43400730412E+02  0.00000000000E+00 0. -1.
         11    1    3    3    0    0 -0.37407880338E+01 -0.16368915032E+01 -0.47433271025E+01  0.62587587563E+01  0.51100000000E-03 0.  1.
        -11    1    3    3    0    0 -0.88124809480E+01 -0.17475218656E+02 -0.41516157431E+01  0.20006973811E+02  0.51100000000E-03 0. -1.
         12    1    3    3    0    0 -0.93064695423E+00 -0.12739853065E+02 -0.17320698480E+02  0.21521537020E+02  0.00000000000E+00 0. -1.
</event>
<event>
 7    1  0.8440037E-011  0.4778726E+02  0.7816164E-02  0.1312668E+00
        -11   -1    0    0    0    0  0.00000000000E+00  0.00000000000E+00  0.45593999997E+02  0.45594000000E+02  0.51100000000E-03 0.  1.
         11   -1    0    0    0    0 -0.00000000000E+00 -0.00000000000E+00 -0.45593999997E+02  0.45594000000E+02  0.51100000000E-03 0. -1.
    9900012    2    1    2    0    0 -0.27556508501E+02 -0.27202208306E+02  0.19603638471E+02  0.47787263384E+02  0.19999965075E+02 0.  0.
        -12    1    1    2    0    0  0.27556508501E+02  0.27202208306E+02 -0.19603638471E+02  0.43400736616E+02  0.00000000000E+00 0.  1.
         11    1    3    3    0    0 -0.72366406967E+01 -0.50133457903E+01  0.14739986683E+01  0.89261008801E+01  0.51100000000E-03 0. -1.
        -11    1    3    3    0    0 -0.10458872160E+02 -0.22124950652E+02  0.12072051898E+02  0.27288017251E+02  0.51100000000E-03 0.  1.
        -12    1    3    3    0    0 -0.98609956441E+01 -0.63911863368E-01  0.60575879050E+01  0.11573145253E+02  0.00000000000E+00 0.  1.
</event>
<event>
 7    1  0.8440037E-011  0.4778727E+02  0.7816164E-02  0.1312668E+00
        -11   -1    0    0    0    0  0.00000000000E+00  0.00000000000E+00  0.45593999997E+02  0.45594000000E+02  0.51100000000E-03 0. -1.
         11   -1    0    0    0    0 -0.00000000000E+00 -0.00000000000E+00 -0.45593999997E+02  0.45594000000E+02  0.51100000000E-03 0.  1.
    9900012    2    1    2    0    0  0.14628079908E+02  0.21568258765E+02 -0.34705227948E+02  0.47787270111E+02  0.19999995744E+02 0.  0.
         12    1    1    2    0    0 -0.14628079908E+02 -0.21568258765E+02  0.34705227948E+02  0.43400729889E+02  0.00000000000E+00 0. -1.
         11    1    3    3    0    0  0.44047569342E+01 -0.20386592041E+01 -0.45930752564E+01  0.66823914560E+01  0.51100000000E-03 0. -1.
        -11    1    3    3    0    0  0.11256284653E+02  0.16913133491E+02 -0.26612669932E+02  0.33481222048E+02  0.51100000000E-03 0.  1.
         12    1    3    3    0    0 -0.10329616785E+01  0.66937844788E+01 -0.34994827599E+01  0.76236566072E+01  0.00000000000E+00 0. -1.
</event>
<event>
 7    1  0.8440037E-011  0.4778727E+02  0.7816164E-02  0.1312668E+00
        -11   -1    0    0    0    0  0.00000000000E+00  0.00000000000E+00  0.45593999997E+02  0.45594000000E+02  0.51100000000E-03 0. -1.
         11   -1    0    0    0    0 -0.00000000000E+00 -0.00000000000E+00 -0.45593999997E+02  0.45594000000E+02  0.51100000000E-03 0.  1.
    9900012    2    1    2    0    0 -0.14272545345E+02  0.63622869025E+01  0.40489984175E+02  0.47787273466E+02  0.20000011039E+02 0.  0.
        -12    1    1    2    0    0  0.14272545345E+02 -0.63622869025E+01 -0.40489984175E+02  0.43400726534E+02  0.00000000000E+00 0.  1.
         11    1    3    3    0    0 -0.47196513529E+01 -0.26390324549E+00  0.14738427254E+02  0.15477919498E+02  0.51100000000E-03 0. -1.
        -11    1    3    3    0    0 -0.23490471688E+01 -0.42883702307E+01  0.13620626068E+02  0.14471682576E+02  0.51100000000E-03 0.  1.
        -12    1    3    3    0    0 -0.72038468229E+01  0.10914560379E+02  0.12130930853E+02  0.17837671391E+02  0.00000000000E+00 0.  1.
</event>
<event>
 7    1  0.8440037E-011  0.4778726E+02  0.7816164E-02  0.1312668E+00
        -11   -1    0    0    0    0  0.00000000000E+00  0.00000000000E+00  0.45593999997E+02  0.45594000000E+02  0.51100000000E-03 0. -1.
         11   -1    0    0    0    0 -0.00000000000E+00 -0.00000000000E+00 -0.45593999997E+02  0.45594000000E+02  0.51100000000E-03 0.  1.
    9900012    2    1    2    0    0  0.19707390111E+01  0.35143207336E+02 -0.25390850419E+02  0.47787261306E+02  0.19999955600E+02 0.  0.
         12    1    1    2    0    0 -0.19707390111E+01 -0.35143207336E+02  0.25390850419E+02  0.43400738694E+02  0.00000000000E+00 0. -1.
         11    1    3    3    0    0 -0.41225776052E+01  0.20233898090E+02 -0.61965549471E+01  0.21559303595E+02  0.51100000000E-03 0. -1.
        -11    1    3    3    0    0  0.42204943995E+01  0.22756415229E+01 -0.32203446787E+01  0.57759620348E+01  0.51100000000E-03 0.  1.
        -12    1    3    3    0    0  0.18728222167E+01  0.12633667724E+02 -0.15973950794E+02  0.20451995677E+02  0.00000000000E+00 0.  1.
</event>
<event>
 7    1  0.8440037E-011  0.4778723E+02  0.7816164E-02  0.1312668E+00
        -11   -1    0    0    0    0  0.00000000000E+00  0.00000000000E+00  0.45593999997E+02  0.45594000000E+02  0.51100000000E-03 0. -1.
         11   -1    0    0    0    0 -0.00000000000E+00 -0.00000000000E+00 -0.45593999997E+02  0.45594000000E+02  0.51100000000E-03 0.  1.
    9900012    2    1    2    0    0  0.14147727007E+02 -0.24574746468E+02 -0.32856512893E+02  0.47787230618E+02  0.19999815679E+02 0.  0.
         12    1    1    2    0    0 -0.14147727007E+02  0.24574746468E+02  0.32856512893E+02  0.43400769382E+02  0.00000000000E+00 0. -1.
         11    1    3    3    0    0  0.60338214832E+01 -0.60828611484E+01 -0.16867939713E+02  0.18919185814E+02  0.51100000000E-03 0. -1.
        -11    1    3    3    0    0  0.99485262109E+01 -0.91863092490E+01 -0.13367936106E+02  0.19027957520E+02  0.51100000000E-03 0.  1.
         12    1    3    3    0    0 -0.18346206866E+01 -0.93055760711E+01 -0.26206370734E+01  0.98400872836E+01  0.00000000000E+00 0. -1.
</event>
<event>
 7    1  0.8440037E-011  0.4778727E+02  0.7816164E-02  0.1312668E+00
        -11   -1    0    0    0    0  0.00000000000E+00  0.00000000000E+00  0.45593999997E+02  0.45594000000E+02  0.51100000000E-03 0. -1.
         11   -1    0    0    0    0 -0.00000000000E+00 -0.00000000000E+00 -0.45593999997E+02  0.45594000000E+02  0.51100000000E-03 0.  1.
    9900012    2    1    2    0    0 -0.23342121707E+02 -0.24179807624E+02  0.27460982451E+02  0.47787270747E+02  0.19999998643E+02 0.  0.
        -12    1    1    2    0    0  0.23342121707E+02  0.24179807624E+02 -0.27460982451E+02  0.43400729253E+02  0.00000000000E+00 0.  1.
         11    1    3    3    0    0 -0.14239025640E+02 -0.65322502085E+01  0.17100102544E+02  0.23191240830E+02  0.51100000000E-03 0. -1.
        -11    1    3    3    0    0 -0.16872660196E+01  0.11698468571E+01  0.13241798250E+01  0.24431252035E+01  0.51100000000E-03 0.  1.
        -12    1    3    3    0    0 -0.74158300480E+01 -0.18817404272E+02  0.90367000821E+01  0.22152904713E+02  0.00000000000E+00 0.  1.
</event>
<event>
 7    1  0.8440037E-011  0.4778727E+02  0.7816164E-02  0.1312668E+00
        -11   -1    0    0    0    0  0.00000000000E+00  0.00000000000E+00  0.45593999997E+02  0.45594000000E+02  0.51100000000E-03 0. -1.
         11   -1    0    0    0    0 -0.00000000000E+00 -0.00000000000E+00 -0.45593999997E+02  0.45594000000E+02  0.51100000000E-03 0.  1.
    9900012    2    1    2    0    0  0.36626200585E+02  0.13483981638E+02 -0.18982277157E+02  0.47787272170E+02  0.20000005130E+02 0.  0.
         12    1    1    2    0    0 -0.36626200585E+02 -0.13483981638E+02  0.18982277157E+02  0.43400727830E+02  0.00000000000E+00 0. -1.
         11    1    3    3    0    0  0.25045094710E+01 -0.31435822968E+01 -0.20164541747E+01  0.44967504986E+01  0.51100000000E-03 0. -1.
        -11    1    3    3    0    0  0.47029832877E+01  0.15864101441E+01 -0.73681732973E+01  0.88839589683E+01  0.51100000000E-03 0.  1.
         12    1    3    3    0    0  0.29418707827E+02  0.15041153790E+02 -0.95976496854E+01  0.34406562703E+02  0.00000000000E+00 0. -1.
</event>
<event>
 7    1  0.8440037E-011  0.4778727E+02  0.7816164E-02  0.1312668E+00
        -11   -1    0    0    0    0  0.00000000000E+00  0.00000000000E+00  0.45593999997E+02  0.45594000000E+02  0.51100000000E-03 0. -1.
         11   -1    0    0    0    0 -0.00000000000E+00 -0.00000000000E+00 -0.45593999997E+02  0.45594000000E+02  0.51100000000E-03 0.  1.
    9900012    2    1    2    0    0 -0.22422430183E+02  0.12521138319E+02  0.34986841082E+02  0.47787270409E+02  0.19999997104E+02 0.  0.
        -12    1    1    2    0    0  0.22422430183E+02 -0.12521138319E+02 -0.34986841082E+02  0.43400729591E+02  0.00000000000E+00 0.  1.
         11    1    3    3    0    0 -0.11666249541E+02  0.46683676276E+01  0.13726741811E+02  0.18609633947E+02  0.51100000000E-03 0. -1.
        -11    1    3    3    0    0 -0.13014817325E+02  0.17592263434E+01  0.11526620753E+02  0.17474076044E+02  0.51100000000E-03 0.  1.
         12    1    3    3    0    0  0.22586366836E+01  0.60935443485E+01  0.97334785182E+01  0.11703560418E+02  0.00000000000E+00 0. -1.
</event>
<event>
 7    1  0.8440037E-011  0.4778727E+02  0.7816164E-02  0.1312668E+00
        -11   -1    0    0    0    0  0.00000000000E+00  0.00000000000E+00  0.45593999997E+02  0.45594000000E+02  0.51100000000E-03 0. -1.
         11   -1    0    0    0    0 -0.00000000000E+00 -0.00000000000E+00 -0.45593999997E+02  0.45594000000E+02  0.51100000000E-03 0.  1.
    9900012    2    1    2    0    0 -0.53405949991E+01  0.13595483042E+02 -0.40868868720E+02  0.47787267926E+02  0.19999985782E+02 0.  0.
         12    1    1    2    0    0  0.53405949991E+01 -0.13595483042E+02  0.40868868720E+02  0.43400732074E+02  0.00000000000E+00 0. -1.
         11    1    3    3    0    0 -0.40253073291E+01  0.65582168885E+00 -0.88927012368E+01  0.97833193104E+01  0.51100000000E-03 0. -1.
        -11    1    3    3    0    0 -0.68714156996E+01  0.51919721495E+00 -0.96392597564E+01  0.11849103273E+02  0.51100000000E-03 0.  1.
         12    1    3    3    0    0  0.55561280297E+01  0.12420464138E+02 -0.22336907727E+02  0.26154845343E+02  0.00000000000E+00 0. -1.
</event>
<event>
 7    1  0.8440037E-011  0.4778727E+02  0.7816164E-02  0.1312668E+00
        -11   -1    0    0    0    0  0.00000000000E+00  0.00000000000E+00  0.45593999997E+02  0.45594000000E+02  0.51100000000E-03 0. -1.
         11   -1    0    0    0    0 -0.00000000000E+00 -0.00000000000E+00 -0.45593999997E+02  0.45594000000E+02  0.51100000000E-03 0.  1.
    9900012    2    1    2    0    0  0.93185736287E+01  0.28175478873E+02 -0.31669067177E+02  0.47787271434E+02  0.20000001777E+02 0.  0.
         12    1    1    2    0    0 -0.93185736287E+01 -0.28175478873E+02  0.31669067177E+02  0.43400728566E+02  0.00000000000E+00 0. -1.
         11    1    3    3    0    0  0.20143976843E+01 -0.14579272339E+00 -0.53995380580E+00  0.20905989386E+01  0.51100000000E-03 0. -1.
        -11    1    3    3    0    0  0.31754531553E+01 -0.13194321599E+01 -0.42871182027E+01  0.54957971862E+01  0.51100000000E-03 0.  1.
        -12    1    3    3    0    0  0.41287227891E+01  0.29640703756E+02 -0.26841995168E+02  0.40200875309E+02  0.00000000000E+00 0.  1.
</event>
<event>
 7    1  0.8440037E-011  0.4778727E+02  0.7816164E-02  0.1312668E+00
        -11   -1    0    0    0    0  0.00000000000E+00  0.00000000000E+00  0.45593999997E+02  0.45594000000E+02  0.51100000000E-03 0. -1.
         11   -1    0    0    0    0 -0.00000000000E+00 -0.00000000000E+00 -0.45593999997E+02  0.45594000000E+02  0.51100000000E-03 0.  1.
    9900012    2    1    2    0    0 -0.41166439348E+01 -0.40945457097E+02 -0.13789347085E+02  0.47787270661E+02  0.19999998250E+02 0.  0.
         12    1    1    2    0    0  0.41166439348E+01  0.40945457097E+02  0.13789347085E+02  0.43400729339E+02  0.00000000000E+00 0. -1.
         11    1    3    3    0    0  0.72826719220E+00 -0.18061405830E+02 -0.42630622820E+01  0.18571980345E+02  0.51100000000E-03 0. -1.
        -11    1    3    3    0    0 -0.24860816106E+00 -0.14981183949E+02 -0.12592895044E+02  0.19572395980E+02  0.51100000000E-03 0.  1.
         12    1    3    3    0    0 -0.45963029660E+01 -0.79028673182E+01  0.30666102415E+01  0.96428943362E+01  0.00000000000E+00 0. -1.
</event>
<event>
 7    1  0.8440037E-011  0.4778727E+02  0.7816164E-02  0.1312668E+00
        -11   -1    0    0    0    0  0.00000000000E+00  0.00000000000E+00  0.45593999997E+02  0.45594000000E+02  0.51100000000E-03 0. -1.
         11   -1    0    0    0    0 -0.00000000000E+00 -0.00000000000E+00 -0.45593999997E+02  0.45594000000E+02  0.51100000000E-03 0.  1.
    9900012    2    1    2    0    0  0.31794881025E+02  0.24692184320E+02 -0.16217420499E+02  0.47787272431E+02  0.20000006323E+02 0.  0.
         12    1    1    2    0    0 -0.31794881025E+02 -0.24692184320E+02  0.16217420499E+02  0.43400727569E+02  0.00000000000E+00 0. -1.
         11    1    3    3    0    0 -0.37609010517E+00  0.16513975015E+01  0.88083019412E+00  0.19090362928E+01  0.51100000000E-03 0. -1.
        -11    1    3    3    0    0  0.25924722170E+02  0.19296037584E+02 -0.64139873466E+01  0.32947951681E+02  0.51100000000E-03 0.  1.
        -12    1    3    3    0    0  0.62462489597E+01  0.37447492348E+01 -0.10684263346E+02  0.12930284457E+02  0.00000000000E+00 0.  1.
</event>
<event>
 7    1  0.8440037E-011  0.4778728E+02  0.7816164E-02  0.1312668E+00
        -11   -1    0    0    0    0  0.00000000000E+00  0.00000000000E+00  0.45593999997E+02  0.45594000000E+02  0.51100000000E-03 0. -1.
         11   -1    0    0    0    0 -0.00000000000E+00 -0.00000000000E+00 -0.45593999997E+02  0.45594000000E+02  0.51100000000E-03 0.  1.
    9900012    2    1    2    0    0 -0.32692142148E+02  0.13433396585E+02 -0.25187110419E+02  0.47787276120E+02  0.20000023142E+02 0.  0.
         12    1    1    2    0    0  0.32692142148E+02 -0.13433396585E+02  0.25187110419E+02  0.43400723880E+02  0.00000000000E+00 0. -1.
         11    1    3    3    0    0 -0.21997742362E+01  0.56413970815E+01 -0.24881865787E+01  0.65464066810E+01  0.51100000000E-03 0. -1.
        -11    1    3    3    0    0 -0.64895150636E+01  0.81370753636E+01 -0.74955550664E+01  0.12826111930E+02  0.51100000000E-03 0.  1.
        -12    1    3    3    0    0 -0.24002852848E+02 -0.34507586037E+00 -0.15203368774E+02  0.28414757509E+02  0.00000000000E+00 0.  1.
</event>
<event>
 7    1  0.8440037E-011  0.4778728E+02  0.7816164E-02  0.1312668E+00
        -11   -1    0    0    0    0  0.00000000000E+00  0.00000000000E+00  0.45593999997E+02  0.45594000000E+02  0.51100000000E-03 0. -1.
         11   -1    0    0    0    0 -0.00000000000E+00 -0.00000000000E+00 -0.45593999997E+02  0.45594000000E+02  0.51100000000E-03 0.  1.
    9900012    2    1    2    0    0  0.25258368192E+02  0.10102081633E+02  0.33816943593E+02  0.47787275455E+02  0.20000020111E+02 0.  0.
        -12    1    1    2    0    0 -0.25258368192E+02 -0.10102081633E+02 -0.33816943593E+02  0.43400724545E+02  0.00000000000E+00 0.  1.
         11    1    3    3    0    0  0.84466271795E+01 -0.62844768628E+00  0.98252424349E+01  0.12972118037E+02  0.51100000000E-03 0. -1.
        -11    1    3    3    0    0  0.13636740667E+02 -0.26607153319E+00  0.11184589176E+02  0.17638779021E+02  0.51100000000E-03 0.  1.
         12    1    3    3    0    0  0.31750003458E+01  0.10996600852E+02  0.12807111982E+02  0.17176378397E+02  0.00000000000E+00 0. -1.
</event>
<event>
 7    1  0.1023221E-010  0.4778727E+02  0.7816164E-02  0.1312668E+00
        -11   -1    0    0    0    0  0.00000000000E+00  0.00000000000E+00  0.45593999997E+02  0.45594000000E+02  0.51100000000E-03 0. -1.
         11   -1    0    0    0    0 -0.00000000000E+00 -0.00000000000E+00 -0.45593999997E+02  0.45594000000E+02  0.51100000000E-03 0.  1.
    9900012    2    1    2    0    0 -0.91409876374E+01 -0.31938946671E+02  0.27927930058E+02  0.47787271357E+02  0.20000001424E+02 0.  0.
        -12    1    1    2    0    0  0.91409876374E+01  0.31938946671E+02 -0.27927930058E+02  0.43400728643E+02  0.00000000000E+00 0.  1.
         11    1    3    3    0    0 -0.32299640870E+01 -0.65401354371E+01  0.12935301954E+02  0.14850187758E+02  0.51100000000E-03 0. -1.
        -11    1    3    3    0    0 -0.23688884677E+01  0.98486994218E+00  0.45407956791E+00  0.26053387286E+01  0.51100000000E-03 0.  1.
         12    1    3    3    0    0 -0.35421350828E+01 -0.26383681176E+02  0.14538548536E+02  0.30331744870E+02  0.00000000000E+00 0. -1.
</event>
<event>
 7    1  0.8440037E-011  0.4778728E+02  0.7816164E-02  0.1312668E+00
        -11   -1    0    0    0    0  0.00000000000E+00  0.00000000000E+00  0.45593999997E+02  0.45594000000E+02  0.51100000000E-03 0. -1.
         11   -1    0    0    0    0 -0.00000000000E+00 -0.00000000000E+00 -0.45593999997E+02  0.45594000000E+02  0.51100000000E-03 0.  1.
    9900012    2    1    2    0    0  0.18128380498E+02  0.14955511510E+02  0.36487212409E+02  0.47787283723E+02  0.20000057806E+02 0.  0.
        -12    1    1    2    0    0 -0.18128380498E+02 -0.14955511510E+02 -0.36487212409E+02  0.43400716277E+02  0.00000000000E+00 0.  1.
         11    1    3    3    0    0  0.17424885503E+02  0.94838719165E+01  0.30399212612E+02  0.36299897920E+02  0.51100000000E-03 0. -1.
        -11    1    3    3    0    0  0.10671003031E+01 -0.63017114114E+00  0.51575379753E+01  0.53043394454E+01  0.51100000000E-03 0.  1.
        -12    1    3    3    0    0 -0.36360530841E+00  0.61018107345E+01  0.93046182208E+00  0.61830463577E+01  0.00000000000E+00 0.  1.
</event>
<event>
 7    1  0.8440037E-011  0.4778727E+02  0.7816164E-02  0.1312668E+00
        -11   -1    0    0    0    0  0.00000000000E+00  0.00000000000E+00  0.45593999997E+02  0.45594000000E+02  0.51100000000E-03 0. -1.
         11   -1    0    0    0    0 -0.00000000000E+00 -0.00000000000E+00 -0.45593999997E+02  0.45594000000E+02  0.51100000000E-03 0.  1.
    9900012    2    1    2    0    0  0.10953356075E+02  0.18697385757E+02 -0.37603924971E+02  0.47787269399E+02  0.19999992499E+02 0.  0.
         12    1    1    2    0    0 -0.10953356075E+02 -0.18697385757E+02  0.37603924971E+02  0.43400730601E+02  0.00000000000E+00 0. -1.
         11    1    3    3    0    0  0.31071276129E+01  0.21412694286E+01 -0.30151951846E+01  0.48301841612E+01  0.51100000000E-03 0. -1.
        -11    1    3    3    0    0  0.12160311082E+01  0.16344091347E+02 -0.31772351551E+02  0.35750389886E+02  0.51100000000E-03 0.  1.
        -12    1    3    3    0    0  0.66301973534E+01  0.21202498135E+00 -0.28163782348E+01  0.72066953522E+01  0.00000000000E+00 0.  1.
</event>
<event>
 7    1  0.8440037E-011  0.4778727E+02  0.7816164E-02  0.1312668E+00
        -11   -1    0    0    0    0  0.00000000000E+00  0.00000000000E+00  0.45593999997E+02  0.45594000000E+02  0.51100000000E-03 0. -1.
         11   -1    0    0    0    0 -0.00000000000E+00 -0.00000000000E+00 -0.45593999997E+02  0.45594000000E+02  0.51100000000E-03 0.  1.
    9900012    2    1    2    0    0  0.15581102918E+02  0.15935321891E+01  0.40476082612E+02  0.47787269861E+02  0.19999994605E+02 0.  0.
        -12    1    1    2    0    0 -0.15581102918E+02 -0.15935321891E+01 -0.40476082612E+02  0.43400730139E+02  0.00000000000E+00 0.  1.
         11    1    3    3    0    0  0.37543432664E+01 -0.33250151513E+01  0.13616686748E+02  0.14510857224E+02  0.51100000000E-03 0. -1.
        -11    1    3    3    0    0  0.78182614979E+01 -0.46609571110E+00  0.28312332486E+01  0.83281654661E+01  0.51100000000E-03 0.  1.
         12    1    3    3    0    0  0.40084981532E+01  0.53846430515E+01  0.24028162615E+02  0.24948247171E+02  0.00000000000E+00 0. -1.
</event>
<event>
 7    1  0.8440037E-011  0.4778727E+02  0.7816164E-02  0.1312668E+00
        -11   -1    0    0    0    0  0.00000000000E+00  0.00000000000E+00  0.45593999997E+02  0.45594000000E+02  0.51100000000E-03 0. -1.
         11   -1    0    0    0    0 -0.00000000000E+00 -0.00000000000E+00 -0.45593999997E+02  0.45594000000E+02  0.51100000000E-03 0.  1.
    9900012    2    1    2    0    0 -0.28466711347E+02 -0.28097960555E+02 -0.16845601374E+02  0.47787270422E+02  0.19999997161E+02 0.  0.
         12    1    1    2    0    0  0.28466711347E+02  0.28097960555E+02  0.16845601374E+02  0.43400729578E+02  0.00000000000E+00 0. -1.
         11    1    3    3    0    0 -0.91900808262E+01 -0.79140302322E+01 -0.85967340128E+01  0.14865843268E+02  0.51100000000E-03 0. -1.
        -11    1    3    3    0    0 -0.17014825142E+02 -0.18239340721E+02 -0.12363443797E+02  0.27839406735E+02  0.51100000000E-03 0.  1.
         12    1    3    3    0    0 -0.22618053783E+01 -0.19445896017E+01  0.41145764362E+01  0.50820204188E+01  0.00000000000E+00 0. -1.
</event>
<event>
 7    1  0.9269036E-011  0.4778725E+02  0.7816164E-02  0.1312668E+00
        -11   -1    0    0    0    0  0.00000000000E+00  0.00000000000E+00  0.45593999997E+02  0.45594000000E+02  0.51100000000E-03 0. -1.
         11   -1    0    0    0    0 -0.00000000000E+00 -0.00000000000E+00 -0.45593999997E+02  0.45594000000E+02  0.51100000000E-03 0.  1.
    9900012    2    1    2    0    0  0.90065949464E+01  0.17823578598E+02  0.38533440100E+02  0.47787254471E+02  0.19999924433E+02 0.  0.
        -12    1    1    2    0    0 -0.90065949464E+01 -0.17823578598E+02 -0.38533440100E+02  0.43400745529E+02  0.00000000000E+00 0.  1.
         11    1    3    3    0    0  0.75397194435E+01  0.16132192770E+02  0.34989528343E+02  0.39260184752E+02  0.51100000000E-03 0. -1.
        -11    1    3    3    0    0 -0.18718788116E+01 -0.78366378047E-01  0.42846507413E+01  0.46763558259E+01  0.51100000000E-03 0.  1.
         12    1    3    3    0    0  0.33387543144E+01  0.17697522062E+01 -0.74073898376E+00  0.38507138930E+01  0.00000000000E+00 0. -1.
</event>
<event>
 7    1  0.8440037E-011  0.4778727E+02  0.7816164E-02  0.1312668E+00
        -11   -1    0    0    0    0  0.00000000000E+00  0.00000000000E+00  0.45593999997E+02  0.45594000000E+02  0.51100000000E-03 0. -1.
         11   -1    0    0    0    0 -0.00000000000E+00 -0.00000000000E+00 -0.45593999997E+02  0.45594000000E+02  0.51100000000E-03 0.  1.
    9900012    2    1    2    0    0 -0.15592136576E+02 -0.40280766725E+02 -0.42389283854E+01  0.47787269536E+02  0.19999993122E+02 0.  0.
         12    1    1    2    0    0  0.15592136576E+02  0.40280766725E+02  0.42389283854E+01  0.43400730464E+02  0.00000000000E+00 0. -1.
         11    1    3    3    0    0 -0.62145611763E+01 -0.22239356420E+02 -0.10410569910E+01  0.23114790600E+02  0.51100000000E-03 0.  1.
        -11    1    3    3    0    0 -0.60467393026E+01 -0.12595585867E+02  0.44938900528E+01  0.14676746492E+02  0.51100000000E-03 0. -1.
         12    1    3    3    0    0 -0.33308360970E+01 -0.54458244386E+01 -0.76917614472E+01  0.99957324435E+01  0.00000000000E+00 0. -1.
</event>
<event>
 7    1  0.8440037E-011  0.4778727E+02  0.7816164E-02  0.1312668E+00
        -11   -1    0    0    0    0  0.00000000000E+00  0.00000000000E+00  0.45593999997E+02  0.45594000000E+02  0.51100000000E-03 0.  1.
         11   -1    0    0    0    0 -0.00000000000E+00 -0.00000000000E+00 -0.45593999997E+02  0.45594000000E+02  0.51100000000E-03 0. -1.
    9900012    2    1    2    0    0 -0.33529836139E+02  0.27373161093E+02 -0.31754166678E+01  0.47787272694E+02  0.20000007520E+02 0.  0.
         12    1    1    2    0    0  0.33529836139E+02 -0.27373161093E+02  0.31754166678E+01  0.43400727306E+02  0.00000000000E+00 0. -1.
         11    1    3    3    0    0 -0.33623378869E+01  0.82697335598E+01 -0.13251061020E+01  0.90249496208E+01  0.51100000000E-03 0. -1.
        -11    1    3    3    0    0 -0.24230159455E+01  0.74870922807E+01 -0.35566250578E+01  0.86358056459E+01  0.51100000000E-03 0.  1.
         12    1    3    3    0    0 -0.27744482306E+02  0.11616335252E+02  0.17063144920E+01  0.30126517427E+02  0.00000000000E+00 0. -1.
</event>
<event>
 7    1  0.8440037E-011  0.4778727E+02  0.7816164E-02  0.1312668E+00
        -11   -1    0    0    0    0  0.00000000000E+00  0.00000000000E+00  0.45593999997E+02  0.45594000000E+02  0.51100000000E-03 0. -1.
         11   -1    0    0    0    0 -0.00000000000E+00 -0.00000000000E+00 -0.45593999997E+02  0.45594000000E+02  0.51100000000E-03 0.  1.
    9900012    2    1    2    0    0  0.11920275087E+02  0.13346322501E+02 -0.39539934618E+02  0.47787265997E+02  0.19999976986E+02 0.  0.
         12    1    1    2    0    0 -0.11920275087E+02 -0.13346322501E+02  0.39539934618E+02  0.43400734003E+02  0.00000000000E+00 0. -1.
         11    1    3    3    0    0  0.82275924551E+01  0.15181049231E+02 -0.21449028622E+02  0.27535765151E+02  0.51100000000E-03 0. -1.
        -11    1    3    3    0    0  0.55307130410E+01 -0.58929788387E+00 -0.70007508258E+01  0.89412846462E+01  0.51100000000E-03 0.  1.
        -12    1    3    3    0    0 -0.18380304091E+01 -0.12454288463E+01 -0.11090155170E+02  0.11310216200E+02  0.00000000000E+00 0.  1.
</event>
<event>
 7    1  0.8440037E-011  0.4778728E+02  0.7816164E-02  0.1312668E+00
        -11   -1    0    0    0    0  0.00000000000E+00  0.00000000000E+00  0.45593999997E+02  0.45594000000E+02  0.51100000000E-03 0. -1.
         11   -1    0    0    0    0 -0.00000000000E+00 -0.00000000000E+00 -0.45593999997E+02  0.45594000000E+02  0.51100000000E-03 0.  1.
    9900012    2    1    2    0    0 -0.12543074620E+02  0.91052688666E+01 -0.40538725354E+02  0.47787275405E+02  0.20000019880E+02 0.  0.
         12    1    1    2    0    0  0.12543074620E+02 -0.91052688666E+01  0.40538725354E+02  0.43400724595E+02  0.00000000000E+00 0. -1.
         11    1    3    3    0    0 -0.97414942083E+01  0.16997340582E+01 -0.20944830866E+02  0.23161859717E+02  0.51100000000E-03 0. -1.
        -11    1    3    3    0    0 -0.46938984363E+01  0.86311064120E+01 -0.20047629680E+02  0.22325683337E+02  0.51100000000E-03 0.  1.
         12    1    3    3    0    0  0.18923180247E+01 -0.12255716036E+01  0.45373519125E+00  0.22997323509E+01  0.00000000000E+00 0. -1.
</event>
<event>
 7    1  0.8440037E-011  0.4778727E+02  0.7816164E-02  0.1312668E+00
        -11   -1    0    0    0    0  0.00000000000E+00  0.00000000000E+00  0.45593999997E+02  0.45594000000E+02  0.51100000000E-03 0. -1.
         11   -1    0    0    0    0 -0.00000000000E+00 -0.00000000000E+00 -0.45593999997E+02  0.45594000000E+02  0.51100000000E-03 0.  1.
    9900012    2    1    2    0    0  0.23417980241E+01  0.19181616691E+01 -0.43295029693E+02  0.47787274680E+02  0.20000016577E+02 0.  0.
         12    1    1    2    0    0 -0.23417980241E+01 -0.19181616691E+01  0.43295029693E+02  0.43400725320E+02  0.00000000000E+00 0. -1.
         11    1    3    3    0    0 -0.47157884997E+01  0.69673227860E+01 -0.95458474343E+01  0.12724207303E+02  0.51100000000E-03 0. -1.
        -11    1    3    3    0    0  0.14615018955E+01  0.57721608208E+00 -0.53413792318E+01  0.55677193315E+01  0.51100000000E-03 0.  1.
         12    1    3    3    0    0  0.55960846283E+01 -0.56263771989E+01 -0.28407803027E+02  0.29495348046E+02  0.00000000000E+00 0. -1.
</event>
<event>
 7    1  0.8440037E-011  0.4778727E+02  0.7816164E-02  0.1312668E+00
        -11   -1    0    0    0    0  0.00000000000E+00  0.00000000000E+00  0.45593999997E+02  0.45594000000E+02  0.51100000000E-03 0. -1.
         11   -1    0    0    0    0 -0.00000000000E+00 -0.00000000000E+00 -0.45593999997E+02  0.45594000000E+02  0.51100000000E-03 0.  1.
    9900012    2    1    2    0    0 -0.47056523267E+00 -0.17789485361E+02  0.39584540426E+02  0.47787273487E+02  0.20000011138E+02 0.  0.
        -12    1    1    2    0    0  0.47056523267E+00  0.17789485361E+02 -0.39584540426E+02  0.43400726513E+02  0.00000000000E+00 0.  1.
         11    1    3    3    0    0  0.17569308818E+01 -0.18941370217E+01  0.74432451700E+01  0.78788615994E+01  0.51100000000E-03 0. -1.
        -11    1    3    3    0    0 -0.81106102778E+01 -0.49313717064E+01  0.21626447777E+02  0.23617867594E+02  0.51100000000E-03 0.  1.
        -12    1    3    3    0    0  0.58831141634E+01 -0.10963976633E+02  0.10514847479E+02  0.16290544294E+02  0.00000000000E+00 0.  1.
</event>
<event>
 7    1  0.8694737E-011  0.4778727E+02  0.7816164E-02  0.1312668E+00
        -11   -1    0    0    0    0  0.00000000000E+00  0.00000000000E+00  0.45593999997E+02  0.45594000000E+02  0.51100000000E-03 0. -1.
         11   -1    0    0    0    0 -0.00000000000E+00 -0.00000000000E+00 -0.45593999997E+02  0.45594000000E+02  0.51100000000E-03 0.  1.
    9900012    2    1    2    0    0 -0.14745295624E+02  0.12558539263E+02  0.38839189364E+02  0.47787270952E+02  0.19999999579E+02 0.  0.
        -12    1    1    2    0    0  0.14745295624E+02 -0.12558539263E+02 -0.38839189364E+02  0.43400729048E+02  0.00000000000E+00 0.  1.
         11    1    3    3    0    0 -0.44508518635E+00  0.53781815616E+01  0.15807172814E+02  0.16702983278E+02  0.51100000000E-03 0. -1.
        -11    1    3    3    0    0 -0.35375107907E+01  0.87932921201E+01  0.73409409797E+01  0.11988552191E+02  0.51100000000E-03 0.  1.
         12    1    3    3    0    0 -0.10762699647E+02 -0.16129344189E+01  0.15691075570E+02  0.19095735484E+02  0.00000000000E+00 0. -1.
</event>
<event>
 7    1  0.8695763E-011  0.4778727E+02  0.7816164E-02  0.1312668E+00
        -11   -1    0    0    0    0  0.00000000000E+00  0.00000000000E+00  0.45593999997E+02  0.45594000000E+02  0.51100000000E-03 0. -1.
         11   -1    0    0    0    0 -0.00000000000E+00 -0.00000000000E+00 -0.45593999997E+02  0.45594000000E+02  0.51100000000E-03 0.  1.
    9900012    2    1    2    0    0 -0.12302330017E+02 -0.10972449006E+02  0.40148241239E+02  0.47787271486E+02  0.20000002012E+02 0.  0.
        -12    1    1    2    0    0  0.12302330017E+02  0.10972449006E+02 -0.40148241239E+02  0.43400728514E+02  0.00000000000E+00 0.  1.
         11    1    3    3    0    0 -0.15434075393E+01 -0.98434694898E+00 -0.15614712350E+01  0.24060836285E+01  0.51100000000E-03 0. -1.
        -11    1    3    3    0    0 -0.11643320863E+01  0.16664873407E+01  0.10709874401E+02  0.10901112751E+02  0.51100000000E-03 0.  1.
         12    1    3    3    0    0 -0.95945903909E+01 -0.11654589397E+02  0.30999838072E+02  0.34480075106E+02  0.00000000000E+00 0. -1.
</event>
<event>
 7    1  0.8440037E-011  0.4778727E+02  0.7816164E-02  0.1312668E+00
        -11   -1    0    0    0    0  0.00000000000E+00  0.00000000000E+00  0.45593999997E+02  0.45594000000E+02  0.51100000000E-03 0. -1.
         11   -1    0    0    0    0 -0.00000000000E+00 -0.00000000000E+00 -0.45593999997E+02  0.45594000000E+02  0.51100000000E-03 0.  1.
    9900012    2    1    2    0    0  0.18737767435E+01 -0.26887323769E+02  0.34017407470E+02  0.47787271553E+02  0.20000002318E+02 0.  0.
        -12    1    1    2    0    0 -0.18737767435E+01  0.26887323769E+02 -0.34017407470E+02  0.43400728447E+02  0.00000000000E+00 0.  1.
         11    1    3    3    0    0 -0.22554152980E+01 -0.87749618328E+01  0.17423944814E+02  0.19638755217E+02  0.51100000000E-03 0. -1.
        -11    1    3    3    0    0 -0.47616007086E+01 -0.74093892566E+01  0.59196696462E+01  0.10611992247E+02  0.51100000000E-03 0.  1.
         12    1    3    3    0    0  0.88907927500E+01 -0.10702972680E+02  0.10673793010E+02  0.17536524089E+02  0.00000000000E+00 0. -1.
</event>
<event>
 7    1  0.8440037E-011  0.4778727E+02  0.7816164E-02  0.1312668E+00
        -11   -1    0    0    0    0  0.00000000000E+00  0.00000000000E+00  0.45593999997E+02  0.45594000000E+02  0.51100000000E-03 0. -1.
         11   -1    0    0    0    0 -0.00000000000E+00 -0.00000000000E+00 -0.45593999997E+02  0.45594000000E+02  0.51100000000E-03 0.  1.
    9900012    2    1    2    0    0 -0.23330967859E+01  0.14825067012E+02 -0.40723422175E+02  0.47787273438E+02  0.20000010913E+02 0.  0.
         12    1    1    2    0    0  0.23330967859E+01 -0.14825067012E+02  0.40723422175E+02  0.43400726562E+02  0.00000000000E+00 0. -1.
         11    1    3    3    0    0 -0.23658924968E+01 -0.25757099783E+01 -0.10120861272E+02  0.10708107319E+02  0.51100000000E-03 0. -1.
        -11    1    3    3    0    0 -0.13421073905E+01 -0.11120619785E+01 -0.60654546629E+01  0.63109170982E+01  0.51100000000E-03 0.  1.
        -12    1    3    3    0    0  0.13749031014E+01  0.18512838968E+02 -0.24537106239E+02  0.30768249021E+02  0.00000000000E+00 0.  1.
</event>
<event>
 7    1  0.8440037E-011  0.4778727E+02  0.7816164E-02  0.1312668E+00
        -11   -1    0    0    0    0  0.00000000000E+00  0.00000000000E+00  0.45593999997E+02  0.45594000000E+02  0.51100000000E-03 0. -1.
         11   -1    0    0    0    0 -0.00000000000E+00 -0.00000000000E+00 -0.45593999997E+02  0.45594000000E+02  0.51100000000E-03 0.  1.
    9900012    2    1    2    0    0  0.15006544982E+02  0.34227377936E+02  0.22066115949E+02  0.47787271138E+02  0.20000000426E+02 0.  0.
        -12    1    1    2    0    0 -0.15006544982E+02 -0.34227377936E+02 -0.22066115949E+02  0.43400728862E+02  0.00000000000E+00 0.  1.
         11    1    3    3    0    0  0.56335071356E+00  0.13237580095E+02  0.47376930324E+01  0.14071127401E+02  0.51100000000E-03 0.  1.
        -11    1    3    3    0    0  0.49615399125E+01  0.16877796863E+02  0.15007992027E+02  0.23123942791E+02  0.51100000000E-03 0. -1.
         12    1    3    3    0    0  0.94816543556E+01  0.41120009780E+01  0.23204308897E+01  0.10592200946E+02  0.00000000000E+00 0. -1.
</event>
<event>
 7    1  0.8440037E-011  0.4778727E+02  0.7816164E-02  0.1312668E+00
        -11   -1    0    0    0    0  0.00000000000E+00  0.00000000000E+00  0.45593999997E+02  0.45594000000E+02  0.51100000000E-03 0. -1.
         11   -1    0    0    0    0 -0.00000000000E+00 -0.00000000000E+00 -0.45593999997E+02  0.45594000000E+02  0.51100000000E-03 0.  1.
    9900012    2    1    2    0    0 -0.25069293258E+01 -0.29084993901E+02  0.32115443385E+02  0.47787271104E+02  0.20000000274E+02 0.  0.
        -12    1    1    2    0    0  0.25069293258E+01  0.29084993901E+02 -0.32115443385E+02  0.43400728896E+02  0.00000000000E+00 0.  1.
         11    1    3    3    0    0  0.29089453184E+01 -0.73460846281E+01  0.67228866128E+01  0.10374204880E+02  0.51100000000E-03 0.  1.
        -11    1    3    3    0    0  0.10242607161E+01 -0.15215722203E+02  0.23560155292E+02  0.28065071349E+02  0.51100000000E-03 0. -1.
         12    1    3    3    0    0 -0.64401353604E+01 -0.65231870697E+01  0.18324014803E+01  0.93479948754E+01  0.00000000000E+00 0. -1.
</event>
<event>
 7    1  0.8440037E-011  0.4778727E+02  0.7816164E-02  0.1312668E+00
        -11   -1    0    0    0    0  0.00000000000E+00  0.00000000000E+00  0.45593999997E+02  0.45594000000E+02  0.51100000000E-03 0. -1.
         11   -1    0    0    0    0 -0.00000000000E+00 -0.00000000000E+00 -0.45593999997E+02  0.45594000000E+02  0.51100000000E-03 0.  1.
    9900012    2    1    2    0    0  0.19129754637E+02  0.52095414554E+01 -0.38607463908E+02  0.47787273001E+02  0.20000008920E+02 0.  0.
         12    1    1    2    0    0 -0.19129754637E+02 -0.52095414554E+01  0.38607463908E+02  0.43400726999E+02  0.00000000000E+00 0. -1.
         11    1    3    3    0    0  0.13209074921E+01 -0.36041080070E+01 -0.52287138147E+01  0.64864350413E+01  0.51100000000E-03 0. -1.
        -11    1    3    3    0    0  0.67188950254E+01 -0.22134619313E+01 -0.42866425891E+01  0.82715336565E+01  0.51100000000E-03 0.  1.
        -12    1    3    3    0    0  0.11089952119E+02  0.11027111394E+02 -0.29092107504E+02  0.33029304303E+02  0.00000000000E+00 0.  1.
</event>
<event>
 7    1  0.8440037E-011  0.4778727E+02  0.7816164E-02  0.1312668E+00
        -11   -1    0    0    0    0  0.00000000000E+00  0.00000000000E+00  0.45593999997E+02  0.45594000000E+02  0.51100000000E-03 0. -1.
         11   -1    0    0    0    0 -0.00000000000E+00 -0.00000000000E+00 -0.45593999997E+02  0.45594000000E+02  0.51100000000E-03 0.  1.
    9900012    2    1    2    0    0 -0.31983782091E+02  0.16838193814E+02  0.24023659287E+02  0.47787270820E+02  0.19999998977E+02 0.  0.
        -12    1    1    2    0    0  0.31983782091E+02 -0.16838193814E+02 -0.24023659287E+02  0.43400729180E+02  0.00000000000E+00 0.  1.
         11    1    3    3    0    0 -0.18848237737E+02  0.11740247056E+02  0.11801803607E+02  0.25147008477E+02  0.51100000000E-03 0. -1.
        -11    1    3    3    0    0 -0.13182419790E+02  0.26593958232E+01  0.39496713056E+01  0.14016008039E+02  0.51100000000E-03 0.  1.
        -12    1    3    3    0    0  0.46875435456E-01  0.24385509354E+01  0.82721843747E+01  0.86242543040E+01  0.00000000000E+00 0.  1.
</event>
<event>
 7    1  0.8440037E-011  0.4778727E+02  0.7816164E-02  0.1312668E+00
        -11   -1    0    0    0    0  0.00000000000E+00  0.00000000000E+00  0.45593999997E+02  0.45594000000E+02  0.51100000000E-03 0. -1.
         11   -1    0    0    0    0 -0.00000000000E+00 -0.00000000000E+00 -0.45593999997E+02  0.45594000000E+02  0.51100000000E-03 0.  1.
    9900012    2    1    2    0    0  0.27356176954E+02 -0.25172509582E+02  0.22396591586E+02  0.47787274535E+02  0.20000015914E+02 0.  0.
        -12    1    1    2    0    0 -0.27356176954E+02  0.25172509582E+02 -0.22396591586E+02  0.43400725465E+02  0.00000000000E+00 0.  1.
         11    1    3    3    0    0  0.53215314565E+01 -0.12060534730E+02  0.89379213271E+01  0.15926758394E+02  0.51100000000E-03 0. -1.
        -11    1    3    3    0    0  0.12184029134E+02 -0.14485293510E+02  0.85612285338E+01  0.20774237129E+02  0.51100000000E-03 0.  1.
        -12    1    3    3    0    0  0.98506163634E+01  0.13733186584E+01  0.48974417254E+01  0.11086279012E+02  0.00000000000E+00 0.  1.
</event>
<event>
 7    1  0.8440037E-011  0.4778728E+02  0.7816164E-02  0.1312668E+00
        -11   -1    0    0    0    0  0.00000000000E+00  0.00000000000E+00  0.45593999997E+02  0.45594000000E+02  0.51100000000E-03 0. -1.
         11   -1    0    0    0    0 -0.00000000000E+00 -0.00000000000E+00 -0.45593999997E+02  0.45594000000E+02  0.51100000000E-03 0.  1.
    9900012    2    1    2    0    0  0.41579488315E+01 -0.28622656594E+01  0.43106167945E+02  0.47787276296E+02  0.20000023943E+02 0.  0.
        -12    1    1    2    0    0 -0.41579488315E+01  0.28622656594E+01 -0.43106167945E+02  0.43400723704E+02  0.00000000000E+00 0.  1.
         11    1    3    3    0    0  0.42463363480E+01 -0.57569011179E+01  0.13959180240E+02  0.15685407106E+02  0.51100000000E-03 0. -1.
        -11    1    3    3    0    0  0.57731708204E+01  0.43891888248E+01  0.13468130739E+02  0.15296569084E+02  0.51100000000E-03 0.  1.
        -12    1    3    3    0    0 -0.58615583370E+01 -0.14945533663E+01  0.15678856965E+02  0.16805300106E+02  0.00000000000E+00 0.  1.
</event>
<event>
 7    1  0.8440037E-011  0.4778727E+02  0.7816164E-02  0.1312668E+00
        -11   -1    0    0    0    0  0.00000000000E+00  0.00000000000E+00  0.45593999997E+02  0.45594000000E+02  0.51100000000E-03 0. -1.
         11   -1    0    0    0    0 -0.00000000000E+00 -0.00000000000E+00 -0.45593999997E+02  0.45594000000E+02  0.51100000000E-03 0.  1.
    9900012    2    1    2    0    0  0.18713955641E+01 -0.39902933062E+02 -0.16966945861E+02  0.47787269129E+02  0.19999991266E+02 0.  0.
         12    1    1    2    0    0 -0.18713955641E+01  0.39902933062E+02  0.16966945861E+02  0.43400730871E+02  0.00000000000E+00 0. -1.
         11    1    3    3    0    0 -0.17501534519E+01 -0.23940155780E+02 -0.18074015835E+02  0.30047697825E+02  0.51100000000E-03 0. -1.
        -11    1    3    3    0    0 -0.13977347287E+00 -0.72552426753E+01 -0.23751198273E+01  0.76353963457E+01  0.51100000000E-03 0.  1.
         12    1    3    3    0    0  0.37613224889E+01 -0.87075346060E+01  0.34821898011E+01  0.10104174958E+02  0.00000000000E+00 0. -1.
</event>
<event>
 7    1  0.8440037E-011  0.4778725E+02  0.7816164E-02  0.1312668E+00
        -11   -1    0    0    0    0  0.00000000000E+00  0.00000000000E+00  0.45593999997E+02  0.45594000000E+02  0.51100000000E-03 0.  1.
         11   -1    0    0    0    0 -0.00000000000E+00 -0.00000000000E+00 -0.45593999997E+02  0.45594000000E+02  0.51100000000E-03 0. -1.
    9900012    2    1    2    0    0 -0.30155650996E+02 -0.28506230972E+02 -0.12714420994E+02  0.47787251246E+02  0.19999909729E+02 0.  0.
        -12    1    1    2    0    0  0.30155650996E+02  0.28506230972E+02  0.12714420994E+02  0.43400748754E+02  0.00000000000E+00 0.  1.
         11    1    3    3    0    0 -0.62101651302E+01 -0.35310768103E+01 -0.15515909149E+01  0.73104096337E+01  0.51100000000E-03 0. -1.
        -11    1    3    3    0    0 -0.40894536055E+01 -0.16322562046E+02 -0.19505229375E+01  0.16939722622E+02  0.51100000000E-03 0.  1.
        -12    1    3    3    0    0 -0.19856032261E+02 -0.86525921155E+01 -0.92123071416E+01  0.23537118990E+02  0.00000000000E+00 0.  1.
</event>
<event>
 7    1  0.8440037E-011  0.4778728E+02  0.7816164E-02  0.1312668E+00
        -11   -1    0    0    0    0  0.00000000000E+00  0.00000000000E+00  0.45593999997E+02  0.45594000000E+02  0.51100000000E-03 0. -1.
         11   -1    0    0    0    0 -0.00000000000E+00 -0.00000000000E+00 -0.45593999997E+02  0.45594000000E+02  0.51100000000E-03 0.  1.
    9900012    2    1    2    0    0  0.30109580905E+02 -0.66029097656E+01  0.30552201497E+02  0.47787282311E+02  0.20000051367E+02 0.  0.
        -12    1    1    2    0    0 -0.30109580905E+02  0.66029097656E+01 -0.30552201497E+02  0.43400717689E+02  0.00000000000E+00 0.  1.
         11    1    3    3    0    0  0.92699768124E+01 -0.26654637752E+00  0.17668702152E+02  0.19954612326E+02  0.51100000000E-03 0. -1.
        -11    1    3    3    0    0  0.73993014513E+01 -0.92078658608E+00  0.10901236401E+02  0.13207364054E+02  0.51100000000E-03 0.  1.
        -12    1    3    3    0    0  0.13440302641E+02 -0.54155768020E+01  0.19822629429E+01  0.14625305931E+02  0.00000000000E+00 0.  1.
</event>
<event>
 7    1  0.8440037E-011  0.4778727E+02  0.7816164E-02  0.1312668E+00
        -11   -1    0    0    0    0  0.00000000000E+00  0.00000000000E+00  0.45593999997E+02  0.45594000000E+02  0.51100000000E-03 0. -1.
         11   -1    0    0    0    0 -0.00000000000E+00 -0.00000000000E+00 -0.45593999997E+02  0.45594000000E+02  0.51100000000E-03 0.  1.
    9900012    2    1    2    0    0  0.36996443618E+02  0.11981004814E+02 -0.19270238651E+02  0.47787269425E+02  0.19999992616E+02 0.  0.
         12    1    1    2    0    0 -0.36996443618E+02 -0.11981004814E+02  0.19270238651E+02  0.43400730575E+02  0.00000000000E+00 0. -1.
         11    1    3    3    0    0  0.20875923681E+01 -0.19189807623E+01 -0.46605171793E+01  0.54553597224E+01  0.51100000000E-03 0. -1.
        -11    1    3    3    0    0  0.13036207538E+02  0.77196156210E+00 -0.99080112776E+01  0.16392294512E+02  0.51100000000E-03 0.  1.
        -12    1    3    3    0    0  0.21872643712E+02  0.13128024015E+02 -0.47017101944E+01  0.25939615191E+02  0.00000000000E+00 0.  1.
</event>
<event>
 7    1  0.8440037E-011  0.4778726E+02  0.7816164E-02  0.1312668E+00
        -11   -1    0    0    0    0  0.00000000000E+00  0.00000000000E+00  0.45593999997E+02  0.45594000000E+02  0.51100000000E-03 0. -1.
         11   -1    0    0    0    0 -0.00000000000E+00 -0.00000000000E+00 -0.45593999997E+02  0.45594000000E+02  0.51100000000E-03 0.  1.
    9900012    2    1    2    0    0 -0.12147928268E+02 -0.26382926774E+02 -0.32248931110E+02  0.47787256411E+02  0.19999933280E+02 0.  0.
         12    1    1    2    0    0  0.12147928268E+02  0.26382926774E+02  0.32248931110E+02  0.43400743589E+02  0.00000000000E+00 0. -1.
         11    1    3    3    0    0  0.29948305845E+01  0.12308807759E+01 -0.39984561662E+01  0.51450684824E+01  0.51100000000E-03 0. -1.
        -11    1    3    3    0    0 -0.25806883349E+01 -0.46166744578E+01 -0.23158806182E+01  0.57738149113E+01  0.51100000000E-03 0.  1.
        -12    1    3    3    0    0 -0.12562070518E+02 -0.22997133092E+02 -0.25934594325E+02  0.36868373017E+02  0.00000000000E+00 0.  1.
</event>
<event>
 7    1  0.8440037E-011  0.4778727E+02  0.7816164E-02  0.1312668E+00
        -11   -1    0    0    0    0  0.00000000000E+00  0.00000000000E+00  0.45593999997E+02  0.45594000000E+02  0.51100000000E-03 0. -1.
         11   -1    0    0    0    0 -0.00000000000E+00 -0.00000000000E+00 -0.45593999997E+02  0.45594000000E+02  0.51100000000E-03 0.  1.
    9900012    2    1    2    0    0  0.34965898482E+02 -0.15380334132E+02  0.20602294842E+02  0.47787270889E+02  0.19999999290E+02 0.  0.
        -12    1    1    2    0    0 -0.34965898482E+02  0.15380334132E+02 -0.20602294842E+02  0.43400729111E+02  0.00000000000E+00 0.  1.
         11    1    3    3    0    0  0.83281225068E+01 -0.30745636327E+01  0.35125635742E+01  0.95471812146E+01  0.51100000000E-03 0. -1.
        -11    1    3    3    0    0  0.80809973631E+01 -0.12741368608E+02  0.11116042847E+02  0.18740635028E+02  0.51100000000E-03 0.  1.
        -12    1    3    3    0    0  0.18556778612E+02  0.43559810930E+00  0.59736884204E+01  0.19499454647E+02  0.00000000000E+00 0.  1.
</event>
<event>
 7    1  0.8440037E-011  0.4778727E+02  0.7816164E-02  0.1312668E+00
        -11   -1    0    0    0    0  0.00000000000E+00  0.00000000000E+00  0.45593999997E+02  0.45594000000E+02  0.51100000000E-03 0. -1.
         11   -1    0    0    0    0 -0.00000000000E+00 -0.00000000000E+00 -0.45593999997E+02  0.45594000000E+02  0.51100000000E-03 0.  1.
    9900012    2    1    2    0    0 -0.14370960487E+02  0.81902635785E+01  0.40125030813E+02  0.47787273963E+02  0.20000013308E+02 0.  0.
        -12    1    1    2    0    0  0.14370960487E+02 -0.81902635785E+01 -0.40125030813E+02  0.43400726037E+02  0.00000000000E+00 0.  1.
         11    1    3    3    0    0 -0.62587199432E+01  0.14391377868E+01  0.21476047469E+02  0.22415693343E+02  0.51100000000E-03 0. -1.
        -11    1    3    3    0    0 -0.11959785815E+02  0.48942615446E+01  0.14346171973E+02  0.19308105120E+02  0.51100000000E-03 0.  1.
        -12    1    3    3    0    0  0.38475452711E+01  0.18568642471E+01  0.43028113708E+01  0.60634755000E+01  0.00000000000E+00 0.  1.
</event>
<event>
 7    1  0.8440037E-011  0.4778727E+02  0.7816164E-02  0.1312668E+00
        -11   -1    0    0    0    0  0.00000000000E+00  0.00000000000E+00  0.45593999997E+02  0.45594000000E+02  0.51100000000E-03 0. -1.
         11   -1    0    0    0    0 -0.00000000000E+00 -0.00000000000E+00 -0.45593999997E+02  0.45594000000E+02  0.51100000000E-03 0.  1.
    9900012    2    1    2    0    0  0.23341282699E+02  0.17320786042E+02 -0.32230395094E+02  0.47787268727E+02  0.19999989434E+02 0.  0.
         12    1    1    2    0    0 -0.23341282699E+02 -0.17320786042E+02  0.32230395094E+02  0.43400731273E+02  0.00000000000E+00 0. -1.
         11    1    3    3    0    0  0.40629848434E+01  0.10640493988E+01  0.32940563416E+00  0.42129034280E+01  0.51100000000E-03 0. -1.
        -11    1    3    3    0    0  0.85503275704E+01 -0.78788619397E+00 -0.73128585798E+01  0.11278597745E+02  0.51100000000E-03 0.  1.
        -12    1    3    3    0    0  0.10727970285E+02  0.17044622837E+02 -0.25246942148E+02  0.32295767554E+02  0.00000000000E+00 0.  1.
</event>
<event>
 7    1  0.8440037E-011  0.4778724E+02  0.7816164E-02  0.1312668E+00
        -11   -1    0    0    0    0  0.00000000000E+00  0.00000000000E+00  0.45593999997E+02  0.45594000000E+02  0.51100000000E-03 0. -1.
         11   -1    0    0    0    0 -0.00000000000E+00 -0.00000000000E+00 -0.45593999997E+02  0.45594000000E+02  0.51100000000E-03 0.  1.
    9900012    2    1    2    0    0  0.23974856363E+01 -0.29394067968E+02 -0.31841270314E+02  0.47787243505E+02  0.19999874436E+02 0.  0.
         12    1    1    2    0    0 -0.23974856363E+01  0.29394067968E+02  0.31841270314E+02  0.43400756495E+02  0.00000000000E+00 0. -1.
         11    1    3    3    0    0  0.41967074016E+01 -0.18354700772E+02 -0.66762106664E+01  0.19976966300E+02  0.51100000000E-03 0. -1.
        -11    1    3    3    0    0  0.13735240877E+00 -0.59179988862E+01 -0.92720941422E+01  0.11000604826E+02  0.51100000000E-03 0.  1.
         12    1    3    3    0    0 -0.19365741740E+01 -0.51213683106E+01 -0.15892965506E+02  0.16809672379E+02  0.00000000000E+00 0. -1.
</event>
<event>
 7    1  0.8440037E-011  0.4778727E+02  0.7816164E-02  0.1312668E+00
        -11   -1    0    0    0    0  0.00000000000E+00  0.00000000000E+00  0.45593999997E+02  0.45594000000E+02  0.51100000000E-03 0. -1.
         11   -1    0    0    0    0 -0.00000000000E+00 -0.00000000000E+00 -0.45593999997E+02  0.45594000000E+02  0.51100000000E-03 0.  1.
    9900012    2    1    2    0    0  0.17295428255E+02 -0.17960182100E+02 -0.35523556834E+02  0.47787273396E+02  0.20000010722E+02 0.  0.
         12    1    1    2    0    0 -0.17295428255E+02  0.17960182100E+02  0.35523556834E+02  0.43400726604E+02  0.00000000000E+00 0. -1.
         11    1    3    3    0    0  0.95173380734E+01 -0.32652390316E+01 -0.69895759025E+01  0.12251354272E+02  0.51100000000E-03 0. -1.
        -11    1    3    3    0    0  0.87934800154E+01 -0.31145049295E+01 -0.10158474312E+02  0.13792027855E+02  0.51100000000E-03 0.  1.
        -12    1    3    3    0    0 -0.10153898335E+01 -0.11580438139E+02 -0.18375506620E+02  0.21743891269E+02  0.00000000000E+00 0.  1.
</event>
<event>
 7    1  0.8440037E-011  0.4778727E+02  0.7816164E-02  0.1312668E+00
        -11   -1    0    0    0    0  0.00000000000E+00  0.00000000000E+00  0.45593999997E+02  0.45594000000E+02  0.51100000000E-03 0. -1.
         11   -1    0    0    0    0 -0.00000000000E+00 -0.00000000000E+00 -0.45593999997E+02  0.45594000000E+02  0.51100000000E-03 0.  1.
    9900012    2    1    2    0    0  0.26382423904E+02  0.17458623579E+02 -0.29711739920E+02  0.47787270543E+02  0.19999997714E+02 0.  0.
         12    1    1    2    0    0 -0.26382423904E+02 -0.17458623579E+02  0.29711739920E+02  0.43400729457E+02  0.00000000000E+00 0. -1.
         11    1    3    3    0    0  0.76340050283E+01  0.17579382417E+01 -0.48591914480E+01  0.92184663270E+01  0.51100000000E-03 0. -1.
        -11    1    3    3    0    0  0.78502342204E+01  0.40768463958E+01  0.23513053038E+00  0.88488496697E+01  0.51100000000E-03 0.  1.
        -12    1    3    3    0    0  0.10898184655E+02  0.11623838942E+02 -0.25087679002E+02  0.29719954546E+02  0.00000000000E+00 0.  1.
</event>
<event>
 7    1  0.8440037E-011  0.4778727E+02  0.7816164E-02  0.1312668E+00
        -11   -1    0    0    0    0  0.00000000000E+00  0.00000000000E+00  0.45593999997E+02  0.45594000000E+02  0.51100000000E-03 0. -1.
         11   -1    0    0    0    0 -0.00000000000E+00 -0.00000000000E+00 -0.45593999997E+02  0.45594000000E+02  0.51100000000E-03 0.  1.
    9900012    2    1    2    0    0  0.15151566585E+02 -0.15169193455E+00 -0.40669773809E+02  0.47787268645E+02  0.19999989061E+02 0.  0.
         12    1    1    2    0    0 -0.15151566585E+02  0.15169193455E+00  0.40669773809E+02  0.43400731355E+02  0.00000000000E+00 0. -1.
         11    1    3    3    0    0  0.39712092137E+01  0.21195961741E+00  0.90381984033E+00  0.40782741525E+01  0.51100000000E-03 0. -1.
        -11    1    3    3    0    0  0.47442156515E+01  0.35054768578E+00 -0.65699413479E+01  0.81113867744E+01  0.51100000000E-03 0.  1.
        -12    1    3    3    0    0  0.64361417197E+01 -0.71419923774E+00 -0.35003652302E+02  0.35597607718E+02  0.00000000000E+00 0.  1.
</event>
<event>
 7    1  0.8440037E-011  0.4778727E+02  0.7816164E-02  0.1312668E+00
        -11   -1    0    0    0    0  0.00000000000E+00  0.00000000000E+00  0.45593999997E+02  0.45594000000E+02  0.51100000000E-03 0. -1.
         11   -1    0    0    0    0 -0.00000000000E+00 -0.00000000000E+00 -0.45593999997E+02  0.45594000000E+02  0.51100000000E-03 0.  1.
    9900012    2    1    2    0    0  0.37120738607E+02  0.20283769415E+02  0.97078645563E+01  0.47787272233E+02  0.20000005420E+02 0.  0.
        -12    1    1    2    0    0 -0.37120738607E+02 -0.20283769415E+02 -0.97078645563E+01  0.43400727767E+02  0.00000000000E+00 0.  1.
         11    1    3    3    0    0  0.40361515324E+01 -0.62549619595E+00  0.22240008429E+01  0.46505854142E+01  0.51100000000E-03 0.  1.
        -11    1    3    3    0    0  0.27674442752E+02  0.23224891716E+02  0.86212175516E+01  0.37142910079E+02  0.51100000000E-03 0. -1.
         12    1    3    3    0    0  0.54101443230E+01 -0.23156261047E+01 -0.11373538381E+01  0.59937767397E+01  0.00000000000E+00 0. -1.
</event>
<event>
 7    1  0.8440037E-011  0.4778727E+02  0.7816164E-02  0.1312668E+00
        -11   -1    0    0    0    0  0.00000000000E+00  0.00000000000E+00  0.45593999997E+02  0.45594000000E+02  0.51100000000E-03 0. -1.
         11   -1    0    0    0    0 -0.00000000000E+00 -0.00000000000E+00 -0.45593999997E+02  0.45594000000E+02  0.51100000000E-03 0.  1.
    9900012    2    1    2    0    0  0.25604721117E+02 -0.33673958355E+00 -0.35041523955E+02  0.47787268000E+02  0.19999986120E+02 0.  0.
         12    1    1    2    0    0 -0.25604721117E+02  0.33673958355E+00  0.35041523955E+02  0.43400732000E+02  0.00000000000E+00 0. -1.
         11    1    3    3    0    0  0.76374649121E+01 -0.15955290715E+01 -0.19432852352E+02  0.20940686094E+02  0.51100000000E-03 0. -1.
        -11    1    3    3    0    0  0.10882434121E+01  0.26131684390E+01 -0.76095987437E+01  0.81190465152E+01  0.51100000000E-03 0.  1.
         12    1    3    3    0    0  0.16879012793E+02 -0.13543789511E+01 -0.79990728597E+01  0.18727535391E+02  0.00000000000E+00 0. -1.
</event>
<event>
 7    1  0.8440037E-011  0.4778727E+02  0.7816164E-02  0.1312668E+00
        -11   -1    0    0    0    0  0.00000000000E+00  0.00000000000E+00  0.45593999997E+02  0.45594000000E+02  0.51100000000E-03 0. -1.
         11   -1    0    0    0    0 -0.00000000000E+00 -0.00000000000E+00 -0.45593999997E+02  0.45594000000E+02  0.51100000000E-03 0.  1.
    9900012    2    1    2    0    0  0.36433804153E+01 -0.82062358504E+01 -0.42461827281E+02  0.47787270700E+02  0.19999998430E+02 0.  0.
         12    1    1    2    0    0 -0.36433804153E+01  0.82062358504E+01  0.42461827281E+02  0.43400729300E+02  0.00000000000E+00 0. -1.
         11    1    3    3    0    0 -0.10649098972E+01  0.70136672519E+00  0.56713665153E+00  0.13955617561E+01  0.51100000000E-03 0.  1.
        -11    1    3    3    0    0 -0.25100659071E+01 -0.43277066741E+00 -0.72606470880E+00  0.26485640507E+01  0.51100000000E-03 0. -1.
        -12    1    3    3    0    0  0.72183562196E+01 -0.84748319081E+01 -0.42302899224E+02  0.43743144893E+02  0.00000000000E+00 0.  1.
</event>
<event>
 7    1  0.8440037E-011  0.4778727E+02  0.7816164E-02  0.1312668E+00
        -11   -1    0    0    0    0  0.00000000000E+00  0.00000000000E+00  0.45593999997E+02  0.45594000000E+02  0.51100000000E-03 0. -1.
         11   -1    0    0    0    0 -0.00000000000E+00 -0.00000000000E+00 -0.45593999997E+02  0.45594000000E+02  0.51100000000E-03 0.  1.
    9900012    2    1    2    0    0  0.30728317746E+02  0.12388847948E+02 -0.28034089824E+02  0.47787271236E+02  0.20000000872E+02 0.  0.
         12    1    1    2    0    0 -0.30728317746E+02 -0.12388847948E+02  0.28034089824E+02  0.43400728764E+02  0.00000000000E+00 0. -1.
         11    1    3    3    0    0  0.59160279537E+01 -0.22157008639E+01 -0.28440059216E+01  0.69279930002E+01  0.51100000000E-03 0.  1.
        -11    1    3    3    0    0  0.16094122765E+02  0.65564233115E+01 -0.22945622506E+02  0.28783833425E+02  0.51100000000E-03 0. -1.
         12    1    3    3    0    0  0.87181670279E+01  0.80481255008E+01 -0.22444613963E+01  0.12075444810E+02  0.00000000000E+00 0. -1.
</event>
<event>
 7    1  0.8440037E-011  0.4778727E+02  0.7816164E-02  0.1312668E+00
        -11   -1    0    0    0    0  0.00000000000E+00  0.00000000000E+00  0.45593999997E+02  0.45594000000E+02  0.51100000000E-03 0. -1.
         11   -1    0    0    0    0 -0.00000000000E+00 -0.00000000000E+00 -0.45593999997E+02  0.45594000000E+02  0.51100000000E-03 0.  1.
    9900012    2    1    2    0    0 -0.38106056713E+02  0.20097110581E+02  0.52590804413E+01  0.47787270294E+02  0.19999996577E+02 0.  0.
        -12    1    1    2    0    0  0.38106056713E+02 -0.20097110581E+02 -0.52590804413E+01  0.43400729706E+02  0.00000000000E+00 0.  1.
         11    1    3    3    0    0 -0.25644686651E+02  0.13276297790E+02  0.84176521569E+01  0.30079343486E+02  0.51100000000E-03 0. -1.
        -11    1    3    3    0    0 -0.47337329115E+01  0.61864675804E+01  0.24188437469E+01  0.81566790874E+01  0.51100000000E-03 0.  1.
        -12    1    3    3    0    0 -0.77276371508E+01  0.63434521077E+00 -0.55774154625E+01  0.95512477207E+01  0.00000000000E+00 0.  1.
</event>
<event>
 7    1  0.8440037E-011  0.4778727E+02  0.7816164E-02  0.1312668E+00
        -11   -1    0    0    0    0  0.00000000000E+00  0.00000000000E+00  0.45593999997E+02  0.45594000000E+02  0.51100000000E-03 0. -1.
         11   -1    0    0    0    0 -0.00000000000E+00 -0.00000000000E+00 -0.45593999997E+02  0.45594000000E+02  0.51100000000E-03 0.  1.
    9900012    2    1    2    0    0 -0.57087531304E+01 -0.66903070963E+01 -0.42500275051E+02  0.47787269007E+02  0.19999990709E+02 0.  0.
         12    1    1    2    0    0  0.57087531304E+01  0.66903070963E+01  0.42500275051E+02  0.43400730993E+02  0.00000000000E+00 0. -1.
         11    1    3    3    0    0  0.17479472982E+01  0.14610070746E+01 -0.28678226453E+01  0.36625494420E+01  0.51100000000E-03 0. -1.
        -11    1    3    3    0    0  0.40905623902E+01 -0.45872658755E+01 -0.21287680205E+02  0.22157189300E+02  0.51100000000E-03 0.  1.
        -12    1    3    3    0    0 -0.11547262819E+02 -0.35640482953E+01 -0.18344772201E+02  0.21967530265E+02  0.00000000000E+00 0.  1.
</event>
<event>
 7    1  0.8440037E-011  0.4778727E+02  0.7816164E-02  0.1312668E+00
        -11   -1    0    0    0    0  0.00000000000E+00  0.00000000000E+00  0.45593999997E+02  0.45594000000E+02  0.51100000000E-03 0.  1.
         11   -1    0    0    0    0 -0.00000000000E+00 -0.00000000000E+00 -0.45593999997E+02  0.45594000000E+02  0.51100000000E-03 0. -1.
    9900012    2    1    2    0    0 -0.28347839461E+02 -0.28286160213E+02 -0.16730698744E+02  0.47787272562E+02  0.20000006919E+02 0.  0.
        -12    1    1    2    0    0  0.28347839461E+02  0.28286160213E+02  0.16730698744E+02  0.43400727438E+02  0.00000000000E+00 0.  1.
         11    1    3    3    0    0 -0.14117472920E+02 -0.21786409770E+02 -0.12620374988E+02  0.28865629344E+02  0.51100000000E-03 0. -1.
        -11    1    3    3    0    0 -0.19251407776E+00 -0.40986196710E+01 -0.16378964284E-01  0.41031711406E+01  0.51100000000E-03 0.  1.
        -12    1    3    3    0    0 -0.14037852463E+02 -0.24011307717E+01 -0.40939447917E+01  0.14818472077E+02  0.00000000000E+00 0.  1.
</event>
<event>
 7    1  0.8440037E-011  0.4778725E+02  0.7816164E-02  0.1312668E+00
        -11   -1    0    0    0    0  0.00000000000E+00  0.00000000000E+00  0.45593999997E+02  0.45594000000E+02  0.51100000000E-03 0. -1.
         11   -1    0    0    0    0 -0.00000000000E+00 -0.00000000000E+00 -0.45593999997E+02  0.45594000000E+02  0.51100000000E-03 0.  1.
    9900012    2    1    2    0    0 -0.12796203933E+02 -0.18421758640E+02  0.37155361481E+02  0.47787252158E+02  0.19999913890E+02 0.  0.
        -12    1    1    2    0    0  0.12796203933E+02  0.18421758640E+02 -0.37155361481E+02  0.43400747842E+02  0.00000000000E+00 0.  1.
         11    1    3    3    0    0 -0.86392264902E+01 -0.10188648543E+02  0.52822541454E+01  0.14364783417E+02  0.51100000000E-03 0.  1.
        -11    1    3    3    0    0 -0.34818774647E+00 -0.10622779058E+01  0.10494567496E+02  0.10553938423E+02  0.51100000000E-03 0. -1.
        -12    1    3    3    0    0 -0.38087896960E+01 -0.71708321904E+01  0.21378539839E+02  0.22868530318E+02  0.00000000000E+00 0.  1.
</event>
<event>
 7    1  0.8440037E-011  0.4778727E+02  0.7816164E-02  0.1312668E+00
        -11   -1    0    0    0    0  0.00000000000E+00  0.00000000000E+00  0.45593999997E+02  0.45594000000E+02  0.51100000000E-03 0. -1.
         11   -1    0    0    0    0 -0.00000000000E+00 -0.00000000000E+00 -0.45593999997E+02  0.45594000000E+02  0.51100000000E-03 0.  1.
    9900012    2    1    2    0    0 -0.22188131886E+01 -0.74438549443E+01 -0.42699986988E+02  0.47787274233E+02  0.20000014536E+02 0.  0.
         12    1    1    2    0    0  0.22188131886E+01  0.74438549443E+01  0.42699986988E+02  0.43400725767E+02  0.00000000000E+00 0. -1.
         11    1    3    3    0    0 -0.18279077016E+01 -0.82666289792E+01 -0.14087018633E+02  0.16435403721E+02  0.51100000000E-03 0. -1.
        -11    1    3    3    0    0  0.53658282386E+01 -0.27537507179E+01 -0.12954627225E+02  0.14289773353E+02  0.51100000000E-03 0.  1.
        -12    1    3    3    0    0 -0.57567337256E+01  0.35765247528E+01 -0.15658341130E+02  0.17062097158E+02  0.00000000000E+00 0.  1.
</event>
<event>
 7    1  0.8440037E-011  0.4778728E+02  0.7816164E-02  0.1312668E+00
        -11   -1    0    0    0    0  0.00000000000E+00  0.00000000000E+00  0.45593999997E+02  0.45594000000E+02  0.51100000000E-03 0.  1.
         11   -1    0    0    0    0 -0.00000000000E+00 -0.00000000000E+00 -0.45593999997E+02  0.45594000000E+02  0.51100000000E-03 0. -1.
    9900012    2    1    2    0    0  0.15496483039E+02  0.93152713781E+01  0.39455126966E+02  0.47787282133E+02  0.20000050558E+02 0.  0.
        -12    1    1    2    0    0 -0.15496483039E+02 -0.93152713781E+01 -0.39455126966E+02  0.43400717867E+02  0.00000000000E+00 0.  1.
         11    1    3    3    0    0  0.62094942000E+01  0.30992856499E+00  0.10900674116E+02  0.12549046593E+02  0.51100000000E-03 0. -1.
        -11    1    3    3    0    0 -0.29101351907E+01 -0.20026642352E+01  0.21382532707E+01  0.41293677697E+01  0.51100000000E-03 0.  1.
        -12    1    3    3    0    0  0.12197124029E+02  0.11008007048E+02  0.26416199580E+02  0.31108867771E+02  0.00000000000E+00 0.  1.
</event>
<event>
 7    1  0.8440037E-011  0.4778728E+02  0.7816164E-02  0.1312668E+00
        -11   -1    0    0    0    0  0.00000000000E+00  0.00000000000E+00  0.45593999997E+02  0.45594000000E+02  0.51100000000E-03 0. -1.
         11   -1    0    0    0    0 -0.00000000000E+00 -0.00000000000E+00 -0.45593999997E+02  0.45594000000E+02  0.51100000000E-03 0.  1.
    9900012    2    1    2    0    0  0.23223649680E+02  0.13602572347E+02 -0.34047829726E+02  0.47787278946E+02  0.20000036028E+02 0.  0.
         12    1    1    2    0    0 -0.23223649680E+02 -0.13602572347E+02  0.34047829726E+02  0.43400721054E+02  0.00000000000E+00 0. -1.
         11    1    3    3    0    0  0.48577586012E+01  0.79601989075E+01 -0.27694356153E+01  0.97279164863E+01  0.51100000000E-03 0. -1.
        -11    1    3    3    0    0  0.71102902091E+01  0.73312032751E+01 -0.16520577498E+02  0.19422467645E+02  0.51100000000E-03 0.  1.
        -12    1    3    3    0    0  0.11255600870E+02 -0.16888298353E+01 -0.14757816613E+02  0.18636894815E+02  0.00000000000E+00 0.  1.
</event>
<event>
 7    1  0.8440037E-011  0.4778727E+02  0.7816164E-02  0.1312668E+00
        -11   -1    0    0    0    0  0.00000000000E+00  0.00000000000E+00  0.45593999997E+02  0.45594000000E+02  0.51100000000E-03 0. -1.
         11   -1    0    0    0    0 -0.00000000000E+00 -0.00000000000E+00 -0.45593999997E+02  0.45594000000E+02  0.51100000000E-03 0.  1.
    9900012    2    1    2    0    0 -0.38112983060E+02  0.33363339714E+01  0.20491279217E+02  0.47787272747E+02  0.20000007763E+02 0.  0.
        -12    1    1    2    0    0  0.38112983060E+02 -0.33363339714E+01 -0.20491279217E+02  0.43400727253E+02  0.00000000000E+00 0.  1.
         11    1    3    3    0    0 -0.19843861455E+02 -0.45250445459E+01  0.10235849440E+02  0.22782174602E+02  0.51100000000E-03 0. -1.
        -11    1    3    3    0    0 -0.91700752560E+01  0.38237404663E+00 -0.30880795735E+00  0.91832375951E+01  0.51100000000E-03 0.  1.
         12    1    3    3    0    0 -0.90990463497E+01  0.74790044707E+01  0.10564237735E+02  0.15821860550E+02  0.00000000000E+00 0. -1.
</event>
<event>
 7    1  0.8440037E-011  0.4778727E+02  0.7816164E-02  0.1312668E+00
        -11   -1    0    0    0    0  0.00000000000E+00  0.00000000000E+00  0.45593999997E+02  0.45594000000E+02  0.51100000000E-03 0. -1.
         11   -1    0    0    0    0 -0.00000000000E+00 -0.00000000000E+00 -0.45593999997E+02  0.45594000000E+02  0.51100000000E-03 0.  1.
    9900012    2    1    2    0    0  0.47266611089E+01  0.16013498418E+02  0.40060579443E+02  0.47787268645E+02  0.19999989060E+02 0.  0.
        -12    1    1    2    0    0 -0.47266611089E+01 -0.16013498418E+02 -0.40060579443E+02  0.43400731355E+02  0.00000000000E+00 0.  1.
         11    1    3    3    0    0  0.57640827364E+00  0.98788590060E+01  0.59612712965E+01  0.11552526022E+02  0.51100000000E-03 0. -1.
        -11    1    3    3    0    0 -0.22954282984E+01 -0.51108833546E+00  0.31539460099E+01  0.39341553165E+01  0.51100000000E-03 0.  1.
        -12    1    3    3    0    0  0.64456811337E+01  0.66457277474E+01  0.30945362137E+02  0.32300587306E+02  0.00000000000E+00 0.  1.
</event>
<event>
 7    1  0.8494341E-011  0.4778727E+02  0.7816164E-02  0.1312668E+00
        -11   -1    0    0    0    0  0.00000000000E+00  0.00000000000E+00  0.45593999997E+02  0.45594000000E+02  0.51100000000E-03 0. -1.
         11   -1    0    0    0    0 -0.00000000000E+00 -0.00000000000E+00 -0.45593999997E+02  0.45594000000E+02  0.51100000000E-03 0.  1.
    9900012    2    1    2    0    0 -0.35711738855E+01 -0.37870458839E+01  0.43087448009E+02  0.47787272179E+02  0.20000005175E+02 0.  0.
        -12    1    1    2    0    0  0.35711738855E+01  0.37870458839E+01 -0.43087448009E+02  0.43400727821E+02  0.00000000000E+00 0.  1.
         11    1    3    3    0    0  0.30975157876E+01  0.20527098125E+01  0.33365784162E+01  0.49940942540E+01  0.51100000000E-03 0. -1.
        -11    1    3    3    0    0  0.39396910899E+01 -0.64060607424E+00  0.87435333428E+01  0.96114992381E+01  0.51100000000E-03 0.  1.
         12    1    3    3    0    0 -0.10608380763E+02 -0.51991496221E+01  0.31007336250E+02  0.33181678687E+02  0.00000000000E+00 0. -1.
</event>
<event>
 7    1  0.8440037E-011  0.4778729E+02  0.7816164E-02  0.1312668E+00
        -11   -1    0    0    0    0  0.00000000000E+00  0.00000000000E+00  0.45593999997E+02  0.45594000000E+02  0.51100000000E-03 0. -1.
         11   -1    0    0    0    0 -0.00000000000E+00 -0.00000000000E+00 -0.45593999997E+02  0.45594000000E+02  0.51100000000E-03 0.  1.
    9900012    2    1    2    0    0  0.22926374221E+02  0.88184446217E+01  0.35780411548E+02  0.47787292045E+02  0.20000095748E+02 0.  0.
        -12    1    1    2    0    0 -0.22926374221E+02 -0.88184446217E+01 -0.35780411548E+02  0.43400707955E+02  0.00000000000E+00 0.  1.
         11    1    3    3    0    0  0.13837000428E+02 -0.76578046403E+00  0.10088513854E+02  0.17141385959E+02  0.51100000000E-03 0. -1.
        -11    1    3    3    0    0  0.22505571809E+01  0.27231798419E+00  0.14095017516E+02  0.14276157878E+02  0.51100000000E-03 0.  1.
         12    1    3    3    0    0  0.68388166121E+01  0.93119071016E+01  0.11596880178E+02  0.16369748208E+02  0.00000000000E+00 0. -1.
</event>
<event>
 7    1  0.8440037E-011  0.4778727E+02  0.7816164E-02  0.1312668E+00
        -11   -1    0    0    0    0  0.00000000000E+00  0.00000000000E+00  0.45593999997E+02  0.45594000000E+02  0.51100000000E-03 0. -1.
         11   -1    0    0    0    0 -0.00000000000E+00 -0.00000000000E+00 -0.45593999997E+02  0.45594000000E+02  0.51100000000E-03 0.  1.
    9900012    2    1    2    0    0 -0.26293904398E+02  0.72632061294E+01  0.33756473419E+02  0.47787273399E+02  0.20000010736E+02 0.  0.
        -12    1    1    2    0    0  0.26293904398E+02 -0.72632061294E+01 -0.33756473419E+02  0.43400726601E+02  0.00000000000E+00 0.  1.
         11    1    3    3    0    0 -0.85656449148E+01  0.11659612804E+02  0.14707673523E+02  0.20630862907E+02  0.51100000000E-03 0. -1.
        -11    1    3    3    0    0 -0.83678513199E+01  0.29519570341E+00  0.54368245434E+01  0.99833430069E+01  0.51100000000E-03 0.  1.
         12    1    3    3    0    0 -0.93604081636E+01 -0.46916023783E+01  0.13611975352E+02  0.17173067485E+02  0.00000000000E+00 0. -1.
</event>
<event>
 7    1  0.8440037E-011  0.4778727E+02  0.7816164E-02  0.1312668E+00
        -11   -1    0    0    0    0  0.00000000000E+00  0.00000000000E+00  0.45593999997E+02  0.45594000000E+02  0.51100000000E-03 0.  1.
         11   -1    0    0    0    0 -0.00000000000E+00 -0.00000000000E+00 -0.45593999997E+02  0.45594000000E+02  0.51100000000E-03 0. -1.
    9900012    2    1    2    0    0 -0.23549865091E+02 -0.33687030883E+02  0.13935959799E+02  0.47787272229E+02  0.20000005402E+02 0.  0.
        -12    1    1    2    0    0  0.23549865091E+02  0.33687030883E+02 -0.13935959799E+02  0.43400727771E+02  0.00000000000E+00 0.  1.
         11    1    3    3    0    0 -0.60239623191E+01 -0.53518445491E+01 -0.10029859922E+00  0.80585620411E+01  0.51100000000E-03 0. -1.
        -11    1    3    3    0    0 -0.53626743284E+01 -0.21541673206E+01  0.85866837652E+01  0.10350355122E+02  0.51100000000E-03 0.  1.
         12    1    3    3    0    0 -0.12163228444E+02 -0.26181019013E+02  0.54495746334E+01  0.29378355067E+02  0.00000000000E+00 0. -1.
</event>
<event>
 7    1  0.8440037E-011  0.4778727E+02  0.7816164E-02  0.1312668E+00
        -11   -1    0    0    0    0  0.00000000000E+00  0.00000000000E+00  0.45593999997E+02  0.45594000000E+02  0.51100000000E-03 0.  1.
         11   -1    0    0    0    0 -0.00000000000E+00 -0.00000000000E+00 -0.45593999997E+02  0.45594000000E+02  0.51100000000E-03 0. -1.
    9900012    2    1    2    0    0  0.23107020303E+02  0.19992847907E+02 -0.30821663894E+02  0.47787270514E+02  0.19999997583E+02 0.  0.
         12    1    1    2    0    0 -0.23107020303E+02 -0.19992847907E+02  0.30821663894E+02  0.43400729486E+02  0.00000000000E+00 0. -1.
         11    1    3    3    0    0  0.64950253080E+00 -0.55941440278E+00 -0.47059146939E+01  0.47833493892E+01  0.51100000000E-03 0. -1.
        -11    1    3    3    0    0  0.64836059618E+01 -0.54074445730E+00 -0.11134950529E+01  0.66007137743E+01  0.51100000000E-03 0.  1.
        -12    1    3    3    0    0  0.15973911810E+02  0.21093006767E+02 -0.25002254147E+02  0.36403207351E+02  0.00000000000E+00 0.  1.
</event>
<event>
 7    1  0.8440037E-011  0.4778727E+02  0.7816164E-02  0.1312668E+00
        -11   -1    0    0    0    0  0.00000000000E+00  0.00000000000E+00  0.45593999997E+02  0.45594000000E+02  0.51100000000E-03 0.  1.
         11   -1    0    0    0    0 -0.00000000000E+00 -0.00000000000E+00 -0.45593999997E+02  0.45594000000E+02  0.51100000000E-03 0. -1.
    9900012    2    1    2    0    0  0.18547883901E+02 -0.38916960041E+02  0.50069319293E+01  0.47787272548E+02  0.20000006856E+02 0.  0.
         12    1    1    2    0    0 -0.18547883901E+02  0.38916960041E+02 -0.50069319293E+01  0.43400727452E+02  0.00000000000E+00 0. -1.
         11    1    3    3    0    0  0.24035131254E+01 -0.67184248726E+01  0.41454955559E+01  0.82522264739E+01  0.51100000000E-03 0. -1.
        -11    1    3    3    0    0  0.18643134821E+02 -0.21919554404E+02  0.22622622798E+01  0.28864358162E+02  0.51100000000E-03 0.  1.
         12    1    3    3    0    0 -0.24987640451E+01 -0.10278980764E+02 -0.14008259064E+01  0.10670687912E+02  0.00000000000E+00 0. -1.
</event>
<event>
 7    1  0.8440037E-011  0.4778726E+02  0.7816164E-02  0.1312668E+00
        -11   -1    0    0    0    0  0.00000000000E+00  0.00000000000E+00  0.45593999997E+02  0.45594000000E+02  0.51100000000E-03 0. -1.
         11   -1    0    0    0    0 -0.00000000000E+00 -0.00000000000E+00 -0.45593999997E+02  0.45594000000E+02  0.51100000000E-03 0.  1.
    9900012    2    1    2    0    0 -0.16747669503E+02  0.24683065266E+02 -0.31525964889E+02  0.47787255687E+02  0.19999929980E+02 0.  0.
         12    1    1    2    0    0  0.16747669503E+02 -0.24683065266E+02  0.31525964889E+02  0.43400744313E+02  0.00000000000E+00 0. -1.
         11    1    3    3    0    0 -0.97096622885E+01  0.18956202295E+01 -0.48156661185E+01  0.11002797746E+02  0.51100000000E-03 0. -1.
        -11    1    3    3    0    0 -0.19461768852E+01  0.58138692042E+01 -0.21468366972E+01  0.64959670302E+01  0.51100000000E-03 0.  1.
        -12    1    3    3    0    0 -0.50918303292E+01  0.16973575833E+02 -0.24563462073E+02  0.30288490911E+02  0.00000000000E+00 0.  1.
</event>
<event>
 7    1  0.8440037E-011  0.4778727E+02  0.7816164E-02  0.1312668E+00
        -11   -1    0    0    0    0  0.00000000000E+00  0.00000000000E+00  0.45593999997E+02  0.45594000000E+02  0.51100000000E-03 0. -1.
         11   -1    0    0    0    0 -0.00000000000E+00 -0.00000000000E+00 -0.45593999997E+02  0.45594000000E+02  0.51100000000E-03 0.  1.
    9900012    2    1    2    0    0 -0.13750342001E+02 -0.29418261864E+02 -0.28794395548E+02  0.47787271306E+02  0.20000001192E+02 0.  0.
         12    1    1    2    0    0  0.13750342001E+02  0.29418261864E+02  0.28794395548E+02  0.43400728694E+02  0.00000000000E+00 0. -1.
         11    1    3    3    0    0  0.35044830530E+01 -0.11188557552E+01 -0.45436350019E+01  0.58461832815E+01  0.51100000000E-03 0. -1.
        -11    1    3    3    0    0 -0.55876447859E+01 -0.56506905904E+01 -0.99179561030E+01  0.12708970530E+02  0.51100000000E-03 0.  1.
        -12    1    3    3    0    0 -0.11667180268E+02 -0.22648715518E+02 -0.14332804443E+02  0.29232117495E+02  0.00000000000E+00 0.  1.
</event>
<event>
 7    1  0.8440037E-011  0.4778728E+02  0.7816164E-02  0.1312668E+00
        -11   -1    0    0    0    0  0.00000000000E+00  0.00000000000E+00  0.45593999997E+02  0.45594000000E+02  0.51100000000E-03 0.  1.
         11   -1    0    0    0    0 -0.00000000000E+00 -0.00000000000E+00 -0.45593999997E+02  0.45594000000E+02  0.51100000000E-03 0. -1.
    9900012    2    1    2    0    0 -0.35659187705E+02  0.24717694003E+02 -0.10395308015E+01  0.47787277784E+02  0.20000030729E+02 0.  0.
         12    1    1    2    0    0  0.35659187705E+02 -0.24717694003E+02  0.10395308015E+01  0.43400722216E+02  0.00000000000E+00 0. -1.
         11    1    3    3    0    0 -0.65000973853E+01  0.11567814208E+02  0.22086427400E+00  0.13270809051E+02  0.51100000000E-03 0. -1.
        -11    1    3    3    0    0 -0.29094861116E+02  0.92594356737E+01 -0.41926261222E+00  0.30535616479E+02  0.51100000000E-03 0.  1.
         12    1    3    3    0    0 -0.64229203347E-01  0.38904441211E+01 -0.84113246329E+00  0.39808522543E+01  0.00000000000E+00 0. -1.
</event>
<event>
 7    1  0.8440037E-011  0.4778728E+02  0.7816164E-02  0.1312668E+00
        -11   -1    0    0    0    0  0.00000000000E+00  0.00000000000E+00  0.45593999997E+02  0.45594000000E+02  0.51100000000E-03 0. -1.
         11   -1    0    0    0    0 -0.00000000000E+00 -0.00000000000E+00 -0.45593999997E+02  0.45594000000E+02  0.51100000000E-03 0.  1.
    9900012    2    1    2    0    0 -0.11513696833E+02  0.40712565138E+02 -0.96718281067E+01  0.47787280722E+02  0.20000044125E+02 0.  0.
         12    1    1    2    0    0  0.11513696833E+02 -0.40712565138E+02  0.96718281067E+01  0.43400719278E+02  0.00000000000E+00 0. -1.
         11    1    3    3    0    0  0.27291230854E+01  0.42770157252E+01  0.45253901407E+00  0.50936988671E+01  0.51100000000E-03 0. -1.
        -11    1    3    3    0    0  0.21429009918E+01  0.11085968636E+02 -0.28245344435E+01  0.11639103073E+02  0.51100000000E-03 0.  1.
        -12    1    3    3    0    0 -0.16385720910E+02  0.25349580777E+02 -0.72998326772E+01  0.31054478782E+02  0.00000000000E+00 0.  1.
</event>
<event>
 7    1  0.8440037E-011  0.4778727E+02  0.7816164E-02  0.1312668E+00
        -11   -1    0    0    0    0  0.00000000000E+00  0.00000000000E+00  0.45593999997E+02  0.45594000000E+02  0.51100000000E-03 0. -1.
         11   -1    0    0    0    0 -0.00000000000E+00 -0.00000000000E+00 -0.45593999997E+02  0.45594000000E+02  0.51100000000E-03 0.  1.
    9900012    2    1    2    0    0  0.35587739684E+01 -0.29618001626E+02  0.31523528027E+02  0.47787265999E+02  0.19999976998E+02 0.  0.
        -12    1    1    2    0    0 -0.35587739684E+01  0.29618001626E+02 -0.31523528027E+02  0.43400734001E+02  0.00000000000E+00 0.  1.
         11    1    3    3    0    0 -0.16900404048E+01 -0.50736853080E+01 -0.54252984644E+00  0.53752077234E+01  0.51100000000E-03 0. -1.
        -11    1    3    3    0    0 -0.24461518215E+01 -0.58318752789E+00  0.39027155640E+01  0.46427314656E+01  0.51100000000E-03 0.  1.
        -12    1    3    3    0    0  0.76949661947E+01 -0.23961128791E+02  0.28163342310E+02  0.37769326810E+02  0.00000000000E+00 0.  1.
</event>
<event>
 7    1  0.8440037E-011  0.4778727E+02  0.7816164E-02  0.1312668E+00
        -11   -1    0    0    0    0  0.00000000000E+00  0.00000000000E+00  0.45593999997E+02  0.45594000000E+02  0.51100000000E-03 0. -1.
         11   -1    0    0    0    0 -0.00000000000E+00 -0.00000000000E+00 -0.45593999997E+02  0.45594000000E+02  0.51100000000E-03 0.  1.
    9900012    2    1    2    0    0 -0.24308145189E+01 -0.31802905627E+02  0.29432793080E+02  0.47787274498E+02  0.20000015748E+02 0.  0.
        -12    1    1    2    0    0  0.24308145189E+01  0.31802905627E+02 -0.29432793080E+02  0.43400725502E+02  0.00000000000E+00 0.  1.
         11    1    3    3    0    0 -0.55408631956E+01 -0.77980469662E+01  0.68173329370E+01  0.11746775305E+02  0.51100000000E-03 0. -1.
        -11    1    3    3    0    0 -0.41350675353E+01 -0.44718233422E+01  0.99293600120E+01  0.11648526861E+02  0.51100000000E-03 0.  1.
        -12    1    3    3    0    0  0.72451162120E+01 -0.19533035319E+02  0.12686100131E+02  0.24391972332E+02  0.00000000000E+00 0.  1.
</event>
<event>
 7    1  0.8440037E-011  0.4778727E+02  0.7816164E-02  0.1312668E+00
        -11   -1    0    0    0    0  0.00000000000E+00  0.00000000000E+00  0.45593999997E+02  0.45594000000E+02  0.51100000000E-03 0. -1.
         11   -1    0    0    0    0 -0.00000000000E+00 -0.00000000000E+00 -0.45593999997E+02  0.45594000000E+02  0.51100000000E-03 0.  1.
    9900012    2    1    2    0    0  0.36833447187E+02 -0.97930469929E+00 -0.22933855310E+02  0.47787267417E+02  0.19999983461E+02 0.  0.
         12    1    1    2    0    0 -0.36833447187E+02  0.97930469929E+00  0.22933855310E+02  0.43400732583E+02  0.00000000000E+00 0. -1.
         11    1    3    3    0    0  0.15677212196E+02 -0.32130465802E+01 -0.90454464435E+01  0.18382566529E+02  0.51100000000E-03 0. -1.
        -11    1    3    3    0    0  0.20060749501E+02 -0.31560947489E+01 -0.97812021625E+01  0.22540330978E+02  0.51100000000E-03 0.  1.
         12    1    3    3    0    0  0.10954854901E+01  0.53898366298E+01 -0.41072067042E+01  0.68643699103E+01  0.00000000000E+00 0. -1.
</event>
<event>
 7    1  0.8440037E-011  0.4778727E+02  0.7816164E-02  0.1312668E+00
        -11   -1    0    0    0    0  0.00000000000E+00  0.00000000000E+00  0.45593999997E+02  0.45594000000E+02  0.51100000000E-03 0. -1.
         11   -1    0    0    0    0 -0.00000000000E+00 -0.00000000000E+00 -0.45593999997E+02  0.45594000000E+02  0.51100000000E-03 0.  1.
    9900012    2    1    2    0    0 -0.31832949169E+01 -0.32867366097E+02  0.28164274685E+02  0.47787268564E+02  0.19999988691E+02 0.  0.
        -12    1    1    2    0    0  0.31832949169E+01  0.32867366097E+02 -0.28164274685E+02  0.43400731436E+02  0.00000000000E+00 0.  1.
         11    1    3    3    0    0  0.74725483686E+00 -0.38033654617E+01  0.63640520610E+01  0.74515191419E+01  0.51100000000E-03 0. -1.
        -11    1    3    3    0    0  0.98212182874E+00 -0.86272690672E+00 -0.24773820803E+01  0.28011217815E+01  0.51100000000E-03 0.  1.
         12    1    3    3    0    0 -0.49126715825E+01 -0.28201273728E+02  0.24277604704E+02  0.37534627641E+02  0.00000000000E+00 0. -1.
</event>
<event>
 7    1  0.8440037E-011  0.4778727E+02  0.7816164E-02  0.1312668E+00
        -11   -1    0    0    0    0  0.00000000000E+00  0.00000000000E+00  0.45593999997E+02  0.45594000000E+02  0.51100000000E-03 0. -1.
         11   -1    0    0    0    0 -0.00000000000E+00 -0.00000000000E+00 -0.45593999997E+02  0.45594000000E+02  0.51100000000E-03 0.  1.
    9900012    2    1    2    0    0  0.35586100525E+02  0.23373843088E+02 -0.84211776376E+01  0.47787270466E+02  0.19999997362E+02 0.  0.
        -12    1    1    2    0    0 -0.35586100525E+02 -0.23373843088E+02  0.84211776376E+01  0.43400729534E+02  0.00000000000E+00 0.  1.
         11    1    3    3    0    0  0.10040908203E+02  0.13410209752E+02 -0.65875441484E+01  0.18001369428E+02  0.51100000000E-03 0. -1.
        -11    1    3    3    0    0  0.86480378027E+01  0.86239365588E+01  0.20819844446E+01  0.12389330050E+02  0.51100000000E-03 0.  1.
        -12    1    3    3    0    0  0.16897154520E+02  0.13396967773E+01 -0.39156179338E+01  0.17396570987E+02  0.00000000000E+00 0.  1.
</event>
<event>
 7    1  0.8440037E-011  0.4778727E+02  0.7816164E-02  0.1312668E+00
        -11   -1    0    0    0    0  0.00000000000E+00  0.00000000000E+00  0.45593999997E+02  0.45594000000E+02  0.51100000000E-03 0. -1.
         11   -1    0    0    0    0 -0.00000000000E+00 -0.00000000000E+00 -0.45593999997E+02  0.45594000000E+02  0.51100000000E-03 0.  1.
    9900012    2    1    2    0    0 -0.14208774816E+02 -0.30673474902E+02  0.27218966901E+02  0.47787268399E+02  0.19999987940E+02 0.  0.
        -12    1    1    2    0    0  0.14208774816E+02  0.30673474902E+02 -0.27218966901E+02  0.43400731601E+02  0.00000000000E+00 0.  1.
         11    1    3    3    0    0 -0.16793601673E+01 -0.58358035984E+01  0.11572244718E+02  0.13068806460E+02  0.51100000000E-03 0.  1.
        -11    1    3    3    0    0 -0.69562950321E+01 -0.19836843231E+02  0.17091357885E+02  0.27092524883E+02  0.51100000000E-03 0. -1.
        -12    1    3    3    0    0 -0.55731196161E+01 -0.50008280725E+01 -0.14446357023E+01  0.76259370557E+01  0.00000000000E+00 0.  1.
</event>
<event>
 7    1  0.8440037E-011  0.4778727E+02  0.7816164E-02  0.1312668E+00
        -11   -1    0    0    0    0  0.00000000000E+00  0.00000000000E+00  0.45593999997E+02  0.45594000000E+02  0.51100000000E-03 0.  1.
         11   -1    0    0    0    0 -0.00000000000E+00 -0.00000000000E+00 -0.45593999997E+02  0.45594000000E+02  0.51100000000E-03 0. -1.
    9900012    2    1    2    0    0  0.29223362262E+02 -0.31714204536E+02  0.48813192093E+01  0.47787274793E+02  0.20000017092E+02 0.  0.
         12    1    1    2    0    0 -0.29223362262E+02  0.31714204536E+02 -0.48813192093E+01  0.43400725207E+02  0.00000000000E+00 0. -1.
         11    1    3    3    0    0  0.13278666924E+01  0.67881326258E+00 -0.15381022430E+01  0.21423762903E+01  0.51100000000E-03 0. -1.
        -11    1    3    3    0    0  0.38467654865E+01 -0.21803148446E+01 -0.36552366085E+01  0.57369096607E+01  0.51100000000E-03 0.  1.
        -12    1    3    3    0    0  0.24048730083E+02 -0.30212702954E+02  0.10074658061E+02  0.39907988842E+02  0.00000000000E+00 0.  1.
</event>
<event>
 7    1  0.8440037E-011  0.4778727E+02  0.7816164E-02  0.1312668E+00
        -11   -1    0    0    0    0  0.00000000000E+00  0.00000000000E+00  0.45593999997E+02  0.45594000000E+02  0.51100000000E-03 0. -1.
         11   -1    0    0    0    0 -0.00000000000E+00 -0.00000000000E+00 -0.45593999997E+02  0.45594000000E+02  0.51100000000E-03 0.  1.
    9900012    2    1    2    0    0  0.52456413533E+01 -0.15442617461E+02  0.40219796721E+02  0.47787271486E+02  0.20000002012E+02 0.  0.
        -12    1    1    2    0    0 -0.52456413533E+01  0.15442617461E+02 -0.40219796721E+02  0.43400728514E+02  0.00000000000E+00 0.  1.
         11    1    3    3    0    0 -0.21187974294E+01 -0.77889411643E+01  0.20848927818E+02  0.22356983214E+02  0.51100000000E-03 0. -1.
        -11    1    3    3    0    0  0.21590284564E+00 -0.79119019343E+01  0.49568167561E+01  0.93388885244E+01  0.51100000000E-03 0.  1.
         12    1    3    3    0    0  0.71485359371E+01  0.25822563742E+00  0.14414052147E+02  0.16091399747E+02  0.00000000000E+00 0. -1.
</event>
<event>
 7    1  0.8440037E-011  0.4778727E+02  0.7816164E-02  0.1312668E+00
        -11   -1    0    0    0    0  0.00000000000E+00  0.00000000000E+00  0.45593999997E+02  0.45594000000E+02  0.51100000000E-03 0. -1.
         11   -1    0    0    0    0 -0.00000000000E+00 -0.00000000000E+00 -0.45593999997E+02  0.45594000000E+02  0.51100000000E-03 0.  1.
    9900012    2    1    2    0    0  0.13644794647E+01  0.52763353907E+01 -0.43057188717E+02  0.47787273974E+02  0.20000013357E+02 0.  0.
         12    1    1    2    0    0 -0.13644794647E+01 -0.52763353907E+01  0.43057188717E+02  0.43400726026E+02  0.00000000000E+00 0. -1.
         11    1    3    3    0    0 -0.22278579484E+00 -0.18449584809E+01  0.43757716471E+00  0.19091828992E+01  0.51100000000E-03 0. -1.
        -11    1    3    3    0    0 -0.21693663355E+01  0.76046517833E+01 -0.13504146337E+02  0.15649244314E+02  0.51100000000E-03 0.  1.
        -12    1    3    3    0    0  0.37566315950E+01 -0.48335791167E+00 -0.29990619544E+02  0.30228846760E+02  0.00000000000E+00 0.  1.
</event>
<event>
 7    1  0.8440037E-011  0.4778727E+02  0.7816164E-02  0.1312668E+00
        -11   -1    0    0    0    0  0.00000000000E+00  0.00000000000E+00  0.45593999997E+02  0.45594000000E+02  0.51100000000E-03 0. -1.
         11   -1    0    0    0    0 -0.00000000000E+00 -0.00000000000E+00 -0.45593999997E+02  0.45594000000E+02  0.51100000000E-03 0.  1.
    9900012    2    1    2    0    0 -0.18179934763E+02  0.36052638385E+02 -0.15916043051E+02  0.47787272023E+02  0.20000004462E+02 0.  0.
         12    1    1    2    0    0  0.18179934763E+02 -0.36052638385E+02  0.15916043051E+02  0.43400727977E+02  0.00000000000E+00 0. -1.
         11    1    3    3    0    0 -0.32760294254E+01  0.16097194002E+01  0.15927024661E+01  0.39824950408E+01  0.51100000000E-03 0. -1.
        -11    1    3    3    0    0 -0.59797213082E+01  0.15257151455E+02 -0.73607052901E-01  0.16387286405E+02  0.51100000000E-03 0.  1.
        -12    1    3    3    0    0 -0.89241840291E+01  0.19185767530E+02 -0.17435138465E+02  0.27417490578E+02  0.00000000000E+00 0.  1.
</event>
<event>
 7    1  0.8440037E-011  0.4778727E+02  0.7816164E-02  0.1312668E+00
        -11   -1    0    0    0    0  0.00000000000E+00  0.00000000000E+00  0.45593999997E+02  0.45594000000E+02  0.51100000000E-03 0. -1.
         11   -1    0    0    0    0 -0.00000000000E+00 -0.00000000000E+00 -0.45593999997E+02  0.45594000000E+02  0.51100000000E-03 0.  1.
    9900012    2    1    2    0    0  0.12770335594E+02 -0.13402309869E+02 -0.39254553901E+02  0.47787269788E+02  0.19999994270E+02 0.  0.
         12    1    1    2    0    0 -0.12770335594E+02  0.13402309869E+02  0.39254553901E+02  0.43400730212E+02  0.00000000000E+00 0. -1.
         11    1    3    3    0    0  0.55479500627E+01 -0.78204506861E+01 -0.57379165618E+01  0.11174206261E+02  0.51100000000E-03 0. -1.
        -11    1    3    3    0    0  0.84891404572E+01 -0.77603142112E+01 -0.22013257954E+02  0.24836898123E+02  0.51100000000E-03 0.  1.
         12    1    3    3    0    0 -0.12667549257E+01  0.21784550278E+01 -0.11503379384E+02  0.11776165404E+02  0.00000000000E+00 0. -1.
</event>
<event>
 7    1  0.8440037E-011  0.4778727E+02  0.7816164E-02  0.1312668E+00
        -11   -1    0    0    0    0  0.00000000000E+00  0.00000000000E+00  0.45593999997E+02  0.45594000000E+02  0.51100000000E-03 0. -1.
         11   -1    0    0    0    0 -0.00000000000E+00 -0.00000000000E+00 -0.45593999997E+02  0.45594000000E+02  0.51100000000E-03 0.  1.
    9900012    2    1    2    0    0 -0.27774674801E+02 -0.20920836995E+02  0.25971312838E+02  0.47787273376E+02  0.20000010633E+02 0.  0.
        -12    1    1    2    0    0  0.27774674801E+02  0.20920836995E+02 -0.25971312838E+02  0.43400726624E+02  0.00000000000E+00 0.  1.
         11    1    3    3    0    0 -0.26658087150E+01 -0.89337564311E+01  0.96126291760E+01  0.13391085841E+02  0.51100000000E-03 0. -1.
        -11    1    3    3    0    0 -0.27865868831E+01  0.63980308865E+00 -0.14180777333E+01  0.31914509503E+01  0.51100000000E-03 0.  1.
        -12    1    3    3    0    0 -0.22322279203E+02 -0.12626883653E+02  0.17776761396E+02  0.31204736585E+02  0.00000000000E+00 0.  1.
</event>
<event>
 7    1  0.8440037E-011  0.4778727E+02  0.7816164E-02  0.1312668E+00
        -11   -1    0    0    0    0  0.00000000000E+00  0.00000000000E+00  0.45593999997E+02  0.45594000000E+02  0.51100000000E-03 0. -1.
         11   -1    0    0    0    0 -0.00000000000E+00 -0.00000000000E+00 -0.45593999997E+02  0.45594000000E+02  0.51100000000E-03 0.  1.
    9900012    2    1    2    0    0  0.29979825433E+02 -0.13315826248E+02 -0.28416932706E+02  0.47787271595E+02  0.20000002509E+02 0.  0.
         12    1    1    2    0    0 -0.29979825433E+02  0.13315826248E+02  0.28416932706E+02  0.43400728405E+02  0.00000000000E+00 0. -1.
         11    1    3    3    0    0  0.93300601494E+01 -0.53814346971E+01 -0.16948241542E+02  0.20081154186E+02  0.51100000000E-03 0. -1.
        -11    1    3    3    0    0  0.16201257960E+02 -0.13314278563E+00 -0.81088765099E+01  0.18117736200E+02  0.51100000000E-03 0.  1.
        -12    1    3    3    0    0  0.44485073239E+01 -0.78012487648E+01 -0.33598146542E+01  0.95883812091E+01  0.00000000000E+00 0.  1.
</event>
<event>
 7    1  0.8440037E-011  0.4778727E+02  0.7816164E-02  0.1312668E+00
        -11   -1    0    0    0    0  0.00000000000E+00  0.00000000000E+00  0.45593999997E+02  0.45594000000E+02  0.51100000000E-03 0. -1.
         11   -1    0    0    0    0 -0.00000000000E+00 -0.00000000000E+00 -0.45593999997E+02  0.45594000000E+02  0.51100000000E-03 0.  1.
    9900012    2    1    2    0    0 -0.42557216000E+02  0.79831317144E+01  0.29624162712E+01  0.47787274939E+02  0.20000017759E+02 0.  0.
        -12    1    1    2    0    0  0.42557216000E+02 -0.79831317144E+01 -0.29624162712E+01  0.43400725061E+02  0.00000000000E+00 0.  1.
         11    1    3    3    0    0 -0.28142896245E+02  0.98955837685E+01  0.19204752257E+01  0.29893701887E+02  0.51100000000E-03 0. -1.
        -11    1    3    3    0    0 -0.29628398717E+01  0.39937376119E+01  0.49103997780E+00  0.49969471419E+01  0.51100000000E-03 0.  1.
        -12    1    3    3    0    0 -0.11451479883E+02 -0.59061896659E+01  0.55090106768E+00  0.12896625911E+02  0.00000000000E+00 0.  1.
</event>
<event>
 7    1  0.8440037E-011  0.4778727E+02  0.7816164E-02  0.1312668E+00
        -11   -1    0    0    0    0  0.00000000000E+00  0.00000000000E+00  0.45593999997E+02  0.45594000000E+02  0.51100000000E-03 0. -1.
         11   -1    0    0    0    0 -0.00000000000E+00 -0.00000000000E+00 -0.45593999997E+02  0.45594000000E+02  0.51100000000E-03 0.  1.
    9900012    2    1    2    0    0 -0.34251789670E+02  0.13902924330E+02 -0.22740863709E+02  0.47787270943E+02  0.19999999536E+02 0.  0.
         12    1    1    2    0    0  0.34251789670E+02 -0.13902924330E+02  0.22740863709E+02  0.43400729057E+02  0.00000000000E+00 0. -1.
         11    1    3    3    0    0 -0.39126380103E+01 -0.44196560406E+00 -0.65239440135E+01  0.76200994447E+01  0.51100000000E-03 0. -1.
        -11    1    3    3    0    0 -0.17410338384E+02  0.86305915416E+01 -0.17263726014E+02  0.25993138117E+02  0.51100000000E-03 0.  1.
        -12    1    3    3    0    0 -0.12928813275E+02  0.57142983925E+01  0.10468063187E+01  0.14174033381E+02  0.00000000000E+00 0.  1.
</event>
<event>
 7    1  0.8440037E-011  0.4778727E+02  0.7816164E-02  0.1312668E+00
        -11   -1    0    0    0    0  0.00000000000E+00  0.00000000000E+00  0.45593999997E+02  0.45594000000E+02  0.51100000000E-03 0. -1.
         11   -1    0    0    0    0 -0.00000000000E+00 -0.00000000000E+00 -0.45593999997E+02  0.45594000000E+02  0.51100000000E-03 0.  1.
    9900012    2    1    2    0    0  0.25434249893E+02  0.18027314296E+02  0.30194998474E+02  0.47787273495E+02  0.20000011171E+02 0.  0.
        -12    1    1    2    0    0 -0.25434249893E+02 -0.18027314296E+02 -0.30194998474E+02  0.43400726505E+02  0.00000000000E+00 0.  1.
         11    1    3    3    0    0  0.66338385793E+01  0.65691217246E+01  0.15479858526E+02  0.18077256285E+02  0.51100000000E-03 0. -1.
        -11    1    3    3    0    0 -0.16572590945E+01  0.19748723263E+01  0.39656260026E+01  0.47299913599E+01  0.51100000000E-03 0.  1.
        -12    1    3    3    0    0  0.20457670408E+02  0.94833202452E+01  0.10749513945E+02  0.24980025850E+02  0.00000000000E+00 0.  1.
</event>
<event>
 7    1  0.8440037E-011  0.4778727E+02  0.7816164E-02  0.1312668E+00
        -11   -1    0    0    0    0  0.00000000000E+00  0.00000000000E+00  0.45593999997E+02  0.45594000000E+02  0.51100000000E-03 0.  1.
         11   -1    0    0    0    0 -0.00000000000E+00 -0.00000000000E+00 -0.45593999997E+02  0.45594000000E+02  0.51100000000E-03 0. -1.
    9900012    2    1    2    0    0  0.33479018114E+02  0.27335926026E+02 -0.39402417060E+01  0.47787274081E+02  0.20000013846E+02 0.  0.
         12    1    1    2    0    0 -0.33479018114E+02 -0.27335926026E+02  0.39402417060E+01  0.43400725919E+02  0.00000000000E+00 0. -1.
         11    1    3    3    0    0  0.11908710218E+02  0.11751133102E+02  0.33193143745E+01  0.17056504812E+02  0.51100000000E-03 0. -1.
        -11    1    3    3    0    0  0.11462232410E+02  0.61857764665E+01  0.32005647349E+01  0.13412315878E+02  0.51100000000E-03 0.  1.
        -12    1    3    3    0    0  0.10108075486E+02  0.93990164579E+01 -0.10460120815E+02  0.17318453392E+02  0.00000000000E+00 0.  1.
</event>
<event>
 7    1  0.8440037E-011  0.4778728E+02  0.7816164E-02  0.1312668E+00
        -11   -1    0    0    0    0  0.00000000000E+00  0.00000000000E+00  0.45593999997E+02  0.45594000000E+02  0.51100000000E-03 0. -1.
         11   -1    0    0    0    0 -0.00000000000E+00 -0.00000000000E+00 -0.45593999997E+02  0.45594000000E+02  0.51100000000E-03 0.  1.
    9900012    2    1    2    0    0  0.32370561289E+01 -0.32238099190E+02  0.28876445701E+02  0.47787277793E+02  0.20000030770E+02 0.  0.
        -12    1    1    2    0    0 -0.32370561289E+01  0.32238099190E+02 -0.28876445701E+02  0.43400722207E+02  0.00000000000E+00 0.  1.
         11    1    3    3    0    0 -0.22267896741E+01 -0.18230237603E+02  0.98509960256E+01  0.20840879979E+02  0.51100000000E-03 0. -1.
        -11    1    3    3    0    0 -0.30887337825E+01 -0.22771654184E+01  0.13378558575E+01  0.40639411017E+01  0.51100000000E-03 0.  1.
        -12    1    3    3    0    0  0.85525795854E+01 -0.11730696168E+02  0.17687593818E+02  0.22882456713E+02  0.00000000000E+00 0.  1.
</event>
<event>
 7    1  0.8599638E-011  0.4778728E+02  0.7816164E-02  0.1312668E+00
        -11   -1    0    0    0    0  0.00000000000E+00  0.00000000000E+00  0.45593999997E+02  0.45594000000E+02  0.51100000000E-03 0. -1.
         11   -1    0    0    0    0 -0.00000000000E+00 -0.00000000000E+00 -0.45593999997E+02  0.45594000000E+02  0.51100000000E-03 0.  1.
    9900012    2    1    2    0    0  0.23027909401E+02 -0.23589767107E+02  0.28228715021E+02  0.47787284853E+02  0.20000062960E+02 0.  0.
        -12    1    1    2    0    0 -0.23027909401E+02  0.23589767107E+02 -0.28228715021E+02  0.43400715147E+02  0.00000000000E+00 0.  1.
         11    1    3    3    0    0  0.59807897333E+00 -0.33641622417E+01  0.46017176409E+01  0.57315871758E+01  0.51100000000E-03 0. -1.
        -11    1    3    3    0    0 -0.20746275825E+01  0.10222911541E+01  0.10640683589E+01  0.25458594901E+01  0.51100000000E-03 0.  1.
         12    1    3    3    0    0  0.24504458010E+02 -0.21247896019E+02  0.22562929021E+02  0.39509838187E+02  0.00000000000E+00 0. -1.
</event>
<event>
 7    1  0.8440037E-011  0.4778727E+02  0.7816164E-02  0.1312668E+00
        -11   -1    0    0    0    0  0.00000000000E+00  0.00000000000E+00  0.45593999997E+02  0.45594000000E+02  0.51100000000E-03 0. -1.
         11   -1    0    0    0    0 -0.00000000000E+00 -0.00000000000E+00 -0.45593999997E+02  0.45594000000E+02  0.51100000000E-03 0.  1.
    9900012    2    1    2    0    0  0.30701807009E+02  0.10394408524E+02  0.28861365478E+02  0.47787273054E+02  0.20000009163E+02 0.  0.
        -12    1    1    2    0    0 -0.30701807009E+02 -0.10394408524E+02 -0.28861365478E+02  0.43400726946E+02  0.00000000000E+00 0.  1.
         11    1    3    3    0    0  0.90701455520E+01 -0.15284268020E+01  0.39508888253E+01  0.10010651907E+02  0.51100000000E-03 0. -1.
        -11    1    3    3    0    0  0.13464786235E+02  0.48568930471E+01  0.50661088014E+01  0.15184048771E+02  0.51100000000E-03 0.  1.
         12    1    3    3    0    0  0.81668752221E+01  0.70659422791E+01  0.19844367851E+02  0.22592572376E+02  0.00000000000E+00 0. -1.
</event>
<event>
 7    1  0.8440037E-011  0.4778727E+02  0.7816164E-02  0.1312668E+00
        -11   -1    0    0    0    0  0.00000000000E+00  0.00000000000E+00  0.45593999997E+02  0.45594000000E+02  0.51100000000E-03 0. -1.
         11   -1    0    0    0    0 -0.00000000000E+00 -0.00000000000E+00 -0.45593999997E+02  0.45594000000E+02  0.51100000000E-03 0.  1.
    9900012    2    1    2    0    0 -0.13289463402E+02 -0.24042408178E+02  0.33600237561E+02  0.47787271980E+02  0.20000004268E+02 0.  0.
        -12    1    1    2    0    0  0.13289463402E+02  0.24042408178E+02 -0.33600237561E+02  0.43400728020E+02  0.00000000000E+00 0.  1.
         11    1    3    3    0    0 -0.12237844813E+02 -0.85882069891E+01  0.16886612751E+02  0.22553931707E+02  0.51100000000E-03 0. -1.
        -11    1    3    3    0    0 -0.58061149024E+01 -0.79924430557E+01  0.10532290635E+02  0.14440196070E+02  0.51100000000E-03 0.  1.
        -12    1    3    3    0    0  0.47544963136E+01 -0.74617581329E+01  0.61813341749E+01  0.10793144204E+02  0.00000000000E+00 0.  1.
</event>
<event>
 7    1  0.8440037E-011  0.4778727E+02  0.7816164E-02  0.1312668E+00
        -11   -1    0    0    0    0  0.00000000000E+00  0.00000000000E+00  0.45593999997E+02  0.45594000000E+02  0.51100000000E-03 0. -1.
         11   -1    0    0    0    0 -0.00000000000E+00 -0.00000000000E+00 -0.45593999997E+02  0.45594000000E+02  0.51100000000E-03 0.  1.
    9900012    2    1    2    0    0  0.10667800820E+02 -0.38166695118E+02  0.17695324641E+02  0.47787272993E+02  0.20000008885E+02 0.  0.
        -12    1    1    2    0    0 -0.10667800820E+02  0.38166695118E+02 -0.17695324641E+02  0.43400727007E+02  0.00000000000E+00 0.  1.
         11    1    3    3    0    0  0.65720630255E+01 -0.13352515461E+02  0.77744832477E+00  0.14902553731E+02  0.51100000000E-03 0. -1.
        -11    1    3    3    0    0  0.64115147046E+01 -0.58430095906E+01  0.79770430879E+01  0.11784799471E+02  0.51100000000E-03 0.  1.
        -12    1    3    3    0    0 -0.23157769095E+01 -0.18971170067E+02  0.89408332281E+01  0.21099919791E+02  0.00000000000E+00 0.  1.
</event>
<event>
 7    1  0.8440037E-011  0.4778727E+02  0.7816164E-02  0.1312668E+00
        -11   -1    0    0    0    0  0.00000000000E+00  0.00000000000E+00  0.45593999997E+02  0.45594000000E+02  0.51100000000E-03 0.  1.
         11   -1    0    0    0    0 -0.00000000000E+00 -0.00000000000E+00 -0.45593999997E+02  0.45594000000E+02  0.51100000000E-03 0. -1.
    9900012    2    1    2    0    0  0.18362803589E+02  0.39278914099E+02  0.18967114354E+01  0.47787272325E+02  0.20000005838E+02 0.  0.
        -12    1    1    2    0    0 -0.18362803589E+02 -0.39278914099E+02 -0.18967114354E+01  0.43400727675E+02  0.00000000000E+00 0.  1.
         11    1    3    3    0    0  0.18963205428E+02  0.27391275942E+02  0.69176581711E+01  0.34025566162E+02  0.51100000000E-03 0. -1.
        -11    1    3    3    0    0  0.12645856726E+01  0.24549337150E+01  0.29080914553E+00  0.27767691097E+01  0.51100000000E-03 0.  1.
        -12    1    3    3    0    0 -0.18649875116E+01  0.94327044427E+01 -0.53117558812E+01  0.10984937053E+02  0.00000000000E+00 0.  1.
</event>
<event>
 7    1  0.8440037E-011  0.4778727E+02  0.7816164E-02  0.1312668E+00
        -11   -1    0    0    0    0  0.00000000000E+00  0.00000000000E+00  0.45593999997E+02  0.45594000000E+02  0.51100000000E-03 0. -1.
         11   -1    0    0    0    0 -0.00000000000E+00 -0.00000000000E+00 -0.45593999997E+02  0.45594000000E+02  0.51100000000E-03 0.  1.
    9900012    2    1    2    0    0  0.92385392559E-01 -0.41383915714E+02 -0.13076161689E+02  0.47787273976E+02  0.20000013368E+02 0.  0.
         12    1    1    2    0    0 -0.92385392559E-01  0.41383915714E+02  0.13076161689E+02  0.43400726024E+02  0.00000000000E+00 0. -1.
         11    1    3    3    0    0 -0.24919472377E+01 -0.34282826233E+02 -0.94335507014E+01  0.35644268188E+02  0.51100000000E-03 0. -1.
        -11    1    3    3    0    0  0.43560993511E+01 -0.80259721066E+01 -0.15739460684E+01  0.92665601115E+01  0.51100000000E-03 0.  1.
        -12    1    3    3    0    0 -0.17717667208E+01  0.92488262567E+00 -0.20686649194E+01  0.28764456770E+01  0.00000000000E+00 0.  1.
</event>
<event>
 7    1  0.8440037E-011  0.4778727E+02  0.7816164E-02  0.1312668E+00
        -11   -1    0    0    0    0  0.00000000000E+00  0.00000000000E+00  0.45593999997E+02  0.45594000000E+02  0.51100000000E-03 0. -1.
         11   -1    0    0    0    0 -0.00000000000E+00 -0.00000000000E+00 -0.45593999997E+02  0.45594000000E+02  0.51100000000E-03 0.  1.
    9900012    2    1    2    0    0 -0.17109226612E+02  0.16460839807E+02 -0.36330959559E+02  0.47787268383E+02  0.19999987864E+02 0.  0.
         12    1    1    2    0    0  0.17109226612E+02 -0.16460839807E+02  0.36330959559E+02  0.43400731617E+02  0.00000000000E+00 0. -1.
         11    1    3    3    0    0 -0.95464452928E+00  0.18104166624E+01  0.18328391103E+01  0.27474086216E+01  0.51100000000E-03 0. -1.
        -11    1    3    3    0    0 -0.50251581864E+00  0.57372844265E+01 -0.72215141676E+01  0.92368404703E+01  0.51100000000E-03 0.  1.
         12    1    3    3    0    0 -0.15652066264E+02  0.89131387185E+01 -0.30942284502E+02  0.35803019291E+02  0.00000000000E+00 0. -1.
</event>
<event>
 7    1  0.8440037E-011  0.4778727E+02  0.7816164E-02  0.1312668E+00
        -11   -1    0    0    0    0  0.00000000000E+00  0.00000000000E+00  0.45593999997E+02  0.45594000000E+02  0.51100000000E-03 0. -1.
         11   -1    0    0    0    0 -0.00000000000E+00 -0.00000000000E+00 -0.45593999997E+02  0.45594000000E+02  0.51100000000E-03 0.  1.
    9900012    2    1    2    0    0 -0.11885028806E+02  0.40789028300E+01  0.41541928074E+02  0.47787272516E+02  0.20000006709E+02 0.  0.
        -12    1    1    2    0    0  0.11885028806E+02 -0.40789028300E+01 -0.41541928074E+02  0.43400727484E+02  0.00000000000E+00 0.  1.
         11    1    3    3    0    0  0.67585974567E+00 -0.14722831215E+01  0.20098614610E+01  0.25814622483E+01  0.51100000000E-03 0. -1.
        -11    1    3    3    0    0  0.36196394730E+01  0.42593999051E+01  0.12150477816E+02  0.13374542568E+02  0.51100000000E-03 0.  1.
         12    1    3    3    0    0 -0.16180528025E+02  0.12917860464E+01  0.27381588797E+02  0.31831267700E+02  0.00000000000E+00 0. -1.
</event>
<event>
 7    1  0.8440037E-011  0.4778727E+02  0.7816164E-02  0.1312668E+00
        -11   -1    0    0    0    0  0.00000000000E+00  0.00000000000E+00  0.45593999997E+02  0.45594000000E+02  0.51100000000E-03 0. -1.
         11   -1    0    0    0    0 -0.00000000000E+00 -0.00000000000E+00 -0.45593999997E+02  0.45594000000E+02  0.51100000000E-03 0.  1.
    9900012    2    1    2    0    0 -0.30379655359E+01 -0.30239327232E+02  0.30983495794E+02  0.47787272383E+02  0.20000006103E+02 0.  0.
        -12    1    1    2    0    0  0.30379655359E+01  0.30239327232E+02 -0.30983495794E+02  0.43400727617E+02  0.00000000000E+00 0.  1.
         11    1    3    3    0    0 -0.32741469953E+01 -0.92154817770E+01  0.22256020437E+02  0.24309989488E+02  0.51100000000E-03 0. -1.
        -11    1    3    3    0    0 -0.24591423597E+01 -0.78893124676E+01  0.21298884019E+01  0.85337598526E+01  0.51100000000E-03 0.  1.
        -12    1    3    3    0    0  0.26953238191E+01 -0.13134532988E+02  0.65975869551E+01  0.14943523043E+02  0.00000000000E+00 0.  1.
</event>
<event>
 7    1  0.8440037E-011  0.4778727E+02  0.7816164E-02  0.1312668E+00
        -11   -1    0    0    0    0  0.00000000000E+00  0.00000000000E+00  0.45593999997E+02  0.45594000000E+02  0.51100000000E-03 0.  1.
         11   -1    0    0    0    0 -0.00000000000E+00 -0.00000000000E+00 -0.45593999997E+02  0.45594000000E+02  0.51100000000E-03 0. -1.
    9900012    2    1    2    0    0 -0.24966367254E+02 -0.13078954617E+02 -0.33003706145E+02  0.47787272275E+02  0.20000005612E+02 0.  0.
         12    1    1    2    0    0  0.24966367254E+02  0.13078954617E+02  0.33003706145E+02  0.43400727725E+02  0.00000000000E+00 0. -1.
         11    1    3    3    0    0 -0.12509825371E+02 -0.40076776071E+01 -0.67852615905E+01  0.14785025726E+02  0.51100000000E-03 0. -1.
        -11    1    3    3    0    0 -0.13047521835E+02 -0.41449538722E+01 -0.12982929550E+02  0.18867297861E+02  0.51100000000E-03 0.  1.
         12    1    3    3    0    0  0.59097995181E+00 -0.49263231378E+01 -0.13235515005E+02  0.14134948688E+02  0.00000000000E+00 0. -1.
</event>
<event>
 7    1  0.8440037E-011  0.4778727E+02  0.7816164E-02  0.1312668E+00
        -11   -1    0    0    0    0  0.00000000000E+00  0.00000000000E+00  0.45593999997E+02  0.45594000000E+02  0.51100000000E-03 0. -1.
         11   -1    0    0    0    0 -0.00000000000E+00 -0.00000000000E+00 -0.45593999997E+02  0.45594000000E+02  0.51100000000E-03 0.  1.
    9900012    2    1    2    0    0  0.16737924510E+02 -0.38921426072E+02  0.94121096602E+01  0.47787270367E+02  0.19999996912E+02 0.  0.
        -12    1    1    2    0    0 -0.16737924510E+02  0.38921426072E+02 -0.94121096602E+01  0.43400729633E+02  0.00000000000E+00 0.  1.
         11    1    3    3    0    0  0.83743448403E+01 -0.13315835031E+02  0.56982031303E+01  0.16730529975E+02  0.51100000000E-03 0. -1.
        -11    1    3    3    0    0  0.59088662021E+01 -0.17789780114E+02  0.95116149715E+01  0.21020508936E+02  0.51100000000E-03 0.  1.
         12    1    3    3    0    0  0.24547134678E+01 -0.78158109269E+01 -0.57977084416E+01  0.10036231456E+02  0.00000000000E+00 0. -1.
</event>
<event>
 7    1  0.8440037E-011  0.4778727E+02  0.7816164E-02  0.1312668E+00
        -11   -1    0    0    0    0  0.00000000000E+00  0.00000000000E+00  0.45593999997E+02  0.45594000000E+02  0.51100000000E-03 0. -1.
         11   -1    0    0    0    0 -0.00000000000E+00 -0.00000000000E+00 -0.45593999997E+02  0.45594000000E+02  0.51100000000E-03 0.  1.
    9900012    2    1    2    0    0 -0.29869986487E+02 -0.18482223747E+01 -0.31432328508E+02  0.47787270812E+02  0.19999998939E+02 0.  0.
         12    1    1    2    0    0  0.29869986487E+02  0.18482223747E+01  0.31432328508E+02  0.43400729188E+02  0.00000000000E+00 0. -1.
         11    1    3    3    0    0 -0.41299710586E+01 -0.36777533713E+01 -0.12963269859E+02  0.14093576427E+02  0.51100000000E-03 0.  1.
        -11    1    3    3    0    0 -0.75091431257E+01  0.46347794470E+01 -0.10177514843E+02  0.13470345936E+02  0.51100000000E-03 0. -1.
         12    1    3    3    0    0 -0.18230872302E+02 -0.28052484504E+01 -0.82915438057E+01  0.20223348448E+02  0.00000000000E+00 0. -1.
</event>
<event>
 7    1  0.8440037E-011  0.4778727E+02  0.7816164E-02  0.1312668E+00
        -11   -1    0    0    0    0  0.00000000000E+00  0.00000000000E+00  0.45593999997E+02  0.45594000000E+02  0.51100000000E-03 0.  1.
         11   -1    0    0    0    0 -0.00000000000E+00 -0.00000000000E+00 -0.45593999997E+02  0.45594000000E+02  0.51100000000E-03 0. -1.
    9900012    2    1    2    0    0  0.31231840754E+02  0.30012838289E+02 -0.27248473585E+01  0.47787272676E+02  0.20000007440E+02 0.  0.
        -12    1    1    2    0    0 -0.31231840754E+02 -0.30012838289E+02  0.27248473585E+01  0.43400727324E+02  0.00000000000E+00 0.  1.
         11    1    3    3    0    0  0.36278432380E+01 -0.11263561682E+01  0.20429187888E+00  0.38041635362E+01  0.51100000000E-03 0.  1.
        -11    1    3    3    0    0  0.94208917112E+00 -0.11737274009E+01  0.11476676491E+01  0.18926989491E+01  0.51100000000E-03 0. -1.
         12    1    3    3    0    0  0.26661908345E+02  0.32312921859E+02 -0.40768068865E+01  0.42090410191E+02  0.00000000000E+00 0. -1.
</event>
<event>
 7    1  0.8440037E-011  0.4778727E+02  0.7816164E-02  0.1312668E+00
        -11   -1    0    0    0    0  0.00000000000E+00  0.00000000000E+00  0.45593999997E+02  0.45594000000E+02  0.51100000000E-03 0. -1.
         11   -1    0    0    0    0 -0.00000000000E+00 -0.00000000000E+00 -0.45593999997E+02  0.45594000000E+02  0.51100000000E-03 0.  1.
    9900012    2    1    2    0    0  0.27731298728E+02  0.18014258289E+01 -0.33336965132E+02  0.47787270648E+02  0.19999998191E+02 0.  0.
         12    1    1    2    0    0 -0.27731298728E+02 -0.18014258289E+01  0.33336965132E+02  0.43400729352E+02  0.00000000000E+00 0. -1.
         11    1    3    3    0    0  0.10198563958E+02  0.35028581366E-01 -0.10295521138E+02  0.14491711064E+02  0.51100000000E-03 0. -1.
        -11    1    3    3    0    0  0.18557644849E+02  0.46117535513E+01 -0.13826921320E+02  0.23597419491E+02  0.51100000000E-03 0.  1.
         12    1    3    3    0    0 -0.10249100790E+01 -0.28453563038E+01 -0.92145226732E+01  0.96981400929E+01  0.00000000000E+00 0. -1.
</event>
<event>
 7    1  0.8440037E-011  0.4778726E+02  0.7816164E-02  0.1312668E+00
        -11   -1    0    0    0    0  0.00000000000E+00  0.00000000000E+00  0.45593999997E+02  0.45594000000E+02  0.51100000000E-03 0. -1.
         11   -1    0    0    0    0 -0.00000000000E+00 -0.00000000000E+00 -0.45593999997E+02  0.45594000000E+02  0.51100000000E-03 0.  1.
    9900012    2    1    2    0    0 -0.19471335578E+02 -0.24199854762E+02  0.30312672690E+02  0.47787262618E+02  0.19999961581E+02 0.  0.
        -12    1    1    2    0    0  0.19471335578E+02  0.24199854762E+02 -0.30312672690E+02  0.43400737382E+02  0.00000000000E+00 0.  1.
         11    1    3    3    0    0 -0.41154847517E+01 -0.73027950206E+01  0.48052438530E+01  0.96622149946E+01  0.51100000000E-03 0. -1.
        -11    1    3    3    0    0 -0.16870317360E+02 -0.10934088610E+02  0.24810972079E+02  0.31933465789E+02  0.51100000000E-03 0.  1.
         12    1    3    3    0    0  0.15144665338E+01 -0.59629711315E+01  0.69645675833E+00  0.61915818345E+01  0.00000000000E+00 0. -1.
</event>
<event>
 7    1  0.8440037E-011  0.4778727E+02  0.7816164E-02  0.1312668E+00
        -11   -1    0    0    0    0  0.00000000000E+00  0.00000000000E+00  0.45593999997E+02  0.45594000000E+02  0.51100000000E-03 0. -1.
         11   -1    0    0    0    0 -0.00000000000E+00 -0.00000000000E+00 -0.45593999997E+02  0.45594000000E+02  0.51100000000E-03 0.  1.
    9900012    2    1    2    0    0  0.26882118837E+02 -0.51541334054E+01 -0.33681002100E+02  0.47787270665E+02  0.19999998271E+02 0.  0.
         12    1    1    2    0    0 -0.26882118837E+02  0.51541334054E+01  0.33681002100E+02  0.43400729335E+02  0.00000000000E+00 0. -1.
         11    1    3    3    0    0 -0.24900687519E+01 -0.22503058824E+00 -0.80669045363E+01  0.84454739485E+01  0.51100000000E-03 0.  1.
        -11    1    3    3    0    0  0.75093766410E+01 -0.14802237730E+01 -0.54003625759E+01  0.93672683407E+01  0.51100000000E-03 0. -1.
        -12    1    3    3    0    0  0.21862810948E+02 -0.34488790441E+01 -0.20213734988E+02  0.29974528376E+02  0.00000000000E+00 0.  1.
</event>
<event>
 7    1  0.8440037E-011  0.4778728E+02  0.7816164E-02  0.1312668E+00
        -11   -1    0    0    0    0  0.00000000000E+00  0.00000000000E+00  0.45593999997E+02  0.45594000000E+02  0.51100000000E-03 0. -1.
         11   -1    0    0    0    0 -0.00000000000E+00 -0.00000000000E+00 -0.45593999997E+02  0.45594000000E+02  0.51100000000E-03 0.  1.
    9900012    2    1    2    0    0  0.50832398185E+01 -0.21149299087E+02 -0.37556494935E+02  0.47787280067E+02  0.20000041137E+02 0.  0.
         12    1    1    2    0    0 -0.50832398185E+01  0.21149299087E+02  0.37556494935E+02  0.43400719933E+02  0.00000000000E+00 0. -1.
         11    1    3    3    0    0  0.64330994050E+01 -0.72083133737E+01 -0.11870274390E+02  0.15305161352E+02  0.51100000000E-03 0. -1.
        -11    1    3    3    0    0  0.45972874625E+01 -0.42032093591E+01 -0.26390489100E+01  0.67651016504E+01  0.51100000000E-03 0.  1.
        -12    1    3    3    0    0 -0.59471470491E+01 -0.97377763541E+01 -0.23047171635E+02  0.25717017065E+02  0.00000000000E+00 0.  1.
</event>
<event>
 7    1  0.8440037E-011  0.4778727E+02  0.7816164E-02  0.1312668E+00
        -11   -1    0    0    0    0  0.00000000000E+00  0.00000000000E+00  0.45593999997E+02  0.45594000000E+02  0.51100000000E-03 0. -1.
         11   -1    0    0    0    0 -0.00000000000E+00 -0.00000000000E+00 -0.45593999997E+02  0.45594000000E+02  0.51100000000E-03 0.  1.
    9900012    2    1    2    0    0  0.27555410256E+01 -0.27223000512E+01 -0.43227528506E+02  0.47787272534E+02  0.20000006790E+02 0.  0.
         12    1    1    2    0    0 -0.27555410256E+01  0.27223000512E+01  0.43227528506E+02  0.43400727466E+02  0.00000000000E+00 0. -1.
         11    1    3    3    0    0 -0.26417552956E+00  0.11597039618E+01 -0.16238565856E+01  0.20128617591E+01  0.51100000000E-03 0. -1.
        -11    1    3    3    0    0  0.46978186659E+01  0.65393154005E+01 -0.13072672159E+02  0.15353400398E+02  0.51100000000E-03 0.  1.
         12    1    3    3    0    0 -0.16781021108E+01 -0.10421319413E+02 -0.28530999761E+02  0.30421010377E+02  0.00000000000E+00 0. -1.
</event>
<event>
 7    1  0.8440037E-011  0.4778727E+02  0.7816164E-02  0.1312668E+00
        -11   -1    0    0    0    0  0.00000000000E+00  0.00000000000E+00  0.45593999997E+02  0.45594000000E+02  0.51100000000E-03 0. -1.
         11   -1    0    0    0    0 -0.00000000000E+00 -0.00000000000E+00 -0.45593999997E+02  0.45594000000E+02  0.51100000000E-03 0.  1.
    9900012    2    1    2    0    0  0.23664486935E+01 -0.23577938577E+02 -0.36360751855E+02  0.47787267950E+02  0.19999985893E+02 0.  0.
         12    1    1    2    0    0 -0.23664486935E+01  0.23577938577E+02  0.36360751855E+02  0.43400732050E+02  0.00000000000E+00 0. -1.
         11    1    3    3    0    0 -0.81042103196E+01 -0.56948427770E+01 -0.10738037377E+02  0.14608727053E+02  0.51100000000E-03 0. -1.
        -11    1    3    3    0    0  0.18199198322E+01 -0.10188755239E+01 -0.31826476183E+01  0.38051887801E+01  0.51100000000E-03 0.  1.
         12    1    3    3    0    0  0.86507391808E+01 -0.16864220276E+02 -0.22440066860E+02  0.29373352117E+02  0.00000000000E+00 0. -1.
</event>
<event>
 7    1  0.8440037E-011  0.4778727E+02  0.7816164E-02  0.1312668E+00
        -11   -1    0    0    0    0  0.00000000000E+00  0.00000000000E+00  0.45593999997E+02  0.45594000000E+02  0.51100000000E-03 0. -1.
         11   -1    0    0    0    0 -0.00000000000E+00 -0.00000000000E+00 -0.45593999997E+02  0.45594000000E+02  0.51100000000E-03 0.  1.
    9900012    2    1    2    0    0  0.47243517372E+01  0.97338199235E+01 -0.42030422023E+02  0.47787272759E+02  0.20000007818E+02 0.  0.
         12    1    1    2    0    0 -0.47243517372E+01 -0.97338199235E+01  0.42030422023E+02  0.43400727241E+02  0.00000000000E+00 0. -1.
         11    1    3    3    0    0  0.49163872825E+01  0.57236899075E+01 -0.66388018196E+01  0.10050133329E+02  0.51100000000E-03 0. -1.
        -11    1    3    3    0    0  0.28738493141E+01  0.61194225675E+01 -0.99790637313E+01  0.12053549504E+02  0.51100000000E-03 0.  1.
         12    1    3    3    0    0 -0.30658848594E+01 -0.21092925516E+01 -0.25412556472E+02  0.25683589926E+02  0.00000000000E+00 0. -1.
</event>
<event>
 7    1  0.8440037E-011  0.4778727E+02  0.7816164E-02  0.1312668E+00
        -11   -1    0    0    0    0  0.00000000000E+00  0.00000000000E+00  0.45593999997E+02  0.45594000000E+02  0.51100000000E-03 0. -1.
         11   -1    0    0    0    0 -0.00000000000E+00 -0.00000000000E+00 -0.45593999997E+02  0.45594000000E+02  0.51100000000E-03 0.  1.
    9900012    2    1    2    0    0 -0.25912088901E+02  0.51764954542E+01 -0.34429505823E+02  0.47787270425E+02  0.19999997177E+02 0.  0.
         12    1    1    2    0    0  0.25912088901E+02 -0.51764954542E+01  0.34429505823E+02  0.43400729575E+02  0.00000000000E+00 0. -1.
         11    1    3    3    0    0 -0.41793054366E+01 -0.20635682628E+01  0.28206297587E+00  0.46695254246E+01  0.51100000000E-03 0. -1.
        -11    1    3    3    0    0 -0.11546557296E+02 -0.18524652563E+01 -0.13161878572E+02  0.17606523243E+02  0.51100000000E-03 0.  1.
        -12    1    3    3    0    0 -0.10186226169E+02  0.90925289732E+01 -0.21549690227E+02  0.25511221758E+02  0.00000000000E+00 0.  1.
</event>
<event>
 7    1  0.8440037E-011  0.4778727E+02  0.7816164E-02  0.1312668E+00
        -11   -1    0    0    0    0  0.00000000000E+00  0.00000000000E+00  0.45593999997E+02  0.45594000000E+02  0.51100000000E-03 0. -1.
         11   -1    0    0    0    0 -0.00000000000E+00 -0.00000000000E+00 -0.45593999997E+02  0.45594000000E+02  0.51100000000E-03 0.  1.
    9900012    2    1    2    0    0 -0.19457462584E+02 -0.21011115894E+02 -0.32612319633E+02  0.47787271514E+02  0.20000002140E+02 0.  0.
         12    1    1    2    0    0  0.19457462584E+02  0.21011115894E+02  0.32612319633E+02  0.43400728486E+02  0.00000000000E+00 0. -1.
         11    1    3    3    0    0 -0.52020532379E+01  0.20181488745E-01 -0.74969911792E+01  0.91250557359E+01  0.51100000000E-03 0. -1.
        -11    1    3    3    0    0 -0.64198548588E+00 -0.13998966558E+01  0.19999468052E+01  0.25242114602E+01  0.51100000000E-03 0.  1.
        -12    1    3    3    0    0 -0.13613423860E+02 -0.19631400727E+02 -0.27115275259E+02  0.36138004318E+02  0.00000000000E+00 0.  1.
</event>
<event>
 7    1  0.8440037E-011  0.4778727E+02  0.7816164E-02  0.1312668E+00
        -11   -1    0    0    0    0  0.00000000000E+00  0.00000000000E+00  0.45593999997E+02  0.45594000000E+02  0.51100000000E-03 0. -1.
         11   -1    0    0    0    0 -0.00000000000E+00 -0.00000000000E+00 -0.45593999997E+02  0.45594000000E+02  0.51100000000E-03 0.  1.
    9900012    2    1    2    0    0  0.60606162359E+01  0.20355242530E+02 -0.37849124321E+02  0.47787272132E+02  0.20000004959E+02 0.  0.
         12    1    1    2    0    0 -0.60606162359E+01 -0.20355242530E+02  0.37849124321E+02  0.43400727868E+02  0.00000000000E+00 0. -1.
         11    1    3    3    0    0  0.77734460657E+00 -0.11794127947E+01 -0.73121372185E+00  0.15905825806E+01  0.51100000000E-03 0. -1.
        -11    1    3    3    0    0  0.93129505589E+01  0.20053507224E+02 -0.25177634235E+02  0.33508020921E+02  0.51100000000E-03 0.  1.
        -12    1    3    3    0    0 -0.40296789295E+01  0.14811481005E+01 -0.11940276364E+02  0.12688668631E+02  0.00000000000E+00 0.  1.
</event>
<event>
 7    1  0.8440037E-011  0.4778728E+02  0.7816164E-02  0.1312668E+00
        -11   -1    0    0    0    0  0.00000000000E+00  0.00000000000E+00  0.45593999997E+02  0.45594000000E+02  0.51100000000E-03 0. -1.
         11   -1    0    0    0    0 -0.00000000000E+00 -0.00000000000E+00 -0.45593999997E+02  0.45594000000E+02  0.51100000000E-03 0.  1.
    9900012    2    1    2    0    0  0.17482669406E+02  0.29573287089E+02 -0.26521681196E+02  0.47787278666E+02  0.20000034752E+02 0.  0.
         12    1    1    2    0    0 -0.17482669406E+02 -0.29573287089E+02  0.26521681196E+02  0.43400721334E+02  0.00000000000E+00 0. -1.
         11    1    3    3    0    0 -0.96565585799E+00  0.45405857263E+01 -0.66992272295E+00  0.46902245884E+01  0.51100000000E-03 0. -1.
        -11    1    3    3    0    0  0.58627473932E+01  0.49501352466E+01 -0.15377094259E+02  0.17185187635E+02  0.51100000000E-03 0.  1.
         12    1    3    3    0    0  0.12585577870E+02  0.20082566116E+02 -0.10474664214E+02  0.25911866443E+02  0.00000000000E+00 0. -1.
</event>
<event>
 7    1  0.8440037E-011  0.4778727E+02  0.7816164E-02  0.1312668E+00
        -11   -1    0    0    0    0  0.00000000000E+00  0.00000000000E+00  0.45593999997E+02  0.45594000000E+02  0.51100000000E-03 0. -1.
         11   -1    0    0    0    0 -0.00000000000E+00 -0.00000000000E+00 -0.45593999997E+02  0.45594000000E+02  0.51100000000E-03 0.  1.
    9900012    2    1    2    0    0  0.16448889556E+02  0.19639245463E+02  0.35033662970E+02  0.47787268772E+02  0.19999989641E+02 0.  0.
        -12    1    1    2    0    0 -0.16448889556E+02 -0.19639245463E+02 -0.35033662970E+02  0.43400731228E+02  0.00000000000E+00 0.  1.
         11    1    3    3    0    0  0.20784887500E+01 -0.15913803954E+01  0.50522792000E+01  0.56901785932E+01  0.51100000000E-03 0. -1.
        -11    1    3    3    0    0  0.12718406037E+02  0.79180422727E+01  0.99359319428E+01  0.17977096244E+02  0.51100000000E-03 0.  1.
         12    1    3    3    0    0  0.16519947690E+01  0.13312583586E+02  0.20045451827E+02  0.24119993935E+02  0.00000000000E+00 0. -1.
</event>
<event>
 7    1  0.8440037E-011  0.4778729E+02  0.7816164E-02  0.1312668E+00
        -11   -1    0    0    0    0  0.00000000000E+00  0.00000000000E+00  0.45593999997E+02  0.45594000000E+02  0.51100000000E-03 0. -1.
         11   -1    0    0    0    0 -0.00000000000E+00 -0.00000000000E+00 -0.45593999997E+02  0.45594000000E+02  0.51100000000E-03 0.  1.
    9900012    2    1    2    0    0  0.26789822540E+02 -0.26811433246E+02 -0.21144135880E+02  0.47787285414E+02  0.20000065518E+02 0.  0.
         12    1    1    2    0    0 -0.26789822540E+02  0.26811433246E+02  0.21144135880E+02  0.43400714586E+02  0.00000000000E+00 0. -1.
         11    1    3    3    0    0  0.12092537451E+02 -0.18293595534E+02 -0.48355867334E+01  0.22455912337E+02  0.51100000000E-03 0. -1.
        -11    1    3    3    0    0 -0.13541114231E+01 -0.72744173790E+00 -0.14369406799E+01  0.21041834537E+01  0.51100000000E-03 0.  1.
        -12    1    3    3    0    0  0.16051396512E+02 -0.77903959741E+01 -0.14871608466E+02  0.23227189623E+02  0.00000000000E+00 0.  1.
</event>
<event>
 7    1  0.8440037E-011  0.4778728E+02  0.7816164E-02  0.1312668E+00
        -11   -1    0    0    0    0  0.00000000000E+00  0.00000000000E+00  0.45593999997E+02  0.45594000000E+02  0.51100000000E-03 0. -1.
         11   -1    0    0    0    0 -0.00000000000E+00 -0.00000000000E+00 -0.45593999997E+02  0.45594000000E+02  0.51100000000E-03 0.  1.
    9900012    2    1    2    0    0 -0.19208945737E+02  0.28600924551E+02 -0.26393667548E+02  0.47787283784E+02  0.20000058083E+02 0.  0.
         12    1    1    2    0    0  0.19208945737E+02 -0.28600924551E+02  0.26393667548E+02  0.43400716216E+02  0.00000000000E+00 0. -1.
         11    1    3    3    0    0 -0.98477982678E+00 -0.13729666769E+01 -0.15276194038E+00  0.16965156276E+01  0.51100000000E-03 0. -1.
        -11    1    3    3    0    0 -0.10365075241E+02  0.12294049717E+02 -0.39194623950E+01  0.16551151891E+02  0.51100000000E-03 0.  1.
        -12    1    3    3    0    0 -0.78590906688E+01  0.17679841510E+02 -0.22321443213E+02  0.29539616265E+02  0.00000000000E+00 0.  1.
</event>
<event>
 7    1  0.8440037E-011  0.4778727E+02  0.7816164E-02  0.1312668E+00
        -11   -1    0    0    0    0  0.00000000000E+00  0.00000000000E+00  0.45593999997E+02  0.45594000000E+02  0.51100000000E-03 0. -1.
         11   -1    0    0    0    0 -0.00000000000E+00 -0.00000000000E+00 -0.45593999997E+02  0.45594000000E+02  0.51100000000E-03 0.  1.
    9900012    2    1    2    0    0 -0.14887608263E+02  0.38392546764E+02  0.13711126288E+02  0.47787268314E+02  0.19999987550E+02 0.  0.
        -12    1    1    2    0    0  0.14887608263E+02 -0.38392546764E+02 -0.13711126288E+02  0.43400731686E+02  0.00000000000E+00 0.  1.
         11    1    3    3    0    0 -0.53586444774E+01  0.20847105260E+01  0.14504713039E+01  0.59300047114E+01  0.51100000000E-03 0. -1.
        -11    1    3    3    0    0 -0.11009573648E+02  0.14714842656E+02  0.56386238858E+01  0.19223199158E+02  0.51100000000E-03 0.  1.
        -12    1    3    3    0    0  0.14806098620E+01  0.21592993582E+02  0.66220310982E+01  0.22634064444E+02  0.00000000000E+00 0.  1.
</event>
<event>
 7    1  0.8440037E-011  0.4778728E+02  0.7816164E-02  0.1312668E+00
        -11   -1    0    0    0    0  0.00000000000E+00  0.00000000000E+00  0.45593999997E+02  0.45594000000E+02  0.51100000000E-03 0.  1.
         11   -1    0    0    0    0 -0.00000000000E+00 -0.00000000000E+00 -0.45593999997E+02  0.45594000000E+02  0.51100000000E-03 0. -1.
    9900012    2    1    2    0    0  0.99633527697E+01 -0.38814059769E+02  0.16668030513E+02  0.47787275636E+02  0.20000020935E+02 0.  0.
        -12    1    1    2    0    0 -0.99633527697E+01  0.38814059769E+02 -0.16668030513E+02  0.43400724364E+02  0.00000000000E+00 0.  1.
         11    1    3    3    0    0  0.12090124258E+02 -0.33491177333E+02  0.14582678829E+02  0.38477065712E+02  0.51100000000E-03 0. -1.
        -11    1    3    3    0    0  0.25716557153E+01 -0.21501795608E+01  0.29577186918E+00  0.33651398963E+01  0.51100000000E-03 0.  1.
        -12    1    3    3    0    0 -0.46984272035E+01 -0.31727028747E+01  0.17895798146E+01  0.59450700275E+01  0.00000000000E+00 0.  1.
</event>
<event>
 7    1  0.8440037E-011  0.4778727E+02  0.7816164E-02  0.1312668E+00
        -11   -1    0    0    0    0  0.00000000000E+00  0.00000000000E+00  0.45593999997E+02  0.45594000000E+02  0.51100000000E-03 0.  1.
         11   -1    0    0    0    0 -0.00000000000E+00 -0.00000000000E+00 -0.45593999997E+02  0.45594000000E+02  0.51100000000E-03 0. -1.
    9900012    2    1    2    0    0 -0.27901363102E+02 -0.32889925180E+02  0.48363455039E+01  0.47787268680E+02  0.19999989218E+02 0.  0.
         12    1    1    2    0    0  0.27901363102E+02  0.32889925180E+02 -0.48363455039E+01  0.43400731320E+02  0.00000000000E+00 0. -1.
         11    1    3    3    0    0  0.50866070498E-01 -0.43394844722E+00 -0.17131410867E+01  0.17679794275E+01  0.51100000000E-03 0. -1.
        -11    1    3    3    0    0 -0.10047358923E+02 -0.63102707360E+01  0.79793419950E+01  0.14298210973E+02  0.51100000000E-03 0.  1.
         12    1    3    3    0    0 -0.17904870250E+02 -0.26145705997E+02 -0.14298554045E+01  0.31721078279E+02  0.00000000000E+00 0. -1.
</event>
<event>
 7    1  0.8440037E-011  0.4778727E+02  0.7816164E-02  0.1312668E+00
        -11   -1    0    0    0    0  0.00000000000E+00  0.00000000000E+00  0.45593999997E+02  0.45594000000E+02  0.51100000000E-03 0. -1.
         11   -1    0    0    0    0 -0.00000000000E+00 -0.00000000000E+00 -0.45593999997E+02  0.45594000000E+02  0.51100000000E-03 0.  1.
    9900012    2    1    2    0    0 -0.23503415004E+02 -0.59382443874E+01  0.35999301809E+02  0.47787274269E+02  0.20000014703E+02 0.  0.
        -12    1    1    2    0    0  0.23503415004E+02  0.59382443874E+01 -0.35999301809E+02  0.43400725731E+02  0.00000000000E+00 0.  1.
         11    1    3    3    0    0 -0.19231762795E+02 -0.75564092360E+01  0.25038086722E+02  0.32463299396E+02  0.51100000000E-03 0. -1.
        -11    1    3    3    0    0 -0.20645173551E+01 -0.96180802488E+00  0.11640688459E+02  0.11861405256E+02  0.51100000000E-03 0.  1.
         12    1    3    3    0    0 -0.22071348534E+01  0.25799728735E+01 -0.67947337178E+00  0.34625696170E+01  0.00000000000E+00 0. -1.
</event>
<event>
 7    1  0.8440037E-011  0.4778727E+02  0.7816164E-02  0.1312668E+00
        -11   -1    0    0    0    0  0.00000000000E+00  0.00000000000E+00  0.45593999997E+02  0.45594000000E+02  0.51100000000E-03 0. -1.
         11   -1    0    0    0    0 -0.00000000000E+00 -0.00000000000E+00 -0.45593999997E+02  0.45594000000E+02  0.51100000000E-03 0.  1.
    9900012    2    1    2    0    0  0.11262680774E+02 -0.24449874932E+02  0.34043779009E+02  0.47787271301E+02  0.20000001168E+02 0.  0.
        -12    1    1    2    0    0 -0.11262680774E+02  0.24449874932E+02 -0.34043779009E+02  0.43400728699E+02  0.00000000000E+00 0.  1.
         11    1    3    3    0    0  0.12212832002E+02 -0.12131259728E+02  0.17527902886E+02  0.24567216121E+02  0.51100000000E-03 0. -1.
        -11    1    3    3    0    0  0.18375674536E+01 -0.48829947631E+01  0.13919824785E+02  0.14865457084E+02  0.51100000000E-03 0.  1.
        -12    1    3    3    0    0 -0.27877186814E+01 -0.74356204413E+01  0.25960513377E+01  0.83545980958E+01  0.00000000000E+00 0.  1.
</event>
<event>
 7    1  0.1359374E-010  0.4778727E+02  0.7816164E-02  0.1312668E+00
        -11   -1    0    0    0    0  0.00000000000E+00  0.00000000000E+00  0.45593999997E+02  0.45594000000E+02  0.51100000000E-03 0. -1.
         11   -1    0    0    0    0 -0.00000000000E+00 -0.00000000000E+00 -0.45593999997E+02  0.45594000000E+02  0.51100000000E-03 0.  1.
    9900012    2    1    2    0    0  0.29573025728E+02 -0.70432627950E+01  0.30975024603E+02  0.47787267856E+02  0.19999985463E+02 0.  0.
        -12    1    1    2    0    0 -0.29573025728E+02  0.70432627950E+01 -0.30975024603E+02  0.43400732144E+02  0.00000000000E+00 0.  1.
         11    1    3    3    0    0  0.66935327192E+00  0.31259925698E+00 -0.10255857843E+01  0.12639535435E+01  0.51100000000E-03 0. -1.
        -11    1    3    3    0    0 -0.31036162012E+00 -0.37933414283E+01  0.67321693474E+01  0.77335546749E+01  0.51100000000E-03 0.  1.
         12    1    3    3    0    0  0.29214034076E+02 -0.35625206237E+01  0.25268441040E+02  0.38789759638E+02  0.00000000000E+00 0. -1.
</event>
<event>
 7    1  0.8440037E-011  0.4778727E+02  0.7816164E-02  0.1312668E+00
        -11   -1    0    0    0    0  0.00000000000E+00  0.00000000000E+00  0.45593999997E+02  0.45594000000E+02  0.51100000000E-03 0. -1.
         11   -1    0    0    0    0 -0.00000000000E+00 -0.00000000000E+00 -0.45593999997E+02  0.45594000000E+02  0.51100000000E-03 0.  1.
    9900012    2    1    2    0    0  0.71232090703E+01  0.19730866150E+01  0.42766693722E+02  0.47787271087E+02  0.20000000195E+02 0.  0.
        -12    1    1    2    0    0 -0.71232090703E+01 -0.19730866150E+01 -0.42766693722E+02  0.43400728913E+02  0.00000000000E+00 0.  1.
         11    1    3    3    0    0  0.10131654334E+02 -0.53131582692E+00  0.30358592309E+02  0.32009011907E+02  0.51100000000E-03 0. -1.
        -11    1    3    3    0    0 -0.61827520120E+00 -0.16056273061E+01  0.10524543218E+02  0.10664254004E+02  0.51100000000E-03 0.  1.
        -12    1    3    3    0    0 -0.23901700624E+01  0.41100297481E+01  0.18835581957E+01  0.51140051754E+01  0.00000000000E+00 0.  1.
</event>
<event>
 7    1  0.8690939E-011  0.4778727E+02  0.7816164E-02  0.1312668E+00
        -11   -1    0    0    0    0  0.00000000000E+00  0.00000000000E+00  0.45593999997E+02  0.45594000000E+02  0.51100000000E-03 0.  1.
         11   -1    0    0    0    0 -0.00000000000E+00 -0.00000000000E+00 -0.45593999997E+02  0.45594000000E+02  0.51100000000E-03 0. -1.
    9900012    2    1    2    0    0 -0.20953643473E+02 -0.29003522775E+02  0.24563463740E+02  0.47787271215E+02  0.20000000778E+02 0.  0.
        -12    1    1    2    0    0  0.20953643473E+02  0.29003522775E+02 -0.24563463740E+02  0.43400728785E+02  0.00000000000E+00 0.  1.
         11    1    3    3    0    0 -0.15565923269E+02 -0.19294995827E+02  0.15332499136E+02  0.29149277198E+02  0.51100000000E-03 0. -1.
        -11    1    3    3    0    0 -0.41829675621E+01 -0.39164155054E+01  0.11050987762E+02  0.12448287385E+02  0.51100000000E-03 0.  1.
         12    1    3    3    0    0 -0.12047526424E+01 -0.57921114430E+01 -0.18200231581E+01  0.61897066323E+01  0.00000000000E+00 0. -1.
</event>
<event>
 7    1  0.8440037E-011  0.4778727E+02  0.7816164E-02  0.1312668E+00
        -11   -1    0    0    0    0  0.00000000000E+00  0.00000000000E+00  0.45593999997E+02  0.45594000000E+02  0.51100000000E-03 0. -1.
         11   -1    0    0    0    0 -0.00000000000E+00 -0.00000000000E+00 -0.45593999997E+02  0.45594000000E+02  0.51100000000E-03 0.  1.
    9900012    2    1    2    0    0 -0.13995452204E+01 -0.32010791486E+02  0.29274110989E+02  0.47787273364E+02  0.20000010574E+02 0.  0.
        -12    1    1    2    0    0  0.13995452204E+01  0.32010791486E+02 -0.29274110989E+02  0.43400726636E+02  0.00000000000E+00 0.  1.
         11    1    3    3    0    0 -0.53290661797E+01 -0.14623964432E+02  0.93141501481E+01  0.18138706550E+02  0.51100000000E-03 0. -1.
        -11    1    3    3    0    0 -0.14340374887E+00 -0.12847878438E+02  0.19731158867E+02  0.23545852617E+02  0.51100000000E-03 0.  1.
         12    1    3    3    0    0  0.40729247082E+01 -0.45389486165E+01  0.22880197392E+00  0.61027141966E+01  0.00000000000E+00 0. -1.
</event>
<event>
 7    1  0.8440037E-011  0.4778727E+02  0.7816164E-02  0.1312668E+00
        -11   -1    0    0    0    0  0.00000000000E+00  0.00000000000E+00  0.45593999997E+02  0.45594000000E+02  0.51100000000E-03 0. -1.
         11   -1    0    0    0    0 -0.00000000000E+00 -0.00000000000E+00 -0.45593999997E+02  0.45594000000E+02  0.51100000000E-03 0.  1.
    9900012    2    1    2    0    0 -0.68953035167E+01 -0.22217923480E+02  0.36639347718E+02  0.47787272638E+02  0.20000007266E+02 0.  0.
        -12    1    1    2    0    0  0.68953035167E+01  0.22217923480E+02 -0.36639347718E+02  0.43400727362E+02  0.00000000000E+00 0.  1.
         11    1    3    3    0    0 -0.90146335950E+01 -0.11868255290E+02  0.29616662565E+02  0.33155177638E+02  0.51100000000E-03 0. -1.
        -11    1    3    3    0    0  0.19209624748E+01 -0.19418662614E+01  0.54217413486E+01  0.60709324587E+01  0.51100000000E-03 0.  1.
        -12    1    3    3    0    0  0.19836760361E+00 -0.84078019294E+01  0.16009438038E+01  0.85611625410E+01  0.00000000000E+00 0.  1.
</event>
<event>
 7    1  0.8440037E-011  0.4778727E+02  0.7816164E-02  0.1312668E+00
        -11   -1    0    0    0    0  0.00000000000E+00  0.00000000000E+00  0.45593999997E+02  0.45594000000E+02  0.51100000000E-03 0.  1.
         11   -1    0    0    0    0 -0.00000000000E+00 -0.00000000000E+00 -0.45593999997E+02  0.45594000000E+02  0.51100000000E-03 0. -1.
    9900012    2    1    2    0    0  0.29245357704E+02 -0.16096328291E+02 -0.27735185360E+02  0.47787271450E+02  0.20000001851E+02 0.  0.
         12    1    1    2    0    0 -0.29245357704E+02  0.16096328291E+02  0.27735185360E+02  0.43400728550E+02  0.00000000000E+00 0. -1.
         11    1    3    3    0    0 -0.91592875591E-01 -0.15834373392E+01  0.99708739633E+00  0.18734584594E+01  0.51100000000E-03 0. -1.
        -11    1    3    3    0    0  0.16851278935E+02 -0.12853723027E+02 -0.10236332417E+02  0.23536488673E+02  0.51100000000E-03 0.  1.
         12    1    3    3    0    0  0.12485671644E+02 -0.16591679239E+01 -0.18495940340E+02  0.22377324318E+02  0.00000000000E+00 0. -1.
</event>
<event>
 7    1  0.8440037E-011  0.4778727E+02  0.7816164E-02  0.1312668E+00
        -11   -1    0    0    0    0  0.00000000000E+00  0.00000000000E+00  0.45593999997E+02  0.45594000000E+02  0.51100000000E-03 0.  1.
         11   -1    0    0    0    0 -0.00000000000E+00 -0.00000000000E+00 -0.45593999997E+02  0.45594000000E+02  0.51100000000E-03 0. -1.
    9900012    2    1    2    0    0  0.31774128924E+02  0.24440134567E+02 -0.16634548181E+02  0.47787266830E+02  0.19999980786E+02 0.  0.
         12    1    1    2    0    0 -0.31774128924E+02 -0.24440134567E+02  0.16634548181E+02  0.43400733170E+02  0.00000000000E+00 0. -1.
         11    1    3    3    0    0  0.96130199017E+01  0.44631666086E+01 -0.17036585151E+01  0.10734638345E+02  0.51100000000E-03 0. -1.
        -11    1    3    3    0    0  0.19345860466E+02  0.10810892422E+02 -0.40132771967E+01  0.22522080416E+02  0.51100000000E-03 0.  1.
         12    1    3    3    0    0  0.28152485554E+01  0.91660755356E+01 -0.10917612469E+02  0.14530548069E+02  0.00000000000E+00 0. -1.
</event>
<event>
 7    1  0.8440037E-011  0.4778726E+02  0.7816164E-02  0.1312668E+00
        -11   -1    0    0    0    0  0.00000000000E+00  0.00000000000E+00  0.45593999997E+02  0.45594000000E+02  0.51100000000E-03 0. -1.
         11   -1    0    0    0    0 -0.00000000000E+00 -0.00000000000E+00 -0.45593999997E+02  0.45594000000E+02  0.51100000000E-03 0.  1.
    9900012    2    1    2    0    0 -0.78516257919E+01 -0.20309777206E+02 -0.37543160283E+02  0.47787263120E+02  0.19999963868E+02 0.  0.
         12    1    1    2    0    0  0.78516257919E+01  0.20309777206E+02  0.37543160283E+02  0.43400736880E+02  0.00000000000E+00 0. -1.
         11    1    3    3    0    0 -0.55186296994E+01 -0.33071466503E+01 -0.27421940882E+01  0.69937201405E+01  0.51100000000E-03 0. -1.
        -11    1    3    3    0    0 -0.19769857502E+01  0.82369296921E+00 -0.60030046299E+00  0.22242535087E+01  0.51100000000E-03 0.  1.
        -12    1    3    3    0    0 -0.35601034229E+00 -0.17826323525E+02 -0.34200665731E+02  0.38569289471E+02  0.00000000000E+00 0.  1.
</event>
<event>
 7    1  0.8440037E-011  0.4778727E+02  0.7816164E-02  0.1312668E+00
        -11   -1    0    0    0    0  0.00000000000E+00  0.00000000000E+00  0.45593999997E+02  0.45594000000E+02  0.51100000000E-03 0. -1.
         11   -1    0    0    0    0 -0.00000000000E+00 -0.00000000000E+00 -0.45593999997E+02  0.45594000000E+02  0.51100000000E-03 0.  1.
    9900012    2    1    2    0    0  0.23293355106E+01  0.37321401848E+02 -0.22029762072E+02  0.47787271242E+02  0.20000000900E+02 0.  0.
         12    1    1    2    0    0 -0.23293355106E+01 -0.37321401848E+02  0.22029762072E+02  0.43400728758E+02  0.00000000000E+00 0. -1.
         11    1    3    3    0    0  0.35269933808E+01  0.16789172186E+02 -0.25073221512E+01  0.17337896344E+02  0.51100000000E-03 0.  1.
        -11    1    3    3    0    0  0.53457714555E-01  0.14578230574E+02 -0.62746325776E+01  0.15871316223E+02  0.51100000000E-03 0. -1.
         12    1    3    3    0    0 -0.12511155848E+01  0.59539990880E+01 -0.13247807343E+02  0.14578058675E+02  0.00000000000E+00 0. -1.
</event>
<event>
 7    1  0.8440037E-011  0.4778727E+02  0.7816164E-02  0.1312668E+00
        -11   -1    0    0    0    0  0.00000000000E+00  0.00000000000E+00  0.45593999997E+02  0.45594000000E+02  0.51100000000E-03 0.  1.
         11   -1    0    0    0    0 -0.00000000000E+00 -0.00000000000E+00 -0.45593999997E+02  0.45594000000E+02  0.51100000000E-03 0. -1.
    9900012    2    1    2    0    0 -0.37874117153E+02  0.19612363332E+02 -0.80330504506E+01  0.47787269071E+02  0.19999991002E+02 0.  0.
        -12    1    1    2    0    0  0.37874117153E+02 -0.19612363332E+02  0.80330504506E+01  0.43400730929E+02  0.00000000000E+00 0.  1.
         11    1    3    3    0    0 -0.26660990977E+01  0.22733978833E+01 -0.31773489945E+01  0.47299016088E+01  0.51100000000E-03 0. -1.
        -11    1    3    3    0    0 -0.32451741512E+02  0.88132086782E+01 -0.54999993468E+01  0.34074010146E+02  0.51100000000E-03 0.  1.
        -12    1    3    3    0    0 -0.27562765441E+01  0.85257567708E+01  0.64429789071E+00  0.89833573164E+01  0.00000000000E+00 0.  1.
</event>
<event>
 7    1  0.8440037E-011  0.4778724E+02  0.7816164E-02  0.1312668E+00
        -11   -1    0    0    0    0  0.00000000000E+00  0.00000000000E+00  0.45593999997E+02  0.45594000000E+02  0.51100000000E-03 0.  1.
         11   -1    0    0    0    0 -0.00000000000E+00 -0.00000000000E+00 -0.45593999997E+02  0.45594000000E+02  0.51100000000E-03 0. -1.
    9900012    2    1    2    0    0 -0.32142774652E+02 -0.28639416131E+02  0.55001701759E+01  0.47787239746E+02  0.19999857295E+02 0.  0.
        -12    1    1    2    0    0  0.32142774652E+02  0.28639416131E+02 -0.55001701759E+01  0.43400760254E+02  0.00000000000E+00 0.  1.
         11    1    3    3    0    0  0.18103791337E+00 -0.77571816881E+00 -0.38887807808E+00  0.88641966598E+00  0.51100000000E-03 0. -1.
        -11    1    3    3    0    0 -0.90830618692E+01  0.93411491191E+00 -0.12386764702E+01  0.92146027178E+01  0.51100000000E-03 0.  1.
         12    1    3    3    0    0 -0.23240750697E+02 -0.28797812874E+02  0.71277247242E+01  0.37686217362E+02  0.00000000000E+00 0. -1.
</event>
<event>
 7    1  0.8440037E-011  0.4778727E+02  0.7816164E-02  0.1312668E+00
        -11   -1    0    0    0    0  0.00000000000E+00  0.00000000000E+00  0.45593999997E+02  0.45594000000E+02  0.51100000000E-03 0. -1.
         11   -1    0    0    0    0 -0.00000000000E+00 -0.00000000000E+00 -0.45593999997E+02  0.45594000000E+02  0.51100000000E-03 0.  1.
    9900012    2    1    2    0    0 -0.10413545951E+02  0.20595629192E+01 -0.42082532877E+02  0.47787270605E+02  0.19999997997E+02 0.  0.
         12    1    1    2    0    0  0.10413545951E+02 -0.20595629192E+01  0.42082532877E+02  0.43400729395E+02  0.00000000000E+00 0. -1.
         11    1    3    3    0    0 -0.21801472456E+01 -0.39295023646E+01 -0.15024201833E+02  0.15681858048E+02  0.51100000000E-03 0. -1.
        -11    1    3    3    0    0 -0.11237495016E+02  0.91433393039E+00 -0.19418163564E+02  0.22454005817E+02  0.51100000000E-03 0.  1.
        -12    1    3    3    0    0  0.30040963104E+01  0.50747313534E+01 -0.76401674801E+01  0.96514067408E+01  0.00000000000E+00 0.  1.
</event>
<event>
 7    1  0.8440037E-011  0.4778727E+02  0.7816164E-02  0.1312668E+00
        -11   -1    0    0    0    0  0.00000000000E+00  0.00000000000E+00  0.45593999997E+02  0.45594000000E+02  0.51100000000E-03 0. -1.
         11   -1    0    0    0    0 -0.00000000000E+00 -0.00000000000E+00 -0.45593999997E+02  0.45594000000E+02  0.51100000000E-03 0.  1.
    9900012    2    1    2    0    0  0.31970059581E+02 -0.16972068176E+01  0.29302875874E+02  0.47787265500E+02  0.19999974722E+02 0.  0.
        -12    1    1    2    0    0 -0.31970059581E+02  0.16972068176E+01 -0.29302875874E+02  0.43400734500E+02  0.00000000000E+00 0.  1.
         11    1    3    3    0    0  0.16438711208E+02  0.57319267882E+01  0.14379032718E+02  0.22579698692E+02  0.51100000000E-03 0. -1.
        -11    1    3    3    0    0  0.51871843190E+01  0.24089652540E+01  0.63904707772E+01  0.85760195761E+01  0.51100000000E-03 0.  1.
        -12    1    3    3    0    0  0.10344164055E+02 -0.98380988598E+01  0.85333723792E+01  0.16631547232E+02  0.00000000000E+00 0.  1.
</event>
<event>
 7    1  0.8440037E-011  0.4778726E+02  0.7816164E-02  0.1312668E+00
        -11   -1    0    0    0    0  0.00000000000E+00  0.00000000000E+00  0.45593999997E+02  0.45594000000E+02  0.51100000000E-03 0. -1.
         11   -1    0    0    0    0 -0.00000000000E+00 -0.00000000000E+00 -0.45593999997E+02  0.45594000000E+02  0.51100000000E-03 0.  1.
    9900012    2    1    2    0    0  0.11396826658E+02  0.66987487010E+01  0.41338396028E+02  0.47787264082E+02  0.19999968256E+02 0.  0.
        -12    1    1    2    0    0 -0.11396826658E+02 -0.66987487010E+01 -0.41338396028E+02  0.43400735918E+02  0.00000000000E+00 0.  1.
         11    1    3    3    0    0  0.68215058325E+01  0.29783906711E+01  0.22189601460E+02  0.23404746656E+02  0.51100000000E-03 0. -1.
        -11    1    3    3    0    0  0.68023017144E+01  0.73100168831E+01  0.92142206525E+01  0.13587108520E+02  0.51100000000E-03 0.  1.
        -12    1    3    3    0    0 -0.22269808892E+01 -0.35896588533E+01  0.99345739159E+01  0.10795408906E+02  0.00000000000E+00 0.  1.
</event>
<event>
 7    1  0.8440037E-011  0.4778727E+02  0.7816164E-02  0.1312668E+00
        -11   -1    0    0    0    0  0.00000000000E+00  0.00000000000E+00  0.45593999997E+02  0.45594000000E+02  0.51100000000E-03 0. -1.
         11   -1    0    0    0    0 -0.00000000000E+00 -0.00000000000E+00 -0.45593999997E+02  0.45594000000E+02  0.51100000000E-03 0.  1.
    9900012    2    1    2    0    0 -0.22345170086E+02 -0.44599834492E+01 -0.36938126171E+02  0.47787271393E+02  0.20000001591E+02 0.  0.
         12    1    1    2    0    0  0.22345170086E+02  0.44599834492E+01  0.36938126171E+02  0.43400728607E+02  0.00000000000E+00 0. -1.
         11    1    3    3    0    0 -0.11751083314E+02  0.22162364046E+01 -0.82746337874E+01  0.14541981551E+02  0.51100000000E-03 0. -1.
        -11    1    3    3    0    0 -0.82093797148E+01 -0.58917758958E+01 -0.93424615700E+01  0.13761850419E+02  0.51100000000E-03 0.  1.
        -12    1    3    3    0    0 -0.23847070581E+01 -0.78444395798E+00 -0.19321030814E+02  0.19483439424E+02  0.00000000000E+00 0.  1.
</event>
<event>
 7    1  0.8440037E-011  0.4778728E+02  0.7816164E-02  0.1312668E+00
        -11   -1    0    0    0    0  0.00000000000E+00  0.00000000000E+00  0.45593999997E+02  0.45594000000E+02  0.51100000000E-03 0. -1.
         11   -1    0    0    0    0 -0.00000000000E+00 -0.00000000000E+00 -0.45593999997E+02  0.45594000000E+02  0.51100000000E-03 0.  1.
    9900012    2    1    2    0    0 -0.41314681875E+02  0.38167346572E+01 -0.12733911545E+02  0.47787275293E+02  0.20000019369E+02 0.  0.
         12    1    1    2    0    0  0.41314681875E+02 -0.38167346572E+01  0.12733911545E+02  0.43400724707E+02  0.00000000000E+00 0. -1.
         11    1    3    3    0    0 -0.14207103266E+02 -0.13857477593E+01  0.41733918947E+01  0.14872097371E+02  0.51100000000E-03 0. -1.
        -11    1    3    3    0    0 -0.11195145169E+02 -0.60231493753E+00 -0.54489264877E+01  0.12465346316E+02  0.51100000000E-03 0.  1.
         12    1    3    3    0    0 -0.15912433440E+02  0.58047973540E+01 -0.11458376952E+02  0.20449831605E+02  0.00000000000E+00 0. -1.
</event>
<event>
 7    1  0.8440037E-011  0.4778727E+02  0.7816164E-02  0.1312668E+00
        -11   -1    0    0    0    0  0.00000000000E+00  0.00000000000E+00  0.45593999997E+02  0.45594000000E+02  0.51100000000E-03 0. -1.
         11   -1    0    0    0    0 -0.00000000000E+00 -0.00000000000E+00 -0.45593999997E+02  0.45594000000E+02  0.51100000000E-03 0.  1.
    9900012    2    1    2    0    0 -0.11398563141E+02 -0.28737735981E+02 -0.30460443653E+02  0.47787270300E+02  0.19999996604E+02 0.  0.
         12    1    1    2    0    0  0.11398563141E+02  0.28737735981E+02  0.30460443653E+02  0.43400729700E+02  0.00000000000E+00 0. -1.
         11    1    3    3    0    0  0.13042892004E+01  0.13403310823E+01  0.34979495220E+00  0.19026335691E+01  0.51100000000E-03 0. -1.
        -11    1    3    3    0    0 -0.20486752606E+01 -0.49414032094E+01 -0.10744759280E+02  0.12002682544E+02  0.51100000000E-03 0.  1.
        -12    1    3    3    0    0 -0.10654177081E+02 -0.25136663853E+02 -0.20065479326E+02  0.33881954187E+02  0.00000000000E+00 0.  1.
</event>
<event>
 7    1  0.8440037E-011  0.4778725E+02  0.7816164E-02  0.1312668E+00
        -11   -1    0    0    0    0  0.00000000000E+00  0.00000000000E+00  0.45593999997E+02  0.45594000000E+02  0.51100000000E-03 0. -1.
         11   -1    0    0    0    0 -0.00000000000E+00 -0.00000000000E+00 -0.45593999997E+02  0.45594000000E+02  0.51100000000E-03 0.  1.
    9900012    2    1    2    0    0  0.16672181958E+01 -0.33580465572E+02  0.27444441799E+02  0.47787254958E+02  0.19999926654E+02 0.  0.
        -12    1    1    2    0    0 -0.16672181958E+01  0.33580465572E+02 -0.27444441799E+02  0.43400745042E+02  0.00000000000E+00 0.  1.
         11    1    3    3    0    0  0.23937704101E+01 -0.31919957411E+01  0.45560854099E+01  0.60561446574E+01  0.51100000000E-03 0.  1.
        -11    1    3    3    0    0 -0.11696381506E+01 -0.32608869922E+02  0.21440589820E+02  0.39043633836E+02  0.51100000000E-03 0. -1.
         12    1    3    3    0    0  0.44308593631E+00  0.22204000908E+01  0.14477665691E+01  0.26874764648E+01  0.00000000000E+00 0. -1.
</event>
<event>
 7    1  0.8440037E-011  0.4778728E+02  0.7816164E-02  0.1312668E+00
        -11   -1    0    0    0    0  0.00000000000E+00  0.00000000000E+00  0.45593999997E+02  0.45594000000E+02  0.51100000000E-03 0. -1.
         11   -1    0    0    0    0 -0.00000000000E+00 -0.00000000000E+00 -0.45593999997E+02  0.45594000000E+02  0.51100000000E-03 0.  1.
    9900012    2    1    2    0    0 -0.24703936357E+02 -0.18707021315E+02 -0.30387253939E+02  0.47787282034E+02  0.20000050104E+02 0.  0.
         12    1    1    2    0    0  0.24703936357E+02  0.18707021315E+02  0.30387253939E+02  0.43400717966E+02  0.00000000000E+00 0. -1.
         11    1    3    3    0    0 -0.12471300399E+02 -0.11913399132E+02 -0.15626026872E+02  0.23273055850E+02  0.51100000000E-03 0. -1.
        -11    1    3    3    0    0 -0.12614359013E+02 -0.85595503468E+01 -0.74204454100E+01  0.16954378957E+02  0.51100000000E-03 0.  1.
         12    1    3    3    0    0  0.38172305477E+00  0.17659281635E+01 -0.73407816568E+01  0.75598472275E+01  0.00000000000E+00 0. -1.
</event>
<event>
 7    1  0.8440037E-011  0.4778727E+02  0.7816164E-02  0.1312668E+00
        -11   -1    0    0    0    0  0.00000000000E+00  0.00000000000E+00  0.45593999997E+02  0.45594000000E+02  0.51100000000E-03 0. -1.
         11   -1    0    0    0    0 -0.00000000000E+00 -0.00000000000E+00 -0.45593999997E+02  0.45594000000E+02  0.51100000000E-03 0.  1.
    9900012    2    1    2    0    0 -0.98747064937E+01  0.30304567307E+02 -0.29457543600E+02  0.47787268405E+02  0.19999987966E+02 0.  0.
         12    1    1    2    0    0  0.98747064937E+01 -0.30304567307E+02  0.29457543600E+02  0.43400731595E+02  0.00000000000E+00 0. -1.
         11    1    3    3    0    0  0.29893387885E+01  0.32924432607E+01 -0.18428677824E+01  0.48137813559E+01  0.51100000000E-03 0. -1.
        -11    1    3    3    0    0 -0.47893851226E+01  0.22831458868E+02 -0.16304011740E+02  0.28461105442E+02  0.51100000000E-03 0.  1.
         12    1    3    3    0    0 -0.80746601596E+01  0.41806651783E+01 -0.11310664078E+02  0.14512381607E+02  0.00000000000E+00 0. -1.
</event>
<event>
 7    1  0.8440037E-011  0.4778727E+02  0.7816164E-02  0.1312668E+00
        -11   -1    0    0    0    0  0.00000000000E+00  0.00000000000E+00  0.45593999997E+02  0.45594000000E+02  0.51100000000E-03 0. -1.
         11   -1    0    0    0    0 -0.00000000000E+00 -0.00000000000E+00 -0.45593999997E+02  0.45594000000E+02  0.51100000000E-03 0.  1.
    9900012    2    1    2    0    0 -0.26397402719E+02  0.30266489973E+02 -0.16454180281E+02  0.47787270348E+02  0.19999996823E+02 0.  0.
         12    1    1    2    0    0  0.26397402719E+02 -0.30266489973E+02  0.16454180281E+02  0.43400729652E+02  0.00000000000E+00 0. -1.
         11    1    3    3    0    0 -0.82180093774E+01  0.10876425009E+02 -0.14837568332E+01  0.13712542934E+02  0.51100000000E-03 0. -1.
        -11    1    3    3    0    0 -0.38442036710E+01 -0.77504709999E+00  0.16655068991E+01  0.42605766468E+01  0.51100000000E-03 0.  1.
         12    1    3    3    0    0 -0.14335189671E+02  0.20165112064E+02 -0.16635930347E+02  0.29814150767E+02  0.00000000000E+00 0. -1.
</event>
<event>
 7    1  0.8440037E-011  0.4778727E+02  0.7816164E-02  0.1312668E+00
        -11   -1    0    0    0    0  0.00000000000E+00  0.00000000000E+00  0.45593999997E+02  0.45594000000E+02  0.51100000000E-03 0. -1.
         11   -1    0    0    0    0 -0.00000000000E+00 -0.00000000000E+00 -0.45593999997E+02  0.45594000000E+02  0.51100000000E-03 0.  1.
    9900012    2    1    2    0    0  0.16688836310E+02 -0.22015388533E+02 -0.33472805429E+02  0.47787270826E+02  0.19999999002E+02 0.  0.
         12    1    1    2    0    0 -0.16688836310E+02  0.22015388533E+02  0.33472805429E+02  0.43400729174E+02  0.00000000000E+00 0. -1.
         11    1    3    3    0    0  0.23979457073E+01  0.21633959743E+01 -0.27894415540E+01  0.42674828882E+01  0.51100000000E-03 0. -1.
        -11    1    3    3    0    0  0.37601978824E+01 -0.12958090432E+01 -0.10543126095E+02  0.11268350247E+02  0.51100000000E-03 0.  1.
        -12    1    3    3    0    0  0.10530692720E+02 -0.22882975464E+02 -0.20140237780E+02  0.32251437690E+02  0.00000000000E+00 0.  1.
</event>
<event>
 7    1  0.8440037E-011  0.4778727E+02  0.7816164E-02  0.1312668E+00
        -11   -1    0    0    0    0  0.00000000000E+00  0.00000000000E+00  0.45593999997E+02  0.45594000000E+02  0.51100000000E-03 0. -1.
         11   -1    0    0    0    0 -0.00000000000E+00 -0.00000000000E+00 -0.45593999997E+02  0.45594000000E+02  0.51100000000E-03 0.  1.
    9900012    2    1    2    0    0 -0.25257171659E+02 -0.33905744116E+02 -0.98030296529E+01  0.47787267349E+02  0.19999983150E+02 0.  0.
         12    1    1    2    0    0  0.25257171659E+02  0.33905744116E+02  0.98030296529E+01  0.43400732651E+02  0.00000000000E+00 0. -1.
         11    1    3    3    0    0 -0.12629957712E+01 -0.48106756406E+01 -0.67956883712E+01  0.84213501968E+01  0.51100000000E-03 0. -1.
        -11    1    3    3    0    0 -0.93404133795E+01 -0.57459807255E+01 -0.42754224371E+01  0.11770252923E+02  0.51100000000E-03 0.  1.
        -12    1    3    3    0    0 -0.14653762508E+02 -0.23349087750E+02  0.12680811555E+01  0.27595664229E+02  0.00000000000E+00 0.  1.
</event>
<event>
 7    1  0.8440037E-011  0.4778727E+02  0.7816164E-02  0.1312668E+00
        -11   -1    0    0    0    0  0.00000000000E+00  0.00000000000E+00  0.45593999997E+02  0.45594000000E+02  0.51100000000E-03 0. -1.
         11   -1    0    0    0    0 -0.00000000000E+00 -0.00000000000E+00 -0.45593999997E+02  0.45594000000E+02  0.51100000000E-03 0.  1.
    9900012    2    1    2    0    0 -0.13369146413E+02  0.17826857471E+02 -0.37243688164E+02  0.47787271536E+02  0.20000002243E+02 0.  0.
         12    1    1    2    0    0  0.13369146413E+02 -0.17826857471E+02  0.37243688164E+02  0.43400728464E+02  0.00000000000E+00 0. -1.
         11    1    3    3    0    0 -0.62987075094E+01 -0.12574191710E+01 -0.50456985346E+01  0.81678573215E+01  0.51100000000E-03 0. -1.
        -11    1    3    3    0    0 -0.80205101609E+01  0.95972894450E+01 -0.12235953893E+02  0.17497288814E+02  0.51100000000E-03 0.  1.
         12    1    3    3    0    0  0.95007125739E+00  0.94869871966E+01 -0.19962035737E+02  0.22122125400E+02  0.00000000000E+00 0. -1.
</event>
<event>
 7    1  0.8440037E-011  0.4778727E+02  0.7816164E-02  0.1312668E+00
        -11   -1    0    0    0    0  0.00000000000E+00  0.00000000000E+00  0.45593999997E+02  0.45594000000E+02  0.51100000000E-03 0.  1.
         11   -1    0    0    0    0 -0.00000000000E+00 -0.00000000000E+00 -0.45593999997E+02  0.45594000000E+02  0.51100000000E-03 0. -1.
    9900012    2    1    2    0    0 -0.24896782423E+01 -0.39161366161E+02 -0.18542167661E+02  0.47787273291E+02  0.20000010241E+02 0.  0.
         12    1    1    2    0    0  0.24896782423E+01  0.39161366161E+02  0.18542167661E+02  0.43400726709E+02  0.00000000000E+00 0. -1.
         11    1    3    3    0    0  0.57716310931E+01 -0.20284802116E+02 -0.16264983591E+02  0.26633336514E+02  0.51100000000E-03 0. -1.
        -11    1    3    3    0    0 -0.31173773540E+01 -0.91076715997E+01 -0.30187088540E+01  0.10088623640E+02  0.51100000000E-03 0.  1.
         12    1    3    3    0    0 -0.51439319815E+01 -0.97688924446E+01  0.74152478348E+00  0.11065313137E+02  0.00000000000E+00 0. -1.
</event>
<event>
 7    1  0.8440037E-011  0.4778727E+02  0.7816164E-02  0.1312668E+00
        -11   -1    0    0    0    0  0.00000000000E+00  0.00000000000E+00  0.45593999997E+02  0.45594000000E+02  0.51100000000E-03 0. -1.
         11   -1    0    0    0    0 -0.00000000000E+00 -0.00000000000E+00 -0.45593999997E+02  0.45594000000E+02  0.51100000000E-03 0.  1.
    9900012    2    1    2    0    0 -0.24160237182E+02 -0.27462500107E+02  0.23360591959E+02  0.47787271555E+02  0.20000002330E+02 0.  0.
        -12    1    1    2    0    0  0.24160237182E+02  0.27462500107E+02 -0.23360591959E+02  0.43400728445E+02  0.00000000000E+00 0.  1.
         11    1    3    3    0    0 -0.21473408725E+02 -0.13075339784E+02  0.82898085346E+01  0.26472489844E+02  0.51100000000E-03 0.  1.
        -11    1    3    3    0    0 -0.45568455388E+00 -0.36841727794E+01  0.18155534264E+01  0.41324341479E+01  0.51100000000E-03 0. -1.
        -12    1    3    3    0    0 -0.22311439027E+01 -0.10702987544E+02  0.13255229998E+02  0.17182347563E+02  0.00000000000E+00 0.  1.
</event>
<event>
 7    1  0.8440037E-011  0.4778727E+02  0.7816164E-02  0.1312668E+00
        -11   -1    0    0    0    0  0.00000000000E+00  0.00000000000E+00  0.45593999997E+02  0.45594000000E+02  0.51100000000E-03 0. -1.
         11   -1    0    0    0    0 -0.00000000000E+00 -0.00000000000E+00 -0.45593999997E+02  0.45594000000E+02  0.51100000000E-03 0.  1.
    9900012    2    1    2    0    0 -0.87892533917E+01 -0.39497888990E+02 -0.15693591149E+02  0.47787274050E+02  0.20000013704E+02 0.  0.
         12    1    1    2    0    0  0.87892533917E+01  0.39497888990E+02  0.15693591149E+02  0.43400725950E+02  0.00000000000E+00 0. -1.
         11    1    3    3    0    0 -0.44565294478E+00 -0.12248133578E+02  0.15875179200E+01  0.12358624361E+02  0.51100000000E-03 0. -1.
        -11    1    3    3    0    0 -0.58101926429E+01 -0.34761541980E+01 -0.20227891205E+01  0.70663754955E+01  0.51100000000E-03 0.  1.
        -12    1    3    3    0    0 -0.25334078040E+01 -0.23773601214E+02 -0.15258319948E+02  0.28362274194E+02  0.00000000000E+00 0.  1.
</event>
<event>
 7    1  0.8440037E-011  0.4778727E+02  0.7816164E-02  0.1312668E+00
        -11   -1    0    0    0    0  0.00000000000E+00  0.00000000000E+00  0.45593999997E+02  0.45594000000E+02  0.51100000000E-03 0. -1.
         11   -1    0    0    0    0 -0.00000000000E+00 -0.00000000000E+00 -0.45593999997E+02  0.45594000000E+02  0.51100000000E-03 0.  1.
    9900012    2    1    2    0    0 -0.27135378929E+02 -0.86418026570E+01  0.32750777075E+02  0.47787274871E+02  0.20000017445E+02 0.  0.
        -12    1    1    2    0    0  0.27135378929E+02  0.86418026570E+01 -0.32750777075E+02  0.43400725129E+02  0.00000000000E+00 0.  1.
         11    1    3    3    0    0 -0.24375029202E+02 -0.11649338277E+02  0.33666651951E+02  0.43165872918E+02  0.51100000000E-03 0. -1.
        -11    1    3    3    0    0 -0.88897879679E+00  0.96632991005E+00  0.62298469724E+00  0.14533365028E+01  0.51100000000E-03 0.  1.
         12    1    3    3    0    0 -0.18713709303E+01  0.20412057098E+01 -0.15388595740E+01  0.31680654502E+01  0.00000000000E+00 0. -1.
</event>
<event>
 7    1  0.8440037E-011  0.4778727E+02  0.7816164E-02  0.1312668E+00
        -11   -1    0    0    0    0  0.00000000000E+00  0.00000000000E+00  0.45593999997E+02  0.45594000000E+02  0.51100000000E-03 0. -1.
         11   -1    0    0    0    0 -0.00000000000E+00 -0.00000000000E+00 -0.45593999997E+02  0.45594000000E+02  0.51100000000E-03 0.  1.
    9900012    2    1    2    0    0  0.39383555726E+01 -0.22216967835E+02 -0.37074503316E+02  0.47787273042E+02  0.20000009106E+02 0.  0.
         12    1    1    2    0    0 -0.39383555726E+01  0.22216967835E+02  0.37074503316E+02  0.43400726958E+02  0.00000000000E+00 0. -1.
         11    1    3    3    0    0  0.99863244568E+00 -0.42653312526E+01 -0.28422546146E+01  0.52219468602E+01  0.51100000000E-03 0.  1.
        -11    1    3    3    0    0  0.52138704039E+00  0.11253938652E+01 -0.16059233616E+02  0.16107058713E+02  0.51100000000E-03 0. -1.
         12    1    3    3    0    0  0.24183360865E+01 -0.19077030448E+02 -0.18173015085E+02  0.26458267468E+02  0.00000000000E+00 0. -1.
</event>
<event>
 7    1  0.8440037E-011  0.4778727E+02  0.7816164E-02  0.1312668E+00
        -11   -1    0    0    0    0  0.00000000000E+00  0.00000000000E+00  0.45593999997E+02  0.45594000000E+02  0.51100000000E-03 0. -1.
         11   -1    0    0    0    0 -0.00000000000E+00 -0.00000000000E+00 -0.45593999997E+02  0.45594000000E+02  0.51100000000E-03 0.  1.
    9900012    2    1    2    0    0 -0.21592581288E+02  0.30315708734E+02 -0.22323562508E+02  0.47787271829E+02  0.20000003578E+02 0.  0.
         12    1    1    2    0    0  0.21592581288E+02 -0.30315708734E+02  0.22323562508E+02  0.43400728171E+02  0.00000000000E+00 0. -1.
         11    1    3    3    0    0  0.10933699507E+00  0.11187962844E+02 -0.61556061266E+01  0.12770041278E+02  0.51100000000E-03 0. -1.
        -11    1    3    3    0    0 -0.90785497930E+01  0.10288375513E+02 -0.16057259232E+01  0.13814814260E+02  0.51100000000E-03 0.  1.
        -12    1    3    3    0    0 -0.12623368490E+02  0.88393703766E+01 -0.14562230458E+02  0.21202416292E+02  0.00000000000E+00 0.  1.
</event>
<event>
 7    1  0.8440037E-011  0.4778727E+02  0.7816164E-02  0.1312668E+00
        -11   -1    0    0    0    0  0.00000000000E+00  0.00000000000E+00  0.45593999997E+02  0.45594000000E+02  0.51100000000E-03 0. -1.
         11   -1    0    0    0    0 -0.00000000000E+00 -0.00000000000E+00 -0.45593999997E+02  0.45594000000E+02  0.51100000000E-03 0.  1.
    9900012    2    1    2    0    0  0.22299965436E+02  0.25720665289E+02 -0.26921784055E+02  0.47787268001E+02  0.19999986122E+02 0.  0.
         12    1    1    2    0    0 -0.22299965436E+02 -0.25720665289E+02  0.26921784055E+02  0.43400731999E+02  0.00000000000E+00 0. -1.
         11    1    3    3    0    0  0.45648743044E+01  0.64279257111E+01 -0.26066789456E+01  0.83036788082E+01  0.51100000000E-03 0. -1.
        -11    1    3    3    0    0  0.19355608138E+01  0.37696894603E+01  0.23289734645E+01  0.48353978069E+01  0.51100000000E-03 0.  1.
        -12    1    3    3    0    0  0.15799530318E+02  0.15523050118E+02 -0.26644078574E+02  0.34648191386E+02  0.00000000000E+00 0.  1.
</event>
<event>
 7    1  0.8440037E-011  0.4778728E+02  0.7816164E-02  0.1312668E+00
        -11   -1    0    0    0    0  0.00000000000E+00  0.00000000000E+00  0.45593999997E+02  0.45594000000E+02  0.51100000000E-03 0. -1.
         11   -1    0    0    0    0 -0.00000000000E+00 -0.00000000000E+00 -0.45593999997E+02  0.45594000000E+02  0.51100000000E-03 0.  1.
    9900012    2    1    2    0    0 -0.12603176646E+02 -0.11946725109E+02 -0.39775100355E+02  0.47787275229E+02  0.20000019077E+02 0.  0.
         12    1    1    2    0    0  0.12603176646E+02  0.11946725109E+02  0.39775100355E+02  0.43400724771E+02  0.00000000000E+00 0. -1.
         11    1    3    3    0    0  0.36042277842E+00  0.88232121085E+00 -0.29937560782E+01  0.31418101495E+01  0.51100000000E-03 0. -1.
        -11    1    3    3    0    0  0.41266231473E+01 -0.28296627096E+01 -0.42643794729E+01  0.65742636242E+01  0.51100000000E-03 0.  1.
         12    1    3    3    0    0 -0.17090222572E+02 -0.99993836107E+01 -0.32516964804E+02  0.38071201455E+02  0.00000000000E+00 0. -1.
</event>
<event>
 7    1  0.8440037E-011  0.4778727E+02  0.7816164E-02  0.1312668E+00
        -11   -1    0    0    0    0  0.00000000000E+00  0.00000000000E+00  0.45593999997E+02  0.45594000000E+02  0.51100000000E-03 0. -1.
         11   -1    0    0    0    0 -0.00000000000E+00 -0.00000000000E+00 -0.45593999997E+02  0.45594000000E+02  0.51100000000E-03 0.  1.
    9900012    2    1    2    0    0  0.10018819336E+02  0.56184843298E-01 -0.42228466774E+02  0.47787270701E+02  0.19999998434E+02 0.  0.
         12    1    1    2    0    0 -0.10018819336E+02 -0.56184843298E-01  0.42228466774E+02  0.43400729299E+02  0.00000000000E+00 0. -1.
         11    1    3    3    0    0  0.17162198691E+01  0.37668423739E+01 -0.27248280692E+01  0.49557240013E+01  0.51100000000E-03 0. -1.
        -11    1    3    3    0    0 -0.26799541795E+01  0.27111068198E+01 -0.99895122964E+01  0.10692175212E+02  0.51100000000E-03 0.  1.
        -12    1    3    3    0    0  0.10982553646E+02 -0.64217643505E+01 -0.29514126408E+02  0.32139371487E+02  0.00000000000E+00 0.  1.
</event>
<event>
 7    1  0.8440037E-011  0.4778727E+02  0.7816164E-02  0.1312668E+00
        -11   -1    0    0    0    0  0.00000000000E+00  0.00000000000E+00  0.45593999997E+02  0.45594000000E+02  0.51100000000E-03 0. -1.
         11   -1    0    0    0    0 -0.00000000000E+00 -0.00000000000E+00 -0.45593999997E+02  0.45594000000E+02  0.51100000000E-03 0.  1.
    9900012    2    1    2    0    0 -0.30356985296E+02 -0.32975986199E+01 -0.30841567024E+02  0.47787274552E+02  0.20000015991E+02 0.  0.
         12    1    1    2    0    0  0.30356985296E+02  0.32975986199E+01  0.30841567024E+02  0.43400725448E+02  0.00000000000E+00 0. -1.
         11    1    3    3    0    0 -0.14739167184E+02 -0.21758711802E+01 -0.80215143202E+01  0.16921056614E+02  0.51100000000E-03 0. -1.
        -11    1    3    3    0    0 -0.15146246302E+02  0.31217506183E+01 -0.13165518603E+02  0.20309726347E+02  0.51100000000E-03 0.  1.
        -12    1    3    3    0    0 -0.47157181078E+00 -0.42434780580E+01 -0.96545341009E+01  0.10556491591E+02  0.00000000000E+00 0.  1.
</event>
<event>
 7    1  0.8440037E-011  0.4778727E+02  0.7816164E-02  0.1312668E+00
        -11   -1    0    0    0    0  0.00000000000E+00  0.00000000000E+00  0.45593999997E+02  0.45594000000E+02  0.51100000000E-03 0. -1.
         11   -1    0    0    0    0 -0.00000000000E+00 -0.00000000000E+00 -0.45593999997E+02  0.45594000000E+02  0.51100000000E-03 0.  1.
    9900012    2    1    2    0    0 -0.23098037345E+01  0.58267952026E+01  0.42945740382E+02  0.47787270138E+02  0.19999995865E+02 0.  0.
        -12    1    1    2    0    0  0.23098037345E+01 -0.58267952026E+01 -0.42945740382E+02  0.43400729862E+02  0.00000000000E+00 0.  1.
         11    1    3    3    0    0 -0.18233811845E+01  0.39062686167E+01  0.23324697357E+02  0.23719720920E+02  0.51100000000E-03 0. -1.
        -11    1    3    3    0    0 -0.58804968085E+01  0.27342670768E+01  0.16622244917E+02  0.17842519034E+02  0.51100000000E-03 0.  1.
        -12    1    3    3    0    0  0.53940742585E+01 -0.81374049092E+00  0.29987981086E+01  0.62250301837E+01  0.00000000000E+00 0.  1.
</event>
<event>
 7    1  0.8440037E-011  0.4778727E+02  0.7816164E-02  0.1312668E+00
        -11   -1    0    0    0    0  0.00000000000E+00  0.00000000000E+00  0.45593999997E+02  0.45594000000E+02  0.51100000000E-03 0. -1.
         11   -1    0    0    0    0 -0.00000000000E+00 -0.00000000000E+00 -0.45593999997E+02  0.45594000000E+02  0.51100000000E-03 0.  1.
    9900012    2    1    2    0    0  0.30670258062E+02  0.18544991608E+02  0.24475330877E+02  0.47787271149E+02  0.20000000475E+02 0.  0.
        -12    1    1    2    0    0 -0.30670258062E+02 -0.18544991608E+02 -0.24475330877E+02  0.43400728851E+02  0.00000000000E+00 0.  1.
         11    1    3    3    0    0  0.85239717991E+01  0.76248667869E+01  0.30762600834E+01  0.11843144224E+02  0.51100000000E-03 0. -1.
        -11    1    3    3    0    0  0.29642743237E+01 -0.16162042786E+01 -0.13668952228E+01  0.36424499100E+01  0.51100000000E-03 0.  1.
        -12    1    3    3    0    0  0.19182011939E+02  0.12536329099E+02  0.22765966016E+02  0.32301677015E+02  0.00000000000E+00 0.  1.
</event>
<event>
 7    1  0.8440037E-011  0.4778727E+02  0.7816164E-02  0.1312668E+00
        -11   -1    0    0    0    0  0.00000000000E+00  0.00000000000E+00  0.45593999997E+02  0.45594000000E+02  0.51100000000E-03 0. -1.
         11   -1    0    0    0    0 -0.00000000000E+00 -0.00000000000E+00 -0.45593999997E+02  0.45594000000E+02  0.51100000000E-03 0.  1.
    9900012    2    1    2    0    0 -0.33580794551E+00  0.28690127819E+01 -0.43304494474E+02  0.47787271401E+02  0.20000001625E+02 0.  0.
         12    1    1    2    0    0  0.33580794551E+00 -0.28690127819E+01  0.43304494474E+02  0.43400728599E+02  0.00000000000E+00 0. -1.
         11    1    3    3    0    0  0.30063822182E+00  0.21232480819E+01 -0.27233965244E+02  0.27318261821E+02  0.51100000000E-03 0. -1.
        -11    1    3    3    0    0  0.46678272231E+01 -0.24181031801E+01 -0.11920017973E+02  0.13027765070E+02  0.51100000000E-03 0.  1.
         12    1    3    3    0    0 -0.53042733905E+01  0.31638678801E+01 -0.41505112567E+01  0.74412445098E+01  0.00000000000E+00 0. -1.
</event>
<event>
 7    1  0.8440037E-011  0.4778727E+02  0.7816164E-02  0.1312668E+00
        -11   -1    0    0    0    0  0.00000000000E+00  0.00000000000E+00  0.45593999997E+02  0.45594000000E+02  0.51100000000E-03 0. -1.
         11   -1    0    0    0    0 -0.00000000000E+00 -0.00000000000E+00 -0.45593999997E+02  0.45594000000E+02  0.51100000000E-03 0.  1.
    9900012    2    1    2    0    0  0.77229085519E+01 -0.30849714418E+02  0.29534301781E+02  0.47787272151E+02  0.20000005043E+02 0.  0.
        -12    1    1    2    0    0 -0.77229085519E+01  0.30849714418E+02 -0.29534301781E+02  0.43400727849E+02  0.00000000000E+00 0.  1.
         11    1    3    3    0    0 -0.38617434136E+01 -0.31594659554E+01  0.90799461894E+01  0.10360536201E+02  0.51100000000E-03 0. -1.
        -11    1    3    3    0    0  0.50734100460E+00 -0.98310692458E+01  0.35799999260E+01  0.10474908932E+02  0.51100000000E-03 0.  1.
        -12    1    3    3    0    0  0.11077310961E+02 -0.17859179216E+02  0.16874355666E+02  0.26951827017E+02  0.00000000000E+00 0.  1.
</event>
<event>
 7    1  0.8440037E-011  0.4778727E+02  0.7816164E-02  0.1312668E+00
        -11   -1    0    0    0    0  0.00000000000E+00  0.00000000000E+00  0.45593999997E+02  0.45594000000E+02  0.51100000000E-03 0. -1.
         11   -1    0    0    0    0 -0.00000000000E+00 -0.00000000000E+00 -0.45593999997E+02  0.45594000000E+02  0.51100000000E-03 0.  1.
    9900012    2    1    2    0    0 -0.23754837012E+02  0.79303991083E+01 -0.35446293073E+02  0.47787271848E+02  0.20000003664E+02 0.  0.
         12    1    1    2    0    0  0.23754837012E+02 -0.79303991083E+01  0.35446293073E+02  0.43400728152E+02  0.00000000000E+00 0. -1.
         11    1    3    3    0    0 -0.66474549338E+01  0.32122763280E+01 -0.11293973618E+02  0.13493006213E+02  0.51100000000E-03 0. -1.
        -11    1    3    3    0    0 -0.20474102215E+02  0.43191643928E+01 -0.20155128303E+02  0.29052938573E+02  0.51100000000E-03 0.  1.
         12    1    3    3    0    0  0.33667201363E+01  0.39895838750E+00 -0.39971911524E+01  0.52413270629E+01  0.00000000000E+00 0. -1.
</event>
<event>
 7    1  0.8440037E-011  0.4778726E+02  0.7816164E-02  0.1312668E+00
        -11   -1    0    0    0    0  0.00000000000E+00  0.00000000000E+00  0.45593999997E+02  0.45594000000E+02  0.51100000000E-03 0. -1.
         11   -1    0    0    0    0 -0.00000000000E+00 -0.00000000000E+00 -0.45593999997E+02  0.45594000000E+02  0.51100000000E-03 0.  1.
    9900012    2    1    2    0    0  0.25704378153E+02 -0.28123599876E+01 -0.34856846822E+02  0.47787260429E+02  0.19999951599E+02 0.  0.
         12    1    1    2    0    0 -0.25704378153E+02  0.28123599876E+01  0.34856846822E+02  0.43400739571E+02  0.00000000000E+00 0. -1.
         11    1    3    3    0    0  0.17420991318E+01 -0.28299270575E+00  0.89649440187E+00  0.19795698347E+01  0.51100000000E-03 0.  1.
        -11    1    3    3    0    0  0.90991418240E+00 -0.10047727375E+01  0.14688151503E+01  0.19987321682E+01  0.51100000000E-03 0. -1.
        -12    1    3    3    0    0  0.23052364839E+02 -0.15245945443E+01 -0.37222156374E+02  0.43808958426E+02  0.00000000000E+00 0.  1.
</event>
<event>
 7    1  0.8440037E-011  0.4778727E+02  0.7816164E-02  0.1312668E+00
        -11   -1    0    0    0    0  0.00000000000E+00  0.00000000000E+00  0.45593999997E+02  0.45594000000E+02  0.51100000000E-03 0. -1.
         11   -1    0    0    0    0 -0.00000000000E+00 -0.00000000000E+00 -0.45593999997E+02  0.45594000000E+02  0.51100000000E-03 0.  1.
    9900012    2    1    2    0    0 -0.26352188796E+02  0.11791625433E+02 -0.32405911190E+02  0.47787269998E+02  0.19999995228E+02 0.  0.
         12    1    1    2    0    0  0.26352188796E+02 -0.11791625433E+02  0.32405911190E+02  0.43400730002E+02  0.00000000000E+00 0. -1.
         11    1    3    3    0    0 -0.69661135753E+01  0.10633476501E+01  0.23693002081E+00  0.70507859608E+01  0.51100000000E-03 0. -1.
        -11    1    3    3    0    0  0.11087403375E+01  0.58837979456E-02 -0.74832042777E+00  0.13376559643E+01  0.51100000000E-03 0.  1.
        -12    1    3    3    0    0 -0.20494815558E+02  0.10722393985E+02 -0.31894520783E+02  0.39398828073E+02  0.00000000000E+00 0.  1.
</event>
<event>
 7    1  0.8440037E-011  0.4778727E+02  0.7816164E-02  0.1312668E+00
        -11   -1    0    0    0    0  0.00000000000E+00  0.00000000000E+00  0.45593999997E+02  0.45594000000E+02  0.51100000000E-03 0. -1.
         11   -1    0    0    0    0 -0.00000000000E+00 -0.00000000000E+00 -0.45593999997E+02  0.45594000000E+02  0.51100000000E-03 0.  1.
    9900012    2    1    2    0    0  0.12072347066E+02  0.32269218946E+02 -0.26392791471E+02  0.47787268478E+02  0.19999988297E+02 0.  0.
         12    1    1    2    0    0 -0.12072347066E+02 -0.32269218946E+02  0.26392791471E+02  0.43400731522E+02  0.00000000000E+00 0. -1.
         11    1    3    3    0    0  0.30755119821E+01  0.24492657129E-01 -0.56593459785E+01  0.64410846142E+01  0.51100000000E-03 0. -1.
        -11    1    3    3    0    0  0.78604165341E+01  0.90658110223E+01 -0.10649297186E+02  0.16043148332E+02  0.51100000000E-03 0.  1.
         12    1    3    3    0    0  0.11364185500E+01  0.23178915266E+02 -0.10084148306E+02  0.25303035532E+02  0.00000000000E+00 0. -1.
</event>
<event>
 7    1  0.8440037E-011  0.4778727E+02  0.7816164E-02  0.1312668E+00
        -11   -1    0    0    0    0  0.00000000000E+00  0.00000000000E+00  0.45593999997E+02  0.45594000000E+02  0.51100000000E-03 0. -1.
         11   -1    0    0    0    0 -0.00000000000E+00 -0.00000000000E+00 -0.45593999997E+02  0.45594000000E+02  0.51100000000E-03 0.  1.
    9900012    2    1    2    0    0 -0.13049077468E+02  0.26099967087E+02  0.32126881585E+02  0.47787271607E+02  0.20000002564E+02 0.  0.
        -12    1    1    2    0    0  0.13049077468E+02 -0.26099967087E+02 -0.32126881585E+02  0.43400728393E+02  0.00000000000E+00 0.  1.
         11    1    3    3    0    0  0.18546762927E+01  0.10017852303E+02  0.33593318685E+01  0.10727641855E+02  0.51100000000E-03 0. -1.
        -11    1    3    3    0    0 -0.61355411284E+01  0.58257989722E+01  0.52832678273E+01  0.99748542746E+01  0.51100000000E-03 0.  1.
         12    1    3    3    0    0 -0.87682126320E+01  0.10256315812E+02  0.23484281889E+02  0.27084775477E+02  0.00000000000E+00 0. -1.
</event>
<event>
 7    1  0.8440037E-011  0.4778726E+02  0.7816164E-02  0.1312668E+00
        -11   -1    0    0    0    0  0.00000000000E+00  0.00000000000E+00  0.45593999997E+02  0.45594000000E+02  0.51100000000E-03 0. -1.
         11   -1    0    0    0    0 -0.00000000000E+00 -0.00000000000E+00 -0.45593999997E+02  0.45594000000E+02  0.51100000000E-03 0.  1.
    9900012    2    1    2    0    0 -0.13346795046E+02  0.25888855731E+02 -0.32175365819E+02  0.47787263202E+02  0.19999964241E+02 0.  0.
         12    1    1    2    0    0  0.13346795046E+02 -0.25888855731E+02  0.32175365819E+02  0.43400736798E+02  0.00000000000E+00 0. -1.
         11    1    3    3    0    0 -0.49513022154E+01  0.80243085102E+00 -0.10492043316E+02  0.11629370667E+02  0.51100000000E-03 0.  1.
        -11    1    3    3    0    0 -0.10614118762E+02  0.14586938917E+02 -0.15422342869E+02  0.23733667308E+02  0.51100000000E-03 0. -1.
         12    1    3    3    0    0  0.22186259313E+01  0.10499485963E+02 -0.62609796345E+01  0.12424225227E+02  0.00000000000E+00 0. -1.
</event>
<event>
 7    1  0.8440037E-011  0.4778727E+02  0.7816164E-02  0.1312668E+00
        -11   -1    0    0    0    0  0.00000000000E+00  0.00000000000E+00  0.45593999997E+02  0.45594000000E+02  0.51100000000E-03 0.  1.
         11   -1    0    0    0    0 -0.00000000000E+00 -0.00000000000E+00 -0.45593999997E+02  0.45594000000E+02  0.51100000000E-03 0. -1.
    9900012    2    1    2    0    0 -0.31477391054E+02 -0.27656976369E+02 -0.11308796244E+02  0.47787270030E+02  0.19999995374E+02 0.  0.
         12    1    1    2    0    0  0.31477391054E+02  0.27656976369E+02  0.11308796244E+02  0.43400729970E+02  0.00000000000E+00 0. -1.
         11    1    3    3    0    0 -0.18666867240E+02 -0.20486028606E+02 -0.53043813108E+01  0.28218181408E+02  0.51100000000E-03 0. -1.
        -11    1    3    3    0    0 -0.49100735386E+01 -0.91759033876E+01 -0.41891453107E+01  0.11218509876E+02  0.51100000000E-03 0.  1.
         12    1    3    3    0    0 -0.79004502749E+01  0.20049556240E+01 -0.18152696226E+01  0.83505787466E+01  0.00000000000E+00 0. -1.
</event>
<event>
 7    1  0.8440037E-011  0.4778728E+02  0.7816164E-02  0.1312668E+00
        -11   -1    0    0    0    0  0.00000000000E+00  0.00000000000E+00  0.45593999997E+02  0.45594000000E+02  0.51100000000E-03 0. -1.
         11   -1    0    0    0    0 -0.00000000000E+00 -0.00000000000E+00 -0.45593999997E+02  0.45594000000E+02  0.51100000000E-03 0.  1.
    9900012    2    1    2    0    0  0.21744947547E+01 -0.15902610070E+02 -0.40323707709E+02  0.47787276068E+02  0.20000022904E+02 0.  0.
         12    1    1    2    0    0 -0.21744947547E+01  0.15902610070E+02  0.40323707709E+02  0.43400723932E+02  0.00000000000E+00 0. -1.
         11    1    3    3    0    0 -0.16111101369E+01 -0.10100664418E+02 -0.15340651416E+02  0.18437860063E+02  0.51100000000E-03 0. -1.
        -11    1    3    3    0    0 -0.30927593048E+01 -0.58412611264E+01 -0.19385078405E+02  0.20480887596E+02  0.51100000000E-03 0.  1.
         12    1    3    3    0    0  0.68783641964E+01  0.39315474802E-01 -0.55979778874E+01  0.88685284096E+01  0.00000000000E+00 0. -1.
</event>
<event>
 7    1  0.8440037E-011  0.4778727E+02  0.7816164E-02  0.1312668E+00
        -11   -1    0    0    0    0  0.00000000000E+00  0.00000000000E+00  0.45593999997E+02  0.45594000000E+02  0.51100000000E-03 0. -1.
         11   -1    0    0    0    0 -0.00000000000E+00 -0.00000000000E+00 -0.45593999997E+02  0.45594000000E+02  0.51100000000E-03 0.  1.
    9900012    2    1    2    0    0 -0.44030934574E+01  0.52681122718E+01 -0.42854206151E+02  0.47787271622E+02  0.20000002634E+02 0.  0.
         12    1    1    2    0    0  0.44030934574E+01 -0.52681122718E+01  0.42854206151E+02  0.43400728378E+02  0.00000000000E+00 0. -1.
         11    1    3    3    0    0 -0.56445980219E+01  0.60591621975E+01 -0.15371072209E+02  0.17459805110E+02  0.51100000000E-03 0. -1.
        -11    1    3    3    0    0 -0.17780002387E+01  0.25660786540E+01 -0.24961131877E+02  0.25155598767E+02  0.51100000000E-03 0.  1.
         12    1    3    3    0    0  0.30195048032E+01 -0.33571285797E+01 -0.25220020655E+01  0.51718677453E+01  0.00000000000E+00 0. -1.
</event>
<event>
 7    1  0.8440037E-011  0.4778727E+02  0.7816164E-02  0.1312668E+00
        -11   -1    0    0    0    0  0.00000000000E+00  0.00000000000E+00  0.45593999997E+02  0.45594000000E+02  0.51100000000E-03 0. -1.
         11   -1    0    0    0    0 -0.00000000000E+00 -0.00000000000E+00 -0.45593999997E+02  0.45594000000E+02  0.51100000000E-03 0.  1.
    9900012    2    1    2    0    0  0.59462477246E+01  0.29583531776E+02  0.31194229912E+02  0.47787271963E+02  0.20000004187E+02 0.  0.
        -12    1    1    2    0    0 -0.59462477246E+01 -0.29583531776E+02 -0.31194229912E+02  0.43400728037E+02  0.00000000000E+00 0.  1.
         11    1    3    3    0    0  0.49536856898E+01  0.12871192860E+02  0.27453684483E+01  0.14062135532E+02  0.51100000000E-03 0.  1.
        -11    1    3    3    0    0  0.14449860777E+01  0.30470526856E+01  0.11301727291E+02  0.11794132221E+02  0.51100000000E-03 0. -1.
        -12    1    3    3    0    0 -0.45242404289E+00  0.13665286231E+02  0.17147134173E+02  0.21931004210E+02  0.00000000000E+00 0.  1.
</event>
<event>
 7    1  0.8440037E-011  0.4778727E+02  0.7816164E-02  0.1312668E+00
        -11   -1    0    0    0    0  0.00000000000E+00  0.00000000000E+00  0.45593999997E+02  0.45594000000E+02  0.51100000000E-03 0. -1.
         11   -1    0    0    0    0 -0.00000000000E+00 -0.00000000000E+00 -0.45593999997E+02  0.45594000000E+02  0.51100000000E-03 0.  1.
    9900012    2    1    2    0    0  0.33261759895E+02 -0.48265270479E+00  0.27875535204E+02  0.47787273188E+02  0.20000009772E+02 0.  0.
        -12    1    1    2    0    0 -0.33261759895E+02  0.48265270479E+00 -0.27875535204E+02  0.43400726812E+02  0.00000000000E+00 0.  1.
         11    1    3    3    0    0  0.21571610615E+02 -0.75842421286E+01  0.13237137553E+02  0.26421145396E+02  0.51100000000E-03 0. -1.
        -11    1    3    3    0    0 -0.51234796568E+00 -0.85321368545E+00  0.85239797979E+00  0.13103650667E+01  0.51100000000E-03 0.  1.
         12    1    3    3    0    0  0.12202497245E+02  0.79548031092E+01  0.13785999672E+02  0.20055762725E+02  0.00000000000E+00 0. -1.
</event>
<event>
 7    1  0.8440037E-011  0.4778727E+02  0.7816164E-02  0.1312668E+00
        -11   -1    0    0    0    0  0.00000000000E+00  0.00000000000E+00  0.45593999997E+02  0.45594000000E+02  0.51100000000E-03 0. -1.
         11   -1    0    0    0    0 -0.00000000000E+00 -0.00000000000E+00 -0.45593999997E+02  0.45594000000E+02  0.51100000000E-03 0.  1.
    9900012    2    1    2    0    0  0.29311807310E+01 -0.14826972322E+01 -0.43276242413E+02  0.47787269949E+02  0.19999995004E+02 0.  0.
         12    1    1    2    0    0 -0.29311807310E+01  0.14826972322E+01  0.43276242413E+02  0.43400730051E+02  0.00000000000E+00 0. -1.
         11    1    3    3    0    0 -0.16247021827E+01  0.63150835806E-01 -0.10117463610E+01  0.19150133605E+01  0.51100000000E-03 0. -1.
        -11    1    3    3    0    0  0.92718473601E+01  0.40345001224E+01 -0.29232620392E+02  0.30932029354E+02  0.51100000000E-03 0.  1.
         12    1    3    3    0    0 -0.47159644463E+01 -0.55803481903E+01 -0.13031875660E+02  0.14940227234E+02  0.00000000000E+00 0. -1.
</event>
<event>
 7    1  0.8440037E-011  0.4778727E+02  0.7816164E-02  0.1312668E+00
        -11   -1    0    0    0    0  0.00000000000E+00  0.00000000000E+00  0.45593999997E+02  0.45594000000E+02  0.51100000000E-03 0.  1.
         11   -1    0    0    0    0 -0.00000000000E+00 -0.00000000000E+00 -0.45593999997E+02  0.45594000000E+02  0.51100000000E-03 0. -1.
    9900012    2    1    2    0    0  0.18146124009E+01  0.43173585261E+02 -0.40462337634E+01  0.47787270857E+02  0.19999999147E+02 0.  0.
        -12    1    1    2    0    0 -0.18146124009E+01 -0.43173585261E+02  0.40462337634E+01  0.43400729143E+02  0.00000000000E+00 0.  1.
         11    1    3    3    0    0  0.52117276754E+01  0.31955317755E+02 -0.42738955202E+01  0.32658392816E+02  0.51100000000E-03 0. -1.
        -11    1    3    3    0    0 -0.32961870742E+01  0.44427394507E+01 -0.42764817215E+01  0.69922156167E+01  0.51100000000E-03 0.  1.
        -12    1    3    3    0    0 -0.10092820024E+00  0.67755280553E+01  0.45041434784E+01  0.81366624241E+01  0.00000000000E+00 0.  1.
</event>
<event>
 7    1  0.8440037E-011  0.4778727E+02  0.7816164E-02  0.1312668E+00
        -11   -1    0    0    0    0  0.00000000000E+00  0.00000000000E+00  0.45593999997E+02  0.45594000000E+02  0.51100000000E-03 0. -1.
         11   -1    0    0    0    0 -0.00000000000E+00 -0.00000000000E+00 -0.45593999997E+02  0.45594000000E+02  0.51100000000E-03 0.  1.
    9900012    2    1    2    0    0 -0.32588230727E+02 -0.16456320056E+02 -0.23469555962E+02  0.47787270642E+02  0.19999998167E+02 0.  0.
         12    1    1    2    0    0  0.32588230727E+02  0.16456320056E+02  0.23469555962E+02  0.43400729358E+02  0.00000000000E+00 0. -1.
         11    1    3    3    0    0 -0.12658855436E+02  0.34137067882E+01 -0.49044274176E+01  0.13998336456E+02  0.51100000000E-03 0. -1.
        -11    1    3    3    0    0 -0.55138193626E+01 -0.44749265896E+01 -0.54680672222E+01  0.89625292944E+01  0.51100000000E-03 0.  1.
         12    1    3    3    0    0 -0.14415555929E+02 -0.15395100254E+02 -0.13097061323E+02  0.24826404892E+02  0.00000000000E+00 0. -1.
</event>
<event>
 7    1  0.8440037E-011  0.4778727E+02  0.7816164E-02  0.1312668E+00
        -11   -1    0    0    0    0  0.00000000000E+00  0.00000000000E+00  0.45593999997E+02  0.45594000000E+02  0.51100000000E-03 0.  1.
         11   -1    0    0    0    0 -0.00000000000E+00 -0.00000000000E+00 -0.45593999997E+02  0.45594000000E+02  0.51100000000E-03 0. -1.
    9900012    2    1    2    0    0  0.38573694637E+02  0.10378909854E+02 -0.16969725635E+02  0.47787271022E+02  0.19999999899E+02 0.  0.
         12    1    1    2    0    0 -0.38573694637E+02 -0.10378909854E+02  0.16969725635E+02  0.43400728978E+02  0.00000000000E+00 0. -1.
         11    1    3    3    0    0  0.24455043096E+02  0.12114312654E+02 -0.86516787124E+01  0.28629656804E+02  0.51100000000E-03 0. -1.
        -11    1    3    3    0    0  0.10617993328E+02  0.99713630343E-01 -0.78108983649E+00  0.10647151108E+02  0.51100000000E-03 0.  1.
         12    1    3    3    0    0  0.35006582123E+01 -0.18351164299E+01 -0.75369570862E+01  0.85104631102E+01  0.00000000000E+00 0. -1.
</event>
<event>
 7    1  0.8440037E-011  0.4778733E+02  0.7816164E-02  0.1312668E+00
        -11   -1    0    0    0    0  0.00000000000E+00  0.00000000000E+00  0.45593999997E+02  0.45594000000E+02  0.51100000000E-03 0. -1.
         11   -1    0    0    0    0 -0.00000000000E+00 -0.00000000000E+00 -0.45593999997E+02  0.45594000000E+02  0.51100000000E-03 0.  1.
    9900012    2    1    2    0    0 -0.69095662297E+01 -0.22948718390E+02  0.36183318961E+02  0.47787327745E+02  0.20000258517E+02 0.  0.
        -12    1    1    2    0    0  0.69095662297E+01  0.22948718390E+02 -0.36183318961E+02  0.43400672255E+02  0.00000000000E+00 0.  1.
         11    1    3    3    0    0 -0.23728842580E+01 -0.42114831514E+01  0.86925233100E+01  0.99462119318E+01  0.51100000000E-03 0. -1.
        -11    1    3    3    0    0 -0.44192020423E+01 -0.10823691537E+02  0.29526215996E+01  0.12058176469E+02  0.51100000000E-03 0.  1.
        -12    1    3    3    0    0 -0.11747992941E+00 -0.79135437011E+01  0.24538174051E+02  0.25782939344E+02  0.00000000000E+00 0.  1.
</event>
<event>
 7    1  0.8440037E-011  0.4778726E+02  0.7816164E-02  0.1312668E+00
        -11   -1    0    0    0    0  0.00000000000E+00  0.00000000000E+00  0.45593999997E+02  0.45594000000E+02  0.51100000000E-03 0. -1.
         11   -1    0    0    0    0 -0.00000000000E+00 -0.00000000000E+00 -0.45593999997E+02  0.45594000000E+02  0.51100000000E-03 0.  1.
    9900012    2    1    2    0    0 -0.39967923032E+01  0.22648245723E+02 -0.36806344237E+02  0.47787258542E+02  0.19999942996E+02 0.  0.
         12    1    1    2    0    0  0.39967923032E+01 -0.22648245723E+02  0.36806344237E+02  0.43400741458E+02  0.00000000000E+00 0. -1.
         11    1    3    3    0    0 -0.29761855826E-02  0.14119654134E+02 -0.22899227565E+02  0.26902402589E+02  0.51100000000E-03 0. -1.
        -11    1    3    3    0    0  0.32823336363E+01  0.62247941632E+01 -0.31864563969E+01  0.77249777414E+01  0.51100000000E-03 0.  1.
         12    1    3    3    0    0 -0.72761497539E+01  0.23037974263E+01 -0.10720660275E+02  0.13159878212E+02  0.00000000000E+00 0. -1.
</event>
<event>
 7    1  0.8440037E-011  0.4778728E+02  0.7816164E-02  0.1312668E+00
        -11   -1    0    0    0    0  0.00000000000E+00  0.00000000000E+00  0.45593999997E+02  0.45594000000E+02  0.51100000000E-03 0. -1.
         11   -1    0    0    0    0 -0.00000000000E+00 -0.00000000000E+00 -0.45593999997E+02  0.45594000000E+02  0.51100000000E-03 0.  1.
    9900012    2    1    2    0    0  0.46505103569E+01  0.76804773689E+01  0.42461813300E+02  0.47787279178E+02  0.20000037083E+02 0.  0.
        -12    1    1    2    0    0 -0.46505103569E+01 -0.76804773689E+01 -0.42461813300E+02  0.43400720822E+02  0.00000000000E+00 0.  1.
         11    1    3    3    0    0  0.30244452461E+01  0.14543663856E+01  0.35121114790E+02  0.35281087780E+02  0.51100000000E-03 0. -1.
        -11    1    3    3    0    0 -0.63250027981E-02 -0.13504053154E+00  0.57466472044E+01  0.57482371475E+01  0.51100000000E-03 0.  1.
        -12    1    3    3    0    0  0.16323901136E+01  0.63611515148E+01  0.15940513055E+01  0.67579542498E+01  0.00000000000E+00 0.  1.
</event>
<event>
 7    1  0.1022716E-010  0.4778727E+02  0.7816164E-02  0.1312668E+00
        -11   -1    0    0    0    0  0.00000000000E+00  0.00000000000E+00  0.45593999997E+02  0.45594000000E+02  0.51100000000E-03 0. -1.
         11   -1    0    0    0    0 -0.00000000000E+00 -0.00000000000E+00 -0.45593999997E+02  0.45594000000E+02  0.51100000000E-03 0.  1.
    9900012    2    1    2    0    0 -0.92817817412E+01  0.26284626734E+02  0.33265449654E+02  0.47787271717E+02  0.20000003067E+02 0.  0.
        -12    1    1    2    0    0  0.92817817412E+01 -0.26284626734E+02 -0.33265449654E+02  0.43400728283E+02  0.00000000000E+00 0.  1.
         11    1    3    3    0    0 -0.19919305486E+01  0.27055259824E+00  0.60394038934E+01  0.63651697281E+01  0.51100000000E-03 0. -1.
        -11    1    3    3    0    0  0.40539517906E+01  0.58889808249E+01  0.24772486246E+01  0.75664642526E+01  0.51100000000E-03 0.  1.
         12    1    3    3    0    0 -0.11343802983E+02  0.20125093310E+02  0.24748797136E+02  0.33855637736E+02  0.00000000000E+00 0. -1.
</event>
<event>
 7    1  0.8440037E-011  0.4778727E+02  0.7816164E-02  0.1312668E+00
        -11   -1    0    0    0    0  0.00000000000E+00  0.00000000000E+00  0.45593999997E+02  0.45594000000E+02  0.51100000000E-03 0. -1.
         11   -1    0    0    0    0 -0.00000000000E+00 -0.00000000000E+00 -0.45593999997E+02  0.45594000000E+02  0.51100000000E-03 0.  1.
    9900012    2    1    2    0    0 -0.39610737223E+02  0.16357814354E+02 -0.68581716382E+01  0.47787272909E+02  0.20000008501E+02 0.  0.
         12    1    1    2    0    0  0.39610737223E+02 -0.16357814354E+02  0.68581716382E+01  0.43400727091E+02  0.00000000000E+00 0. -1.
         11    1    3    3    0    0 -0.42139409514E+01  0.21862210413E+01 -0.55906885156E+01  0.73343479003E+01  0.51100000000E-03 0. -1.
        -11    1    3    3    0    0 -0.33568036079E+02  0.15805463515E+02  0.99514847634E+00  0.37116250402E+02  0.51100000000E-03 0.  1.
         12    1    3    3    0    0 -0.18287601923E+01 -0.16338702021E+01 -0.22626315990E+01  0.33366746067E+01  0.00000000000E+00 0. -1.
</event>
<event>
 7    1  0.8440037E-011  0.4778733E+02  0.7816164E-02  0.1312668E+00
        -11   -1    0    0    0    0  0.00000000000E+00  0.00000000000E+00  0.45593999997E+02  0.45594000000E+02  0.51100000000E-03 0. -1.
         11   -1    0    0    0    0 -0.00000000000E+00 -0.00000000000E+00 -0.45593999997E+02  0.45594000000E+02  0.51100000000E-03 0.  1.
    9900012    2    1    2    0    0 -0.23422614018E+02 -0.13199314446E+02 -0.34070184756E+02  0.47787329053E+02  0.20000264483E+02 0.  0.
         12    1    1    2    0    0  0.23422614018E+02  0.13199314446E+02  0.34070184756E+02  0.43400670947E+02  0.00000000000E+00 0. -1.
         11    1    3    3    0    0 -0.84292254326E+01  0.18553965445E+01 -0.43523768189E+01  0.96663086008E+01  0.51100000000E-03 0. -1.
        -11    1    3    3    0    0  0.96507085772E+00 -0.20159222550E+00  0.29198346325E+00  0.10282294441E+01  0.51100000000E-03 0.  1.
        -12    1    3    3    0    0 -0.15958459444E+02 -0.14853118765E+02 -0.30009791401E+02  0.37092791008E+02  0.00000000000E+00 0.  1.
</event>
<event>
 7    1  0.8440037E-011  0.4778727E+02  0.7816164E-02  0.1312668E+00
        -11   -1    0    0    0    0  0.00000000000E+00  0.00000000000E+00  0.45593999997E+02  0.45594000000E+02  0.51100000000E-03 0. -1.
         11   -1    0    0    0    0 -0.00000000000E+00 -0.00000000000E+00 -0.45593999997E+02  0.45594000000E+02  0.51100000000E-03 0.  1.
    9900012    2    1    2    0    0 -0.89011374676E+01 -0.16468786577E+02  0.39155743809E+02  0.47787268984E+02  0.19999990604E+02 0.  0.
        -12    1    1    2    0    0  0.89011374676E+01  0.16468786577E+02 -0.39155743809E+02  0.43400731016E+02  0.00000000000E+00 0.  1.
         11    1    3    3    0    0 -0.43439613577E+01 -0.10900533314E+02  0.83467776886E+01  0.14400011279E+02  0.51100000000E-03 0. -1.
        -11    1    3    3    0    0 -0.68117849797E+01 -0.53877246935E+01  0.14349256532E+02  0.16772869620E+02  0.51100000000E-03 0.  1.
        -12    1    3    3    0    0  0.22546088698E+01 -0.18052856977E+00  0.16459709588E+02  0.16614388085E+02  0.00000000000E+00 0.  1.
</event>
<event>
 7    1  0.8440037E-011  0.4778728E+02  0.7816164E-02  0.1312668E+00
        -11   -1    0    0    0    0  0.00000000000E+00  0.00000000000E+00  0.45593999997E+02  0.45594000000E+02  0.51100000000E-03 0. -1.
         11   -1    0    0    0    0 -0.00000000000E+00 -0.00000000000E+00 -0.45593999997E+02  0.45594000000E+02  0.51100000000E-03 0.  1.
    9900012    2    1    2    0    0 -0.11988274671E+00  0.79599940359E+00  0.43393257473E+02  0.47787276722E+02  0.20000025887E+02 0.  0.
        -12    1    1    2    0    0  0.11988274671E+00 -0.79599940359E+00 -0.43393257473E+02  0.43400723278E+02  0.00000000000E+00 0.  1.
         11    1    3    3    0    0 -0.43716341179E+01 -0.50221684761E+01  0.18931459143E+02  0.20068221311E+02  0.51100000000E-03 0. -1.
        -11    1    3    3    0    0  0.18504176881E+01 -0.29825093438E+01  0.40358912012E+01  0.53486283901E+01  0.51100000000E-03 0.  1.
         12    1    3    3    0    0  0.24013336830E+01  0.88006772235E+01  0.20425907129E+02  0.22370427021E+02  0.00000000000E+00 0. -1.
</event>
<event>
 7    1  0.8440037E-011  0.4778727E+02  0.7816164E-02  0.1312668E+00
        -11   -1    0    0    0    0  0.00000000000E+00  0.00000000000E+00  0.45593999997E+02  0.45594000000E+02  0.51100000000E-03 0.  1.
         11   -1    0    0    0    0 -0.00000000000E+00 -0.00000000000E+00 -0.45593999997E+02  0.45594000000E+02  0.51100000000E-03 0. -1.
    9900012    2    1    2    0    0  0.10722707388E+02  0.39045409479E+02 -0.15623791923E+02  0.47787270408E+02  0.19999997097E+02 0.  0.
         12    1    1    2    0    0 -0.10722707388E+02 -0.39045409479E+02  0.15623791923E+02  0.43400729592E+02  0.00000000000E+00 0. -1.
         11    1    3    3    0    0  0.11068239390E+02  0.18838528569E+02 -0.13634341544E+02  0.25754443334E+02  0.51100000000E-03 0. -1.
        -11    1    3    3    0    0  0.34422550772E+01  0.69806958834E+01 -0.27477816199E+01  0.82540619773E+01  0.51100000000E-03 0.  1.
        -12    1    3    3    0    0 -0.37877870794E+01  0.13226185027E+02  0.75833124067E+00  0.13778765097E+02  0.00000000000E+00 0.  1.
</event>
<event>
 7    1  0.8440037E-011  0.4778727E+02  0.7816164E-02  0.1312668E+00
        -11   -1    0    0    0    0  0.00000000000E+00  0.00000000000E+00  0.45593999997E+02  0.45594000000E+02  0.51100000000E-03 0. -1.
         11   -1    0    0    0    0 -0.00000000000E+00 -0.00000000000E+00 -0.45593999997E+02  0.45594000000E+02  0.51100000000E-03 0.  1.
    9900012    2    1    2    0    0  0.40244420941E+02  0.89539848259E+01  0.13558620416E+02  0.47787269031E+02  0.19999990818E+02 0.  0.
        -12    1    1    2    0    0 -0.40244420941E+02 -0.89539848259E+01 -0.13558620416E+02  0.43400730969E+02  0.00000000000E+00 0.  1.
         11    1    3    3    0    0  0.12432645460E+02 -0.13458718120E+01  0.90317193562E+01  0.15425757643E+02  0.51100000000E-03 0. -1.
        -11    1    3    3    0    0  0.21135434923E+02  0.19098770015E+01  0.17984659468E+01  0.21297622392E+02  0.51100000000E-03 0.  1.
        -12    1    3    3    0    0  0.66763405574E+01  0.83899796363E+01  0.27284351125E+01  0.11063888995E+02  0.00000000000E+00 0.  1.
</event>
<event>
 7    1  0.8440037E-011  0.4778726E+02  0.7816164E-02  0.1312668E+00
        -11   -1    0    0    0    0  0.00000000000E+00  0.00000000000E+00  0.45593999997E+02  0.45594000000E+02  0.51100000000E-03 0. -1.
         11   -1    0    0    0    0 -0.00000000000E+00 -0.00000000000E+00 -0.45593999997E+02  0.45594000000E+02  0.51100000000E-03 0.  1.
    9900012    2    1    2    0    0 -0.17028053818E+02  0.18040996680E+02  0.35611682429E+02  0.47787261487E+02  0.19999956424E+02 0.  0.
        -12    1    1    2    0    0  0.17028053818E+02 -0.18040996680E+02 -0.35611682429E+02  0.43400738513E+02  0.00000000000E+00 0.  1.
         11    1    3    3    0    0 -0.17099494978E+02  0.13339095774E+02  0.27306773595E+02  0.34870963408E+02  0.51100000000E-03 0. -1.
        -11    1    3    3    0    0 -0.13153047178E+01  0.12047741925E-01  0.79002515473E+01  0.80090040842E+01  0.51100000000E-03 0.  1.
        -12    1    3    3    0    0  0.13867458782E+01  0.46898531637E+01  0.40465728662E+00  0.49072939944E+01  0.00000000000E+00 0.  1.
</event>
<event>
 7    1  0.8440037E-011  0.4778726E+02  0.7816164E-02  0.1312668E+00
        -11   -1    0    0    0    0  0.00000000000E+00  0.00000000000E+00  0.45593999997E+02  0.45594000000E+02  0.51100000000E-03 0. -1.
         11   -1    0    0    0    0 -0.00000000000E+00 -0.00000000000E+00 -0.45593999997E+02  0.45594000000E+02  0.51100000000E-03 0.  1.
    9900012    2    1    2    0    0 -0.18864723139E+02 -0.14455412607E+02 -0.36315108978E+02  0.47787264144E+02  0.19999968538E+02 0.  0.
         12    1    1    2    0    0  0.18864723139E+02  0.14455412607E+02  0.36315108978E+02  0.43400735856E+02  0.00000000000E+00 0. -1.
         11    1    3    3    0    0 -0.86720499229E+01 -0.84928344236E+01 -0.20800773426E+02  0.24083290095E+02  0.51100000000E-03 0. -1.
        -11    1    3    3    0    0 -0.12963907196E+02 -0.46255954795E+01 -0.15357497730E+02  0.20623088035E+02  0.51100000000E-03 0.  1.
         12    1    3    3    0    0  0.27712339807E+01 -0.13369827035E+01 -0.15683782235E+00  0.30808860134E+01  0.00000000000E+00 0. -1.
</event>
<event>
 7    1  0.8440037E-011  0.4778727E+02  0.7816164E-02  0.1312668E+00
        -11   -1    0    0    0    0  0.00000000000E+00  0.00000000000E+00  0.45593999997E+02  0.45594000000E+02  0.51100000000E-03 0. -1.
         11   -1    0    0    0    0 -0.00000000000E+00 -0.00000000000E+00 -0.45593999997E+02  0.45594000000E+02  0.51100000000E-03 0.  1.
    9900012    2    1    2    0    0  0.17615920536E+02  0.26327917081E+02  0.29667210653E+02  0.47787271180E+02  0.20000000619E+02 0.  0.
        -12    1    1    2    0    0 -0.17615920536E+02 -0.26327917081E+02 -0.29667210653E+02  0.43400728820E+02  0.00000000000E+00 0.  1.
         11    1    3    3    0    0  0.60526484370E+01  0.44470054615E+01  0.78110640296E+01  0.10836195468E+02  0.51100000000E-03 0. -1.
        -11    1    3    3    0    0  0.11162853475E+02  0.42658665755E+01  0.66425352486E+01  0.13672241591E+02  0.51100000000E-03 0.  1.
        -12    1    3    3    0    0  0.40041862437E+00  0.17615045044E+02  0.15213611375E+02  0.23278834121E+02  0.00000000000E+00 0.  1.
</event>
<event>
 7    1  0.8440037E-011  0.4778727E+02  0.7816164E-02  0.1312668E+00
        -11   -1    0    0    0    0  0.00000000000E+00  0.00000000000E+00  0.45593999997E+02  0.45594000000E+02  0.51100000000E-03 0. -1.
         11   -1    0    0    0    0 -0.00000000000E+00 -0.00000000000E+00 -0.45593999997E+02  0.45594000000E+02  0.51100000000E-03 0.  1.
    9900012    2    1    2    0    0 -0.25069289149E+02 -0.20287234668E+02 -0.29044486124E+02  0.47787270477E+02  0.19999997413E+02 0.  0.
         12    1    1    2    0    0  0.25069289149E+02  0.20287234668E+02  0.29044486124E+02  0.43400729523E+02  0.00000000000E+00 0. -1.
         11    1    3    3    0    0 -0.12601472771E+02 -0.98097036539E+01 -0.90790875472E+01  0.18370009056E+02  0.51100000000E-03 0.  1.
        -11    1    3    3    0    0 -0.26239622157E+01 -0.97808520729E+01 -0.45229059063E+01  0.11090848619E+02  0.51100000000E-03 0. -1.
        -12    1    3    3    0    0 -0.98438541625E+01 -0.69667894089E+00 -0.15442492671E+02  0.18326412802E+02  0.00000000000E+00 0.  1.
</event>
<event>
 7    1  0.8440037E-011  0.4778727E+02  0.7816164E-02  0.1312668E+00
        -11   -1    0    0    0    0  0.00000000000E+00  0.00000000000E+00  0.45593999997E+02  0.45594000000E+02  0.51100000000E-03 0. -1.
         11   -1    0    0    0    0 -0.00000000000E+00 -0.00000000000E+00 -0.45593999997E+02  0.45594000000E+02  0.51100000000E-03 0.  1.
    9900012    2    1    2    0    0 -0.99435990784E+01  0.11908502124E+02 -0.40533145926E+02  0.47787268392E+02  0.19999987905E+02 0.  0.
         12    1    1    2    0    0  0.99435990784E+01 -0.11908502124E+02  0.40533145926E+02  0.43400731608E+02  0.00000000000E+00 0. -1.
         11    1    3    3    0    0 -0.62272589695E+01  0.66307925396E+01 -0.80574463595E+01  0.12151897221E+02  0.51100000000E-03 0. -1.
        -11    1    3    3    0    0 -0.77884721914E+01  0.50239045388E+01 -0.14549596970E+02  0.17250817028E+02  0.51100000000E-03 0.  1.
        -12    1    3    3    0    0  0.40721320825E+01  0.25380504590E+00 -0.17926102597E+02  0.18384554143E+02  0.00000000000E+00 0.  1.
</event>
<event>
 7    1  0.8440037E-011  0.4778727E+02  0.7816164E-02  0.1312668E+00
        -11   -1    0    0    0    0  0.00000000000E+00  0.00000000000E+00  0.45593999997E+02  0.45594000000E+02  0.51100000000E-03 0.  1.
         11   -1    0    0    0    0 -0.00000000000E+00 -0.00000000000E+00 -0.45593999997E+02  0.45594000000E+02  0.51100000000E-03 0. -1.
    9900012    2    1    2    0    0  0.28500011735E+02  0.30779101158E+02 -0.11136395763E+02  0.47787273652E+02  0.20000011887E+02 0.  0.
         12    1    1    2    0    0 -0.28500011735E+02 -0.30779101158E+02  0.11136395763E+02  0.43400726348E+02  0.00000000000E+00 0. -1.
         11    1    3    3    0    0  0.15787333981E+02  0.25693991315E+02 -0.78075249271E+01  0.31150899660E+02  0.51100000000E-03 0. -1.
        -11    1    3    3    0    0  0.10529299878E+02  0.71906534459E+01 -0.95761500596E+00  0.12786269185E+02  0.51100000000E-03 0.  1.
         12    1    3    3    0    0  0.21833778758E+01 -0.21055436024E+01 -0.23712558296E+01  0.38501048063E+01  0.00000000000E+00 0. -1.
</event>
<event>
 7    1  0.8440037E-011  0.4778727E+02  0.7816164E-02  0.1312668E+00
        -11   -1    0    0    0    0  0.00000000000E+00  0.00000000000E+00  0.45593999997E+02  0.45594000000E+02  0.51100000000E-03 0.  1.
         11   -1    0    0    0    0 -0.00000000000E+00 -0.00000000000E+00 -0.45593999997E+02  0.45594000000E+02  0.51100000000E-03 0. -1.
    9900012    2    1    2    0    0 -0.42418191249E+02  0.41512374186E+01  0.81907236330E+01  0.47787266429E+02  0.19999978954E+02 0.  0.
        -12    1    1    2    0    0  0.42418191249E+02 -0.41512374186E+01 -0.81907236330E+01  0.43400733571E+02  0.00000000000E+00 0.  1.
         11    1    3    3    0    0 -0.24022550647E+02 -0.29346627287E+01  0.23492347038E+01  0.24314894383E+02  0.51100000000E-03 0. -1.
        -11    1    3    3    0    0 -0.90905366665E+01 -0.20913914484E+00 -0.19664733414E+01  0.93031507421E+01  0.51100000000E-03 0.  1.
         12    1    3    3    0    0 -0.93051039353E+01  0.72950392921E+01  0.78079622706E+01  0.14169221303E+02  0.00000000000E+00 0. -1.
</event>
<event>
 7    1  0.8440037E-011  0.4778727E+02  0.7816164E-02  0.1312668E+00
        -11   -1    0    0    0    0  0.00000000000E+00  0.00000000000E+00  0.45593999997E+02  0.45594000000E+02  0.51100000000E-03 0. -1.
         11   -1    0    0    0    0 -0.00000000000E+00 -0.00000000000E+00 -0.45593999997E+02  0.45594000000E+02  0.51100000000E-03 0.  1.
    9900012    2    1    2    0    0  0.40899284364E+02  0.11561807299E+02 -0.87861357075E+01  0.47787273852E+02  0.20000012803E+02 0.  0.
         12    1    1    2    0    0 -0.40899284364E+02 -0.11561807299E+02  0.87861357075E+01  0.43400726148E+02  0.00000000000E+00 0. -1.
         11    1    3    3    0    0  0.54373798020E+01 -0.39850957588E+01 -0.29621583377E+01  0.73634550041E+01  0.51100000000E-03 0. -1.
        -11    1    3    3    0    0  0.16050945455E+02  0.10370094100E+02 -0.68708371246E+01  0.20307144179E+02  0.51100000000E-03 0.  1.
        -12    1    3    3    0    0  0.19410959107E+02  0.51768089577E+01  0.10468597548E+01  0.20116674670E+02  0.00000000000E+00 0.  1.
</event>
<event>
 7    1  0.8440037E-011  0.4778727E+02  0.7816164E-02  0.1312668E+00
        -11   -1    0    0    0    0  0.00000000000E+00  0.00000000000E+00  0.45593999997E+02  0.45594000000E+02  0.51100000000E-03 0. -1.
         11   -1    0    0    0    0 -0.00000000000E+00 -0.00000000000E+00 -0.45593999997E+02  0.45594000000E+02  0.51100000000E-03 0.  1.
    9900012    2    1    2    0    0  0.33783639278E+02  0.10616017595E+02 -0.25091618750E+02  0.47787269085E+02  0.19999991068E+02 0.  0.
         12    1    1    2    0    0 -0.33783639278E+02 -0.10616017595E+02  0.25091618750E+02  0.43400730915E+02  0.00000000000E+00 0. -1.
         11    1    3    3    0    0  0.97296405545E+01  0.75286410958E+01 -0.14577781994E+01  0.12388359843E+02  0.51100000000E-03 0. -1.
        -11    1    3    3    0    0  0.42665894351E+01 -0.96965874603E+00 -0.88082149837E-01  0.43762749248E+01  0.51100000000E-03 0.  1.
        -12    1    3    3    0    0  0.19787409288E+02  0.40570352451E+01 -0.23545758401E+02  0.31022634317E+02  0.00000000000E+00 0.  1.
</event>
<event>
 7    1  0.8440037E-011  0.4778727E+02  0.7816164E-02  0.1312668E+00
        -11   -1    0    0    0    0  0.00000000000E+00  0.00000000000E+00  0.45593999997E+02  0.45594000000E+02  0.51100000000E-03 0. -1.
         11   -1    0    0    0    0 -0.00000000000E+00 -0.00000000000E+00 -0.45593999997E+02  0.45594000000E+02  0.51100000000E-03 0.  1.
    9900012    2    1    2    0    0  0.12777430282E+02 -0.21513233710E+01 -0.41421398541E+02  0.47787272196E+02  0.20000005249E+02 0.  0.
         12    1    1    2    0    0 -0.12777430282E+02  0.21513233710E+01  0.41421398541E+02  0.43400727804E+02  0.00000000000E+00 0. -1.
         11    1    3    3    0    0  0.37627580484E+01 -0.62572066522E+01 -0.14753389662E+02  0.16461272430E+02  0.51100000000E-03 0. -1.
        -11    1    3    3    0    0  0.97765130188E+01 -0.77831928860E+00 -0.10276664684E+02  0.14205485737E+02  0.51100000000E-03 0.  1.
         12    1    3    3    0    0 -0.76184078483E+00  0.48842025698E+01 -0.16391344195E+02  0.17120514029E+02  0.00000000000E+00 0. -1.
</event>
<event>
 7    1  0.8440037E-011  0.4778727E+02  0.7816164E-02  0.1312668E+00
        -11   -1    0    0    0    0  0.00000000000E+00  0.00000000000E+00  0.45593999997E+02  0.45594000000E+02  0.51100000000E-03 0. -1.
         11   -1    0    0    0    0 -0.00000000000E+00 -0.00000000000E+00 -0.45593999997E+02  0.45594000000E+02  0.51100000000E-03 0.  1.
    9900012    2    1    2    0    0  0.33420244269E+02  0.27083004710E+02  0.57637996417E+01  0.47787271234E+02  0.20000000865E+02 0.  0.
        -12    1    1    2    0    0 -0.33420244269E+02 -0.27083004710E+02 -0.57637996417E+01  0.43400728766E+02  0.00000000000E+00 0.  1.
         11    1    3    3    0    0  0.39903512996E+01  0.16562226091E+01  0.47665081324E+01  0.64331622755E+01  0.51100000000E-03 0. -1.
        -11    1    3    3    0    0  0.34730969543E+01  0.99970229391E+01 -0.27267489670E+01  0.10928770758E+02  0.51100000000E-03 0.  1.
         12    1    3    3    0    0  0.25956796015E+02  0.15429759161E+02  0.37240404763E+01  0.30425338200E+02  0.00000000000E+00 0. -1.
</event>
<event>
 7    1  0.8440037E-011  0.4778727E+02  0.7816164E-02  0.1312668E+00
        -11   -1    0    0    0    0  0.00000000000E+00  0.00000000000E+00  0.45593999997E+02  0.45594000000E+02  0.51100000000E-03 0. -1.
         11   -1    0    0    0    0 -0.00000000000E+00 -0.00000000000E+00 -0.45593999997E+02  0.45594000000E+02  0.51100000000E-03 0.  1.
    9900012    2    1    2    0    0  0.23736001295E+02 -0.92464563016E+01  0.35138703143E+02  0.47787272239E+02  0.20000005445E+02 0.  0.
        -12    1    1    2    0    0 -0.23736001295E+02  0.92464563016E+01 -0.35138703143E+02  0.43400727761E+02  0.00000000000E+00 0.  1.
         11    1    3    3    0    0  0.15005402486E+02 -0.11153661344E+02  0.19092544253E+02  0.26722490742E+02  0.51100000000E-03 0. -1.
        -11    1    3    3    0    0  0.97214065362E+01  0.35998475460E+00  0.73924066420E+01  0.12218142669E+02  0.51100000000E-03 0.  1.
         12    1    3    3    0    0 -0.99080772724E+00  0.15472202874E+01  0.86537522486E+01  0.88466388278E+01  0.00000000000E+00 0. -1.
</event>
<event>
 7    1  0.8440037E-011  0.4778727E+02  0.7816164E-02  0.1312668E+00
        -11   -1    0    0    0    0  0.00000000000E+00  0.00000000000E+00  0.45593999997E+02  0.45594000000E+02  0.51100000000E-03 0. -1.
         11   -1    0    0    0    0 -0.00000000000E+00 -0.00000000000E+00 -0.45593999997E+02  0.45594000000E+02  0.51100000000E-03 0.  1.
    9900012    2    1    2    0    0  0.15469450145E+02 -0.38825154205E+01 -0.40363913228E+02  0.47787270688E+02  0.19999998375E+02 0.  0.
         12    1    1    2    0    0 -0.15469450145E+02  0.38825154205E+01  0.40363913228E+02  0.43400729312E+02  0.00000000000E+00 0. -1.
         11    1    3    3    0    0  0.28089283627E+01  0.14372293882E+01 -0.68903505382E+01  0.75784324013E+01  0.51100000000E-03 0. -1.
        -11    1    3    3    0    0  0.15656480608E+02 -0.55719023387E+01 -0.18214621005E+02  0.24656518394E+02  0.51100000000E-03 0.  1.
        -12    1    3    3    0    0 -0.29959588262E+01  0.25215753005E+00 -0.15258941684E+02  0.15552319892E+02  0.00000000000E+00 0.  1.
</event>
<event>
 7    1  0.8440037E-011  0.4778727E+02  0.7816164E-02  0.1312668E+00
        -11   -1    0    0    0    0  0.00000000000E+00  0.00000000000E+00  0.45593999997E+02  0.45594000000E+02  0.51100000000E-03 0. -1.
         11   -1    0    0    0    0 -0.00000000000E+00 -0.00000000000E+00 -0.45593999997E+02  0.45594000000E+02  0.51100000000E-03 0.  1.
    9900012    2    1    2    0    0  0.14079800628E+02 -0.38100261420E+02  0.15288960929E+02  0.47787273828E+02  0.20000012691E+02 0.  0.
        -12    1    1    2    0    0 -0.14079800628E+02  0.38100261420E+02 -0.15288960929E+02  0.43400726172E+02  0.00000000000E+00 0.  1.
         11    1    3    3    0    0  0.84546879029E+01 -0.12353279546E+02  0.76010898329E+01  0.16788741168E+02  0.51100000000E-03 0. -1.
        -11    1    3    3    0    0  0.38088340811E+01 -0.92561213953E+01  0.10116445114E+02  0.14231144098E+02  0.51100000000E-03 0.  1.
        -12    1    3    3    0    0  0.18162786444E+01 -0.16490860478E+02 -0.24285740180E+01  0.16767388562E+02  0.00000000000E+00 0.  1.
</event>
<event>
 7    1  0.8440037E-011  0.4778727E+02  0.7816164E-02  0.1312668E+00
        -11   -1    0    0    0    0  0.00000000000E+00  0.00000000000E+00  0.45593999997E+02  0.45594000000E+02  0.51100000000E-03 0. -1.
         11   -1    0    0    0    0 -0.00000000000E+00 -0.00000000000E+00 -0.45593999997E+02  0.45594000000E+02  0.51100000000E-03 0.  1.
    9900012    2    1    2    0    0 -0.42852471785E+02 -0.52638149752E+01  0.44250513671E+01  0.47787272290E+02  0.20000005678E+02 0.  0.
         12    1    1    2    0    0  0.42852471785E+02  0.52638149752E+01 -0.44250513671E+01  0.43400727710E+02  0.00000000000E+00 0. -1.
         11    1    3    3    0    0 -0.99182850230E+01 -0.53305110662E+00 -0.34169191991E+01  0.10503897294E+02  0.51100000000E-03 0. -1.
        -11    1    3    3    0    0 -0.97627016397E+01  0.53997706280E+01  0.21601375105E+01  0.11363716842E+02  0.51100000000E-03 0.  1.
         12    1    3    3    0    0 -0.23171485122E+02 -0.10130534496E+02  0.56818330557E+01  0.25919658154E+02  0.00000000000E+00 0. -1.
</event>
<event>
 7    1  0.8440037E-011  0.4778731E+02  0.7816164E-02  0.1312668E+00
        -11   -1    0    0    0    0  0.00000000000E+00  0.00000000000E+00  0.45593999997E+02  0.45594000000E+02  0.51100000000E-03 0. -1.
         11   -1    0    0    0    0 -0.00000000000E+00 -0.00000000000E+00 -0.45593999997E+02  0.45594000000E+02  0.51100000000E-03 0.  1.
    9900012    2    1    2    0    0 -0.26585984005E+02 -0.17516039912E+02 -0.29495654026E+02  0.47787310995E+02  0.20000182150E+02 0.  0.
         12    1    1    2    0    0  0.26585984005E+02  0.17516039912E+02  0.29495654026E+02  0.43400689005E+02  0.00000000000E+00 0. -1.
         11    1    3    3    0    0 -0.12359175513E+01 -0.33529826014E+01 -0.13794373915E+01  0.38305133203E+01  0.51100000000E-03 0. -1.
        -11    1    3    3    0    0 -0.14421045183E+02  0.78403100514E+00 -0.75986639600E+01  0.16319342604E+02  0.51100000000E-03 0.  1.
        -12    1    3    3    0    0 -0.10929021270E+02 -0.14947088316E+02 -0.20517552674E+02  0.27637455071E+02  0.00000000000E+00 0.  1.
</event>
<event>
 7    1  0.8440037E-011  0.4778727E+02  0.7816164E-02  0.1312668E+00
        -11   -1    0    0    0    0  0.00000000000E+00  0.00000000000E+00  0.45593999997E+02  0.45594000000E+02  0.51100000000E-03 0. -1.
         11   -1    0    0    0    0 -0.00000000000E+00 -0.00000000000E+00 -0.45593999997E+02  0.45594000000E+02  0.51100000000E-03 0.  1.
    9900012    2    1    2    0    0 -0.62787130985E+01 -0.30284710153E+02 -0.30447289481E+02  0.47787270237E+02  0.19999996319E+02 0.  0.
         12    1    1    2    0    0  0.62787130985E+01  0.30284710153E+02  0.30447289481E+02  0.43400729763E+02  0.00000000000E+00 0. -1.
         11    1    3    3    0    0 -0.22344649319E+01  0.77198631279E-01 -0.10322394522E+01  0.24625823252E+01  0.51100000000E-03 0. -1.
        -11    1    3    3    0    0 -0.28495782637E+01 -0.15885451213E+02 -0.49653272212E+01  0.16885559843E+02  0.51100000000E-03 0.  1.
         12    1    3    3    0    0 -0.11946699029E+01 -0.14476457571E+02 -0.24449722807E+02  0.28439128069E+02  0.00000000000E+00 0. -1.
</event>
<event>
 7    1  0.8440037E-011  0.4778727E+02  0.7816164E-02  0.1312668E+00
        -11   -1    0    0    0    0  0.00000000000E+00  0.00000000000E+00  0.45593999997E+02  0.45594000000E+02  0.51100000000E-03 0. -1.
         11   -1    0    0    0    0 -0.00000000000E+00 -0.00000000000E+00 -0.45593999997E+02  0.45594000000E+02  0.51100000000E-03 0.  1.
    9900012    2    1    2    0    0 -0.27678080935E+02  0.24763708464E+02  0.22456756801E+02  0.47787270200E+02  0.19999996149E+02 0.  0.
        -12    1    1    2    0    0  0.27678080935E+02 -0.24763708464E+02 -0.22456756801E+02  0.43400729800E+02  0.00000000000E+00 0.  1.
         11    1    3    3    0    0 -0.22496140111E+02  0.18620040262E+02  0.17613905011E+02  0.34103253060E+02  0.51100000000E-03 0. -1.
        -11    1    3    3    0    0 -0.72858661849E+01  0.54393566309E+01  0.62712262983E+01  0.11045303353E+02  0.51100000000E-03 0.  1.
        -12    1    3    3    0    0  0.21039253607E+01  0.70431157172E+00 -0.14283745083E+01  0.26387137870E+01  0.00000000000E+00 0.  1.
</event>
<event>
 7    1  0.8440037E-011  0.4778725E+02  0.7816164E-02  0.1312668E+00
        -11   -1    0    0    0    0  0.00000000000E+00  0.00000000000E+00  0.45593999997E+02  0.45594000000E+02  0.51100000000E-03 0.  1.
         11   -1    0    0    0    0 -0.00000000000E+00 -0.00000000000E+00 -0.45593999997E+02  0.45594000000E+02  0.51100000000E-03 0. -1.
    9900012    2    1    2    0    0  0.22324428331E+02 -0.33370348441E+02  0.16482269660E+02  0.47787245761E+02  0.19999884723E+02 0.  0.
        -12    1    1    2    0    0 -0.22324428331E+02  0.33370348441E+02 -0.16482269660E+02  0.43400754239E+02  0.00000000000E+00 0.  1.
         11    1    3    3    0    0  0.16542387612E+02 -0.24880290265E+02  0.15140286728E+02  0.33494890865E+02  0.51100000000E-03 0. -1.
        -11    1    3    3    0    0  0.60307329633E+01 -0.46554351546E+01  0.48976247110E+01  0.90570163203E+01  0.51100000000E-03 0.  1.
        -12    1    3    3    0    0 -0.24869224401E+00 -0.38346230208E+01 -0.35556417790E+01  0.52353385760E+01  0.00000000000E+00 0.  1.
</event>
<event>
 7    1  0.1209117E-010  0.4778727E+02  0.7816164E-02  0.1312668E+00
        -11   -1    0    0    0    0  0.00000000000E+00  0.00000000000E+00  0.45593999997E+02  0.45594000000E+02  0.51100000000E-03 0. -1.
         11   -1    0    0    0    0 -0.00000000000E+00 -0.00000000000E+00 -0.45593999997E+02  0.45594000000E+02  0.51100000000E-03 0.  1.
    9900012    2    1    2    0    0 -0.24203165317E+02 -0.11162763686E+02  0.34252338562E+02  0.47787271878E+02  0.20000003803E+02 0.  0.
        -12    1    1    2    0    0  0.24203165317E+02  0.11162763686E+02 -0.34252338562E+02  0.43400728122E+02  0.00000000000E+00 0.  1.
         11    1    3    3    0    0 -0.48899068178E+01  0.31101274879E+01  0.16250409407E+02  0.17252822605E+02  0.51100000000E-03 0. -1.
        -11    1    3    3    0    0 -0.19917562630E+01 -0.30023804795E+01  0.90855804153E+00  0.37157582713E+01  0.51100000000E-03 0.  1.
         12    1    3    3    0    0 -0.17321502236E+02 -0.11270510695E+02  0.17093371114E+02  0.26818691002E+02  0.00000000000E+00 0. -1.
</event>
<event>
 7    1  0.8440037E-011  0.4778727E+02  0.7816164E-02  0.1312668E+00
        -11   -1    0    0    0    0  0.00000000000E+00  0.00000000000E+00  0.45593999997E+02  0.45594000000E+02  0.51100000000E-03 0. -1.
         11   -1    0    0    0    0 -0.00000000000E+00 -0.00000000000E+00 -0.45593999997E+02  0.45594000000E+02  0.51100000000E-03 0.  1.
    9900012    2    1    2    0    0  0.85454194404E+01 -0.30575465668E+02  0.29592905151E+02  0.47787270403E+02  0.19999997077E+02 0.  0.
        -12    1    1    2    0    0 -0.85454194404E+01  0.30575465668E+02 -0.29592905151E+02  0.43400729597E+02  0.00000000000E+00 0.  1.
         11    1    3    3    0    0  0.42758611601E+01 -0.86984028624E+01  0.50820740314E-01  0.96926665075E+01  0.51100000000E-03 0. -1.
        -11    1    3    3    0    0  0.17421512397E+01 -0.24282065689E+01  0.98849700645E+01  0.10326853902E+02  0.51100000000E-03 0.  1.
        -12    1    3    3    0    0  0.25274070405E+01 -0.19448856237E+02  0.19657114346E+02  0.27767749993E+02  0.00000000000E+00 0.  1.
</event>
<event>
 7    1  0.8440037E-011  0.4778727E+02  0.7816164E-02  0.1312668E+00
        -11   -1    0    0    0    0  0.00000000000E+00  0.00000000000E+00  0.45593999997E+02  0.45594000000E+02  0.51100000000E-03 0. -1.
         11   -1    0    0    0    0 -0.00000000000E+00 -0.00000000000E+00 -0.45593999997E+02  0.45594000000E+02  0.51100000000E-03 0.  1.
    9900012    2    1    2    0    0 -0.68317638141E+01 -0.70965929073E+01  0.42268059913E+02  0.47787268250E+02  0.19999987257E+02 0.  0.
        -12    1    1    2    0    0  0.68317638141E+01  0.70965929073E+01 -0.42268059913E+02  0.43400731750E+02  0.00000000000E+00 0.  1.
         11    1    3    3    0    0  0.29482377763E+01 -0.56988544320E+00  0.24628015342E+02  0.24810401354E+02  0.51100000000E-03 0. -1.
        -11    1    3    3    0    0 -0.33232464405E+01 -0.40438713489E+01  0.14431378409E+02  0.15351271786E+02  0.51100000000E-03 0.  1.
        -12    1    3    3    0    0 -0.64567551499E+01 -0.24828361152E+01  0.32086661612E+01  0.76255951096E+01  0.00000000000E+00 0.  1.
</event>
<event>
 7    1  0.8440037E-011  0.4778727E+02  0.7816164E-02  0.1312668E+00
        -11   -1    0    0    0    0  0.00000000000E+00  0.00000000000E+00  0.45593999997E+02  0.45594000000E+02  0.51100000000E-03 0. -1.
         11   -1    0    0    0    0 -0.00000000000E+00 -0.00000000000E+00 -0.45593999997E+02  0.45594000000E+02  0.51100000000E-03 0.  1.
    9900012    2    1    2    0    0 -0.34054361149E+02  0.22266861325E+01 -0.26813528917E+02  0.47787274460E+02  0.20000015574E+02 0.  0.
         12    1    1    2    0    0  0.34054361149E+02 -0.22266861325E+01  0.26813528917E+02  0.43400725540E+02  0.00000000000E+00 0. -1.
         11    1    3    3    0    0  0.30381853187E+00  0.28125231212E+01 -0.34695256996E+01  0.44766282902E+01  0.51100000000E-03 0. -1.
        -11    1    3    3    0    0  0.36286689778E+00  0.12242992345E+00  0.88591275217E+00  0.96514410180E+00  0.51100000000E-03 0.  1.
        -12    1    3    3    0    0 -0.34721046579E+02 -0.70826691215E+00 -0.24229915970E+02  0.42345502068E+02  0.00000000000E+00 0.  1.
</event>
<event>
 7    1  0.8440037E-011  0.4778727E+02  0.7816164E-02  0.1312668E+00
        -11   -1    0    0    0    0  0.00000000000E+00  0.00000000000E+00  0.45593999997E+02  0.45594000000E+02  0.51100000000E-03 0. -1.
         11   -1    0    0    0    0 -0.00000000000E+00 -0.00000000000E+00 -0.45593999997E+02  0.45594000000E+02  0.51100000000E-03 0.  1.
    9900012    2    1    2    0    0  0.91072516058E+01 -0.52300589934E+01 -0.42110896857E+02  0.47787272092E+02  0.20000004774E+02 0.  0.
         12    1    1    2    0    0 -0.91072516058E+01  0.52300589934E+01  0.42110896857E+02  0.43400727908E+02  0.00000000000E+00 0. -1.
         11    1    3    3    0    0  0.10754347337E+01 -0.20803445995E+01 -0.20153209992E+02  0.20288821227E+02  0.51100000000E-03 0. -1.
        -11    1    3    3    0    0 -0.38810739664E+01 -0.23518576867E+00 -0.81536225979E+01  0.90332502019E+01  0.51100000000E-03 0.  1.
         12    1    3    3    0    0  0.11912890838E+02 -0.29145286252E+01 -0.13804064267E+02  0.18465200663E+02  0.00000000000E+00 0. -1.
</event>
<event>
 7    1  0.8440037E-011  0.4778727E+02  0.7816164E-02  0.1312668E+00
        -11   -1    0    0    0    0  0.00000000000E+00  0.00000000000E+00  0.45593999997E+02  0.45594000000E+02  0.51100000000E-03 0. -1.
         11   -1    0    0    0    0 -0.00000000000E+00 -0.00000000000E+00 -0.45593999997E+02  0.45594000000E+02  0.51100000000E-03 0.  1.
    9900012    2    1    2    0    0 -0.92985840771E+01 -0.59818068896E+01  0.41968770320E+02  0.47787270033E+02  0.19999995387E+02 0.  0.
        -12    1    1    2    0    0  0.92985840771E+01  0.59818068896E+01 -0.41968770320E+02  0.43400729967E+02  0.00000000000E+00 0.  1.
         11    1    3    3    0    0  0.15743128735E+00 -0.36600144133E+01  0.78518238273E+01  0.86643884834E+01  0.51100000000E-03 0. -1.
        -11    1    3    3    0    0 -0.12540925328E+02 -0.26261880106E+01  0.33625896269E+02  0.35984337867E+02  0.51100000000E-03 0.  1.
        -12    1    3    3    0    0  0.30849099634E+01  0.30439553432E+00  0.49105022371E+00  0.31385436823E+01  0.00000000000E+00 0.  1.
</event>
<event>
 7    1  0.8440037E-011  0.4778727E+02  0.7816164E-02  0.1312668E+00
        -11   -1    0    0    0    0  0.00000000000E+00  0.00000000000E+00  0.45593999997E+02  0.45594000000E+02  0.51100000000E-03 0. -1.
         11   -1    0    0    0    0 -0.00000000000E+00 -0.00000000000E+00 -0.45593999997E+02  0.45594000000E+02  0.51100000000E-03 0.  1.
    9900012    2    1    2    0    0  0.45494560966E+01 -0.23497381806E+02  0.36204956497E+02  0.47787269851E+02  0.19999994559E+02 0.  0.
        -12    1    1    2    0    0 -0.45494560966E+01  0.23497381806E+02 -0.36204956497E+02  0.43400730149E+02  0.00000000000E+00 0.  1.
         11    1    3    3    0    0 -0.53419037380E+00 -0.89369991043E+01  0.18665841541E+02  0.20701906991E+02  0.51100000000E-03 0. -1.
        -11    1    3    3    0    0  0.69525057805E+00  0.39050745997E-01  0.10097190654E+02  0.10121173731E+02  0.51100000000E-03 0.  1.
         12    1    3    3    0    0  0.43883958923E+01 -0.14599433448E+02  0.74419243018E+01  0.16964189130E+02  0.00000000000E+00 0. -1.
</event>
<event>
 7    1  0.8440037E-011  0.4778727E+02  0.7816164E-02  0.1312668E+00
        -11   -1    0    0    0    0  0.00000000000E+00  0.00000000000E+00  0.45593999997E+02  0.45594000000E+02  0.51100000000E-03 0. -1.
         11   -1    0    0    0    0 -0.00000000000E+00 -0.00000000000E+00 -0.45593999997E+02  0.45594000000E+02  0.51100000000E-03 0.  1.
    9900012    2    1    2    0    0  0.32589764108E+01 -0.31054542855E+02  0.30143285185E+02  0.47787271885E+02  0.20000003834E+02 0.  0.
        -12    1    1    2    0    0 -0.32589764108E+01  0.31054542855E+02 -0.30143285185E+02  0.43400728115E+02  0.00000000000E+00 0.  1.
         11    1    3    3    0    0 -0.11641887472E+01 -0.10486306613E+02  0.70568926842E+01  0.12693214582E+02  0.51100000000E-03 0. -1.
        -11    1    3    3    0    0  0.43289766750E+00 -0.21521937826E+02  0.15695248157E+02  0.26640608535E+02  0.51100000000E-03 0.  1.
        -12    1    3    3    0    0  0.39902674905E+01  0.95370158388E+00  0.73911443440E+01  0.84534487678E+01  0.00000000000E+00 0.  1.
</event>
<event>
 7    1  0.8440037E-011  0.4778727E+02  0.7816164E-02  0.1312668E+00
        -11   -1    0    0    0    0  0.00000000000E+00  0.00000000000E+00  0.45593999997E+02  0.45594000000E+02  0.51100000000E-03 0. -1.
         11   -1    0    0    0    0 -0.00000000000E+00 -0.00000000000E+00 -0.45593999997E+02  0.45594000000E+02  0.51100000000E-03 0.  1.
    9900012    2    1    2    0    0 -0.33981193206E+02  0.93866505507E+01  0.25313883420E+02  0.47787269660E+02  0.19999993689E+02 0.  0.
        -12    1    1    2    0    0  0.33981193206E+02 -0.93866505507E+01 -0.25313883420E+02  0.43400730340E+02  0.00000000000E+00 0.  1.
         11    1    3    3    0    0 -0.14913014877E+02 -0.96317264367E+00  0.85407503188E+01  0.17212499253E+02  0.51100000000E-03 0. -1.
        -11    1    3    3    0    0 -0.53412760476E+01 -0.18450824715E+01  0.90190379096E+01  0.10643148229E+02  0.51100000000E-03 0.  1.
         12    1    3    3    0    0 -0.13726902281E+02  0.12194905666E+02  0.77540951913E+01  0.19931622179E+02  0.00000000000E+00 0. -1.
</event>
<event>
 7    1  0.8440037E-011  0.4778729E+02  0.7816164E-02  0.1312668E+00
        -11   -1    0    0    0    0  0.00000000000E+00  0.00000000000E+00  0.45593999997E+02  0.45594000000E+02  0.51100000000E-03 0.  1.
         11   -1    0    0    0    0 -0.00000000000E+00 -0.00000000000E+00 -0.45593999997E+02  0.45594000000E+02  0.51100000000E-03 0. -1.
    9900012    2    1    2    0    0 -0.19329354095E+02 -0.38596135996E+02  0.45095629386E+01  0.47787288007E+02  0.20000077340E+02 0.  0.
        -12    1    1    2    0    0  0.19329354095E+02  0.38596135996E+02 -0.45095629386E+01  0.43400711993E+02  0.00000000000E+00 0.  1.
         11    1    3    3    0    0 -0.21649365742E+01 -0.93804048479E+00 -0.25099784527E+01  0.34448312608E+01  0.51100000000E-03 0. -1.
        -11    1    3    3    0    0 -0.12555799931E+01 -0.22876606886E+01  0.48389047760E+01  0.54977151834E+01  0.51100000000E-03 0.  1.
         12    1    3    3    0    0 -0.15908837528E+02 -0.35370434823E+02  0.21806366153E+01  0.38844741563E+02  0.00000000000E+00 0. -1.
</event>
<event>
 7    1  0.8440037E-011  0.4778727E+02  0.7816164E-02  0.1312668E+00
        -11   -1    0    0    0    0  0.00000000000E+00  0.00000000000E+00  0.45593999997E+02  0.45594000000E+02  0.51100000000E-03 0.  1.
         11   -1    0    0    0    0 -0.00000000000E+00 -0.00000000000E+00 -0.45593999997E+02  0.45594000000E+02  0.51100000000E-03 0. -1.
    9900012    2    1    2    0    0 -0.42234247592E+01 -0.42779402258E+02 -0.59756827366E+01  0.47787270071E+02  0.19999995560E+02 0.  0.
         12    1    1    2    0    0  0.42234247592E+01  0.42779402258E+02  0.59756827366E+01  0.43400729929E+02  0.00000000000E+00 0. -1.
         11    1    3    3    0    0  0.99927598143E+00 -0.28247154942E+00  0.93608681579E+00  0.13980706174E+01  0.51100000000E-03 0. -1.
        -11    1    3    3    0    0  0.38257657965E+01 -0.29852919805E+02 -0.67281957107E+01  0.30839940379E+02  0.51100000000E-03 0.  1.
         12    1    3    3    0    0 -0.90484665371E+01 -0.12644010903E+02 -0.18357384164E+00  0.15549259074E+02  0.00000000000E+00 0. -1.
</event>
<event>
 7    1  0.8440037E-011  0.4778727E+02  0.7816164E-02  0.1312668E+00
        -11   -1    0    0    0    0  0.00000000000E+00  0.00000000000E+00  0.45593999997E+02  0.45594000000E+02  0.51100000000E-03 0. -1.
         11   -1    0    0    0    0 -0.00000000000E+00 -0.00000000000E+00 -0.45593999997E+02  0.45594000000E+02  0.51100000000E-03 0.  1.
    9900012    2    1    2    0    0 -0.32187027898E+02 -0.10897383327E+02 -0.26997507008E+02  0.47787272899E+02  0.20000008457E+02 0.  0.
         12    1    1    2    0    0  0.32187027898E+02  0.10897383327E+02  0.26997507008E+02  0.43400727101E+02  0.00000000000E+00 0. -1.
         11    1    3    3    0    0 -0.98649009924E+01 -0.62261671777E+01 -0.74576379445E+01  0.13845497221E+02  0.51100000000E-03 0.  1.
        -11    1    3    3    0    0 -0.17447664729E+02 -0.67420352804E+01 -0.21312743869E+02  0.28356817446E+02  0.51100000000E-03 0. -1.
         12    1    3    3    0    0 -0.48744621762E+01  0.20708191308E+01  0.17728748055E+01  0.55849582323E+01  0.00000000000E+00 0. -1.
</event>
<event>
 7    1  0.8440037E-011  0.4778726E+02  0.7816164E-02  0.1312668E+00
        -11   -1    0    0    0    0  0.00000000000E+00  0.00000000000E+00  0.45593999997E+02  0.45594000000E+02  0.51100000000E-03 0.  1.
         11   -1    0    0    0    0 -0.00000000000E+00 -0.00000000000E+00 -0.45593999997E+02  0.45594000000E+02  0.51100000000E-03 0. -1.
    9900012    2    1    2    0    0  0.29467014025E+02  0.31386800203E+02  0.54943864529E+01  0.47787257782E+02  0.19999939533E+02 0.  0.
         12    1    1    2    0    0 -0.29467014025E+02 -0.31386800203E+02 -0.54943864529E+01  0.43400742218E+02  0.00000000000E+00 0. -1.
         11    1    3    3    0    0  0.43569253469E+01  0.26479956595E+01 -0.20016475347E+01  0.54773417462E+01  0.51100000000E-03 0. -1.
        -11    1    3    3    0    0  0.27076417175E+02  0.28827433035E+02  0.78200806622E+01  0.40315095489E+02  0.51100000000E-03 0.  1.
        -12    1    3    3    0    0 -0.19663284973E+01 -0.88628491249E-01 -0.32404667463E+00  0.19948205473E+01  0.00000000000E+00 0.  1.
</event>
<event>
 7    1  0.8440037E-011  0.4778727E+02  0.7816164E-02  0.1312668E+00
        -11   -1    0    0    0    0  0.00000000000E+00  0.00000000000E+00  0.45593999997E+02  0.45594000000E+02  0.51100000000E-03 0. -1.
         11   -1    0    0    0    0 -0.00000000000E+00 -0.00000000000E+00 -0.45593999997E+02  0.45594000000E+02  0.51100000000E-03 0.  1.
    9900012    2    1    2    0    0 -0.24360821509E+02  0.18355635801E+01  0.35872062307E+02  0.47787265300E+02  0.19999973811E+02 0.  0.
        -12    1    1    2    0    0  0.24360821509E+02 -0.18355635801E+01 -0.35872062307E+02  0.43400734700E+02  0.00000000000E+00 0.  1.
         11    1    3    3    0    0 -0.80652865678E+01  0.22499153314E+01  0.11439644294E+02  0.14176615543E+02  0.51100000000E-03 0. -1.
        -11    1    3    3    0    0 -0.60548366621E+01  0.21939380321E+01 -0.57141168751E+00  0.64653633054E+01  0.51100000000E-03 0.  1.
         12    1    3    3    0    0 -0.10240698280E+02 -0.26082897834E+01  0.25003829701E+02  0.27145286452E+02  0.00000000000E+00 0. -1.
</event>
<event>
 7    1  0.9663325E-011  0.4778727E+02  0.7816164E-02  0.1312668E+00
        -11   -1    0    0    0    0  0.00000000000E+00  0.00000000000E+00  0.45593999997E+02  0.45594000000E+02  0.51100000000E-03 0. -1.
         11   -1    0    0    0    0 -0.00000000000E+00 -0.00000000000E+00 -0.45593999997E+02  0.45594000000E+02  0.51100000000E-03 0.  1.
    9900012    2    1    2    0    0 -0.28784644463E+02 -0.21809523550E+02  0.24070978495E+02  0.47787273278E+02  0.20000010182E+02 0.  0.
        -12    1    1    2    0    0  0.28784644463E+02  0.21809523550E+02 -0.24070978495E+02  0.43400726722E+02  0.00000000000E+00 0.  1.
         11    1    3    3    0    0 -0.38609922224E-01 -0.63674398436E+01  0.89491179140E+00  0.64301359444E+01  0.51100000000E-03 0. -1.
        -11    1    3    3    0    0 -0.68935291718E+01 -0.40155483458E+00  0.14225700218E+01  0.70502266953E+01  0.51100000000E-03 0.  1.
         12    1    3    3    0    0 -0.21852505369E+02 -0.15040528872E+02  0.21753496681E+02  0.34306910638E+02  0.00000000000E+00 0. -1.
</event>
<event>
 7    1  0.8440037E-011  0.4778726E+02  0.7816164E-02  0.1312668E+00
        -11   -1    0    0    0    0  0.00000000000E+00  0.00000000000E+00  0.45593999997E+02  0.45594000000E+02  0.51100000000E-03 0.  1.
         11   -1    0    0    0    0 -0.00000000000E+00 -0.00000000000E+00 -0.45593999997E+02  0.45594000000E+02  0.51100000000E-03 0. -1.
    9900012    2    1    2    0    0 -0.38515276859E+02  0.12547325216E+02  0.15580841937E+02  0.47787256262E+02  0.19999932599E+02 0.  0.
        -12    1    1    2    0    0  0.38515276859E+02 -0.12547325216E+02 -0.15580841937E+02  0.43400743738E+02  0.00000000000E+00 0.  1.
         11    1    3    3    0    0 -0.19033713151E+02 -0.15996839162E+01  0.41999810090E+01  0.19557123144E+02  0.51100000000E-03 0. -1.
        -11    1    3    3    0    0 -0.61219417016E+01  0.64558452349E-01  0.46395434758E+01  0.76816470835E+01  0.51100000000E-03 0.  1.
        -12    1    3    3    0    0 -0.13359622007E+02  0.14082450680E+02  0.67413174523E+01  0.20548486034E+02  0.00000000000E+00 0.  1.
</event>
<event>
 7    1  0.8440037E-011  0.4778726E+02  0.7816164E-02  0.1312668E+00
        -11   -1    0    0    0    0  0.00000000000E+00  0.00000000000E+00  0.45593999997E+02  0.45594000000E+02  0.51100000000E-03 0. -1.
         11   -1    0    0    0    0 -0.00000000000E+00 -0.00000000000E+00 -0.45593999997E+02  0.45594000000E+02  0.51100000000E-03 0.  1.
    9900012    2    1    2    0    0 -0.23095127055E+02 -0.18826847940E+01 -0.36697336688E+02  0.47787263650E+02  0.19999966285E+02 0.  0.
         12    1    1    2    0    0  0.23095127055E+02  0.18826847940E+01  0.36697336688E+02  0.43400736350E+02  0.00000000000E+00 0. -1.
         11    1    3    3    0    0 -0.22210782157E+00 -0.21178439888E+01 -0.63405244977E+01  0.66885608476E+01  0.51100000000E-03 0. -1.
        -11    1    3    3    0    0 -0.20308128766E+02 -0.51274401955E+01 -0.27315022620E+02  0.34421231790E+02  0.51100000000E-03 0.  1.
         12    1    3    3    0    0 -0.25648904678E+01  0.53625993903E+01 -0.30417895702E+01  0.66774710124E+01  0.00000000000E+00 0. -1.
</event>
<event>
 7    1  0.8440037E-011  0.4778727E+02  0.7816164E-02  0.1312668E+00
        -11   -1    0    0    0    0  0.00000000000E+00  0.00000000000E+00  0.45593999997E+02  0.45594000000E+02  0.51100000000E-03 0. -1.
         11   -1    0    0    0    0 -0.00000000000E+00 -0.00000000000E+00 -0.45593999997E+02  0.45594000000E+02  0.51100000000E-03 0.  1.
    9900012    2    1    2    0    0 -0.74753002844E+01  0.12225008962E+02  0.40966968795E+02  0.47787268546E+02  0.19999988608E+02 0.  0.
        -12    1    1    2    0    0  0.74753002844E+01 -0.12225008962E+02 -0.40966968795E+02  0.43400731454E+02  0.00000000000E+00 0.  1.
         11    1    3    3    0    0 -0.11911342809E+02  0.48889590173E+01  0.34142254586E+02  0.36489389639E+02  0.51100000000E-03 0. -1.
        -11    1    3    3    0    0  0.98421776616E+00  0.16677183727E+00  0.41802978877E+00  0.10822414806E+01  0.51100000000E-03 0.  1.
         12    1    3    3    0    0  0.34518247584E+01  0.71692781080E+01  0.64066844208E+01  0.10215637426E+02  0.00000000000E+00 0. -1.
</event>
<event>
 7    1  0.8440037E-011  0.4778727E+02  0.7816164E-02  0.1312668E+00
        -11   -1    0    0    0    0  0.00000000000E+00  0.00000000000E+00  0.45593999997E+02  0.45594000000E+02  0.51100000000E-03 0. -1.
         11   -1    0    0    0    0 -0.00000000000E+00 -0.00000000000E+00 -0.45593999997E+02  0.45594000000E+02  0.51100000000E-03 0.  1.
    9900012    2    1    2    0    0 -0.46950124558E+01 -0.17838192784E+02 -0.39285859147E+02  0.47787274284E+02  0.20000014770E+02 0.  0.
         12    1    1    2    0    0  0.46950124558E+01  0.17838192784E+02  0.39285859147E+02  0.43400725716E+02  0.00000000000E+00 0. -1.
         11    1    3    3    0    0  0.80851946070E+00 -0.43868588296E+01 -0.74154900203E+01  0.86537695031E+01  0.51100000000E-03 0. -1.
        -11    1    3    3    0    0  0.30967651292E+00  0.89460801017E+00 -0.18942035088E+02  0.18965677330E+02  0.51100000000E-03 0.  1.
        -12    1    3    3    0    0 -0.58132084294E+01 -0.14345941964E+02 -0.12928334039E+02  0.20167827451E+02  0.00000000000E+00 0.  1.
</event>
<event>
 7    1  0.8440037E-011  0.4778727E+02  0.7816164E-02  0.1312668E+00
        -11   -1    0    0    0    0  0.00000000000E+00  0.00000000000E+00  0.45593999997E+02  0.45594000000E+02  0.51100000000E-03 0. -1.
         11   -1    0    0    0    0 -0.00000000000E+00 -0.00000000000E+00 -0.45593999997E+02  0.45594000000E+02  0.51100000000E-03 0.  1.
    9900012    2    1    2    0    0  0.11113996254E+02  0.25060105322E+02 -0.33646595664E+02  0.47787271996E+02  0.20000004341E+02 0.  0.
         12    1    1    2    0    0 -0.11113996254E+02 -0.25060105322E+02  0.33646595664E+02  0.43400728004E+02  0.00000000000E+00 0. -1.
         11    1    3    3    0    0  0.33483434339E+01  0.79028402183E+01 -0.18367864063E+02  0.20274237785E+02  0.51100000000E-03 0. -1.
        -11    1    3    3    0    0  0.71269287550E+01  0.18362061015E+02 -0.16490778625E+02  0.25688600159E+02  0.51100000000E-03 0.  1.
         12    1    3    3    0    0  0.63872406510E+00 -0.12047959118E+01  0.12120470246E+01  0.18244340521E+01  0.00000000000E+00 0. -1.
</event>
<event>
 7    1  0.8440037E-011  0.4778728E+02  0.7816164E-02  0.1312668E+00
        -11   -1    0    0    0    0  0.00000000000E+00  0.00000000000E+00  0.45593999997E+02  0.45594000000E+02  0.51100000000E-03 0. -1.
         11   -1    0    0    0    0 -0.00000000000E+00 -0.00000000000E+00 -0.45593999997E+02  0.45594000000E+02  0.51100000000E-03 0.  1.
    9900012    2    1    2    0    0 -0.68745040071E+01  0.76418762199E+01 -0.42165927044E+02  0.47787280179E+02  0.20000041648E+02 0.  0.
         12    1    1    2    0    0  0.68745040071E+01 -0.76418762199E+01  0.42165927044E+02  0.43400719821E+02  0.00000000000E+00 0. -1.
         11    1    3    3    0    0 -0.51308526998E+01  0.26710979692E+01 -0.25395608830E+02  0.26046062311E+02  0.51100000000E-03 0. -1.
        -11    1    3    3    0    0  0.45299775899E+01  0.13470946892E+01 -0.12424067623E+02  0.13292585062E+02  0.51100000000E-03 0.  1.
         12    1    3    3    0    0 -0.62736288972E+01  0.36236835615E+01 -0.43462505908E+01  0.84486328060E+01  0.00000000000E+00 0. -1.
</event>
<event>
 7    1  0.8440037E-011  0.4778729E+02  0.7816164E-02  0.1312668E+00
        -11   -1    0    0    0    0  0.00000000000E+00  0.00000000000E+00  0.45593999997E+02  0.45594000000E+02  0.51100000000E-03 0. -1.
         11   -1    0    0    0    0 -0.00000000000E+00 -0.00000000000E+00 -0.45593999997E+02  0.45594000000E+02  0.51100000000E-03 0.  1.
    9900012    2    1    2    0    0  0.29996217758E+01  0.10376031810E+01  0.43284491857E+02  0.47787290484E+02  0.20000088634E+02 0.  0.
        -12    1    1    2    0    0 -0.29996217758E+01 -0.10376031810E+01 -0.43284491857E+02  0.43400709516E+02  0.00000000000E+00 0.  1.
         11    1    3    3    0    0 -0.38024682794E+00  0.18537483005E+01  0.40839162389E+01  0.45010379380E+01  0.51100000000E-03 0. -1.
        -11    1    3    3    0    0 -0.51593678157E+01  0.56401324201E+01  0.15674367995E+02  0.17438921477E+02  0.51100000000E-03 0.  1.
         12    1    3    3    0    0  0.85392364194E+01 -0.64562775397E+01  0.23526207623E+02  0.25847331070E+02  0.00000000000E+00 0. -1.
</event>
<event>
 7    1  0.8440037E-011  0.4778727E+02  0.7816164E-02  0.1312668E+00
        -11   -1    0    0    0    0  0.00000000000E+00  0.00000000000E+00  0.45593999997E+02  0.45594000000E+02  0.51100000000E-03 0. -1.
         11   -1    0    0    0    0 -0.00000000000E+00 -0.00000000000E+00 -0.45593999997E+02  0.45594000000E+02  0.51100000000E-03 0.  1.
    9900012    2    1    2    0    0 -0.13950455205E+02 -0.29624726808E+02  0.28484798743E+02  0.47787269611E+02  0.19999993465E+02 0.  0.
        -12    1    1    2    0    0  0.13950455205E+02  0.29624726808E+02 -0.28484798743E+02  0.43400730389E+02  0.00000000000E+00 0.  1.
         11    1    3    3    0    0 -0.14312615101E+02 -0.27289705341E+02  0.19408966719E+02  0.36418222884E+02  0.51100000000E-03 0. -1.
        -11    1    3    3    0    0  0.11670562719E+01 -0.29582771678E+01  0.11555255345E+01  0.33835873958E+01  0.51100000000E-03 0.  1.
         12    1    3    3    0    0 -0.80489637559E+00  0.62325570137E+00  0.79203064897E+01  0.79854593316E+01  0.00000000000E+00 0. -1.
</event>
<event>
 7    1  0.8440037E-011  0.4778727E+02  0.7816164E-02  0.1312668E+00
        -11   -1    0    0    0    0  0.00000000000E+00  0.00000000000E+00  0.45593999997E+02  0.45594000000E+02  0.51100000000E-03 0.  1.
         11   -1    0    0    0    0 -0.00000000000E+00 -0.00000000000E+00 -0.45593999997E+02  0.45594000000E+02  0.51100000000E-03 0. -1.
    9900012    2    1    2    0    0  0.26763254161E+02  0.30141356939E+02 -0.16088811951E+02  0.47787273722E+02  0.20000012209E+02 0.  0.
         12    1    1    2    0    0 -0.26763254161E+02 -0.30141356939E+02  0.16088811951E+02  0.43400726278E+02  0.00000000000E+00 0. -1.
         11    1    3    3    0    0  0.10141838832E+02  0.19579078395E+02 -0.11411085549E+02  0.24827607202E+02  0.51100000000E-03 0. -1.
        -11    1    3    3    0    0  0.83494410159E+01  0.11220951887E+02 -0.14718175040E+01  0.14063753893E+02  0.51100000000E-03 0.  1.
         12    1    3    3    0    0  0.82719743135E+01 -0.65867334313E+00 -0.32059088971E+01  0.88959126273E+01  0.00000000000E+00 0. -1.
</event>
<event>
 7    1  0.8440037E-011  0.4778727E+02  0.7816164E-02  0.1312668E+00
        -11   -1    0    0    0    0  0.00000000000E+00  0.00000000000E+00  0.45593999997E+02  0.45594000000E+02  0.51100000000E-03 0. -1.
         11   -1    0    0    0    0 -0.00000000000E+00 -0.00000000000E+00 -0.45593999997E+02  0.45594000000E+02  0.51100000000E-03 0.  1.
    9900012    2    1    2    0    0  0.16490793066E+02  0.35202409202E+02 -0.19299405975E+02  0.47787274884E+02  0.20000017506E+02 0.  0.
         12    1    1    2    0    0 -0.16490793066E+02 -0.35202409202E+02  0.19299405975E+02  0.43400725116E+02  0.00000000000E+00 0. -1.
         11    1    3    3    0    0  0.67877830997E+01  0.52558548127E+01 -0.94388451736E+01  0.12758910913E+02  0.51100000000E-03 0. -1.
        -11    1    3    3    0    0 -0.93269215074E-01  0.80970004246E+01 -0.73783309802E+01  0.10954902251E+02  0.51100000000E-03 0.  1.
         12    1    3    3    0    0  0.97962791812E+01  0.21849553965E+02 -0.24822298217E+01  0.24073461719E+02  0.00000000000E+00 0. -1.
</event>
<event>
 7    1  0.8440037E-011  0.4778727E+02  0.7816164E-02  0.1312668E+00
        -11   -1    0    0    0    0  0.00000000000E+00  0.00000000000E+00  0.45593999997E+02  0.45594000000E+02  0.51100000000E-03 0.  1.
         11   -1    0    0    0    0 -0.00000000000E+00 -0.00000000000E+00 -0.45593999997E+02  0.45594000000E+02  0.51100000000E-03 0. -1.
    9900012    2    1    2    0    0  0.30019299820E+02 -0.30474415023E+02  0.73331502425E+01  0.47787269301E+02  0.19999992052E+02 0.  0.
        -12    1    1    2    0    0 -0.30019299820E+02  0.30474415023E+02 -0.73331502425E+01  0.43400730699E+02  0.00000000000E+00 0.  1.
         11    1    3    3    0    0 -0.12793795886E+00  0.36793996718E+00 -0.51768158787E+00  0.64787531848E+00  0.51100000000E-03 0. -1.
        -11    1    3    3    0    0  0.61231471304E+01  0.12110316814E+01  0.25109201956E+01  0.67278710603E+01  0.51100000000E-03 0.  1.
         12    1    3    3    0    0  0.24024090649E+02 -0.32053386672E+02  0.53399116348E+01  0.40411522922E+02  0.00000000000E+00 0. -1.
</event>
<event>
 7    1  0.8440037E-011  0.4778727E+02  0.7816164E-02  0.1312668E+00
        -11   -1    0    0    0    0  0.00000000000E+00  0.00000000000E+00  0.45593999997E+02  0.45594000000E+02  0.51100000000E-03 0. -1.
         11   -1    0    0    0    0 -0.00000000000E+00 -0.00000000000E+00 -0.45593999997E+02  0.45594000000E+02  0.51100000000E-03 0.  1.
    9900012    2    1    2    0    0  0.28103269817E+02 -0.19916511794E+02 -0.26403827938E+02  0.47787270212E+02  0.19999996203E+02 0.  0.
         12    1    1    2    0    0 -0.28103269817E+02  0.19916511794E+02  0.26403827938E+02  0.43400729788E+02  0.00000000000E+00 0. -1.
         11    1    3    3    0    0  0.90354147229E+01 -0.92894824124E+01 -0.27355642019E+01  0.13244489966E+02  0.51100000000E-03 0. -1.
        -11    1    3    3    0    0  0.15890851233E+02 -0.11123073590E+02 -0.12875822678E+02  0.23281510451E+02  0.51100000000E-03 0.  1.
        -12    1    3    3    0    0  0.31770038603E+01  0.49604420865E+00 -0.10792441058E+02  0.11261269794E+02  0.00000000000E+00 0.  1.
</event>
<event>
 7    1  0.8440037E-011  0.4778727E+02  0.7816164E-02  0.1312668E+00
        -11   -1    0    0    0    0  0.00000000000E+00  0.00000000000E+00  0.45593999997E+02  0.45594000000E+02  0.51100000000E-03 0. -1.
         11   -1    0    0    0    0 -0.00000000000E+00 -0.00000000000E+00 -0.45593999997E+02  0.45594000000E+02  0.51100000000E-03 0.  1.
    9900012    2    1    2    0    0 -0.38276693259E+02 -0.13837638254E+02  0.15067785631E+02  0.47787266791E+02  0.19999980605E+02 0.  0.
        -12    1    1    2    0    0  0.38276693259E+02  0.13837638254E+02 -0.15067785631E+02  0.43400733209E+02  0.00000000000E+00 0.  1.
         11    1    3    3    0    0 -0.33891590276E+02 -0.10263480925E+02  0.18286269961E+02  0.39854317225E+02  0.51100000000E-03 0. -1.
        -11    1    3    3    0    0 -0.41658634778E+01 -0.73407045091E+00 -0.10651362903E+01  0.43620859139E+01  0.51100000000E-03 0.  1.
         12    1    3    3    0    0 -0.21923950534E+00 -0.28400868779E+01 -0.21533480403E+01  0.35708636515E+01  0.00000000000E+00 0. -1.
</event>
<event>
 7    1  0.8440037E-011  0.4778727E+02  0.7816164E-02  0.1312668E+00
        -11   -1    0    0    0    0  0.00000000000E+00  0.00000000000E+00  0.45593999997E+02  0.45594000000E+02  0.51100000000E-03 0.  1.
         11   -1    0    0    0    0 -0.00000000000E+00 -0.00000000000E+00 -0.45593999997E+02  0.45594000000E+02  0.51100000000E-03 0. -1.
    9900012    2    1    2    0    0  0.16488445682E+02 -0.38497993425E+02 -0.11386793919E+02  0.47787269424E+02  0.19999992613E+02 0.  0.
        -12    1    1    2    0    0 -0.16488445682E+02  0.38497993425E+02  0.11386793919E+02  0.43400730576E+02  0.00000000000E+00 0.  1.
         11    1    3    3    0    0  0.83893272686E+01 -0.21586414611E+02 -0.89039291622E+01  0.24811974177E+02  0.51100000000E-03 0. -1.
        -11    1    3    3    0    0  0.21137118756E+00 -0.70187122250E+01 -0.66331699702E+01  0.96595001522E+01  0.51100000000E-03 0.  1.
         12    1    3    3    0    0  0.78877472258E+01 -0.98928665887E+01  0.41503052133E+01  0.13315795095E+02  0.00000000000E+00 0. -1.
</event>
<event>
 7    1  0.8440037E-011  0.4778727E+02  0.7816164E-02  0.1312668E+00
        -11   -1    0    0    0    0  0.00000000000E+00  0.00000000000E+00  0.45593999997E+02  0.45594000000E+02  0.51100000000E-03 0. -1.
         11   -1    0    0    0    0 -0.00000000000E+00 -0.00000000000E+00 -0.45593999997E+02  0.45594000000E+02  0.51100000000E-03 0.  1.
    9900012    2    1    2    0    0 -0.12410726520E+02  0.42715988047E+00  0.41586231952E+02  0.47787270902E+02  0.19999999350E+02 0.  0.
        -12    1    1    2    0    0  0.12410726520E+02 -0.42715988047E+00 -0.41586231952E+02  0.43400729098E+02  0.00000000000E+00 0.  1.
         11    1    3    3    0    0 -0.97869307592E+01 -0.18368906403E+01  0.16007682075E+02  0.18852163446E+02  0.51100000000E-03 0. -1.
        -11    1    3    3    0    0 -0.35595974294E+01 -0.31091754978E+01  0.27586249496E+01  0.54724508229E+01  0.51100000000E-03 0.  1.
         12    1    3    3    0    0  0.93580166903E+00  0.53732260186E+01  0.22819924927E+02  0.23462656633E+02  0.00000000000E+00 0. -1.
</event>
<event>
 7    1  0.8440037E-011  0.4778725E+02  0.7816164E-02  0.1312668E+00
        -11   -1    0    0    0    0  0.00000000000E+00  0.00000000000E+00  0.45593999997E+02  0.45594000000E+02  0.51100000000E-03 0. -1.
         11   -1    0    0    0    0 -0.00000000000E+00 -0.00000000000E+00 -0.45593999997E+02  0.45594000000E+02  0.51100000000E-03 0.  1.
    9900012    2    1    2    0    0 -0.33339390638E+02  0.22046291583E+02  0.16913631550E+02  0.47787252623E+02  0.19999916007E+02 0.  0.
        -12    1    1    2    0    0  0.33339390638E+02 -0.22046291583E+02 -0.16913631550E+02  0.43400747377E+02  0.00000000000E+00 0.  1.
         11    1    3    3    0    0 -0.99763220730E+01  0.59505056924E+01  0.11150590935E+02  0.16101900464E+02  0.51100000000E-03 0. -1.
        -11    1    3    3    0    0 -0.85973908067E+01  0.13456996371E+02  0.47090371695E+01  0.16648751044E+02  0.51100000000E-03 0.  1.
        -12    1    3    3    0    0 -0.14765677759E+02  0.26387895196E+01  0.10540034458E+01  0.15036601114E+02  0.00000000000E+00 0.  1.
</event>
<event>
 7    1  0.8440037E-011  0.4778727E+02  0.7816164E-02  0.1312668E+00
        -11   -1    0    0    0    0  0.00000000000E+00  0.00000000000E+00  0.45593999997E+02  0.45594000000E+02  0.51100000000E-03 0. -1.
         11   -1    0    0    0    0 -0.00000000000E+00 -0.00000000000E+00 -0.45593999997E+02  0.45594000000E+02  0.51100000000E-03 0.  1.
    9900012    2    1    2    0    0  0.37223581918E+02  0.18125804763E+02  0.13018574994E+02  0.47787272541E+02  0.20000006821E+02 0.  0.
        -12    1    1    2    0    0 -0.37223581918E+02 -0.18125804763E+02 -0.13018574994E+02  0.43400727459E+02  0.00000000000E+00 0.  1.
         11    1    3    3    0    0  0.22328572032E+02  0.49334779040E+00  0.86249191286E+01  0.23941548640E+02  0.51100000000E-03 0.  1.
        -11    1    3    3    0    0  0.51006610442E+01  0.37612285836E+01  0.22751808684E+01  0.67335007085E+01  0.51100000000E-03 0. -1.
        -12    1    3    3    0    0  0.97943488417E+01  0.13871228389E+02  0.21184749967E+01  0.17112223192E+02  0.00000000000E+00 0.  1.
</event>
<event>
 7    1  0.8440037E-011  0.4778728E+02  0.7816164E-02  0.1312668E+00
        -11   -1    0    0    0    0  0.00000000000E+00  0.00000000000E+00  0.45593999997E+02  0.45594000000E+02  0.51100000000E-03 0. -1.
         11   -1    0    0    0    0 -0.00000000000E+00 -0.00000000000E+00 -0.45593999997E+02  0.45594000000E+02  0.51100000000E-03 0.  1.
    9900012    2    1    2    0    0  0.26738418451E+02  0.21881690633E+02 -0.26265390294E+02  0.47787284182E+02  0.20000059899E+02 0.  0.
         12    1    1    2    0    0 -0.26738418451E+02 -0.21881690633E+02  0.26265390294E+02  0.43400715818E+02  0.00000000000E+00 0. -1.
         11    1    3    3    0    0  0.11599243636E+01 -0.28273361835E+01 -0.70306911046E+00  0.31358508987E+01  0.51100000000E-03 0. -1.
        -11    1    3    3    0    0  0.20744611232E+01  0.48101308236E+00  0.26872214100E+00  0.21463863556E+01  0.51100000000E-03 0.  1.
        -12    1    3    3    0    0  0.23504032964E+02  0.24228013734E+02 -0.25831043325E+02  0.42505046928E+02  0.00000000000E+00 0.  1.
</event>
<event>
 7    1  0.8440037E-011  0.4778726E+02  0.7816164E-02  0.1312668E+00
        -11   -1    0    0    0    0  0.00000000000E+00  0.00000000000E+00  0.45593999997E+02  0.45594000000E+02  0.51100000000E-03 0. -1.
         11   -1    0    0    0    0 -0.00000000000E+00 -0.00000000000E+00 -0.45593999997E+02  0.45594000000E+02  0.51100000000E-03 0.  1.
    9900012    2    1    2    0    0 -0.69445899876E+01 -0.40455255022E+02 -0.14098556708E+02  0.47787259336E+02  0.19999946615E+02 0.  0.
         12    1    1    2    0    0  0.69445899876E+01  0.40455255022E+02  0.14098556708E+02  0.43400740664E+02  0.00000000000E+00 0. -1.
         11    1    3    3    0    0  0.13188449088E+01 -0.27776907414E+01 -0.47934186732E+01  0.56948907440E+01  0.51100000000E-03 0. -1.
        -11    1    3    3    0    0 -0.21052917574E+01 -0.62986999451E+01  0.36641806478E+01  0.75849913951E+01  0.51100000000E-03 0.  1.
        -12    1    3    3    0    0 -0.61581431389E+01 -0.31378864335E+02 -0.12969318683E+02  0.34507377196E+02  0.00000000000E+00 0.  1.
</event>
<event>
 7    1  0.8440037E-011  0.4778725E+02  0.7816164E-02  0.1312668E+00
        -11   -1    0    0    0    0  0.00000000000E+00  0.00000000000E+00  0.45593999997E+02  0.45594000000E+02  0.51100000000E-03 0. -1.
         11   -1    0    0    0    0 -0.00000000000E+00 -0.00000000000E+00 -0.45593999997E+02  0.45594000000E+02  0.51100000000E-03 0.  1.
    9900012    2    1    2    0    0  0.96807417906E+01  0.95366336109E+01 -0.41218453903E+02  0.47787250186E+02  0.19999904898E+02 0.  0.
         12    1    1    2    0    0 -0.96807417906E+01 -0.95366336109E+01  0.41218453903E+02  0.43400749814E+02  0.00000000000E+00 0. -1.
         11    1    3    3    0    0  0.82003257026E+00  0.36487044072E+01 -0.13796418279E+02  0.14294287490E+02  0.51100000000E-03 0. -1.
        -11    1    3    3    0    0  0.62437969363E+01  0.99736652070E+01 -0.25834266938E+02  0.28387820387E+02  0.51100000000E-03 0.  1.
         12    1    3    3    0    0  0.26169122840E+01 -0.40857360033E+01 -0.15877686859E+01  0.51051423085E+01  0.00000000000E+00 0. -1.
</event>
<event>
 7    1  0.8440037E-011  0.4778727E+02  0.7816164E-02  0.1312668E+00
        -11   -1    0    0    0    0  0.00000000000E+00  0.00000000000E+00  0.45593999997E+02  0.45594000000E+02  0.51100000000E-03 0. -1.
         11   -1    0    0    0    0 -0.00000000000E+00 -0.00000000000E+00 -0.45593999997E+02  0.45594000000E+02  0.51100000000E-03 0.  1.
    9900012    2    1    2    0    0 -0.14413030929E+02  0.10952015008E+02 -0.39445420135E+02  0.47787271171E+02  0.20000000575E+02 0.  0.
         12    1    1    2    0    0  0.14413030929E+02 -0.10952015008E+02  0.39445420135E+02  0.43400728829E+02  0.00000000000E+00 0. -1.
         11    1    3    3    0    0 -0.43613717697E+01  0.45393519809E+01 -0.81623589871E+01  0.10307831228E+02  0.51100000000E-03 0.  1.
        -11    1    3    3    0    0 -0.78197963723E+01 -0.48099818323E+01 -0.13139589322E+02  0.16029159315E+02  0.51100000000E-03 0. -1.
         12    1    3    3    0    0 -0.22318627873E+01  0.11222644859E+02 -0.18143471826E+02  0.21450280629E+02  0.00000000000E+00 0. -1.
</event>
<event>
 7    1  0.8440037E-011  0.4778728E+02  0.7816164E-02  0.1312668E+00
        -11   -1    0    0    0    0  0.00000000000E+00  0.00000000000E+00  0.45593999997E+02  0.45594000000E+02  0.51100000000E-03 0. -1.
         11   -1    0    0    0    0 -0.00000000000E+00 -0.00000000000E+00 -0.45593999997E+02  0.45594000000E+02  0.51100000000E-03 0.  1.
    9900012    2    1    2    0    0 -0.17466899560E+02 -0.33839046729E+02 -0.20819440543E+02  0.47787276869E+02  0.20000026557E+02 0.  0.
         12    1    1    2    0    0  0.17466899560E+02  0.33839046729E+02  0.20819440543E+02  0.43400723131E+02  0.00000000000E+00 0. -1.
         11    1    3    3    0    0  0.56328654650E+00 -0.69053610142E+01 -0.10220246784E+02  0.12347256661E+02  0.51100000000E-03 0. -1.
        -11    1    3    3    0    0 -0.25855259069E+01 -0.12198977383E+02 -0.40957216337E+01  0.13125354448E+02  0.51100000000E-03 0.  1.
         12    1    3    3    0    0 -0.15444660200E+02 -0.14734708331E+02 -0.65034721247E+01  0.22314665760E+02  0.00000000000E+00 0. -1.
</event>
<event>
 7    1  0.8440037E-011  0.4778725E+02  0.7816164E-02  0.1312668E+00
        -11   -1    0    0    0    0  0.00000000000E+00  0.00000000000E+00  0.45593999997E+02  0.45594000000E+02  0.51100000000E-03 0. -1.
         11   -1    0    0    0    0 -0.00000000000E+00 -0.00000000000E+00 -0.45593999997E+02  0.45594000000E+02  0.51100000000E-03 0.  1.
    9900012    2    1    2    0    0  0.16716725930E+02  0.72753413263E+01 -0.39385856994E+02  0.47787248297E+02  0.19999896284E+02 0.  0.
         12    1    1    2    0    0 -0.16716725930E+02 -0.72753413263E+01  0.39385856994E+02  0.43400751703E+02  0.00000000000E+00 0. -1.
         11    1    3    3    0    0 -0.88550823543E+00  0.12128409396E+01 -0.78947646997E+00  0.16965793048E+01  0.51100000000E-03 0. -1.
        -11    1    3    3    0    0  0.28682248092E+01  0.91263306884E+01 -0.19980968426E+02  0.22153007129E+02  0.51100000000E-03 0.  1.
         12    1    3    3    0    0  0.14734009356E+02 -0.30638303018E+01 -0.18615412099E+02  0.23937661862E+02  0.00000000000E+00 0. -1.
</event>
<event>
 7    1  0.8440037E-011  0.4778727E+02  0.7816164E-02  0.1312668E+00
        -11   -1    0    0    0    0  0.00000000000E+00  0.00000000000E+00  0.45593999997E+02  0.45594000000E+02  0.51100000000E-03 0. -1.
         11   -1    0    0    0    0 -0.00000000000E+00 -0.00000000000E+00 -0.45593999997E+02  0.45594000000E+02  0.51100000000E-03 0.  1.
    9900012    2    1    2    0    0  0.10562043185E+02 -0.70874535507E+01  0.41494991888E+02  0.47787272980E+02  0.20000008826E+02 0.  0.
        -12    1    1    2    0    0 -0.10562043185E+02  0.70874535507E+01 -0.41494991888E+02  0.43400727020E+02  0.00000000000E+00 0.  1.
         11    1    3    3    0    0  0.20789982075E+01 -0.60364654478E+01  0.21153379444E+02  0.22095850534E+02  0.51100000000E-03 0. -1.
        -11    1    3    3    0    0  0.85252277219E+01 -0.56151374541E+01  0.17658515829E+02  0.20396873728E+02  0.51100000000E-03 0.  1.
         12    1    3    3    0    0 -0.42182743953E-01  0.45641493512E+01  0.26830966139E+01  0.52945487176E+01  0.00000000000E+00 0. -1.
</event>
<event>
 7    1  0.8440037E-011  0.4778727E+02  0.7816164E-02  0.1312668E+00
        -11   -1    0    0    0    0  0.00000000000E+00  0.00000000000E+00  0.45593999997E+02  0.45594000000E+02  0.51100000000E-03 0. -1.
         11   -1    0    0    0    0 -0.00000000000E+00 -0.00000000000E+00 -0.45593999997E+02  0.45594000000E+02  0.51100000000E-03 0.  1.
    9900012    2    1    2    0    0 -0.19237855948E+02  0.13847458104E+02  0.36356239321E+02  0.47787270341E+02  0.19999996791E+02 0.  0.
        -12    1    1    2    0    0  0.19237855948E+02 -0.13847458104E+02 -0.36356239321E+02  0.43400729659E+02  0.00000000000E+00 0.  1.
         11    1    3    3    0    0 -0.72705841943E+01  0.33215953419E+01  0.13118699396E+02  0.15362117831E+02  0.51100000000E-03 0. -1.
        -11    1    3    3    0    0 -0.88666634618E+01  0.11093764306E+02  0.69053566967E+01  0.15791557200E+02  0.51100000000E-03 0.  1.
         12    1    3    3    0    0 -0.31006082915E+01 -0.56790154404E+00  0.16332183228E+02  0.16633595310E+02  0.00000000000E+00 0. -1.
</event>
<event>
 7    1  0.8440037E-011  0.4778727E+02  0.7816164E-02  0.1312668E+00
        -11   -1    0    0    0    0  0.00000000000E+00  0.00000000000E+00  0.45593999997E+02  0.45594000000E+02  0.51100000000E-03 0. -1.
         11   -1    0    0    0    0 -0.00000000000E+00 -0.00000000000E+00 -0.45593999997E+02  0.45594000000E+02  0.51100000000E-03 0.  1.
    9900012    2    1    2    0    0  0.15147026374E+02  0.11767321186E+02 -0.38932263072E+02  0.47787270009E+02  0.19999995277E+02 0.  0.
         12    1    1    2    0    0 -0.15147026374E+02 -0.11767321186E+02  0.38932263072E+02  0.43400729991E+02  0.00000000000E+00 0. -1.
         11    1    3    3    0    0 -0.12999518096E+01 -0.12889503096E+01  0.42308830062E+00  0.18789016949E+01  0.51100000000E-03 0. -1.
        -11    1    3    3    0    0  0.96619414997E+01  0.37425820334E+01 -0.27446758272E+02  0.29337426160E+02  0.51100000000E-03 0.  1.
         12    1    3    3    0    0  0.67850366839E+01  0.93136894621E+01 -0.11908593101E+02  0.16570942153E+02  0.00000000000E+00 0. -1.
</event>
<event>
 7    1  0.8440037E-011  0.4778727E+02  0.7816164E-02  0.1312668E+00
        -11   -1    0    0    0    0  0.00000000000E+00  0.00000000000E+00  0.45593999997E+02  0.45594000000E+02  0.51100000000E-03 0. -1.
         11   -1    0    0    0    0 -0.00000000000E+00 -0.00000000000E+00 -0.45593999997E+02  0.45594000000E+02  0.51100000000E-03 0.  1.
    9900012    2    1    2    0    0 -0.54807234031E+01 -0.31183819947E+02 -0.29684243331E+02  0.47787271232E+02  0.20000000853E+02 0.  0.
         12    1    1    2    0    0  0.54807234031E+01  0.31183819947E+02  0.29684243331E+02  0.43400728768E+02  0.00000000000E+00 0. -1.
         11    1    3    3    0    0  0.11043210513E+01 -0.10504788745E+02 -0.13067969053E+02  0.16803033267E+02  0.51100000000E-03 0. -1.
        -11    1    3    3    0    0 -0.19124217220E+01 -0.19493257538E+02 -0.80947071283E+01  0.21193601158E+02  0.51100000000E-03 0.  1.
         12    1    3    3    0    0 -0.46726227324E+01 -0.11857736641E+01 -0.85215671503E+01  0.97906368066E+01  0.00000000000E+00 0. -1.
</event>
<event>
 7    1  0.8440037E-011  0.4778727E+02  0.7816164E-02  0.1312668E+00
        -11   -1    0    0    0    0  0.00000000000E+00  0.00000000000E+00  0.45593999997E+02  0.45594000000E+02  0.51100000000E-03 0. -1.
         11   -1    0    0    0    0 -0.00000000000E+00 -0.00000000000E+00 -0.45593999997E+02  0.45594000000E+02  0.51100000000E-03 0.  1.
    9900012    2    1    2    0    0 -0.42277946076E+01  0.32787179630E+02 -0.28120272227E+02  0.47787272984E+02  0.20000008844E+02 0.  0.
         12    1    1    2    0    0  0.42277946076E+01 -0.32787179630E+02  0.28120272227E+02  0.43400727016E+02  0.00000000000E+00 0. -1.
         11    1    3    3    0    0  0.45481734553E+00  0.50712467523E+01 -0.93042336464E+00  0.51759144447E+01  0.51100000000E-03 0. -1.
        -11    1    3    3    0    0  0.49079664557E+01  0.99266976648E+01 -0.16152678312E+02  0.19584087371E+02  0.51100000000E-03 0.  1.
        -12    1    3    3    0    0 -0.95905784088E+01  0.17789235213E+02 -0.11037170551E+02  0.23027271168E+02  0.00000000000E+00 0.  1.
</event>
<event>
 7    1  0.8440037E-011  0.4778728E+02  0.7816164E-02  0.1312668E+00
        -11   -1    0    0    0    0  0.00000000000E+00  0.00000000000E+00  0.45593999997E+02  0.45594000000E+02  0.51100000000E-03 0. -1.
         11   -1    0    0    0    0 -0.00000000000E+00 -0.00000000000E+00 -0.45593999997E+02  0.45594000000E+02  0.51100000000E-03 0.  1.
    9900012    2    1    2    0    0 -0.34267633048E+02  0.19172944343E+02  0.18486491915E+02  0.47787275895E+02  0.20000022116E+02 0.  0.
        -12    1    1    2    0    0  0.34267633048E+02 -0.19172944343E+02 -0.18486491915E+02  0.43400724105E+02  0.00000000000E+00 0.  1.
         11    1    3    3    0    0 -0.54826058053E+01 -0.75345579151E+00  0.11917415446E+01  0.56609990476E+01  0.51100000000E-03 0. -1.
        -11    1    3    3    0    0 -0.22686909641E+02  0.16844061474E+02  0.59395718107E+01  0.28873808019E+02  0.51100000000E-03 0.  1.
         12    1    3    3    0    0 -0.60981176019E+01  0.30823386607E+01  0.11355178560E+02  0.13252468828E+02  0.00000000000E+00 0. -1.
</event>
<event>
 7    1  0.8440037E-011  0.4778730E+02  0.7816164E-02  0.1312668E+00
        -11   -1    0    0    0    0  0.00000000000E+00  0.00000000000E+00  0.45593999997E+02  0.45594000000E+02  0.51100000000E-03 0. -1.
         11   -1    0    0    0    0 -0.00000000000E+00 -0.00000000000E+00 -0.45593999997E+02  0.45594000000E+02  0.51100000000E-03 0.  1.
    9900012    2    1    2    0    0 -0.21508863825E+02  0.16320229788E+02  0.33979984946E+02  0.47787302997E+02  0.20000145685E+02 0.  0.
        -12    1    1    2    0    0  0.21508863825E+02 -0.16320229788E+02 -0.33979984946E+02  0.43400697003E+02  0.00000000000E+00 0.  1.
         11    1    3    3    0    0  0.80714195578E-01  0.14265091370E+01  0.40278041301E+01  0.42737161196E+01  0.51100000000E-03 0. -1.
        -11    1    3    3    0    0  0.15605628922E+01 -0.19856026020E+01  0.46429561913E+01  0.52853587096E+01  0.51100000000E-03 0.  1.
         12    1    3    3    0    0 -0.23150140913E+02  0.16879323253E+02  0.25309224625E+02  0.38228228168E+02  0.00000000000E+00 0. -1.
</event>
<event>
 7    1  0.8440037E-011  0.4778732E+02  0.7816164E-02  0.1312668E+00
        -11   -1    0    0    0    0  0.00000000000E+00  0.00000000000E+00  0.45593999997E+02  0.45594000000E+02  0.51100000000E-03 0. -1.
         11   -1    0    0    0    0 -0.00000000000E+00 -0.00000000000E+00 -0.45593999997E+02  0.45594000000E+02  0.51100000000E-03 0.  1.
    9900012    2    1    2    0    0 -0.32711580859E+02 -0.21945086505E+02  0.18220448045E+02  0.47787319464E+02  0.20000220764E+02 0.  0.
        -12    1    1    2    0    0  0.32711580859E+02  0.21945086505E+02 -0.18220448045E+02  0.43400680536E+02  0.00000000000E+00 0.  1.
         11    1    3    3    0    0 -0.14239285512E+02 -0.19411169427E+01  0.45326160574E+01  0.15068835239E+02  0.51100000000E-03 0. -1.
        -11    1    3    3    0    0 -0.15845196982E+02 -0.13700238220E+02  0.47645938434E+01  0.21481809734E+02  0.51100000000E-03 0.  1.
         12    1    3    3    0    0 -0.26270983654E+01 -0.63037313419E+01  0.89232381439E+01  0.11236674491E+02  0.00000000000E+00 0. -1.
</event>
<event>
 7    1  0.8440037E-011  0.4778727E+02  0.7816164E-02  0.1312668E+00
        -11   -1    0    0    0    0  0.00000000000E+00  0.00000000000E+00  0.45593999997E+02  0.45594000000E+02  0.51100000000E-03 0. -1.
         11   -1    0    0    0    0 -0.00000000000E+00 -0.00000000000E+00 -0.45593999997E+02  0.45594000000E+02  0.51100000000E-03 0.  1.
    9900012    2    1    2    0    0 -0.10727251416E+02 -0.33876945231E+01  0.41917454241E+02  0.47787269970E+02  0.19999995099E+02 0.  0.
        -12    1    1    2    0    0  0.10727251416E+02  0.33876945231E+01 -0.41917454241E+02  0.43400730030E+02  0.00000000000E+00 0.  1.
         11    1    3    3    0    0 -0.60433339069E+00 -0.68010185392E+00  0.10052764229E+02  0.10093850915E+02  0.51100000000E-03 0. -1.
        -11    1    3    3    0    0 -0.11250170499E+02  0.49324713835E+01  0.21590461143E+02  0.24840362776E+02  0.51100000000E-03 0.  1.
         12    1    3    3    0    0  0.11272524733E+01 -0.76400640526E+01  0.10274228869E+02  0.12853056279E+02  0.00000000000E+00 0. -1.
</event>
<event>
 7    1  0.8440037E-011  0.4778727E+02  0.7816164E-02  0.1312668E+00
        -11   -1    0    0    0    0  0.00000000000E+00  0.00000000000E+00  0.45593999997E+02  0.45594000000E+02  0.51100000000E-03 0. -1.
         11   -1    0    0    0    0 -0.00000000000E+00 -0.00000000000E+00 -0.45593999997E+02  0.45594000000E+02  0.51100000000E-03 0.  1.
    9900012    2    1    2    0    0 -0.31207122964E+02  0.30381262038E+01  0.30008476761E+02  0.47787269452E+02  0.19999992741E+02 0.  0.
        -12    1    1    2    0    0  0.31207122964E+02 -0.30381262038E+01 -0.30008476761E+02  0.43400730548E+02  0.00000000000E+00 0.  1.
         11    1    3    3    0    0 -0.10223068400E+02 -0.48342088828E+01  0.39312800606E+01  0.11972287426E+02  0.51100000000E-03 0. -1.
        -11    1    3    3    0    0 -0.20956825793E+01 -0.94128675453E+00  0.76716189864E+01  0.80082235459E+01  0.51100000000E-03 0.  1.
        -12    1    3    3    0    0 -0.18888371985E+02  0.88136218411E+01  0.18405577714E+02  0.27806758480E+02  0.00000000000E+00 0.  1.
</event>
<event>
 7    1  0.8440037E-011  0.4778727E+02  0.7816164E-02  0.1312668E+00
        -11   -1    0    0    0    0  0.00000000000E+00  0.00000000000E+00  0.45593999997E+02  0.45594000000E+02  0.51100000000E-03 0. -1.
         11   -1    0    0    0    0 -0.00000000000E+00 -0.00000000000E+00 -0.45593999997E+02  0.45594000000E+02  0.51100000000E-03 0.  1.
    9900012    2    1    2    0    0 -0.58935453240E+00 -0.21924488988E+02 -0.37451203016E+02  0.47787272316E+02  0.20000005798E+02 0.  0.
         12    1    1    2    0    0  0.58935453240E+00  0.21924488988E+02  0.37451203016E+02  0.43400727684E+02  0.00000000000E+00 0. -1.
         11    1    3    3    0    0  0.66061118527E+01 -0.88572419578E+01 -0.57107209766E+01  0.12437997558E+02  0.51100000000E-03 0.  1.
        -11    1    3    3    0    0 -0.21488624441E+01 -0.25877435328E+01 -0.37456123300E+01  0.50342465557E+01  0.51100000000E-03 0. -1.
        -12    1    3    3    0    0 -0.50466039410E+01 -0.10479503497E+02 -0.27994869710E+02  0.30315028203E+02  0.00000000000E+00 0.  1.
</event>
<event>
 7    1  0.8440037E-011  0.4778725E+02  0.7816164E-02  0.1312668E+00
        -11   -1    0    0    0    0  0.00000000000E+00  0.00000000000E+00  0.45593999997E+02  0.45594000000E+02  0.51100000000E-03 0. -1.
         11   -1    0    0    0    0 -0.00000000000E+00 -0.00000000000E+00 -0.45593999997E+02  0.45594000000E+02  0.51100000000E-03 0.  1.
    9900012    2    1    2    0    0 -0.13253570254E+02  0.30964085060E+02  0.27371391241E+02  0.47787254078E+02  0.19999922645E+02 0.  0.
        -12    1    1    2    0    0  0.13253570254E+02 -0.30964085060E+02 -0.27371391241E+02  0.43400745922E+02  0.00000000000E+00 0.  1.
         11    1    3    3    0    0 -0.16394443329E+01  0.14639039718E+02  0.88503777403E+01  0.17184831917E+02  0.51100000000E-03 0. -1.
        -11    1    3    3    0    0 -0.11951885504E+02  0.15710846598E+02  0.10140268420E+02  0.22192415638E+02  0.51100000000E-03 0.  1.
        -12    1    3    3    0    0  0.33775958359E+00  0.61419874367E+00  0.83807450807E+01  0.84100065244E+01  0.00000000000E+00 0.  1.
</event>
<event>
 7    1  0.8440037E-011  0.4778722E+02  0.7816164E-02  0.1312668E+00
        -11   -1    0    0    0    0  0.00000000000E+00  0.00000000000E+00  0.45593999997E+02  0.45594000000E+02  0.51100000000E-03 0. -1.
         11   -1    0    0    0    0 -0.00000000000E+00 -0.00000000000E+00 -0.45593999997E+02  0.45594000000E+02  0.51100000000E-03 0.  1.
    9900012    2    1    2    0    0 -0.32720858242E+02  0.46931377538E+01 -0.28123794901E+02  0.47787217223E+02  0.19999754603E+02 0.  0.
         12    1    1    2    0    0  0.32720858242E+02 -0.46931377538E+01  0.28123794901E+02  0.43400782777E+02  0.00000000000E+00 0. -1.
         11    1    3    3    0    0 -0.90271995003E+00  0.15551226433E+01 -0.62180246162E+01  0.64728000226E+01  0.51100000000E-03 0. -1.
        -11    1    3    3    0    0 -0.20049147264E+00  0.21215680707E+01 -0.50249887816E+01  0.54581828868E+01  0.51100000000E-03 0.  1.
        -12    1    3    3    0    0 -0.31617646819E+02  0.10164470399E+01 -0.16880781503E+02  0.35856234313E+02  0.00000000000E+00 0.  1.
</event>
<event>
 7    1  0.8440037E-011  0.4778727E+02  0.7816164E-02  0.1312668E+00
        -11   -1    0    0    0    0  0.00000000000E+00  0.00000000000E+00  0.45593999997E+02  0.45594000000E+02  0.51100000000E-03 0.  1.
         11   -1    0    0    0    0 -0.00000000000E+00 -0.00000000000E+00 -0.45593999997E+02  0.45594000000E+02  0.51100000000E-03 0. -1.
    9900012    2    1    2    0    0 -0.34892732988E+02  0.14701507243E+02 -0.21212876956E+02  0.47787270981E+02  0.19999999711E+02 0.  0.
         12    1    1    2    0    0  0.34892732988E+02 -0.14701507243E+02  0.21212876956E+02  0.43400729019E+02  0.00000000000E+00 0. -1.
         11    1    3    3    0    0 -0.20867685699E+02  0.83295468704E+01 -0.16924663242E+02  0.28129804187E+02  0.51100000000E-03 0. -1.
        -11    1    3    3    0    0 -0.11820003863E+02  0.88534809913E+01 -0.59784075922E+01  0.15932293450E+02  0.51100000000E-03 0.  1.
         12    1    3    3    0    0 -0.22050434263E+01 -0.24815206185E+01  0.16901938782E+01  0.37251733433E+01  0.00000000000E+00 0. -1.
</event>
<event>
 7    1  0.8440037E-011  0.4778727E+02  0.7816164E-02  0.1312668E+00
        -11   -1    0    0    0    0  0.00000000000E+00  0.00000000000E+00  0.45593999997E+02  0.45594000000E+02  0.51100000000E-03 0. -1.
         11   -1    0    0    0    0 -0.00000000000E+00 -0.00000000000E+00 -0.45593999997E+02  0.45594000000E+02  0.51100000000E-03 0.  1.
    9900012    2    1    2    0    0 -0.17756055280E+02 -0.11783137987E+02 -0.37808777635E+02  0.47787268368E+02  0.19999987798E+02 0.  0.
         12    1    1    2    0    0  0.17756055280E+02  0.11783137987E+02  0.37808777635E+02  0.43400731632E+02  0.00000000000E+00 0. -1.
         11    1    3    3    0    0  0.14736084782E+01 -0.88153371876E+00 -0.13884011154E+01  0.22082304143E+01  0.51100000000E-03 0. -1.
        -11    1    3    3    0    0 -0.53045753250E+01 -0.79482915710E+01 -0.43658417322E+01  0.10505923689E+02  0.51100000000E-03 0.  1.
        -12    1    3    3    0    0 -0.13925088433E+02 -0.29533126970E+01 -0.32054534788E+02  0.35073114264E+02  0.00000000000E+00 0.  1.
</event>
<event>
 7    1  0.8440037E-011  0.4778727E+02  0.7816164E-02  0.1312668E+00
        -11   -1    0    0    0    0  0.00000000000E+00  0.00000000000E+00  0.45593999997E+02  0.45594000000E+02  0.51100000000E-03 0. -1.
         11   -1    0    0    0    0 -0.00000000000E+00 -0.00000000000E+00 -0.45593999997E+02  0.45594000000E+02  0.51100000000E-03 0.  1.
    9900012    2    1    2    0    0 -0.59796966440E+01  0.17572803625E+01  0.42950886051E+02  0.47787269375E+02  0.19999992389E+02 0.  0.
        -12    1    1    2    0    0  0.59796966440E+01 -0.17572803625E+01 -0.42950886051E+02  0.43400730625E+02  0.00000000000E+00 0.  1.
         11    1    3    3    0    0 -0.53670197241E+01  0.76384415220E+00  0.18223106283E+02  0.19012363385E+02  0.51100000000E-03 0. -1.
        -11    1    3    3    0    0 -0.37174009221E+01 -0.33939987152E+01  0.19938012625E+01  0.54141980597E+01  0.51100000000E-03 0.  1.
         12    1    3    3    0    0  0.31047240022E+01  0.43874349255E+01  0.22733978505E+02  0.23360707931E+02  0.00000000000E+00 0. -1.
</event>
<event>
 7    1  0.8440037E-011  0.4778727E+02  0.7816164E-02  0.1312668E+00
        -11   -1    0    0    0    0  0.00000000000E+00  0.00000000000E+00  0.45593999997E+02  0.45594000000E+02  0.51100000000E-03 0. -1.
         11   -1    0    0    0    0 -0.00000000000E+00 -0.00000000000E+00 -0.45593999997E+02  0.45594000000E+02  0.51100000000E-03 0.  1.
    9900012    2    1    2    0    0 -0.35688303955E+02  0.49265306279E+01 -0.24201187321E+02  0.47787271769E+02  0.20000003305E+02 0.  0.
         12    1    1    2    0    0  0.35688303955E+02 -0.49265306279E+01  0.24201187321E+02  0.43400728231E+02  0.00000000000E+00 0. -1.
         11    1    3    3    0    0 -0.14783809154E+02 -0.22391023140E+01 -0.36977326509E+01  0.15402851011E+02  0.51100000000E-03 0.  1.
        -11    1    3    3    0    0  0.23726151364E+00 -0.11116124862E+01 -0.44118098832E+01  0.45558799427E+01  0.51100000000E-03 0. -1.
         12    1    3    3    0    0 -0.21141756315E+02  0.82772454280E+01 -0.16091644786E+02  0.27828540815E+02  0.00000000000E+00 0. -1.
</event>
<event>
 7    1  0.8440037E-011  0.4778725E+02  0.7816164E-02  0.1312668E+00
        -11   -1    0    0    0    0  0.00000000000E+00  0.00000000000E+00  0.45593999997E+02  0.45594000000E+02  0.51100000000E-03 0. -1.
         11   -1    0    0    0    0 -0.00000000000E+00 -0.00000000000E+00 -0.45593999997E+02  0.45594000000E+02  0.51100000000E-03 0.  1.
    9900012    2    1    2    0    0 -0.65932553311E+01  0.23638908845E+01  0.42831833842E+02  0.47787251317E+02  0.19999910053E+02 0.  0.
        -12    1    1    2    0    0  0.65932553311E+01 -0.23638908845E+01 -0.42831833842E+02  0.43400748683E+02  0.00000000000E+00 0.  1.
         11    1    3    3    0    0 -0.12177881280E+02 -0.18171435821E-01  0.25671889817E+02  0.28413853130E+02  0.51100000000E-03 0. -1.
        -11    1    3    3    0    0 -0.25417736967E+00  0.25211416817E+01  0.23599137433E+01  0.34626513904E+01  0.51100000000E-03 0.  1.
         12    1    3    3    0    0  0.58388033185E+01 -0.13907936139E+00  0.14800030282E+02  0.15910746796E+02  0.00000000000E+00 0. -1.
</event>
<event>
 7    1  0.8440037E-011  0.4778726E+02  0.7816164E-02  0.1312668E+00
        -11   -1    0    0    0    0  0.00000000000E+00  0.00000000000E+00  0.45593999997E+02  0.45594000000E+02  0.51100000000E-03 0. -1.
         11   -1    0    0    0    0 -0.00000000000E+00 -0.00000000000E+00 -0.45593999997E+02  0.45594000000E+02  0.51100000000E-03 0.  1.
    9900012    2    1    2    0    0  0.68886852898E+01  0.20293333479E+02 -0.37740578275E+02  0.47787255568E+02  0.19999929438E+02 0.  0.
         12    1    1    2    0    0 -0.68886852898E+01 -0.20293333479E+02  0.37740578275E+02  0.43400744432E+02  0.00000000000E+00 0. -1.
         11    1    3    3    0    0  0.23852279644E+01 -0.10637370645E+01 -0.18105866363E+01  0.31779039024E+01  0.51100000000E-03 0. -1.
        -11    1    3    3    0    0 -0.31598826340E+01  0.42828089131E+01 -0.17700153917E+02  0.18483039777E+02  0.51100000000E-03 0.  1.
        -12    1    3    3    0    0  0.76633399594E+01  0.17074261631E+02 -0.18229837721E+02  0.26126311889E+02  0.00000000000E+00 0.  1.
</event>
<event>
 7    1  0.8440037E-011  0.4778728E+02  0.7816164E-02  0.1312668E+00
        -11   -1    0    0    0    0  0.00000000000E+00  0.00000000000E+00  0.45593999997E+02  0.45594000000E+02  0.51100000000E-03 0.  1.
         11   -1    0    0    0    0 -0.00000000000E+00 -0.00000000000E+00 -0.45593999997E+02  0.45594000000E+02  0.51100000000E-03 0. -1.
    9900012    2    1    2    0    0 -0.26284221261E+02 -0.33381601975E+02 -0.88561278554E+01  0.47787278366E+02  0.20000033384E+02 0.  0.
         12    1    1    2    0    0  0.26284221261E+02  0.33381601975E+02  0.88561278554E+01  0.43400721634E+02  0.00000000000E+00 0. -1.
         11    1    3    3    0    0 -0.13895650110E+02 -0.15985668151E+02 -0.80759051692E+01  0.22668280102E+02  0.51100000000E-03 0.  1.
        -11    1    3    3    0    0  0.83753749217E+00 -0.31751522092E+01  0.39439559379E+01  0.51320414362E+01  0.51100000000E-03 0. -1.
         12    1    3    3    0    0 -0.13226108643E+02 -0.14220781615E+02 -0.47241786241E+01  0.19986956828E+02  0.00000000000E+00 0. -1.
</event>
<event>
 7    1  0.8440037E-011  0.4778727E+02  0.7816164E-02  0.1312668E+00
        -11   -1    0    0    0    0  0.00000000000E+00  0.00000000000E+00  0.45593999997E+02  0.45594000000E+02  0.51100000000E-03 0. -1.
         11   -1    0    0    0    0 -0.00000000000E+00 -0.00000000000E+00 -0.45593999997E+02  0.45594000000E+02  0.51100000000E-03 0.  1.
    9900012    2    1    2    0    0  0.20810125282E+02 -0.34804790562E+02  0.15465720007E+02  0.47787271254E+02  0.20000000954E+02 0.  0.
        -12    1    1    2    0    0 -0.20810125282E+02  0.34804790562E+02 -0.15465720007E+02  0.43400728746E+02  0.00000000000E+00 0.  1.
         11    1    3    3    0    0  0.14818341511E+02 -0.22103032131E+02  0.12869863765E+02  0.29559442960E+02  0.51100000000E-03 0. -1.
        -11    1    3    3    0    0  0.54480993901E+01 -0.14354656363E+02  0.31236062475E+00  0.15356937054E+02  0.51100000000E-03 0.  1.
         12    1    3    3    0    0  0.54368438134E+00  0.16528979310E+01  0.22834956174E+01  0.28708912399E+01  0.00000000000E+00 0. -1.
</event>
<event>
 7    1  0.8440037E-011  0.4778728E+02  0.7816164E-02  0.1312668E+00
        -11   -1    0    0    0    0  0.00000000000E+00  0.00000000000E+00  0.45593999997E+02  0.45594000000E+02  0.51100000000E-03 0. -1.
         11   -1    0    0    0    0 -0.00000000000E+00 -0.00000000000E+00 -0.45593999997E+02  0.45594000000E+02  0.51100000000E-03 0.  1.
    9900012    2    1    2    0    0 -0.32792666611E+02  0.90643298316E+01 -0.26946276343E+02  0.47787275726E+02  0.20000021346E+02 0.  0.
         12    1    1    2    0    0  0.32792666611E+02 -0.90643298316E+01  0.26946276343E+02  0.43400724274E+02  0.00000000000E+00 0. -1.
         11    1    3    3    0    0 -0.88396611482E+01 -0.19322671600E+01 -0.87793944582E+01  0.12607578392E+02  0.51100000000E-03 0.  1.
        -11    1    3    3    0    0 -0.36665237634E+01  0.54179005035E+00 -0.10450822351E+02  0.11088580659E+02  0.51100000000E-03 0. -1.
        -12    1    3    3    0    0 -0.20286481700E+02  0.10454806941E+02 -0.77160595336E+01  0.24091116675E+02  0.00000000000E+00 0.  1.
</event>
<event>
 7    1  0.9401863E-011  0.4778727E+02  0.7816164E-02  0.1312668E+00
        -11   -1    0    0    0    0  0.00000000000E+00  0.00000000000E+00  0.45593999997E+02  0.45594000000E+02  0.51100000000E-03 0. -1.
         11   -1    0    0    0    0 -0.00000000000E+00 -0.00000000000E+00 -0.45593999997E+02  0.45594000000E+02  0.51100000000E-03 0.  1.
    9900012    2    1    2    0    0  0.21135334213E+02 -0.20230709918E+02  0.32056814455E+02  0.47787270408E+02  0.19999997100E+02 0.  0.
        -12    1    1    2    0    0 -0.21135334213E+02  0.20230709918E+02 -0.32056814455E+02  0.43400729592E+02  0.00000000000E+00 0.  1.
         11    1    3    3    0    0  0.95547861632E+01 -0.10000769122E+02  0.19837927254E+02  0.24183727580E+02  0.51100000000E-03 0. -1.
        -11    1    3    3    0    0  0.26733006472E+01  0.31230803046E+01  0.19633693866E+01  0.45557641015E+01  0.51100000000E-03 0.  1.
         12    1    3    3    0    0  0.89072474029E+01 -0.13353021100E+02  0.10255517814E+02  0.19047778727E+02  0.00000000000E+00 0. -1.
</event>
<event>
 7    1  0.8440037E-011  0.4778727E+02  0.7816164E-02  0.1312668E+00
        -11   -1    0    0    0    0  0.00000000000E+00  0.00000000000E+00  0.45593999997E+02  0.45594000000E+02  0.51100000000E-03 0. -1.
         11   -1    0    0    0    0 -0.00000000000E+00 -0.00000000000E+00 -0.45593999997E+02  0.45594000000E+02  0.51100000000E-03 0.  1.
    9900012    2    1    2    0    0 -0.27932161961E+02  0.89595537102E+01  0.31986629984E+02  0.47787265303E+02  0.19999973821E+02 0.  0.
        -12    1    1    2    0    0  0.27932161961E+02 -0.89595537102E+01 -0.31986629984E+02  0.43400734697E+02  0.00000000000E+00 0.  1.
         11    1    3    3    0    0 -0.10767611836E+02 -0.22188848124E+01  0.10269513035E+02  0.15044195316E+02  0.51100000000E-03 0. -1.
        -11    1    3    3    0    0 -0.17517753393E+02  0.65104480325E+01  0.20818629206E+02  0.27976292460E+02  0.51100000000E-03 0.  1.
        -12    1    3    3    0    0  0.35320326806E+00  0.46679904901E+01  0.89848774301E+00  0.47667775267E+01  0.00000000000E+00 0.  1.
</event>
<event>
 7    1  0.8440037E-011  0.4778727E+02  0.7816164E-02  0.1312668E+00
        -11   -1    0    0    0    0  0.00000000000E+00  0.00000000000E+00  0.45593999997E+02  0.45594000000E+02  0.51100000000E-03 0. -1.
         11   -1    0    0    0    0 -0.00000000000E+00 -0.00000000000E+00 -0.45593999997E+02  0.45594000000E+02  0.51100000000E-03 0.  1.
    9900012    2    1    2    0    0  0.27495862538E+01  0.29144431073E+02 -0.32041616464E+02  0.47787271057E+02  0.20000000059E+02 0.  0.
         12    1    1    2    0    0 -0.27495862538E+01 -0.29144431073E+02  0.32041616464E+02  0.43400728943E+02  0.00000000000E+00 0. -1.
         11    1    3    3    0    0  0.43921475020E+01  0.13693726555E+02 -0.17981977735E+02  0.23025217267E+02  0.51100000000E-03 0. -1.
        -11    1    3    3    0    0  0.11658318495E+00  0.15165748985E+02 -0.16055736631E+02  0.22086199604E+02  0.51100000000E-03 0.  1.
        -12    1    3    3    0    0 -0.17591444332E+01  0.28495553214E+00  0.19960979023E+01  0.26758541865E+01  0.00000000000E+00 0.  1.
</event>
<event>
 7    1  0.8440037E-011  0.4778727E+02  0.7816164E-02  0.1312668E+00
        -11   -1    0    0    0    0  0.00000000000E+00  0.00000000000E+00  0.45593999997E+02  0.45594000000E+02  0.51100000000E-03 0. -1.
         11   -1    0    0    0    0 -0.00000000000E+00 -0.00000000000E+00 -0.45593999997E+02  0.45594000000E+02  0.51100000000E-03 0.  1.
    9900012    2    1    2    0    0 -0.28004373275E+02 -0.24923463219E+02  0.21867771892E+02  0.47787269720E+02  0.19999993960E+02 0.  0.
        -12    1    1    2    0    0  0.28004373275E+02  0.24923463219E+02 -0.21867771892E+02  0.43400730280E+02  0.00000000000E+00 0.  1.
         11    1    3    3    0    0 -0.97483448011E+01 -0.35357669176E+01  0.11053369201E+02  0.15156148753E+02  0.51100000000E-03 0. -1.
        -11    1    3    3    0    0 -0.73768030718E+00 -0.95735597562E+01  0.24798104106E+01  0.99169893907E+01  0.51100000000E-03 0.  1.
         12    1    3    3    0    0 -0.17518348166E+02 -0.11814136546E+02  0.83345922802E+01  0.22714131576E+02  0.00000000000E+00 0. -1.
</event>
<event>
 7    1  0.8440037E-011  0.4778727E+02  0.7816164E-02  0.1312668E+00
        -11   -1    0    0    0    0  0.00000000000E+00  0.00000000000E+00  0.45593999997E+02  0.45594000000E+02  0.51100000000E-03 0.  1.
         11   -1    0    0    0    0 -0.00000000000E+00 -0.00000000000E+00 -0.45593999997E+02  0.45594000000E+02  0.51100000000E-03 0. -1.
    9900012    2    1    2    0    0  0.60829286169E+01 -0.42575099667E+02  0.58294233277E+01  0.47787270645E+02  0.19999998178E+02 0.  0.
         12    1    1    2    0    0 -0.60829286169E+01  0.42575099667E+02 -0.58294233277E+01  0.43400729355E+02  0.00000000000E+00 0. -1.
         11    1    3    3    0    0  0.88673471164E+01 -0.88910415489E+01  0.82390470067E-01  0.12557358526E+02  0.51100000000E-03 0. -1.
        -11    1    3    3    0    0  0.90820780422E+00 -0.16523999494E+02 -0.61312128900E+00  0.16560293435E+02  0.51100000000E-03 0.  1.
        -12    1    3    3    0    0 -0.36926263038E+01 -0.17160058625E+02  0.63601541466E+01  0.18669618684E+02  0.00000000000E+00 0.  1.
</event>
<event>
 7    1  0.8440037E-011  0.4778727E+02  0.7816164E-02  0.1312668E+00
        -11   -1    0    0    0    0  0.00000000000E+00  0.00000000000E+00  0.45593999997E+02  0.45594000000E+02  0.51100000000E-03 0.  1.
         11   -1    0    0    0    0 -0.00000000000E+00 -0.00000000000E+00 -0.45593999997E+02  0.45594000000E+02  0.51100000000E-03 0. -1.
    9900012    2    1    2    0    0 -0.30668013724E+02  0.27869912401E+02  0.12898227958E+02  0.47787269967E+02  0.19999995085E+02 0.  0.
         12    1    1    2    0    0  0.30668013724E+02 -0.27869912401E+02 -0.12898227958E+02  0.43400730033E+02  0.00000000000E+00 0. -1.
         11    1    3    3    0    0 -0.14743458192E+02  0.17406552309E+02  0.10597217409E+01  0.22835950455E+02  0.51100000000E-03 0. -1.
        -11    1    3    3    0    0 -0.38490932788E+01  0.45014879877E+01 -0.13795599142E+01  0.60812908984E+01  0.51100000000E-03 0.  1.
        -12    1    3    3    0    0 -0.12075462253E+02  0.59618721038E+01  0.13218066132E+02  0.18870028613E+02  0.00000000000E+00 0.  1.
</event>
<event>
 7    1  0.8440037E-011  0.4778727E+02  0.7816164E-02  0.1312668E+00
        -11   -1    0    0    0    0  0.00000000000E+00  0.00000000000E+00  0.45593999997E+02  0.45594000000E+02  0.51100000000E-03 0. -1.
         11   -1    0    0    0    0 -0.00000000000E+00 -0.00000000000E+00 -0.45593999997E+02  0.45594000000E+02  0.51100000000E-03 0.  1.
    9900012    2    1    2    0    0  0.19747911923E+02  0.19886132473E+02 -0.33138875114E+02  0.47787270353E+02  0.19999996848E+02 0.  0.
         12    1    1    2    0    0 -0.19747911923E+02 -0.19886132473E+02  0.33138875114E+02  0.43400729647E+02  0.00000000000E+00 0. -1.
         11    1    3    3    0    0  0.22006608540E+01  0.53454063991E+01 -0.11873104239E+02  0.13205562551E+02  0.51100000000E-03 0. -1.
        -11    1    3    3    0    0  0.15318265805E+02  0.17694100538E+02 -0.18479529638E+02  0.29819850386E+02  0.51100000000E-03 0.  1.
        -12    1    3    3    0    0  0.22289852641E+01 -0.31533744644E+01 -0.27862412378E+01  0.47618574165E+01  0.00000000000E+00 0.  1.
</event>
<event>
 7    1  0.8440037E-011  0.4778728E+02  0.7816164E-02  0.1312668E+00
        -11   -1    0    0    0    0  0.00000000000E+00  0.00000000000E+00  0.45593999997E+02  0.45594000000E+02  0.51100000000E-03 0. -1.
         11   -1    0    0    0    0 -0.00000000000E+00 -0.00000000000E+00 -0.45593999997E+02  0.45594000000E+02  0.51100000000E-03 0.  1.
    9900012    2    1    2    0    0  0.13626207552E+02 -0.14706574509E+01  0.41179922876E+02  0.47787280954E+02  0.20000045183E+02 0.  0.
        -12    1    1    2    0    0 -0.13626207552E+02  0.14706574509E+01 -0.41179922876E+02  0.43400719046E+02  0.00000000000E+00 0.  1.
         11    1    3    3    0    0  0.13383792089E+02  0.71926169875E+01  0.27596423809E+02  0.31502733804E+02  0.51100000000E-03 0. -1.
        -11    1    3    3    0    0 -0.47500117430E+00 -0.96643009398E+00  0.78464066192E+00  0.13323942628E+01  0.51100000000E-03 0.  1.
         12    1    3    3    0    0  0.71741663735E+00 -0.76968443444E+01  0.12798858406E+02  0.14952152888E+02  0.00000000000E+00 0. -1.
</event>
<event>
 7    1  0.8440037E-011  0.4778727E+02  0.7816164E-02  0.1312668E+00
        -11   -1    0    0    0    0  0.00000000000E+00  0.00000000000E+00  0.45593999997E+02  0.45594000000E+02  0.51100000000E-03 0. -1.
         11   -1    0    0    0    0 -0.00000000000E+00 -0.00000000000E+00 -0.45593999997E+02  0.45594000000E+02  0.51100000000E-03 0.  1.
    9900012    2    1    2    0    0 -0.13148428751E+02 -0.23671242162E+02 -0.33917758190E+02  0.47787271841E+02  0.20000003630E+02 0.  0.
         12    1    1    2    0    0  0.13148428751E+02  0.23671242162E+02  0.33917758190E+02  0.43400728159E+02  0.00000000000E+00 0. -1.
         11    1    3    3    0    0 -0.10066659735E+02 -0.66893007897E+01 -0.19796080724E+02  0.23194162963E+02  0.51100000000E-03 0. -1.
        -11    1    3    3    0    0 -0.53445763072E+01 -0.52319548782E+01 -0.24311696366E+01  0.78643775224E+01  0.51100000000E-03 0.  1.
         12    1    3    3    0    0  0.22628072908E+01 -0.11749986494E+02 -0.11690507830E+02  0.16728731356E+02  0.00000000000E+00 0. -1.
</event>
<event>
 7    1  0.8440037E-011  0.4778727E+02  0.7816164E-02  0.1312668E+00
        -11   -1    0    0    0    0  0.00000000000E+00  0.00000000000E+00  0.45593999997E+02  0.45594000000E+02  0.51100000000E-03 0. -1.
         11   -1    0    0    0    0 -0.00000000000E+00 -0.00000000000E+00 -0.45593999997E+02  0.45594000000E+02  0.51100000000E-03 0.  1.
    9900012    2    1    2    0    0 -0.65082095369E+01  0.94648862673E+01 -0.41853103375E+02  0.47787272753E+02  0.20000007791E+02 0.  0.
         12    1    1    2    0    0  0.65082095369E+01 -0.94648862673E+01  0.41853103375E+02  0.43400727247E+02  0.00000000000E+00 0. -1.
         11    1    3    3    0    0  0.31031876089E+01  0.53932446385E+01 -0.13986003559E+02  0.15307682937E+02  0.51100000000E-03 0. -1.
        -11    1    3    3    0    0  0.22639498830E+01  0.58496242949E+00 -0.12652304619E+02  0.12866563743E+02  0.51100000000E-03 0.  1.
        -12    1    3    3    0    0 -0.11875347029E+02  0.34866791994E+01 -0.15214795197E+02  0.19613026074E+02  0.00000000000E+00 0.  1.
</event>
<event>
 7    1  0.8440037E-011  0.4778727E+02  0.7816164E-02  0.1312668E+00
        -11   -1    0    0    0    0  0.00000000000E+00  0.00000000000E+00  0.45593999997E+02  0.45594000000E+02  0.51100000000E-03 0.  1.
         11   -1    0    0    0    0 -0.00000000000E+00 -0.00000000000E+00 -0.45593999997E+02  0.45594000000E+02  0.51100000000E-03 0. -1.
    9900012    2    1    2    0    0  0.17058107036E+00 -0.42408235865E+02 -0.92269069362E+01  0.47787269837E+02  0.19999994496E+02 0.  0.
         12    1    1    2    0    0 -0.17058107036E+00  0.42408235865E+02  0.92269069362E+01  0.43400730163E+02  0.00000000000E+00 0. -1.
         11    1    3    3    0    0 -0.72378349569E+01 -0.57134497158E+01 -0.20792564521E+01  0.94526752918E+01  0.51100000000E-03 0. -1.
        -11    1    3    3    0    0  0.25040323770E+01 -0.50726112675E+01 -0.84857103929E+00  0.57202828852E+01  0.51100000000E-03 0.  1.
         12    1    3    3    0    0  0.49043836503E+01 -0.31622174881E+02 -0.62990794448E+01  0.32614311660E+02  0.00000000000E+00 0. -1.
</event>
<event>
 7    1  0.8440037E-011  0.4778728E+02  0.7816164E-02  0.1312668E+00
        -11   -1    0    0    0    0  0.00000000000E+00  0.00000000000E+00  0.45593999997E+02  0.45594000000E+02  0.51100000000E-03 0. -1.
         11   -1    0    0    0    0 -0.00000000000E+00 -0.00000000000E+00 -0.45593999997E+02  0.45594000000E+02  0.51100000000E-03 0.  1.
    9900012    2    1    2    0    0  0.31702066513E+02 -0.17677969173E+02 -0.23792665723E+02  0.47787279298E+02  0.20000037630E+02 0.  0.
         12    1    1    2    0    0 -0.31702066513E+02  0.17677969173E+02  0.23792665723E+02  0.43400720702E+02  0.00000000000E+00 0. -1.
         11    1    3    3    0    0  0.11637941647E+02 -0.84660972385E+01 -0.86521996423E+01  0.16792172199E+02  0.51100000000E-03 0. -1.
        -11    1    3    3    0    0  0.18941766861E+02 -0.11165783745E+02 -0.17220374930E+02  0.27928597735E+02  0.51100000000E-03 0.  1.
         12    1    3    3    0    0  0.11223580053E+01  0.19539118107E+01  0.20799088497E+01  0.30665093640E+01  0.00000000000E+00 0. -1.
</event>
<event>
 7    1  0.8440037E-011  0.4778727E+02  0.7816164E-02  0.1312668E+00
        -11   -1    0    0    0    0  0.00000000000E+00  0.00000000000E+00  0.45593999997E+02  0.45594000000E+02  0.51100000000E-03 0. -1.
         11   -1    0    0    0    0 -0.00000000000E+00 -0.00000000000E+00 -0.45593999997E+02  0.45594000000E+02  0.51100000000E-03 0.  1.
    9900012    2    1    2    0    0  0.36977243602E+02 -0.52002036242E+01  0.22119327160E+02  0.47787270788E+02  0.19999998830E+02 0.  0.
        -12    1    1    2    0    0 -0.36977243602E+02  0.52002036242E+01 -0.22119327160E+02  0.43400729212E+02  0.00000000000E+00 0.  1.
         11    1    3    3    0    0  0.51571681499E+01  0.10073152574E+01  0.25996090243E+01  0.58625109548E+01  0.51100000000E-03 0. -1.
        -11    1    3    3    0    0  0.19596657603E+02 -0.12021521883E+02  0.86451767250E+01  0.24561861869E+02  0.51100000000E-03 0.  1.
         12    1    3    3    0    0  0.12223417850E+02  0.58140030019E+01  0.10874541410E+02  0.17362897964E+02  0.00000000000E+00 0. -1.
</event>
<event>
 7    1  0.8440037E-011  0.4778727E+02  0.7816164E-02  0.1312668E+00
        -11   -1    0    0    0    0  0.00000000000E+00  0.00000000000E+00  0.45593999997E+02  0.45594000000E+02  0.51100000000E-03 0. -1.
         11   -1    0    0    0    0 -0.00000000000E+00 -0.00000000000E+00 -0.45593999997E+02  0.45594000000E+02  0.51100000000E-03 0.  1.
    9900012    2    1    2    0    0  0.71425639695E+01 -0.12662325708E+02  0.40893426606E+02  0.47787273600E+02  0.20000011654E+02 0.  0.
        -12    1    1    2    0    0 -0.71425639695E+01  0.12662325708E+02 -0.40893426606E+02  0.43400726400E+02  0.00000000000E+00 0.  1.
         11    1    3    3    0    0  0.17977394225E+00 -0.11696411243E+02  0.94480514786E+01  0.15036756021E+02  0.51100000000E-03 0. -1.
        -11    1    3    3    0    0  0.16447514721E+01 -0.92075824975E+00  0.20448207079E+02  0.20534901416E+02  0.51100000000E-03 0.  1.
        -12    1    3    3    0    0  0.53180385552E+01 -0.45156215611E-01  0.10997168049E+02  0.12215616164E+02  0.00000000000E+00 0.  1.
</event>
<event>
 7    1  0.8440037E-011  0.4778726E+02  0.7816164E-02  0.1312668E+00
        -11   -1    0    0    0    0  0.00000000000E+00  0.00000000000E+00  0.45593999997E+02  0.45594000000E+02  0.51100000000E-03 0.  1.
         11   -1    0    0    0    0 -0.00000000000E+00 -0.00000000000E+00 -0.45593999997E+02  0.45594000000E+02  0.51100000000E-03 0. -1.
    9900012    2    1    2    0    0  0.41902860326E+02 -0.28558654097E+01  0.10937024177E+02  0.47787260737E+02  0.19999953003E+02 0.  0.
        -12    1    1    2    0    0 -0.41902860326E+02  0.28558654097E+01 -0.10937024177E+02  0.43400739263E+02  0.00000000000E+00 0.  1.
         11    1    3    3    0    0  0.28970786952E+02  0.30562326143E+00  0.77217451629E+01  0.29983749780E+02  0.51100000000E-03 0. -1.
        -11    1    3    3    0    0  0.13921846496E+02 -0.54343860213E+01  0.21247454588E+01  0.15095194759E+02  0.51100000000E-03 0.  1.
        -12    1    3    3    0    0 -0.98977312172E+00  0.22728973502E+01  0.10905335548E+01  0.27083161985E+01  0.00000000000E+00 0.  1.
</event>
<event>
 7    1  0.8440037E-011  0.4778726E+02  0.7816164E-02  0.1312668E+00
        -11   -1    0    0    0    0  0.00000000000E+00  0.00000000000E+00  0.45593999997E+02  0.45594000000E+02  0.51100000000E-03 0. -1.
         11   -1    0    0    0    0 -0.00000000000E+00 -0.00000000000E+00 -0.45593999997E+02  0.45594000000E+02  0.51100000000E-03 0.  1.
    9900012    2    1    2    0    0  0.27417301246E+02  0.18068187494E+02 -0.28380571716E+02  0.47787255100E+02  0.19999927304E+02 0.  0.
         12    1    1    2    0    0 -0.27417301246E+02 -0.18068187494E+02  0.28380571716E+02  0.43400744900E+02  0.00000000000E+00 0. -1.
         11    1    3    3    0    0  0.85992977660E+01 -0.23320846488E+00 -0.88969035428E+01  0.12375669726E+02  0.51100000000E-03 0. -1.
        -11    1    3    3    0    0  0.14133060396E+02  0.76038484737E+01 -0.17176680881E+02  0.23507451460E+02  0.51100000000E-03 0.  1.
         12    1    3    3    0    0  0.46849430839E+01  0.10697547485E+02 -0.23069872919E+01  0.11904133914E+02  0.00000000000E+00 0. -1.
</event>
<event>
 7    1  0.8440037E-011  0.4778726E+02  0.7816164E-02  0.1312668E+00
        -11   -1    0    0    0    0  0.00000000000E+00  0.00000000000E+00  0.45593999997E+02  0.45594000000E+02  0.51100000000E-03 0. -1.
         11   -1    0    0    0    0 -0.00000000000E+00 -0.00000000000E+00 -0.45593999997E+02  0.45594000000E+02  0.51100000000E-03 0.  1.
    9900012    2    1    2    0    0  0.22197194330E+00  0.18370180875E+02 -0.39320620285E+02  0.47787262719E+02  0.19999962042E+02 0.  0.
         12    1    1    2    0    0 -0.22197194330E+00 -0.18370180875E+02  0.39320620285E+02  0.43400737281E+02  0.00000000000E+00 0. -1.
         11    1    3    3    0    0 -0.37590509103E+01  0.60673184708E+01 -0.13591921460E+02  0.15351975326E+02  0.51100000000E-03 0. -1.
        -11    1    3    3    0    0 -0.55726637560E+01  0.44517316351E+01 -0.11990219909E+02  0.13951267670E+02  0.51100000000E-03 0.  1.
        -12    1    3    3    0    0  0.95536866095E+01  0.78511307694E+01 -0.13738478916E+02  0.18484019723E+02  0.00000000000E+00 0.  1.
</event>
<event>
 7    1  0.8440037E-011  0.4778728E+02  0.7816164E-02  0.1312668E+00
        -11   -1    0    0    0    0  0.00000000000E+00  0.00000000000E+00  0.45593999997E+02  0.45594000000E+02  0.51100000000E-03 0. -1.
         11   -1    0    0    0    0 -0.00000000000E+00 -0.00000000000E+00 -0.45593999997E+02  0.45594000000E+02  0.51100000000E-03 0.  1.
    9900012    2    1    2    0    0  0.38462558431E+02 -0.12420286089E+01 -0.20067680011E+02  0.47787276306E+02  0.20000023988E+02 0.  0.
         12    1    1    2    0    0 -0.38462558431E+02  0.12420286089E+01  0.20067680011E+02  0.43400723694E+02  0.00000000000E+00 0. -1.
         11    1    3    3    0    0  0.61037687584E+01  0.41051415982E+01 -0.62324038081E+00  0.73821818882E+01  0.51100000000E-03 0. -1.
        -11    1    3    3    0    0  0.20467072989E+02  0.24799439663E+01 -0.14982442422E+02  0.25485776033E+02  0.51100000000E-03 0.  1.
         12    1    3    3    0    0  0.11891716684E+02 -0.78271141734E+01 -0.44619972086E+01  0.14919318384E+02  0.00000000000E+00 0. -1.
</event>
<event>
 7    1  0.8440037E-011  0.4778725E+02  0.7816164E-02  0.1312668E+00
        -11   -1    0    0    0    0  0.00000000000E+00  0.00000000000E+00  0.45593999997E+02  0.45594000000E+02  0.51100000000E-03 0. -1.
         11   -1    0    0    0    0 -0.00000000000E+00 -0.00000000000E+00 -0.45593999997E+02  0.45594000000E+02  0.51100000000E-03 0.  1.
    9900012    2    1    2    0    0 -0.29618031239E+02 -0.35529617146E+01  0.31524171220E+02  0.47787254816E+02  0.19999926009E+02 0.  0.
        -12    1    1    2    0    0  0.29618031239E+02  0.35529617146E+01 -0.31524171220E+02  0.43400745184E+02  0.00000000000E+00 0.  1.
         11    1    3    3    0    0 -0.93129224361E+01 -0.11938823274E+01  0.12176897311E+01  0.94677688953E+01  0.51100000000E-03 0. -1.
        -11    1    3    3    0    0 -0.87519708594E+00 -0.38361825334E+01  0.58323392469E+01  0.70355133232E+01  0.51100000000E-03 0.  1.
        -12    1    3    3    0    0 -0.19429911717E+02  0.14771031462E+01  0.24474142242E+02  0.31283972598E+02  0.00000000000E+00 0.  1.
</event>
<event>
 7    1  0.8440037E-011  0.4778727E+02  0.7816164E-02  0.1312668E+00
        -11   -1    0    0    0    0  0.00000000000E+00  0.00000000000E+00  0.45593999997E+02  0.45594000000E+02  0.51100000000E-03 0. -1.
         11   -1    0    0    0    0 -0.00000000000E+00 -0.00000000000E+00 -0.45593999997E+02  0.45594000000E+02  0.51100000000E-03 0.  1.
    9900012    2    1    2    0    0  0.19315688024E+02  0.36428298447E+02 -0.13546462039E+02  0.47787269991E+02  0.19999995196E+02 0.  0.
         12    1    1    2    0    0 -0.19315688024E+02 -0.36428298447E+02  0.13546462039E+02  0.43400730009E+02  0.00000000000E+00 0. -1.
         11    1    3    3    0    0  0.70561144633E+01  0.14909027995E+02 -0.26374654964E+01  0.16704014235E+02  0.51100000000E-03 0. -1.
        -11    1    3    3    0    0 -0.13788193390E+01  0.12892017604E+02 -0.46571514950E+01  0.13776585969E+02  0.51100000000E-03 0.  1.
         12    1    3    3    0    0  0.13638392899E+02  0.86272528484E+01 -0.62518450475E+01  0.17306669786E+02  0.00000000000E+00 0. -1.
</event>
<event>
 7    1  0.9194549E-011  0.4778727E+02  0.7816164E-02  0.1312668E+00
        -11   -1    0    0    0    0  0.00000000000E+00  0.00000000000E+00  0.45593999997E+02  0.45594000000E+02  0.51100000000E-03 0. -1.
         11   -1    0    0    0    0 -0.00000000000E+00 -0.00000000000E+00 -0.45593999997E+02  0.45594000000E+02  0.51100000000E-03 0.  1.
    9900012    2    1    2    0    0  0.11327163942E+02  0.28987500734E+02  0.30249687695E+02  0.47787269045E+02  0.19999990884E+02 0.  0.
        -12    1    1    2    0    0 -0.11327163942E+02 -0.28987500734E+02 -0.30249687695E+02  0.43400730955E+02  0.00000000000E+00 0.  1.
         11    1    3    3    0    0  0.95980624219E-01 -0.67374854942E+00  0.70675001078E+01  0.71001906610E+01  0.51100000000E-03 0. -1.
        -11    1    3    3    0    0  0.20558763836E+01  0.10287740839E+01 -0.57212681606E+00  0.23690363389E+01  0.51100000000E-03 0.  1.
         12    1    3    3    0    0  0.91753069345E+01  0.28632475200E+02  0.23754314403E+02  0.38318042045E+02  0.00000000000E+00 0. -1.
</event>
<event>
 7    1  0.8440037E-011  0.4778727E+02  0.7816164E-02  0.1312668E+00
        -11   -1    0    0    0    0  0.00000000000E+00  0.00000000000E+00  0.45593999997E+02  0.45594000000E+02  0.51100000000E-03 0. -1.
         11   -1    0    0    0    0 -0.00000000000E+00 -0.00000000000E+00 -0.45593999997E+02  0.45594000000E+02  0.51100000000E-03 0.  1.
    9900012    2    1    2    0    0  0.24401726782E+02  0.37765202055E+01 -0.35691972850E+02  0.47787270735E+02  0.19999998591E+02 0.  0.
         12    1    1    2    0    0 -0.24401726782E+02 -0.37765202055E+01  0.35691972850E+02  0.43400729265E+02  0.00000000000E+00 0. -1.
         11    1    3    3    0    0  0.67002393421E+00 -0.20529620873E+01 -0.16222904074E+01  0.27010020050E+01  0.51100000000E-03 0. -1.
        -11    1    3    3    0    0  0.24111630122E+02  0.76864402470E+00 -0.30472727701E+02  0.38865777422E+02  0.51100000000E-03 0.  1.
        -12    1    3    3    0    0 -0.37992727489E+00  0.50608382681E+01 -0.35969547411E+01  0.62204913085E+01  0.00000000000E+00 0.  1.
</event>
<event>
 7    1  0.8440037E-011  0.4778726E+02  0.7816164E-02  0.1312668E+00
        -11   -1    0    0    0    0  0.00000000000E+00  0.00000000000E+00  0.45593999997E+02  0.45594000000E+02  0.51100000000E-03 0.  1.
         11   -1    0    0    0    0 -0.00000000000E+00 -0.00000000000E+00 -0.45593999997E+02  0.45594000000E+02  0.51100000000E-03 0. -1.
    9900012    2    1    2    0    0  0.40993968456E+02  0.85486749890E+01 -0.11403462723E+02  0.47787259731E+02  0.19999948418E+02 0.  0.
         12    1    1    2    0    0 -0.40993968456E+02 -0.85486749890E+01  0.11403462723E+02  0.43400740269E+02  0.00000000000E+00 0. -1.
         11    1    3    3    0    0  0.14724327272E+02  0.88131524135E+01 -0.18387524730E+01  0.17258576998E+02  0.51100000000E-03 0. -1.
        -11    1    3    3    0    0  0.15557653334E+02  0.44603520845E+01 -0.96067938991E+01  0.18820887526E+02  0.51100000000E-03 0.  1.
         12    1    3    3    0    0  0.10711987849E+02 -0.47248295091E+01  0.42083649122E-01  0.11707795207E+02  0.00000000000E+00 0. -1.
</event>
<event>
 7    1  0.8440037E-011  0.4778727E+02  0.7816164E-02  0.1312668E+00
        -11   -1    0    0    0    0  0.00000000000E+00  0.00000000000E+00  0.45593999997E+02  0.45594000000E+02  0.51100000000E-03 0. -1.
         11   -1    0    0    0    0 -0.00000000000E+00 -0.00000000000E+00 -0.45593999997E+02  0.45594000000E+02  0.51100000000E-03 0.  1.
    9900012    2    1    2    0    0 -0.61141386297E+01 -0.23932557453E+02 -0.35685760081E+02  0.47787268785E+02  0.19999989698E+02 0.  0.
         12    1    1    2    0    0  0.61141386297E+01  0.23932557453E+02  0.35685760081E+02  0.43400731215E+02  0.00000000000E+00 0. -1.
         11    1    3    3    0    0  0.25104824686E+01 -0.28201175467E+01 -0.78804071342E+01  0.87382150387E+01  0.51100000000E-03 0. -1.
        -11    1    3    3    0    0 -0.89575516017E+01 -0.11512962205E+02 -0.25165578676E+02  0.29087667143E+02  0.51100000000E-03 0.  1.
         12    1    3    3    0    0  0.33293050350E+00 -0.95994777017E+01 -0.26397742706E+01  0.99613866035E+01  0.00000000000E+00 0. -1.
</event>
<event>
 7    1  0.8440037E-011  0.4778723E+02  0.7816164E-02  0.1312668E+00
        -11   -1    0    0    0    0  0.00000000000E+00  0.00000000000E+00  0.45593999997E+02  0.45594000000E+02  0.51100000000E-03 0.  1.
         11   -1    0    0    0    0 -0.00000000000E+00 -0.00000000000E+00 -0.45593999997E+02  0.45594000000E+02  0.51100000000E-03 0. -1.
    9900012    2    1    2    0    0 -0.18661707995E+02 -0.13682566651E+02  0.36717230606E+02  0.47787228131E+02  0.19999804339E+02 0.  0.
        -12    1    1    2    0    0  0.18661707995E+02  0.13682566651E+02 -0.36717230606E+02  0.43400771869E+02  0.00000000000E+00 0.  1.
         11    1    3    3    0    0 -0.44942217979E+01 -0.34854649984E+01  0.16302870449E+02  0.17266443784E+02  0.51100000000E-03 0. -1.
        -11    1    3    3    0    0  0.19877933574E+01 -0.71914227672E+00  0.74431943183E+01  0.77375467667E+01  0.51100000000E-03 0.  1.
         12    1    3    3    0    0 -0.16155279554E+02 -0.94779593759E+01  0.12971165839E+02  0.22783237580E+02  0.00000000000E+00 0. -1.
</event>
<event>
 7    1  0.8440037E-011  0.4778722E+02  0.7816164E-02  0.1312668E+00
        -11   -1    0    0    0    0  0.00000000000E+00  0.00000000000E+00  0.45593999997E+02  0.45594000000E+02  0.51100000000E-03 0. -1.
         11   -1    0    0    0    0 -0.00000000000E+00 -0.00000000000E+00 -0.45593999997E+02  0.45594000000E+02  0.51100000000E-03 0.  1.
    9900012    2    1    2    0    0  0.13449084287E+02  0.22659786659E+02  0.34485998714E+02  0.47787217670E+02  0.19999756641E+02 0.  0.
        -12    1    1    2    0    0 -0.13449084287E+02 -0.22659786659E+02 -0.34485998714E+02  0.43400782330E+02  0.00000000000E+00 0.  1.
         11    1    3    3    0    0  0.84942521766E+01  0.12173304307E+02  0.10867446972E+02  0.18396822056E+02  0.51100000000E-03 0. -1.
        -11    1    3    3    0    0  0.75611880053E+01  0.96890365233E+00  0.10422353886E+02  0.12912621698E+02  0.51100000000E-03 0.  1.
        -12    1    3    3    0    0 -0.26063558953E+01  0.95175786991E+01  0.13196197857E+02  0.16477773916E+02  0.00000000000E+00 0.  1.
</event>
<event>
 7    1  0.8440037E-011  0.4778727E+02  0.7816164E-02  0.1312668E+00
        -11   -1    0    0    0    0  0.00000000000E+00  0.00000000000E+00  0.45593999997E+02  0.45594000000E+02  0.51100000000E-03 0. -1.
         11   -1    0    0    0    0 -0.00000000000E+00 -0.00000000000E+00 -0.45593999997E+02  0.45594000000E+02  0.51100000000E-03 0.  1.
    9900012    2    1    2    0    0  0.26297566787E+02  0.12197813314E+02 -0.32299759802E+02  0.47787272451E+02  0.20000006413E+02 0.  0.
         12    1    1    2    0    0 -0.26297566787E+02 -0.12197813314E+02  0.32299759802E+02  0.43400727549E+02  0.00000000000E+00 0. -1.
         11    1    3    3    0    0  0.40024000079E+01  0.40636241449E+01 -0.74972011695E+01  0.94202055525E+01  0.51100000000E-03 0. -1.
        -11    1    3    3    0    0  0.22292611961E+02  0.15676008112E+01 -0.21524400007E+02  0.31027692732E+02  0.51100000000E-03 0.  1.
        -12    1    3    3    0    0  0.25548182031E-02  0.65665883576E+01 -0.32781586249E+01  0.73393741664E+01  0.00000000000E+00 0.  1.
</event>
<event>
 7    1  0.8440037E-011  0.4778727E+02  0.7816164E-02  0.1312668E+00
        -11   -1    0    0    0    0  0.00000000000E+00  0.00000000000E+00  0.45593999997E+02  0.45594000000E+02  0.51100000000E-03 0. -1.
         11   -1    0    0    0    0 -0.00000000000E+00 -0.00000000000E+00 -0.45593999997E+02  0.45594000000E+02  0.51100000000E-03 0.  1.
    9900012    2    1    2    0    0  0.28361187362E+02  0.12406525372E+02  0.30419471295E+02  0.47787273575E+02  0.20000011536E+02 0.  0.
        -12    1    1    2    0    0 -0.28361187362E+02 -0.12406525372E+02 -0.30419471295E+02  0.43400726425E+02  0.00000000000E+00 0.  1.
         11    1    3    3    0    0  0.30034657665E+02  0.83171583013E+01  0.26155866022E+02  0.40686424159E+02  0.51100000000E-03 0. -1.
        -11    1    3    3    0    0  0.33911673358E+00  0.21860665476E+01  0.36431092192E+01  0.42621745804E+01  0.51100000000E-03 0.  1.
        -12    1    3    3    0    0 -0.20125870369E+01  0.19033005236E+01  0.62049605391E+00  0.28386748347E+01  0.00000000000E+00 0.  1.
</event>
<event>
 7    1  0.8440037E-011  0.4778727E+02  0.7816164E-02  0.1312668E+00
        -11   -1    0    0    0    0  0.00000000000E+00  0.00000000000E+00  0.45593999997E+02  0.45594000000E+02  0.51100000000E-03 0. -1.
         11   -1    0    0    0    0 -0.00000000000E+00 -0.00000000000E+00 -0.45593999997E+02  0.45594000000E+02  0.51100000000E-03 0.  1.
    9900012    2    1    2    0    0  0.47771949361E+01  0.30553104578E+02  0.30451761641E+02  0.47787267542E+02  0.19999984033E+02 0.  0.
        -12    1    1    2    0    0 -0.47771949361E+01 -0.30553104578E+02 -0.30451761641E+02  0.43400732458E+02  0.00000000000E+00 0.  1.
         11    1    3    3    0    0  0.21296626709E+01  0.23180560254E+02  0.21819218627E+02  0.31905362223E+02  0.51100000000E-03 0. -1.
        -11    1    3    3    0    0 -0.29059965590E+01  0.69368449184E+01  0.34543477029E+01  0.82763006069E+01  0.51100000000E-03 0.  1.
        -12    1    3    3    0    0  0.55535288242E+01  0.43569940565E+00  0.51781953107E+01  0.76056047129E+01  0.00000000000E+00 0.  1.
</event>
<event>
 7    1  0.8440037E-011  0.4778727E+02  0.7816164E-02  0.1312668E+00
        -11   -1    0    0    0    0  0.00000000000E+00  0.00000000000E+00  0.45593999997E+02  0.45594000000E+02  0.51100000000E-03 0.  1.
         11   -1    0    0    0    0 -0.00000000000E+00 -0.00000000000E+00 -0.45593999997E+02  0.45594000000E+02  0.51100000000E-03 0. -1.
    9900012    2    1    2    0    0 -0.42904397401E+01  0.40749410187E+02 -0.14307376659E+02  0.47787270391E+02  0.19999997019E+02 0.  0.
         12    1    1    2    0    0  0.42904397401E+01 -0.40749410187E+02  0.14307376659E+02  0.43400729609E+02  0.00000000000E+00 0. -1.
         11    1    3    3    0    0  0.12246470392E+01  0.42253162687E+01 -0.71780479754E+01  0.84188734958E+01  0.51100000000E-03 0. -1.
        -11    1    3    3    0    0 -0.27218386459E+01  0.72572332453E+01 -0.62476121389E+01  0.99553250921E+01  0.51100000000E-03 0.  1.
        -12    1    3    3    0    0 -0.27932481334E+01  0.29266860673E+02 -0.88171654481E+00  0.29413071803E+02  0.00000000000E+00 0.  1.
</event>
<event>
 7    1  0.8440037E-011  0.4778727E+02  0.7816164E-02  0.1312668E+00
        -11   -1    0    0    0    0  0.00000000000E+00  0.00000000000E+00  0.45593999997E+02  0.45594000000E+02  0.51100000000E-03 0. -1.
         11   -1    0    0    0    0 -0.00000000000E+00 -0.00000000000E+00 -0.45593999997E+02  0.45594000000E+02  0.51100000000E-03 0.  1.
    9900012    2    1    2    0    0 -0.38969422327E+01 -0.24322432393E+02  0.35733129327E+02  0.47787269502E+02  0.19999992968E+02 0.  0.
        -12    1    1    2    0    0  0.38969422327E+01  0.24322432393E+02 -0.35733129327E+02  0.43400730498E+02  0.00000000000E+00 0.  1.
         11    1    3    3    0    0 -0.28599084098E+01  0.18213978681E+01  0.37078423058E+01  0.50244065453E+01  0.51100000000E-03 0.  1.
        -11    1    3    3    0    0 -0.55604262934E+01 -0.10316609921E+02  0.15567314850E+02  0.19485688921E+02  0.51100000000E-03 0. -1.
        -12    1    3    3    0    0  0.45233924705E+01 -0.15827220339E+02  0.16457972171E+02  0.23277174036E+02  0.00000000000E+00 0.  1.
</event>
<event>
 7    1  0.8440037E-011  0.4778727E+02  0.7816164E-02  0.1312668E+00
        -11   -1    0    0    0    0  0.00000000000E+00  0.00000000000E+00  0.45593999997E+02  0.45594000000E+02  0.51100000000E-03 0. -1.
         11   -1    0    0    0    0 -0.00000000000E+00 -0.00000000000E+00 -0.45593999997E+02  0.45594000000E+02  0.51100000000E-03 0.  1.
    9900012    2    1    2    0    0 -0.22545690009E+02  0.25261301870E+02  0.27151091976E+02  0.47787270678E+02  0.19999998331E+02 0.  0.
        -12    1    1    2    0    0  0.22545690009E+02 -0.25261301870E+02 -0.27151091976E+02  0.43400729322E+02  0.00000000000E+00 0.  1.
         11    1    3    3    0    0 -0.20909597908E+02  0.17346014856E+02  0.21874956965E+02  0.34879926298E+02  0.51100000000E-03 0. -1.
        -11    1    3    3    0    0  0.51115179653E+00  0.53802350325E+01  0.72502038195E+01  0.90428790133E+01  0.51100000000E-03 0.  1.
        -12    1    3    3    0    0 -0.21472438977E+01  0.25350519821E+01 -0.19740688092E+01  0.38644653668E+01  0.00000000000E+00 0.  1.
</event>
<event>
 7    1  0.8440037E-011  0.4778727E+02  0.7816164E-02  0.1312668E+00
        -11   -1    0    0    0    0  0.00000000000E+00  0.00000000000E+00  0.45593999997E+02  0.45594000000E+02  0.51100000000E-03 0. -1.
         11   -1    0    0    0    0 -0.00000000000E+00 -0.00000000000E+00 -0.45593999997E+02  0.45594000000E+02  0.51100000000E-03 0.  1.
    9900012    2    1    2    0    0 -0.65049344456E+01  0.61278934416E+01  0.42470672160E+02  0.47787271390E+02  0.20000001574E+02 0.  0.
        -12    1    1    2    0    0  0.65049344456E+01 -0.61278934416E+01 -0.42470672160E+02  0.43400728610E+02  0.00000000000E+00 0.  1.
         11    1    3    3    0    0 -0.19094418950E+01  0.26411575017E+01  0.56406483581E-02  0.32590970187E+01  0.51100000000E-03 0. -1.
        -11    1    3    3    0    0 -0.38999151141E+01  0.17657984008E+01  0.35294408474E+01  0.55483632583E+01  0.51100000000E-03 0.  1.
         12    1    3    3    0    0 -0.69557743647E+00  0.17209375391E+01  0.38935590664E+02  0.38979811113E+02  0.00000000000E+00 0. -1.
</event>
<event>
 7    1  0.9191039E-011  0.4778727E+02  0.7816164E-02  0.1312668E+00
        -11   -1    0    0    0    0  0.00000000000E+00  0.00000000000E+00  0.45593999997E+02  0.45594000000E+02  0.51100000000E-03 0. -1.
         11   -1    0    0    0    0 -0.00000000000E+00 -0.00000000000E+00 -0.45593999997E+02  0.45594000000E+02  0.51100000000E-03 0.  1.
    9900012    2    1    2    0    0 -0.24546792110E+02  0.10981554142E+02  0.34065875646E+02  0.47787269387E+02  0.19999992442E+02 0.  0.
        -12    1    1    2    0    0  0.24546792110E+02 -0.10981554142E+02 -0.34065875646E+02  0.43400730613E+02  0.00000000000E+00 0.  1.
         11    1    3    3    0    0 -0.49727738268E-01  0.28937280022E+01 -0.31819822960E+00  0.29115949191E+01  0.51100000000E-03 0. -1.
        -11    1    3    3    0    0 -0.35802923631E+01  0.66756373287E+01  0.64456947817E+01  0.99463364426E+01  0.51100000000E-03 0.  1.
         12    1    3    3    0    0 -0.20916772008E+02  0.14121888109E+01  0.27938379094E+02  0.34929338025E+02  0.00000000000E+00 0. -1.
</event>
<event>
 7    1  0.8440037E-011  0.4778727E+02  0.7816164E-02  0.1312668E+00
        -11   -1    0    0    0    0  0.00000000000E+00  0.00000000000E+00  0.45593999997E+02  0.45594000000E+02  0.51100000000E-03 0. -1.
         11   -1    0    0    0    0 -0.00000000000E+00 -0.00000000000E+00 -0.45593999997E+02  0.45594000000E+02  0.51100000000E-03 0.  1.
    9900012    2    1    2    0    0 -0.93714647337E+01  0.22370262108E+02 -0.35991252937E+02  0.47787271136E+02  0.20000000415E+02 0.  0.
         12    1    1    2    0    0  0.93714647337E+01 -0.22370262108E+02  0.35991252937E+02  0.43400728864E+02  0.00000000000E+00 0. -1.
         11    1    3    3    0    0 -0.74000990844E+01  0.15472316226E+02 -0.22227081616E+02  0.28074849835E+02  0.51100000000E-03 0. -1.
        -11    1    3    3    0    0  0.22279130776E+01  0.52166543783E+01 -0.14078349080E+02  0.15178174879E+02  0.51100000000E-03 0.  1.
         12    1    3    3    0    0 -0.41992787269E+01  0.16812915035E+01  0.31417775896E+00  0.45342464214E+01  0.00000000000E+00 0. -1.
</event>
<event>
 7    1  0.8727812E-011  0.4778727E+02  0.7816164E-02  0.1312668E+00
        -11   -1    0    0    0    0  0.00000000000E+00  0.00000000000E+00  0.45593999997E+02  0.45594000000E+02  0.51100000000E-03 0. -1.
         11   -1    0    0    0    0 -0.00000000000E+00 -0.00000000000E+00 -0.45593999997E+02  0.45594000000E+02  0.51100000000E-03 0.  1.
    9900012    2    1    2    0    0 -0.14290329639E+02  0.32110448453E+02  0.25462303312E+02  0.47787270617E+02  0.19999998050E+02 0.  0.
        -12    1    1    2    0    0  0.14290329639E+02 -0.32110448453E+02 -0.25462303312E+02  0.43400729383E+02  0.00000000000E+00 0.  1.
         11    1    3    3    0    0 -0.10826924826E+02  0.11240721381E+02  0.13121152831E+02  0.20389722171E+02  0.51100000000E-03 0. -1.
        -11    1    3    3    0    0 -0.42008916619E+01  0.10525721868E+01  0.65634822582E+00  0.43802045864E+01  0.51100000000E-03 0.  1.
         12    1    3    3    0    0  0.73748684815E+00  0.19817154885E+02  0.11684802256E+02  0.23017343859E+02  0.00000000000E+00 0. -1.
</event>
<event>
 7    1  0.8440037E-011  0.4778727E+02  0.7816164E-02  0.1312668E+00
        -11   -1    0    0    0    0  0.00000000000E+00  0.00000000000E+00  0.45593999997E+02  0.45594000000E+02  0.51100000000E-03 0. -1.
         11   -1    0    0    0    0 -0.00000000000E+00 -0.00000000000E+00 -0.45593999997E+02  0.45594000000E+02  0.51100000000E-03 0.  1.
    9900012    2    1    2    0    0 -0.18654248328E+02 -0.21390207156E+02 -0.32834453340E+02  0.47787271101E+02  0.20000000257E+02 0.  0.
         12    1    1    2    0    0  0.18654248328E+02  0.21390207156E+02  0.32834453340E+02  0.43400728899E+02  0.00000000000E+00 0. -1.
         11    1    3    3    0    0  0.36546525511E-01 -0.12214121093E+01 -0.40146740895E+01  0.41965213565E+01  0.51100000000E-03 0.  1.
        -11    1    3    3    0    0 -0.41545623873E+01  0.25958971017E+01 -0.84251997753E+01  0.97459254002E+01  0.51100000000E-03 0. -1.
         12    1    3    3    0    0 -0.14536232466E+02 -0.22764692148E+02 -0.20394579475E+02  0.33844824344E+02  0.00000000000E+00 0. -1.
</event>
<event>
 7    1  0.8440037E-011  0.4778727E+02  0.7816164E-02  0.1312668E+00
        -11   -1    0    0    0    0  0.00000000000E+00  0.00000000000E+00  0.45593999997E+02  0.45594000000E+02  0.51100000000E-03 0. -1.
         11   -1    0    0    0    0 -0.00000000000E+00 -0.00000000000E+00 -0.45593999997E+02  0.45594000000E+02  0.51100000000E-03 0.  1.
    9900012    2    1    2    0    0 -0.25553307175E+02 -0.15862629321E+02 -0.31289437251E+02  0.47787269591E+02  0.19999993375E+02 0.  0.
         12    1    1    2    0    0  0.25553307175E+02  0.15862629321E+02  0.31289437251E+02  0.43400730409E+02  0.00000000000E+00 0. -1.
         11    1    3    3    0    0 -0.34815616773E+01 -0.73888649757E+01 -0.17910886285E+01  0.83620928050E+01  0.51100000000E-03 0. -1.
        -11    1    3    3    0    0 -0.91201304769E+01 -0.90487332619E+01 -0.17876370523E+02  0.22014108587E+02  0.51100000000E-03 0.  1.
        -12    1    3    3    0    0 -0.12951615021E+02  0.57496891667E+00 -0.11621978099E+02  0.17411068199E+02  0.00000000000E+00 0.  1.
</event>
<event>
 7    1  0.8440037E-011  0.4778726E+02  0.7816164E-02  0.1312668E+00
        -11   -1    0    0    0    0  0.00000000000E+00  0.00000000000E+00  0.45593999997E+02  0.45594000000E+02  0.51100000000E-03 0. -1.
         11   -1    0    0    0    0 -0.00000000000E+00 -0.00000000000E+00 -0.45593999997E+02  0.45594000000E+02  0.51100000000E-03 0.  1.
    9900012    2    1    2    0    0 -0.92319457268E+01 -0.15425047871E+01  0.42379428546E+02  0.47787261449E+02  0.19999956249E+02 0.  0.
        -12    1    1    2    0    0  0.92319457268E+01  0.15425047871E+01 -0.42379428546E+02  0.43400738551E+02  0.00000000000E+00 0.  1.
         11    1    3    3    0    0  0.13598001303E+01  0.29450796252E+01  0.26056025614E+01  0.41607349546E+01  0.51100000000E-03 0. -1.
        -11    1    3    3    0    0 -0.85961577726E+01 -0.23950950283E+01  0.88504192469E+01  0.12568226993E+02  0.51100000000E-03 0.  1.
        -12    1    3    3    0    0 -0.19955880845E+01 -0.20924893841E+01  0.30923406738E+02  0.31058299501E+02  0.00000000000E+00 0.  1.
</event>
<event>
 7    1  0.8440037E-011  0.4778727E+02  0.7816164E-02  0.1312668E+00
        -11   -1    0    0    0    0  0.00000000000E+00  0.00000000000E+00  0.45593999997E+02  0.45594000000E+02  0.51100000000E-03 0. -1.
         11   -1    0    0    0    0 -0.00000000000E+00 -0.00000000000E+00 -0.45593999997E+02  0.45594000000E+02  0.51100000000E-03 0.  1.
    9900012    2    1    2    0    0 -0.15141529400E+02  0.24499957027E+02  0.32467051498E+02  0.47787271436E+02  0.20000001786E+02 0.  0.
        -12    1    1    2    0    0  0.15141529400E+02 -0.24499957027E+02 -0.32467051498E+02  0.43400728564E+02  0.00000000000E+00 0.  1.
         11    1    3    3    0    0 -0.63705491044E+01  0.86659443196E+01  0.14071877060E+02  0.17711584093E+02  0.51100000000E-03 0. -1.
        -11    1    3    3    0    0 -0.95594173155E+01  0.32359808717E+01  0.38116174439E+01  0.10788070236E+02  0.51100000000E-03 0.  1.
         12    1    3    3    0    0  0.78843702024E+00  0.12598031835E+02  0.14583556995E+02  0.19287617107E+02  0.00000000000E+00 0. -1.
</event>
<event>
 7    1  0.8440037E-011  0.4778727E+02  0.7816164E-02  0.1312668E+00
        -11   -1    0    0    0    0  0.00000000000E+00  0.00000000000E+00  0.45593999997E+02  0.45594000000E+02  0.51100000000E-03 0. -1.
         11   -1    0    0    0    0 -0.00000000000E+00 -0.00000000000E+00 -0.45593999997E+02  0.45594000000E+02  0.51100000000E-03 0.  1.
    9900012    2    1    2    0    0  0.15090758291E+02  0.36540247786E+02 -0.17908172823E+02  0.47787270192E+02  0.19999996113E+02 0.  0.
         12    1    1    2    0    0 -0.15090758291E+02 -0.36540247786E+02  0.17908172823E+02  0.43400729808E+02  0.00000000000E+00 0. -1.
         11    1    3    3    0    0  0.65882735204E+01  0.19038236196E+02 -0.45800658271E+01  0.20660028768E+02  0.51100000000E-03 0. -1.
        -11    1    3    3    0    0 -0.97722475067E+00  0.13114701901E+02 -0.81104673162E+01  0.15450891706E+02  0.51100000000E-03 0.  1.
         12    1    3    3    0    0  0.94797095211E+01  0.43873096882E+01 -0.52176396798E+01  0.11676349718E+02  0.00000000000E+00 0. -1.
</event>
<event>
 7    1  0.8440037E-011  0.4778727E+02  0.7816164E-02  0.1312668E+00
        -11   -1    0    0    0    0  0.00000000000E+00  0.00000000000E+00  0.45593999997E+02  0.45594000000E+02  0.51100000000E-03 0. -1.
         11   -1    0    0    0    0 -0.00000000000E+00 -0.00000000000E+00 -0.45593999997E+02  0.45594000000E+02  0.51100000000E-03 0.  1.
    9900012    2    1    2    0    0  0.87465523418E+01  0.13676232848E+02 -0.40250242338E+02  0.47787268081E+02  0.19999986490E+02 0.  0.
         12    1    1    2    0    0 -0.87465523418E+01 -0.13676232848E+02  0.40250242338E+02  0.43400731919E+02  0.00000000000E+00 0. -1.
         11    1    3    3    0    0  0.75247856408E+01  0.73955966911E+00 -0.17183565745E+02  0.18773499392E+02  0.51100000000E-03 0. -1.
        -11    1    3    3    0    0  0.17519578848E+01  0.60175024778E+01 -0.20784198256E+02  0.21708583323E+02  0.51100000000E-03 0.  1.
        -12    1    3    3    0    0 -0.53019118381E+00  0.69191707008E+01 -0.22824783381E+01  0.73051853667E+01  0.00000000000E+00 0.  1.
</event>
<event>
 7    1  0.8440037E-011  0.4778728E+02  0.7816164E-02  0.1312668E+00
        -11   -1    0    0    0    0  0.00000000000E+00  0.00000000000E+00  0.45593999997E+02  0.45594000000E+02  0.51100000000E-03 0.  1.
         11   -1    0    0    0    0 -0.00000000000E+00 -0.00000000000E+00 -0.45593999997E+02  0.45594000000E+02  0.51100000000E-03 0. -1.
    9900012    2    1    2    0    0  0.43570511228E+01  0.41866978519E+02 -0.10573322163E+02  0.47787275049E+02  0.20000018256E+02 0.  0.
         12    1    1    2    0    0 -0.43570511228E+01 -0.41866978519E+02  0.10573322163E+02  0.43400724951E+02  0.00000000000E+00 0. -1.
         11    1    3    3    0    0 -0.65502117329E+01  0.14568321623E+02 -0.28342565097E+01  0.16222647098E+02  0.51100000000E-03 0. -1.
        -11    1    3    3    0    0  0.15904223848E+01 -0.25027927299E-01 -0.11248308320E+01  0.19481566726E+01  0.51100000000E-03 0.  1.
        -12    1    3    3    0    0  0.93168404709E+01  0.27323684823E+02 -0.66142348211E+01  0.29616471278E+02  0.00000000000E+00 0.  1.
</event>
<event>
 7    1  0.8440037E-011  0.4778727E+02  0.7816164E-02  0.1312668E+00
        -11   -1    0    0    0    0  0.00000000000E+00  0.00000000000E+00  0.45593999997E+02  0.45594000000E+02  0.51100000000E-03 0. -1.
         11   -1    0    0    0    0 -0.00000000000E+00 -0.00000000000E+00 -0.45593999997E+02  0.45594000000E+02  0.51100000000E-03 0.  1.
    9900012    2    1    2    0    0  0.42190956662E+01 -0.28034434658E+02  0.32861723870E+02  0.47787272004E+02  0.20000004377E+02 0.  0.
        -12    1    1    2    0    0 -0.42190956662E+01  0.28034434658E+02 -0.32861723870E+02  0.43400727996E+02  0.00000000000E+00 0.  1.
         11    1    3    3    0    0 -0.11089987630E+01  0.13540771657E+00  0.21106103695E+01  0.23880724233E+01  0.51100000000E-03 0.  1.
        -11    1    3    3    0    0  0.31041049745E+01 -0.29024390902E+02  0.22626610968E+02  0.36932563668E+02  0.51100000000E-03 0. -1.
         12    1    3    3    0    0  0.22239894547E+01  0.85454852767E+00  0.81245025322E+01  0.84666359126E+01  0.00000000000E+00 0. -1.
</event>
<event>
 7    1  0.8440037E-011  0.4778727E+02  0.7816164E-02  0.1312668E+00
        -11   -1    0    0    0    0  0.00000000000E+00  0.00000000000E+00  0.45593999997E+02  0.45594000000E+02  0.51100000000E-03 0. -1.
         11   -1    0    0    0    0 -0.00000000000E+00 -0.00000000000E+00 -0.45593999997E+02  0.45594000000E+02  0.51100000000E-03 0.  1.
    9900012    2    1    2    0    0  0.13692973676E+02  0.16002646077E+02  0.37947873141E+02  0.47787270911E+02  0.19999999392E+02 0.  0.
        -12    1    1    2    0    0 -0.13692973676E+02 -0.16002646077E+02 -0.37947873141E+02  0.43400729089E+02  0.00000000000E+00 0.  1.
         11    1    3    3    0    0  0.77853197539E+01  0.86131023509E+01  0.24154792005E+02  0.26800199866E+02  0.51100000000E-03 0. -1.
        -11    1    3    3    0    0  0.13144037582E+01  0.57122146942E+01  0.14866864969E+02  0.15980636039E+02  0.51100000000E-03 0.  1.
        -12    1    3    3    0    0  0.45932501642E+01  0.16773290317E+01 -0.10737838333E+01  0.50064350063E+01  0.00000000000E+00 0.  1.
</event>
<event>
 7    1  0.8440037E-011  0.4778727E+02  0.7816164E-02  0.1312668E+00
        -11   -1    0    0    0    0  0.00000000000E+00  0.00000000000E+00  0.45593999997E+02  0.45594000000E+02  0.51100000000E-03 0. -1.
         11   -1    0    0    0    0 -0.00000000000E+00 -0.00000000000E+00 -0.45593999997E+02  0.45594000000E+02  0.51100000000E-03 0.  1.
    9900012    2    1    2    0    0 -0.21055202182E+02 -0.23857251432E+02 -0.29514968895E+02  0.47787269895E+02  0.19999994758E+02 0.  0.
         12    1    1    2    0    0  0.21055202182E+02  0.23857251432E+02  0.29514968895E+02  0.43400730105E+02  0.00000000000E+00 0. -1.
         11    1    3    3    0    0 -0.15292895637E+02 -0.17077922181E+02 -0.14321388834E+02  0.27030173166E+02  0.51100000000E-03 0. -1.
        -11    1    3    3    0    0 -0.25776461080E+01 -0.91079749993E+01 -0.13442327289E+02  0.16440670036E+02  0.51100000000E-03 0.  1.
        -12    1    3    3    0    0 -0.31846604371E+01  0.23286457481E+01 -0.17512527718E+01  0.43164266924E+01  0.00000000000E+00 0.  1.
</event>
<event>
 7    1  0.8440037E-011  0.4778727E+02  0.7816164E-02  0.1312668E+00
        -11   -1    0    0    0    0  0.00000000000E+00  0.00000000000E+00  0.45593999997E+02  0.45594000000E+02  0.51100000000E-03 0. -1.
         11   -1    0    0    0    0 -0.00000000000E+00 -0.00000000000E+00 -0.45593999997E+02  0.45594000000E+02  0.51100000000E-03 0.  1.
    9900012    2    1    2    0    0 -0.29925724125E+02 -0.25723222628E+02 -0.18066266873E+02  0.47787272523E+02  0.20000006742E+02 0.  0.
         12    1    1    2    0    0  0.29925724125E+02  0.25723222628E+02  0.18066266873E+02  0.43400727477E+02  0.00000000000E+00 0. -1.
         11    1    3    3    0    0  0.92326027456E+00 -0.11766586871E+01 -0.11888286838E+01  0.19105625090E+01  0.51100000000E-03 0. -1.
        -11    1    3    3    0    0 -0.23288665304E+02 -0.92508187705E+01 -0.13569355002E+02  0.28496788854E+02  0.51100000000E-03 0.  1.
        -12    1    3    3    0    0 -0.75603190950E+01 -0.15295745171E+02 -0.33080831878E+01  0.17379921160E+02  0.00000000000E+00 0.  1.
</event>
<event>
 7    1  0.8440037E-011  0.4778727E+02  0.7816164E-02  0.1312668E+00
        -11   -1    0    0    0    0  0.00000000000E+00  0.00000000000E+00  0.45593999997E+02  0.45594000000E+02  0.51100000000E-03 0. -1.
         11   -1    0    0    0    0 -0.00000000000E+00 -0.00000000000E+00 -0.45593999997E+02  0.45594000000E+02  0.51100000000E-03 0.  1.
    9900012    2    1    2    0    0  0.23032745858E+02  0.13435192120E+02  0.34243415440E+02  0.47787271089E+02  0.20000000202E+02 0.  0.
        -12    1    1    2    0    0 -0.23032745858E+02 -0.13435192120E+02 -0.34243415440E+02  0.43400728911E+02  0.00000000000E+00 0.  1.
         11    1    3    3    0    0  0.11150694895E+02 -0.67325551164E+00  0.13372006208E+02  0.17424173436E+02  0.51100000000E-03 0. -1.
        -11    1    3    3    0    0  0.72771549145E+01  0.89660707559E+00  0.36987195880E+01  0.82122722038E+01  0.51100000000E-03 0.  1.
         12    1    3    3    0    0  0.46048960483E+01  0.13211840556E+02  0.17172689644E+02  0.22150825449E+02  0.00000000000E+00 0. -1.
</event>
<event>
 7    1  0.8440037E-011  0.4778727E+02  0.7816164E-02  0.1312668E+00
        -11   -1    0    0    0    0  0.00000000000E+00  0.00000000000E+00  0.45593999997E+02  0.45594000000E+02  0.51100000000E-03 0. -1.
         11   -1    0    0    0    0 -0.00000000000E+00 -0.00000000000E+00 -0.45593999997E+02  0.45594000000E+02  0.51100000000E-03 0.  1.
    9900012    2    1    2    0    0  0.20042777455E+02  0.10644044754E+02 -0.36994791701E+02  0.47787271552E+02  0.20000002315E+02 0.  0.
         12    1    1    2    0    0 -0.20042777455E+02 -0.10644044754E+02  0.36994791701E+02  0.43400728448E+02  0.00000000000E+00 0. -1.
         11    1    3    3    0    0  0.34006514926E+01  0.41004539962E+01 -0.41134424597E+01  0.67304206912E+01  0.51100000000E-03 0. -1.
        -11    1    3    3    0    0 -0.23173223337E+01  0.50508086190E+01 -0.69283465653E+01  0.88815897730E+01  0.51100000000E-03 0.  1.
         12    1    3    3    0    0  0.18959448296E+02  0.14927821390E+01 -0.25953002676E+02  0.32175261088E+02  0.00000000000E+00 0. -1.
</event>
<event>
 7    1  0.8440037E-011  0.4778727E+02  0.7816164E-02  0.1312668E+00
        -11   -1    0    0    0    0  0.00000000000E+00  0.00000000000E+00  0.45593999997E+02  0.45594000000E+02  0.51100000000E-03 0. -1.
         11   -1    0    0    0    0 -0.00000000000E+00 -0.00000000000E+00 -0.45593999997E+02  0.45594000000E+02  0.51100000000E-03 0.  1.
    9900012    2    1    2    0    0  0.31844911052E+02  0.17655814100E+02 -0.23617726257E+02  0.47787272760E+02  0.20000007821E+02 0.  0.
         12    1    1    2    0    0 -0.31844911052E+02 -0.17655814100E+02  0.23617726257E+02  0.43400727240E+02  0.00000000000E+00 0. -1.
         11    1    3    3    0    0  0.10980150256E+01  0.66468088845E+01 -0.93637008527E+01  0.11535362988E+02  0.51100000000E-03 0. -1.
        -11    1    3    3    0    0  0.19566765811E+02  0.94455303620E+01 -0.11701717040E+02  0.24678058069E+02  0.51100000000E-03 0.  1.
        -12    1    3    3    0    0  0.11180130216E+02  0.15634748535E+01 -0.25523083641E+01  0.11573851703E+02  0.00000000000E+00 0.  1.
</event>
<event>
 7    1  0.8440037E-011  0.4778728E+02  0.7816164E-02  0.1312668E+00
        -11   -1    0    0    0    0  0.00000000000E+00  0.00000000000E+00  0.45593999997E+02  0.45594000000E+02  0.51100000000E-03 0. -1.
         11   -1    0    0    0    0 -0.00000000000E+00 -0.00000000000E+00 -0.45593999997E+02  0.45594000000E+02  0.51100000000E-03 0.  1.
    9900012    2    1    2    0    0  0.30925951840E+02 -0.12188554273E+02  0.27904248250E+02  0.47787280849E+02  0.20000044701E+02 0.  0.
        -12    1    1    2    0    0 -0.30925951840E+02  0.12188554273E+02 -0.27904248250E+02  0.43400719151E+02  0.00000000000E+00 0.  1.
         11    1    3    3    0    0  0.20581794060E+02 -0.24517529425E+00  0.11889974298E+02  0.23770608885E+02  0.51100000000E-03 0. -1.
        -11    1    3    3    0    0  0.21589704017E+01 -0.26345820553E+01 -0.41980621523E+00  0.34319693065E+01  0.51100000000E-03 0.  1.
        -12    1    3    3    0    0  0.81851873782E+01 -0.93087969234E+01  0.16434080167E+02  0.20584702658E+02  0.00000000000E+00 0.  1.
</event>
<event>
 7    1  0.8440037E-011  0.4778727E+02  0.7816164E-02  0.1312668E+00
        -11   -1    0    0    0    0  0.00000000000E+00  0.00000000000E+00  0.45593999997E+02  0.45594000000E+02  0.51100000000E-03 0.  1.
         11   -1    0    0    0    0 -0.00000000000E+00 -0.00000000000E+00 -0.45593999997E+02  0.45594000000E+02  0.51100000000E-03 0. -1.
    9900012    2    1    2    0    0  0.16877544203E+02 -0.99619110644E+01 -0.38723792353E+02  0.47787271152E+02  0.20000000491E+02 0.  0.
         12    1    1    2    0    0 -0.16877544203E+02  0.99619110644E+01  0.38723792353E+02  0.43400728848E+02  0.00000000000E+00 0. -1.
         11    1    3    3    0    0 -0.25891539805E+01 -0.44279167021E+01 -0.70370650084E+01  0.87080680319E+01  0.51100000000E-03 0. -1.
        -11    1    3    3    0    0  0.11080288693E+02 -0.69000931475E+01 -0.12401240240E+02  0.18004856088E+02  0.51100000000E-03 0.  1.
         12    1    3    3    0    0  0.83864094896E+01  0.13660987852E+01 -0.19285487104E+02  0.21074347033E+02  0.00000000000E+00 0. -1.
</event>
<event>
 7    1  0.8440037E-011  0.4778727E+02  0.7816164E-02  0.1312668E+00
        -11   -1    0    0    0    0  0.00000000000E+00  0.00000000000E+00  0.45593999997E+02  0.45594000000E+02  0.51100000000E-03 0. -1.
         11   -1    0    0    0    0 -0.00000000000E+00 -0.00000000000E+00 -0.45593999997E+02  0.45594000000E+02  0.51100000000E-03 0.  1.
    9900012    2    1    2    0    0 -0.35180718103E+02  0.23562865288E+02  0.95253146081E+01  0.47787272296E+02  0.20000005707E+02 0.  0.
        -12    1    1    2    0    0  0.35180718103E+02 -0.23562865288E+02 -0.95253146081E+01  0.43400727704E+02  0.00000000000E+00 0.  1.
         11    1    3    3    0    0 -0.21863169906E+02  0.96686535630E+01  0.11656194189E+02  0.26596013297E+02  0.51100000000E-03 0. -1.
        -11    1    3    3    0    0 -0.78071376955E+01  0.21794614453E+01 -0.25177081930E+00  0.81095523917E+01  0.51100000000E-03 0.  1.
        -12    1    3    3    0    0 -0.55104105013E+01  0.11714750280E+02 -0.18791087617E+01  0.13081706607E+02  0.00000000000E+00 0.  1.
</event>
<event>
 7    1  0.8440037E-011  0.4778727E+02  0.7816164E-02  0.1312668E+00
        -11   -1    0    0    0    0  0.00000000000E+00  0.00000000000E+00  0.45593999997E+02  0.45594000000E+02  0.51100000000E-03 0. -1.
         11   -1    0    0    0    0 -0.00000000000E+00 -0.00000000000E+00 -0.45593999997E+02  0.45594000000E+02  0.51100000000E-03 0.  1.
    9900012    2    1    2    0    0  0.26766210505E+02  0.28469684568E+02  0.18885718841E+02  0.47787270279E+02  0.19999996508E+02 0.  0.
        -12    1    1    2    0    0 -0.26766210505E+02 -0.28469684568E+02 -0.18885718841E+02  0.43400729721E+02  0.00000000000E+00 0.  1.
         11    1    3    3    0    0  0.71067718429E+01  0.54236610374E+01 -0.46598157761E+00  0.89520636820E+01  0.51100000000E-03 0. -1.
        -11    1    3    3    0    0  0.19282231154E+02  0.12880830792E+02  0.10960530682E+02  0.25648654414E+02  0.51100000000E-03 0.  1.
        -12    1    3    3    0    0  0.37720750867E+00  0.10165192738E+02  0.83911697369E+01  0.13186552182E+02  0.00000000000E+00 0.  1.
</event>
<event>
 7    1  0.8440037E-011  0.4778727E+02  0.7816164E-02  0.1312668E+00
        -11   -1    0    0    0    0  0.00000000000E+00  0.00000000000E+00  0.45593999997E+02  0.45594000000E+02  0.51100000000E-03 0.  1.
         11   -1    0    0    0    0 -0.00000000000E+00 -0.00000000000E+00 -0.45593999997E+02  0.45594000000E+02  0.51100000000E-03 0. -1.
    9900012    2    1    2    0    0  0.38632932704E+02 -0.46647570358E+01 -0.19218735731E+02  0.47787271313E+02  0.20000001222E+02 0.  0.
         12    1    1    2    0    0 -0.38632932704E+02  0.46647570358E+01  0.19218735731E+02  0.43400728687E+02  0.00000000000E+00 0. -1.
         11    1    3    3    0    0  0.14360772319E+02 -0.17857471701E+01 -0.65389474533E+01  0.15880129364E+02  0.51100000000E-03 0.  1.
        -11    1    3    3    0    0  0.71524347112E+01  0.21006636455E+01 -0.11923319594E+02  0.14061851245E+02  0.51100000000E-03 0. -1.
         12    1    3    3    0    0  0.17119725674E+02 -0.49796735112E+01 -0.75646868419E+00  0.17845290703E+02  0.00000000000E+00 0. -1.
</event>
<event>
 7    1  0.8440037E-011  0.4778725E+02  0.7816164E-02  0.1312668E+00
        -11   -1    0    0    0    0  0.00000000000E+00  0.00000000000E+00  0.45593999997E+02  0.45594000000E+02  0.51100000000E-03 0. -1.
         11   -1    0    0    0    0 -0.00000000000E+00 -0.00000000000E+00 -0.45593999997E+02  0.45594000000E+02  0.51100000000E-03 0.  1.
    9900012    2    1    2    0    0 -0.50757300583E+01 -0.29375772251E+02 -0.31542444208E+02  0.47787253260E+02  0.19999918916E+02 0.  0.
         12    1    1    2    0    0  0.50757300583E+01  0.29375772251E+02  0.31542444208E+02  0.43400746740E+02  0.00000000000E+00 0. -1.
         11    1    3    3    0    0 -0.85147596146E+01 -0.12613910758E+02 -0.96023880400E+01  0.17994936294E+02  0.51100000000E-03 0. -1.
        -11    1    3    3    0    0 -0.16951407938E+01  0.51667047438E+00 -0.39323270937E+01  0.43131945612E+01  0.51100000000E-03 0.  1.
        -12    1    3    3    0    0  0.51341703501E+01 -0.17278531967E+02 -0.18007729074E+02  0.25479122405E+02  0.00000000000E+00 0.  1.
</event>
<event>
 7    1  0.8440037E-011  0.4778726E+02  0.7816164E-02  0.1312668E+00
        -11   -1    0    0    0    0  0.00000000000E+00  0.00000000000E+00  0.45593999997E+02  0.45594000000E+02  0.51100000000E-03 0. -1.
         11   -1    0    0    0    0 -0.00000000000E+00 -0.00000000000E+00 -0.45593999997E+02  0.45594000000E+02  0.51100000000E-03 0.  1.
    9900012    2    1    2    0    0 -0.44265910720E+01  0.19404259212E+02 -0.38568172584E+02  0.47787263594E+02  0.19999966032E+02 0.  0.
         12    1    1    2    0    0  0.44265910720E+01 -0.19404259212E+02  0.38568172584E+02  0.43400736406E+02  0.00000000000E+00 0. -1.
         11    1    3    3    0    0  0.41909042455E+01  0.42355947287E+01 -0.14314436072E+01  0.61280479896E+01  0.51100000000E-03 0. -1.
        -11    1    3    3    0    0  0.16721118198E+00  0.37895547227E-02  0.28866715090E+00  0.33362093045E+00  0.51100000000E-03 0.  1.
        -12    1    3    3    0    0 -0.87847064995E+01  0.15164874929E+02 -0.37425396127E+02  0.41325594674E+02  0.00000000000E+00 0.  1.
</event>
<event>
 7    1  0.8440037E-011  0.4778727E+02  0.7816164E-02  0.1312668E+00
        -11   -1    0    0    0    0  0.00000000000E+00  0.00000000000E+00  0.45593999997E+02  0.45594000000E+02  0.51100000000E-03 0. -1.
         11   -1    0    0    0    0 -0.00000000000E+00 -0.00000000000E+00 -0.45593999997E+02  0.45594000000E+02  0.51100000000E-03 0.  1.
    9900012    2    1    2    0    0  0.20674237526E+02  0.12838953637E+02 -0.35935505231E+02  0.47787270006E+02  0.19999995267E+02 0.  0.
         12    1    1    2    0    0 -0.20674237526E+02 -0.12838953637E+02  0.35935505231E+02  0.43400729994E+02  0.00000000000E+00 0. -1.
         11    1    3    3    0    0 -0.29984564360E+01  0.21570204711E+01 -0.38690504611E+01  0.53491148841E+01  0.51100000000E-03 0. -1.
        -11    1    3    3    0    0  0.50514815624E+01 -0.17757019744E+01 -0.71081429947E+01  0.88992292123E+01  0.51100000000E-03 0.  1.
         12    1    3    3    0    0  0.18621212400E+02  0.12457635141E+02 -0.24958311775E+02  0.33538925910E+02  0.00000000000E+00 0. -1.
</event>
<event>
 7    1  0.8440037E-011  0.4778731E+02  0.7816164E-02  0.1312668E+00
        -11   -1    0    0    0    0  0.00000000000E+00  0.00000000000E+00  0.45593999997E+02  0.45594000000E+02  0.51100000000E-03 0. -1.
         11   -1    0    0    0    0 -0.00000000000E+00 -0.00000000000E+00 -0.45593999997E+02  0.45594000000E+02  0.51100000000E-03 0.  1.
    9900012    2    1    2    0    0 -0.35747568202E+02  0.16324811782E+02 -0.18418236387E+02  0.47787314018E+02  0.20000195934E+02 0.  0.
         12    1    1    2    0    0  0.35747568202E+02 -0.16324811782E+02  0.18418236387E+02  0.43400685982E+02  0.00000000000E+00 0. -1.
         11    1    3    3    0    0 -0.67767008520E+01 -0.65146469490E+00  0.20730877043E+01  0.71165844038E+01  0.51100000000E-03 0.  1.
        -11    1    3    3    0    0 -0.14223069458E+01 -0.14161442856E+01 -0.11379548644E+01  0.23072414742E+01  0.51100000000E-03 0. -1.
        -12    1    3    3    0    0 -0.27548560405E+02  0.18392420763E+02 -0.19353369226E+02  0.38363488140E+02  0.00000000000E+00 0.  1.
</event>
<event>
 7    1  0.8440037E-011  0.4778727E+02  0.7816164E-02  0.1312668E+00
        -11   -1    0    0    0    0  0.00000000000E+00  0.00000000000E+00  0.45593999997E+02  0.45594000000E+02  0.51100000000E-03 0. -1.
         11   -1    0    0    0    0 -0.00000000000E+00 -0.00000000000E+00 -0.45593999997E+02  0.45594000000E+02  0.51100000000E-03 0.  1.
    9900012    2    1    2    0    0 -0.14333578288E+02 -0.17883847210E+02 -0.36855660280E+02  0.47787272446E+02  0.20000006390E+02 0.  0.
         12    1    1    2    0    0  0.14333578288E+02  0.17883847210E+02  0.36855660280E+02  0.43400727554E+02  0.00000000000E+00 0. -1.
         11    1    3    3    0    0 -0.56565270217E+01 -0.36667082234E+00 -0.50262449466E+01  0.75758751286E+01  0.51100000000E-03 0. -1.
        -11    1    3    3    0    0 -0.98314301178E+00 -0.73643333943E+01 -0.18777277391E+01  0.76632785573E+01  0.51100000000E-03 0.  1.
        -12    1    3    3    0    0 -0.76939082542E+01 -0.10152842994E+02 -0.29951687594E+02  0.32548118760E+02  0.00000000000E+00 0.  1.
</event>
<event>
 7    1  0.8440037E-011  0.4778727E+02  0.7816164E-02  0.1312668E+00
        -11   -1    0    0    0    0  0.00000000000E+00  0.00000000000E+00  0.45593999997E+02  0.45594000000E+02  0.51100000000E-03 0. -1.
         11   -1    0    0    0    0 -0.00000000000E+00 -0.00000000000E+00 -0.45593999997E+02  0.45594000000E+02  0.51100000000E-03 0.  1.
    9900012    2    1    2    0    0  0.15686490520E+02 -0.12990098503E+02 -0.38325120306E+02  0.47787268550E+02  0.19999988628E+02 0.  0.
         12    1    1    2    0    0 -0.15686490520E+02  0.12990098503E+02  0.38325120306E+02  0.43400731450E+02  0.00000000000E+00 0. -1.
         11    1    3    3    0    0  0.85120602842E+01 -0.12592541142E+02 -0.16543484045E+02  0.22465843570E+02  0.51100000000E-03 0. -1.
        -11    1    3    3    0    0 -0.40827029400E+00 -0.43368642463E+01 -0.68526642048E+01  0.81199804857E+01  0.51100000000E-03 0.  1.
        -12    1    3    3    0    0  0.75827005294E+01  0.39393068856E+01 -0.14928972056E+02  0.17201444495E+02  0.00000000000E+00 0.  1.
</event>
<event>
 7    1  0.8440037E-011  0.4778727E+02  0.7816164E-02  0.1312668E+00
        -11   -1    0    0    0    0  0.00000000000E+00  0.00000000000E+00  0.45593999997E+02  0.45594000000E+02  0.51100000000E-03 0.  1.
         11   -1    0    0    0    0 -0.00000000000E+00 -0.00000000000E+00 -0.45593999997E+02  0.45594000000E+02  0.51100000000E-03 0. -1.
    9900012    2    1    2    0    0 -0.33793914623E+02  0.26148327573E+02  0.76065410812E+01  0.47787272268E+02  0.20000005581E+02 0.  0.
        -12    1    1    2    0    0  0.33793914623E+02 -0.26148327573E+02 -0.76065410812E+01  0.43400727732E+02  0.00000000000E+00 0.  1.
         11    1    3    3    0    0 -0.22275453465E+02  0.15185287912E+02  0.76954195005E+01  0.28035839163E+02  0.51100000000E-03 0. -1.
        -11    1    3    3    0    0 -0.61800017680E+01 -0.83764297122E+00  0.21712773788E+01  0.66036742285E+01  0.51100000000E-03 0.  1.
         12    1    3    3    0    0 -0.53384593900E+01  0.11800682632E+02 -0.22601557981E+01  0.13147758876E+02  0.00000000000E+00 0. -1.
</event>
<event>
 7    1  0.8440037E-011  0.4778727E+02  0.7816164E-02  0.1312668E+00
        -11   -1    0    0    0    0  0.00000000000E+00  0.00000000000E+00  0.45593999997E+02  0.45594000000E+02  0.51100000000E-03 0.  1.
         11   -1    0    0    0    0 -0.00000000000E+00 -0.00000000000E+00 -0.45593999997E+02  0.45594000000E+02  0.51100000000E-03 0. -1.
    9900012    2    1    2    0    0 -0.18282106679E+02  0.38306418044E+02 -0.90557132092E+01  0.47787273857E+02  0.20000012824E+02 0.  0.
         12    1    1    2    0    0  0.18282106679E+02 -0.38306418044E+02  0.90557132092E+01  0.43400726143E+02  0.00000000000E+00 0. -1.
         11    1    3    3    0    0 -0.18698993025E+01  0.24369885068E+01  0.18578924937E+01  0.35898748117E+01  0.51100000000E-03 0. -1.
        -11    1    3    3    0    0 -0.22556926671E+01  0.17053991508E+02 -0.11415801691E+02  0.20645757537E+02  0.51100000000E-03 0.  1.
        -12    1    3    3    0    0 -0.14156514709E+02  0.18815438029E+02  0.50219598757E+00  0.23551641508E+02  0.00000000000E+00 0.  1.
</event>
<event>
 7    1  0.8440037E-011  0.4778727E+02  0.7816164E-02  0.1312668E+00
        -11   -1    0    0    0    0  0.00000000000E+00  0.00000000000E+00  0.45593999997E+02  0.45594000000E+02  0.51100000000E-03 0. -1.
         11   -1    0    0    0    0 -0.00000000000E+00 -0.00000000000E+00 -0.45593999997E+02  0.45594000000E+02  0.51100000000E-03 0.  1.
    9900012    2    1    2    0    0 -0.23088976497E+01 -0.12340579013E+02 -0.41545183357E+02  0.47787272369E+02  0.20000006041E+02 0.  0.
         12    1    1    2    0    0  0.23088976497E+01  0.12340579013E+02  0.41545183357E+02  0.43400727631E+02  0.00000000000E+00 0. -1.
         11    1    3    3    0    0  0.57046288241E+01 -0.26667055781E+01 -0.44588255011E+01  0.77159078384E+01  0.51100000000E-03 0. -1.
        -11    1    3    3    0    0 -0.15507629095E+00 -0.96210253817E+00 -0.15263814136E+02  0.15294891702E+02  0.51100000000E-03 0.  1.
        -12    1    3    3    0    0 -0.78584501828E+01 -0.87117708970E+01 -0.21822543720E+02  0.24776472829E+02  0.00000000000E+00 0.  1.
</event>
<event>
 7    1  0.8440037E-011  0.4778727E+02  0.7816164E-02  0.1312668E+00
        -11   -1    0    0    0    0  0.00000000000E+00  0.00000000000E+00  0.45593999997E+02  0.45594000000E+02  0.51100000000E-03 0. -1.
         11   -1    0    0    0    0 -0.00000000000E+00 -0.00000000000E+00 -0.45593999997E+02  0.45594000000E+02  0.51100000000E-03 0.  1.
    9900012    2    1    2    0    0 -0.11404890196E+02  0.54672707399E+01 -0.41516994735E+02  0.47787269343E+02  0.19999992243E+02 0.  0.
         12    1    1    2    0    0  0.11404890196E+02 -0.54672707399E+01  0.41516994735E+02  0.43400730657E+02  0.00000000000E+00 0. -1.
         11    1    3    3    0    0 -0.75660222296E+01 -0.14795584585E+01 -0.11167735597E+02  0.13570265445E+02  0.51100000000E-03 0. -1.
        -11    1    3    3    0    0 -0.30555799395E+01 -0.21072908932E+01 -0.15580002487E+01  0.40254948405E+01  0.51100000000E-03 0.  1.
        -12    1    3    3    0    0 -0.78328802702E+00  0.90541200916E+01 -0.28791258889E+02  0.30191509058E+02  0.00000000000E+00 0.  1.
</event>
<event>
 7    1  0.8440037E-011  0.4778727E+02  0.7816164E-02  0.1312668E+00
        -11   -1    0    0    0    0  0.00000000000E+00  0.00000000000E+00  0.45593999997E+02  0.45594000000E+02  0.51100000000E-03 0. -1.
         11   -1    0    0    0    0 -0.00000000000E+00 -0.00000000000E+00 -0.45593999997E+02  0.45594000000E+02  0.51100000000E-03 0.  1.
    9900012    2    1    2    0    0 -0.25446265678E+01 -0.14225893518E+02 -0.40923975478E+02  0.47787274894E+02  0.20000017552E+02 0.  0.
         12    1    1    2    0    0  0.25446265678E+01  0.14225893518E+02  0.40923975478E+02  0.43400725106E+02  0.00000000000E+00 0. -1.
         11    1    3    3    0    0 -0.90543266024E+01 -0.58944875900E+01 -0.29780375563E+02  0.31679592533E+02  0.51100000000E-03 0. -1.
        -11    1    3    3    0    0  0.18422641190E+01 -0.77979101338E-01 -0.33911877639E+01  0.38600741619E+01  0.51100000000E-03 0.  1.
         12    1    3    3    0    0  0.46674359157E+01 -0.82534268271E+01 -0.77524121519E+01  0.12247608199E+02  0.00000000000E+00 0. -1.
</event>
<event>
 7    1  0.8440037E-011  0.4778727E+02  0.7816164E-02  0.1312668E+00
        -11   -1    0    0    0    0  0.00000000000E+00  0.00000000000E+00  0.45593999997E+02  0.45594000000E+02  0.51100000000E-03 0.  1.
         11   -1    0    0    0    0 -0.00000000000E+00 -0.00000000000E+00 -0.45593999997E+02  0.45594000000E+02  0.51100000000E-03 0. -1.
    9900012    2    1    2    0    0  0.15993163473E+02  0.17334648486E+02 -0.36432837650E+02  0.47787274485E+02  0.20000015685E+02 0.  0.
         12    1    1    2    0    0 -0.15993163473E+02 -0.17334648486E+02  0.36432837650E+02  0.43400725515E+02  0.00000000000E+00 0. -1.
         11    1    3    3    0    0  0.66178808941E+01  0.10488398176E+02 -0.16126917156E+02  0.20344048295E+02  0.51100000000E-03 0. -1.
        -11    1    3    3    0    0  0.28758261463E+01  0.10358471881E+02 -0.94579985383E+01  0.14318591144E+02  0.51100000000E-03 0.  1.
         12    1    3    3    0    0  0.64994564331E+01 -0.35122215720E+01 -0.10847921956E+02  0.13124635045E+02  0.00000000000E+00 0. -1.
</event>
<event>
 7    1  0.8440037E-011  0.4778728E+02  0.7816164E-02  0.1312668E+00
        -11   -1    0    0    0    0  0.00000000000E+00  0.00000000000E+00  0.45593999997E+02  0.45594000000E+02  0.51100000000E-03 0.  1.
         11   -1    0    0    0    0 -0.00000000000E+00 -0.00000000000E+00 -0.45593999997E+02  0.45594000000E+02  0.51100000000E-03 0. -1.
    9900012    2    1    2    0    0  0.16162109546E+02 -0.40272525295E+02  0.72946505232E+00  0.47787283440E+02  0.20000056517E+02 0.  0.
        -12    1    1    2    0    0 -0.16162109546E+02  0.40272525295E+02 -0.72946505232E+00  0.43400716560E+02  0.00000000000E+00 0.  1.
         11    1    3    3    0    0  0.52020192483E+01 -0.14549406150E+02 -0.56513127967E+01  0.16452463650E+02  0.51100000000E-03 0. -1.
        -11    1    3    3    0    0  0.97649406998E+01 -0.22152408170E+02  0.33396903908E+00  0.24211459893E+02  0.51100000000E-03 0.  1.
        -12    1    3    3    0    0  0.11951495983E+01 -0.35707109755E+01  0.60468088100E+01  0.71233598967E+01  0.00000000000E+00 0.  1.
</event>
<event>
 7    1  0.8440037E-011  0.4778727E+02  0.7816164E-02  0.1312668E+00
        -11   -1    0    0    0    0  0.00000000000E+00  0.00000000000E+00  0.45593999997E+02  0.45594000000E+02  0.51100000000E-03 0. -1.
         11   -1    0    0    0    0 -0.00000000000E+00 -0.00000000000E+00 -0.45593999997E+02  0.45594000000E+02  0.51100000000E-03 0.  1.
    9900012    2    1    2    0    0  0.19800542657E+01 -0.38987620498E+02  0.18964916215E+02  0.47787271734E+02  0.20000003144E+02 0.  0.
        -12    1    1    2    0    0 -0.19800542657E+01  0.38987620498E+02 -0.18964916215E+02  0.43400728266E+02  0.00000000000E+00 0.  1.
         11    1    3    3    0    0 -0.35910904608E+01 -0.19937538314E+02  0.98153539900E+01  0.22510942649E+02  0.51100000000E-03 0.  1.
        -11    1    3    3    0    0  0.14222950369E+01 -0.63309274656E+01  0.99443029865E+01  0.11874035872E+02  0.51100000000E-03 0. -1.
        -12    1    3    3    0    0  0.41488496896E+01 -0.12719154718E+02 -0.79474076117E+00  0.13402293213E+02  0.00000000000E+00 0.  1.
</event>
<event>
 7    1  0.8440037E-011  0.4778727E+02  0.7816164E-02  0.1312668E+00
        -11   -1    0    0    0    0  0.00000000000E+00  0.00000000000E+00  0.45593999997E+02  0.45594000000E+02  0.51100000000E-03 0. -1.
         11   -1    0    0    0    0 -0.00000000000E+00 -0.00000000000E+00 -0.45593999997E+02  0.45594000000E+02  0.51100000000E-03 0.  1.
    9900012    2    1    2    0    0  0.27440108589E+01  0.80777577060E+01  0.42554006805E+02  0.47787271201E+02  0.20000000712E+02 0.  0.
        -12    1    1    2    0    0 -0.27440108589E+01 -0.80777577060E+01 -0.42554006805E+02  0.43400728799E+02  0.00000000000E+00 0.  1.
         11    1    3    3    0    0  0.77114690317E+00  0.58063971543E+01  0.31572142468E+01  0.66540902850E+01  0.51100000000E-03 0. -1.
        -11    1    3    3    0    0  0.48258957600E+01 -0.11716222563E+01  0.79749162509E+01  0.93947463014E+01  0.51100000000E-03 0.  1.
        -12    1    3    3    0    0 -0.28530318043E+01  0.34429828080E+01  0.31421876307E+02  0.31738434614E+02  0.00000000000E+00 0.  1.
</event>
<event>
 7    1  0.8440037E-011  0.4778727E+02  0.7816164E-02  0.1312668E+00
        -11   -1    0    0    0    0  0.00000000000E+00  0.00000000000E+00  0.45593999997E+02  0.45594000000E+02  0.51100000000E-03 0. -1.
         11   -1    0    0    0    0 -0.00000000000E+00 -0.00000000000E+00 -0.45593999997E+02  0.45594000000E+02  0.51100000000E-03 0.  1.
    9900012    2    1    2    0    0  0.65132008994E+01 -0.13439124890E+02  0.40750352873E+02  0.47787272782E+02  0.20000007923E+02 0.  0.
        -12    1    1    2    0    0 -0.65132008994E+01  0.13439124890E+02 -0.40750352873E+02  0.43400727218E+02  0.00000000000E+00 0.  1.
         11    1    3    3    0    0  0.26329019525E-01  0.25480896093E+01  0.10392826771E+02  0.10700668317E+02  0.51100000000E-03 0. -1.
        -11    1    3    3    0    0 -0.25197141414E+01 -0.54890442751E+01  0.37801387007E+01  0.71251677360E+01  0.51100000000E-03 0.  1.
        -12    1    3    3    0    0  0.90065860213E+01 -0.10498170224E+02  0.26577387402E+02  0.29961436730E+02  0.00000000000E+00 0.  1.
</event>
<event>
 7    1  0.8440037E-011  0.4778730E+02  0.7816164E-02  0.1312668E+00
        -11   -1    0    0    0    0  0.00000000000E+00  0.00000000000E+00  0.45593999997E+02  0.45594000000E+02  0.51100000000E-03 0. -1.
         11   -1    0    0    0    0 -0.00000000000E+00 -0.00000000000E+00 -0.45593999997E+02  0.45594000000E+02  0.51100000000E-03 0.  1.
    9900012    2    1    2    0    0  0.22460579201E+02 -0.72588505858E+01 -0.36420497693E+02  0.47787295143E+02  0.20000109875E+02 0.  0.
         12    1    1    2    0    0 -0.22460579201E+02  0.72588505858E+01  0.36420497693E+02  0.43400704857E+02  0.00000000000E+00 0. -1.
         11    1    3    3    0    0  0.10506989347E+02 -0.92731949847E+01 -0.10687848229E+02  0.17624388511E+02  0.51100000000E-03 0. -1.
        -11    1    3    3    0    0  0.22287410424E+00 -0.24758772407E+01 -0.83822615225E+01  0.87431086846E+01  0.51100000000E-03 0.  1.
        -12    1    3    3    0    0  0.11730715749E+02  0.44902216397E+01 -0.17350387942E+02  0.21419797948E+02  0.00000000000E+00 0.  1.
</event>
<event>
 7    1  0.8440037E-011  0.4778727E+02  0.7816164E-02  0.1312668E+00
        -11   -1    0    0    0    0  0.00000000000E+00  0.00000000000E+00  0.45593999997E+02  0.45594000000E+02  0.51100000000E-03 0.  1.
         11   -1    0    0    0    0 -0.00000000000E+00 -0.00000000000E+00 -0.45593999997E+02  0.45594000000E+02  0.51100000000E-03 0. -1.
    9900012    2    1    2    0    0  0.41450893007E+02 -0.37264974708E+00  0.12857224175E+02  0.47787267144E+02  0.19999982218E+02 0.  0.
        -12    1    1    2    0    0 -0.41450893007E+02  0.37264974708E+00 -0.12857224175E+02  0.43400732856E+02  0.00000000000E+00 0.  1.
         11    1    3    3    0    0  0.55716917631E+01  0.40134919375E+01  0.41332996009E+01  0.80147384541E+01  0.51100000000E-03 0. -1.
        -11    1    3    3    0    0  0.15718251157E+01  0.15695552975E+01 -0.23498646966E+01  0.32335742421E+01  0.51100000000E-03 0.  1.
        -12    1    3    3    0    0  0.34307376128E+02 -0.59556969821E+01  0.11073789271E+02  0.36538954448E+02  0.00000000000E+00 0.  1.
</event>
<event>
 7    1  0.8440037E-011  0.4778727E+02  0.7816164E-02  0.1312668E+00
        -11   -1    0    0    0    0  0.00000000000E+00  0.00000000000E+00  0.45593999997E+02  0.45594000000E+02  0.51100000000E-03 0. -1.
         11   -1    0    0    0    0 -0.00000000000E+00 -0.00000000000E+00 -0.45593999997E+02  0.45594000000E+02  0.51100000000E-03 0.  1.
    9900012    2    1    2    0    0  0.12507708195E+02  0.38390456544E+02 -0.15917078592E+02  0.47787270641E+02  0.19999998161E+02 0.  0.
         12    1    1    2    0    0 -0.12507708195E+02 -0.38390456544E+02  0.15917078592E+02  0.43400729359E+02  0.00000000000E+00 0. -1.
         11    1    3    3    0    0  0.70397558379E+01  0.22741186279E+02 -0.10280010041E+01  0.23828061229E+02  0.51100000000E-03 0.  1.
        -11    1    3    3    0    0 -0.52391327308E+00 -0.83554693090E+00 -0.55499619514E-01  0.98777743462E+00  0.51100000000E-03 0. -1.
        -12    1    3    3    0    0  0.59918656298E+01  0.16484817196E+02 -0.14833577969E+02  0.22971431977E+02  0.00000000000E+00 0.  1.
</event>
<event>
 7    1  0.8440037E-011  0.4778727E+02  0.7816164E-02  0.1312668E+00
        -11   -1    0    0    0    0  0.00000000000E+00  0.00000000000E+00  0.45593999997E+02  0.45594000000E+02  0.51100000000E-03 0. -1.
         11   -1    0    0    0    0 -0.00000000000E+00 -0.00000000000E+00 -0.45593999997E+02  0.45594000000E+02  0.51100000000E-03 0.  1.
    9900012    2    1    2    0    0  0.14081222452E+02 -0.11910285498E+02 -0.39287243120E+02  0.47787271914E+02  0.20000003965E+02 0.  0.
         12    1    1    2    0    0 -0.14081222452E+02  0.11910285498E+02  0.39287243120E+02  0.43400728086E+02  0.00000000000E+00 0. -1.
         11    1    3    3    0    0  0.48067838258E+01  0.19344402224E+01 -0.10149627919E+02  0.11395708705E+02  0.51100000000E-03 0. -1.
        -11    1    3    3    0    0  0.62207144385E+01 -0.10134889839E+01 -0.27205163959E+01  0.68648130177E+01  0.51100000000E-03 0.  1.
        -12    1    3    3    0    0  0.30537241876E+01 -0.12831236736E+02 -0.26417098805E+02  0.29526750192E+02  0.00000000000E+00 0.  1.
</event>
<event>
 7    1  0.8440037E-011  0.4778727E+02  0.7816164E-02  0.1312668E+00
        -11   -1    0    0    0    0  0.00000000000E+00  0.00000000000E+00  0.45593999997E+02  0.45594000000E+02  0.51100000000E-03 0. -1.
         11   -1    0    0    0    0 -0.00000000000E+00 -0.00000000000E+00 -0.45593999997E+02  0.45594000000E+02  0.51100000000E-03 0.  1.
    9900012    2    1    2    0    0  0.34576370130E+02 -0.89953265802E+01 -0.24641058315E+02  0.47787273895E+02  0.20000012995E+02 0.  0.
         12    1    1    2    0    0 -0.34576370130E+02  0.89953265802E+01  0.24641058315E+02  0.43400726105E+02  0.00000000000E+00 0. -1.
         11    1    3    3    0    0  0.15117925322E+02 -0.35307202974E+00 -0.40163061260E+01  0.15646310781E+02  0.51100000000E-03 0. -1.
        -11    1    3    3    0    0  0.17700456227E+01 -0.35799953418E+01  0.61478483255E+00  0.40407163728E+01  0.51100000000E-03 0.  1.
        -12    1    3    3    0    0  0.17688399185E+02 -0.50622592087E+01 -0.21239537021E+02  0.28100246741E+02  0.00000000000E+00 0.  1.
</event>
<event>
 7    1  0.8440037E-011  0.4778728E+02  0.7816164E-02  0.1312668E+00
        -11   -1    0    0    0    0  0.00000000000E+00  0.00000000000E+00  0.45593999997E+02  0.45594000000E+02  0.51100000000E-03 0. -1.
         11   -1    0    0    0    0 -0.00000000000E+00 -0.00000000000E+00 -0.45593999997E+02  0.45594000000E+02  0.51100000000E-03 0.  1.
    9900012    2    1    2    0    0  0.14470116798E-01 -0.13563164654E+02  0.41226966882E+02  0.47787280615E+02  0.20000043636E+02 0.  0.
        -12    1    1    2    0    0 -0.14470116798E-01  0.13563164654E+02 -0.41226966882E+02  0.43400719385E+02  0.00000000000E+00 0.  1.
         11    1    3    3    0    0  0.43839659527E+01 -0.12294390450E+02  0.18773058671E+02  0.22864796657E+02  0.51100000000E-03 0. -1.
        -11    1    3    3    0    0  0.29627732668E+01  0.41718630217E+00  0.92939512383E+01  0.97636878136E+01  0.51100000000E-03 0.  1.
         12    1    3    3    0    0 -0.73322691027E+01 -0.16859605056E+01  0.13159956973E+02  0.15158796145E+02  0.00000000000E+00 0. -1.
</event>
<event>
 7    1  0.8440037E-011  0.4778727E+02  0.7816164E-02  0.1312668E+00
        -11   -1    0    0    0    0  0.00000000000E+00  0.00000000000E+00  0.45593999997E+02  0.45594000000E+02  0.51100000000E-03 0. -1.
         11   -1    0    0    0    0 -0.00000000000E+00 -0.00000000000E+00 -0.45593999997E+02  0.45594000000E+02  0.51100000000E-03 0.  1.
    9900012    2    1    2    0    0  0.19388557797E+02 -0.37909105093E+02  0.84027878912E+01  0.47787271126E+02  0.20000000373E+02 0.  0.
         12    1    1    2    0    0 -0.19388557797E+02  0.37909105093E+02 -0.84027878912E+01  0.43400728874E+02  0.00000000000E+00 0. -1.
         11    1    3    3    0    0  0.79486407738E+01 -0.66690785947E+01 -0.76300525415E+00  0.10403829907E+02  0.51100000000E-03 0.  1.
        -11    1    3    3    0    0  0.99981028412E+01 -0.76046160069E+01  0.33385380557E+01  0.12997618307E+02  0.51100000000E-03 0. -1.
        -12    1    3    3    0    0  0.14418141820E+01 -0.23635410492E+02  0.58272550896E+01  0.24385822913E+02  0.00000000000E+00 0.  1.
</event>
<event>
 7    1  0.8440037E-011  0.4778727E+02  0.7816164E-02  0.1312668E+00
        -11   -1    0    0    0    0  0.00000000000E+00  0.00000000000E+00  0.45593999997E+02  0.45594000000E+02  0.51100000000E-03 0. -1.
         11   -1    0    0    0    0 -0.00000000000E+00 -0.00000000000E+00 -0.45593999997E+02  0.45594000000E+02  0.51100000000E-03 0.  1.
    9900012    2    1    2    0    0  0.18072696250E+01  0.32537657436E+01 -0.43240838980E+02  0.47787269929E+02  0.19999994915E+02 0.  0.
         12    1    1    2    0    0 -0.18072696250E+01 -0.32537657436E+01  0.43240838980E+02  0.43400730071E+02  0.00000000000E+00 0. -1.
         11    1    3    3    0    0  0.17645948557E+01 -0.61142718447E+00 -0.10715038566E+02  0.10876566091E+02  0.51100000000E-03 0. -1.
        -11    1    3    3    0    0 -0.38182380697E+01  0.47054074637E+01 -0.32395401971E+02  0.32957273408E+02  0.51100000000E-03 0.  1.
         12    1    3    3    0    0  0.38609128390E+01 -0.84021453562E+00 -0.13039844329E+00  0.39534304307E+01  0.00000000000E+00 0. -1.
</event>
<event>
 7    1  0.8440037E-011  0.4778727E+02  0.7816164E-02  0.1312668E+00
        -11   -1    0    0    0    0  0.00000000000E+00  0.00000000000E+00  0.45593999997E+02  0.45594000000E+02  0.51100000000E-03 0. -1.
         11   -1    0    0    0    0 -0.00000000000E+00 -0.00000000000E+00 -0.45593999997E+02  0.45594000000E+02  0.51100000000E-03 0.  1.
    9900012    2    1    2    0    0  0.11635864729E+02 -0.17495186311E+02  0.37975628497E+02  0.47787271299E+02  0.20000001159E+02 0.  0.
        -12    1    1    2    0    0 -0.11635864729E+02  0.17495186311E+02 -0.37975628497E+02  0.43400728701E+02  0.00000000000E+00 0.  1.
         11    1    3    3    0    0  0.11995811737E+02 -0.20581825472E+02  0.29706272894E+02  0.38078520041E+02  0.51100000000E-03 0. -1.
        -11    1    3    3    0    0 -0.15563747049E+01 -0.96407782641E-01  0.16701164596E+01  0.22849258046E+01  0.51100000000E-03 0.  1.
         12    1    3    3    0    0  0.11964276977E+01  0.31830469440E+01  0.65992391437E+01  0.74238254532E+01  0.00000000000E+00 0. -1.
</event>
<event>
 7    1  0.8440037E-011  0.4778727E+02  0.7816164E-02  0.1312668E+00
        -11   -1    0    0    0    0  0.00000000000E+00  0.00000000000E+00  0.45593999997E+02  0.45594000000E+02  0.51100000000E-03 0. -1.
         11   -1    0    0    0    0 -0.00000000000E+00 -0.00000000000E+00 -0.45593999997E+02  0.45594000000E+02  0.51100000000E-03 0.  1.
    9900012    2    1    2    0    0  0.17693935591E+02 -0.28123831561E+02 -0.27921287813E+02  0.47787267616E+02  0.19999984369E+02 0.  0.
         12    1    1    2    0    0 -0.17693935591E+02  0.28123831561E+02  0.27921287813E+02  0.43400732384E+02  0.00000000000E+00 0. -1.
         11    1    3    3    0    0 -0.10523770118E+01 -0.20190510386E+01 -0.43881429154E+00  0.23187545612E+01  0.51100000000E-03 0. -1.
        -11    1    3    3    0    0  0.25223833981E+01 -0.12641171148E+02 -0.18509216199E+02  0.22555547224E+02  0.51100000000E-03 0.  1.
         12    1    3    3    0    0  0.16223929205E+02 -0.13463609374E+02 -0.89732573221E+01  0.22912965831E+02  0.00000000000E+00 0. -1.
</event>
<event>
 7    1  0.8440037E-011  0.4778727E+02  0.7816164E-02  0.1312668E+00
        -11   -1    0    0    0    0  0.00000000000E+00  0.00000000000E+00  0.45593999997E+02  0.45594000000E+02  0.51100000000E-03 0. -1.
         11   -1    0    0    0    0 -0.00000000000E+00 -0.00000000000E+00 -0.45593999997E+02  0.45594000000E+02  0.51100000000E-03 0.  1.
    9900012    2    1    2    0    0  0.20105785135E+02 -0.19924839161E+02 -0.32899564473E+02  0.47787272426E+02  0.20000006297E+02 0.  0.
         12    1    1    2    0    0 -0.20105785135E+02  0.19924839161E+02  0.32899564473E+02  0.43400727574E+02  0.00000000000E+00 0. -1.
         11    1    3    3    0    0  0.37113194553E+01 -0.49122548338E+01 -0.16367202438E+02  0.17486836636E+02  0.51100000000E-03 0.  1.
        -11    1    3    3    0    0  0.45823426960E+01 -0.23346026817E+01  0.14345510031E+01  0.53391170718E+01  0.51100000000E-03 0. -1.
         12    1    3    3    0    0  0.11812122983E+02 -0.12677981645E+02 -0.17966913039E+02  0.24961318717E+02  0.00000000000E+00 0. -1.
</event>
<event>
 7    1  0.8440037E-011  0.4778727E+02  0.7816164E-02  0.1312668E+00
        -11   -1    0    0    0    0  0.00000000000E+00  0.00000000000E+00  0.45593999997E+02  0.45594000000E+02  0.51100000000E-03 0. -1.
         11   -1    0    0    0    0 -0.00000000000E+00 -0.00000000000E+00 -0.45593999997E+02  0.45594000000E+02  0.51100000000E-03 0.  1.
    9900012    2    1    2    0    0 -0.31978674791E+02 -0.14590135711E+02 -0.25458117865E+02  0.47787268824E+02  0.19999989875E+02 0.  0.
         12    1    1    2    0    0  0.31978674791E+02  0.14590135711E+02  0.25458117865E+02  0.43400731176E+02  0.00000000000E+00 0. -1.
         11    1    3    3    0    0 -0.16824518402E+02 -0.30493770193E+01 -0.14961531418E+02  0.22720267214E+02  0.51100000000E-03 0.  1.
        -11    1    3    3    0    0 -0.35241475289E+01 -0.47567847289E+01 -0.99670183354E+01  0.11592586921E+02  0.51100000000E-03 0. -1.
         12    1    3    3    0    0 -0.11630008860E+02 -0.67839739624E+01 -0.52956811115E+00  0.13474414688E+02  0.00000000000E+00 0. -1.
</event>
<event>
 7    1  0.8440037E-011  0.4778727E+02  0.7816164E-02  0.1312668E+00
        -11   -1    0    0    0    0  0.00000000000E+00  0.00000000000E+00  0.45593999997E+02  0.45594000000E+02  0.51100000000E-03 0. -1.
         11   -1    0    0    0    0 -0.00000000000E+00 -0.00000000000E+00 -0.45593999997E+02  0.45594000000E+02  0.51100000000E-03 0.  1.
    9900012    2    1    2    0    0 -0.91864183451E+01 -0.98332666733E+00  0.42405965823E+02  0.47787272463E+02  0.20000006469E+02 0.  0.
        -12    1    1    2    0    0  0.91864183451E+01  0.98332666733E+00 -0.42405965823E+02  0.43400727537E+02  0.00000000000E+00 0.  1.
         11    1    3    3    0    0 -0.34824767864E+01 -0.11790860802E+00  0.28114243714E+01  0.44772373474E+01  0.51100000000E-03 0. -1.
        -11    1    3    3    0    0 -0.26585174268E+00 -0.82452562543E+01  0.16100762002E+02  0.18091143279E+02  0.51100000000E-03 0.  1.
         12    1    3    3    0    0 -0.54380898160E+01  0.73798381950E+01  0.23493779450E+02  0.25218891836E+02  0.00000000000E+00 0. -1.
</event>
<event>
 7    1  0.8440037E-011  0.4778728E+02  0.7816164E-02  0.1312668E+00
        -11   -1    0    0    0    0  0.00000000000E+00  0.00000000000E+00  0.45593999997E+02  0.45594000000E+02  0.51100000000E-03 0. -1.
         11   -1    0    0    0    0 -0.00000000000E+00 -0.00000000000E+00 -0.45593999997E+02  0.45594000000E+02  0.51100000000E-03 0.  1.
    9900012    2    1    2    0    0  0.24795266241E+02  0.27045383151E+02  0.23181133419E+02  0.47787275071E+02  0.20000018359E+02 0.  0.
        -12    1    1    2    0    0 -0.24795266241E+02 -0.27045383151E+02 -0.23181133419E+02  0.43400724929E+02  0.00000000000E+00 0.  1.
         11    1    3    3    0    0  0.70327981497E+01  0.18815042306E+02  0.11711443821E+02  0.23251322186E+02  0.51100000000E-03 0.  1.
        -11    1    3    3    0    0  0.97226375424E+01  0.52005267145E+01  0.11516832458E+02  0.15944045566E+02  0.51100000000E-03 0. -1.
        -12    1    3    3    0    0  0.80398305493E+01  0.30298141304E+01 -0.47142859330E-01  0.85919073188E+01  0.00000000000E+00 0.  1.
</event>
<event>
 7    1  0.8440037E-011  0.4778727E+02  0.7816164E-02  0.1312668E+00
        -11   -1    0    0    0    0  0.00000000000E+00  0.00000000000E+00  0.45593999997E+02  0.45594000000E+02  0.51100000000E-03 0. -1.
         11   -1    0    0    0    0 -0.00000000000E+00 -0.00000000000E+00 -0.45593999997E+02  0.45594000000E+02  0.51100000000E-03 0.  1.
    9900012    2    1    2    0    0 -0.35094699000E+01 -0.25465011500E+02 -0.34969130250E+02  0.47787271203E+02  0.20000000721E+02 0.  0.
         12    1    1    2    0    0  0.35094699000E+01  0.25465011500E+02  0.34969130250E+02  0.43400728797E+02  0.00000000000E+00 0. -1.
         11    1    3    3    0    0  0.18457550647E+01  0.41287107163E+00 -0.35649392060E+01  0.40355998419E+01  0.51100000000E-03 0. -1.
        -11    1    3    3    0    0  0.16873345355E+01 -0.22510027457E+02 -0.21879129783E+02  0.31436360386E+02  0.51100000000E-03 0.  1.
        -12    1    3    3    0    0 -0.70425595002E+01 -0.33678551146E+01 -0.95250612611E+01  0.12315310975E+02  0.00000000000E+00 0.  1.
</event>
<event>
 7    1  0.8440037E-011  0.4778726E+02  0.7816164E-02  0.1312668E+00
        -11   -1    0    0    0    0  0.00000000000E+00  0.00000000000E+00  0.45593999997E+02  0.45594000000E+02  0.51100000000E-03 0.  1.
         11   -1    0    0    0    0 -0.00000000000E+00 -0.00000000000E+00 -0.45593999997E+02  0.45594000000E+02  0.51100000000E-03 0. -1.
    9900012    2    1    2    0    0 -0.18891842963E+02 -0.31996439548E+02 -0.22426553276E+02  0.47787260765E+02  0.19999953134E+02 0.  0.
         12    1    1    2    0    0  0.18891842963E+02  0.31996439548E+02  0.22426553276E+02  0.43400739235E+02  0.00000000000E+00 0. -1.
         11    1    3    3    0    0 -0.22911113395E+01 -0.12407351648E+02 -0.36993663899E+01  0.13148265210E+02  0.51100000000E-03 0.  1.
        -11    1    3    3    0    0  0.18841016055E+00 -0.43919332169E+01  0.11094701177E+01  0.45338173732E+01  0.51100000000E-03 0. -1.
        -12    1    3    3    0    0 -0.16789141784E+02 -0.15197154683E+02 -0.19836657004E+02  0.30105178182E+02  0.00000000000E+00 0.  1.
</event>
<event>
 7    1  0.8440037E-011  0.4778727E+02  0.7816164E-02  0.1312668E+00
        -11   -1    0    0    0    0  0.00000000000E+00  0.00000000000E+00  0.45593999997E+02  0.45594000000E+02  0.51100000000E-03 0. -1.
         11   -1    0    0    0    0 -0.00000000000E+00 -0.00000000000E+00 -0.45593999997E+02  0.45594000000E+02  0.51100000000E-03 0.  1.
    9900012    2    1    2    0    0 -0.75649083027E+01 -0.36566922941E+02  0.22119121472E+02  0.47787271600E+02  0.20000002531E+02 0.  0.
        -12    1    1    2    0    0  0.75649083027E+01  0.36566922941E+02 -0.22119121472E+02  0.43400728400E+02  0.00000000000E+00 0.  1.
         11    1    3    3    0    0  0.22466882320E+01 -0.15423524839E+02  0.12522717180E+02  0.19993778340E+02  0.51100000000E-03 0. -1.
        -11    1    3    3    0    0  0.19870792625E+01 -0.90594579099E+00 -0.56977907099E+00  0.22569603946E+01  0.51100000000E-03 0.  1.
         12    1    3    3    0    0 -0.11798675797E+02 -0.20237452311E+02  0.10166183362E+02  0.25536532865E+02  0.00000000000E+00 0. -1.
</event>
<event>
 7    1  0.8440037E-011  0.4778727E+02  0.7816164E-02  0.1312668E+00
        -11   -1    0    0    0    0  0.00000000000E+00  0.00000000000E+00  0.45593999997E+02  0.45594000000E+02  0.51100000000E-03 0. -1.
         11   -1    0    0    0    0 -0.00000000000E+00 -0.00000000000E+00 -0.45593999997E+02  0.45594000000E+02  0.51100000000E-03 0.  1.
    9900012    2    1    2    0    0 -0.44941301311E+01  0.16816810917E+02 -0.39757023799E+02  0.47787271015E+02  0.19999999866E+02 0.  0.
         12    1    1    2    0    0  0.44941301311E+01 -0.16816810917E+02  0.39757023799E+02  0.43400728985E+02  0.00000000000E+00 0. -1.
         11    1    3    3    0    0 -0.76556314543E+01  0.30484186701E+01 -0.15419891811E+02  0.17483552645E+02  0.51100000000E-03 0. -1.
        -11    1    3    3    0    0 -0.13160207244E+01  0.88935782566E+01 -0.21099922006E+02  0.22935438816E+02  0.51100000000E-03 0.  1.
         12    1    3    3    0    0  0.44775220476E+01  0.48748139901E+01 -0.32372099826E+01  0.73682795547E+01  0.00000000000E+00 0. -1.
</event>
<event>
 7    1  0.8440037E-011  0.4778727E+02  0.7816164E-02  0.1312668E+00
        -11   -1    0    0    0    0  0.00000000000E+00  0.00000000000E+00  0.45593999997E+02  0.45594000000E+02  0.51100000000E-03 0. -1.
         11   -1    0    0    0    0 -0.00000000000E+00 -0.00000000000E+00 -0.45593999997E+02  0.45594000000E+02  0.51100000000E-03 0.  1.
    9900012    2    1    2    0    0 -0.16786456390E+02  0.26858987610E+02 -0.29672089754E+02  0.47787271389E+02  0.20000001572E+02 0.  0.
         12    1    1    2    0    0  0.16786456390E+02 -0.26858987610E+02  0.29672089754E+02  0.43400728611E+02  0.00000000000E+00 0. -1.
         11    1    3    3    0    0 -0.24401149724E+01 -0.22061874236E+01 -0.17793579740E+01  0.37399918566E+01  0.51100000000E-03 0. -1.
        -11    1    3    3    0    0 -0.14750031809E+01 -0.37852745278E+00 -0.31233877162E+01  0.34748335935E+01  0.51100000000E-03 0.  1.
        -12    1    3    3    0    0 -0.12871338237E+02  0.29443702487E+02 -0.24769344064E+02  0.40572445939E+02  0.00000000000E+00 0.  1.
</event>
<event>
 7    1  0.8440037E-011  0.4778727E+02  0.7816164E-02  0.1312668E+00
        -11   -1    0    0    0    0  0.00000000000E+00  0.00000000000E+00  0.45593999997E+02  0.45594000000E+02  0.51100000000E-03 0. -1.
         11   -1    0    0    0    0 -0.00000000000E+00 -0.00000000000E+00 -0.45593999997E+02  0.45594000000E+02  0.51100000000E-03 0.  1.
    9900012    2    1    2    0    0  0.42534598433E+02  0.64543952497E+01  0.57246844026E+01  0.47787270819E+02  0.19999998974E+02 0.  0.
        -12    1    1    2    0    0 -0.42534598433E+02 -0.64543952497E+01 -0.57246844026E+01  0.43400729181E+02  0.00000000000E+00 0.  1.
         11    1    3    3    0    0  0.14496811062E+02  0.97371241952E+01  0.36417399480E+01  0.17839041136E+02  0.51100000000E-03 0. -1.
        -11    1    3    3    0    0  0.12635947848E+02  0.16593058144E+01 -0.28071077569E+01  0.13049916782E+02  0.51100000000E-03 0.  1.
         12    1    3    3    0    0  0.15401839523E+02 -0.49420347599E+01  0.48900522114E+01  0.16898312901E+02  0.00000000000E+00 0. -1.
</event>
<event>
 7    1  0.8440037E-011  0.4778727E+02  0.7816164E-02  0.1312668E+00
        -11   -1    0    0    0    0  0.00000000000E+00  0.00000000000E+00  0.45593999997E+02  0.45594000000E+02  0.51100000000E-03 0. -1.
         11   -1    0    0    0    0 -0.00000000000E+00 -0.00000000000E+00 -0.45593999997E+02  0.45594000000E+02  0.51100000000E-03 0.  1.
    9900012    2    1    2    0    0 -0.27781482056E+02 -0.33315224857E+02  0.13813975261E+01  0.47787271762E+02  0.20000003270E+02 0.  0.
        -12    1    1    2    0    0  0.27781482056E+02  0.33315224857E+02 -0.13813975261E+01  0.43400728238E+02  0.00000000000E+00 0.  1.
         11    1    3    3    0    0 -0.10125514489E+02 -0.75311703493E+01  0.58314961146E+01  0.13901471782E+02  0.51100000000E-03 0. -1.
        -11    1    3    3    0    0 -0.73039865747E+01 -0.15824019239E+02  0.30296596187E+01  0.17689732684E+02  0.51100000000E-03 0.  1.
        -12    1    3    3    0    0 -0.10351980992E+02 -0.99600352685E+01 -0.74797582073E+01  0.16196067296E+02  0.00000000000E+00 0.  1.
</event>
<event>
 7    1  0.8440037E-011  0.4778731E+02  0.7816164E-02  0.1312668E+00
        -11   -1    0    0    0    0  0.00000000000E+00  0.00000000000E+00  0.45593999997E+02  0.45594000000E+02  0.51100000000E-03 0. -1.
         11   -1    0    0    0    0 -0.00000000000E+00 -0.00000000000E+00 -0.45593999997E+02  0.45594000000E+02  0.51100000000E-03 0.  1.
    9900012    2    1    2    0    0  0.41332787792E+01  0.97150908245E+01 -0.42096949884E+02  0.47787306771E+02  0.20000162893E+02 0.  0.
         12    1    1    2    0    0 -0.41332787792E+01 -0.97150908245E+01  0.42096949884E+02  0.43400693229E+02  0.00000000000E+00 0. -1.
         11    1    3    3    0    0 -0.31969101846E-01  0.42371201055E+00  0.16906513445E+00  0.45731517815E+00  0.51100000000E-03 0. -1.
        -11    1    3    3    0    0  0.10445165684E+02  0.85893622869E+01 -0.19692925116E+02  0.23889117408E+02  0.51100000000E-03 0.  1.
         12    1    3    3    0    0 -0.62799178030E+01  0.70201652710E+00 -0.22573089903E+02  0.23440874185E+02  0.00000000000E+00 0. -1.
</event>
<event>
 7    1  0.8440037E-011  0.4778728E+02  0.7816164E-02  0.1312668E+00
        -11   -1    0    0    0    0  0.00000000000E+00  0.00000000000E+00  0.45593999997E+02  0.45594000000E+02  0.51100000000E-03 0. -1.
         11   -1    0    0    0    0 -0.00000000000E+00 -0.00000000000E+00 -0.45593999997E+02  0.45594000000E+02  0.51100000000E-03 0.  1.
    9900012    2    1    2    0    0  0.88414678423E+01 -0.14950626169E+02  0.39773482095E+02  0.47787278181E+02  0.20000032540E+02 0.  0.
        -12    1    1    2    0    0 -0.88414678423E+01  0.14950626169E+02 -0.39773482095E+02  0.43400721819E+02  0.00000000000E+00 0.  1.
         11    1    3    3    0    0  0.32191042098E+01 -0.22823462249E+01  0.30321361782E+01  0.49765034179E+01  0.51100000000E-03 0. -1.
        -11    1    3    3    0    0 -0.53487373965E+01 -0.50250960061E+01  0.67384690616E+01  0.99633100505E+01  0.51100000000E-03 0.  1.
        -12    1    3    3    0    0  0.10971101029E+02 -0.76431839380E+01  0.30002876855E+02  0.32847464713E+02  0.00000000000E+00 0.  1.
</event>
<event>
 7    1  0.8440037E-011  0.4778727E+02  0.7816164E-02  0.1312668E+00
        -11   -1    0    0    0    0  0.00000000000E+00  0.00000000000E+00  0.45593999997E+02  0.45594000000E+02  0.51100000000E-03 0. -1.
         11   -1    0    0    0    0 -0.00000000000E+00 -0.00000000000E+00 -0.45593999997E+02  0.45594000000E+02  0.51100000000E-03 0.  1.
    9900012    2    1    2    0    0  0.19699846679E+02  0.20347662234E+02 -0.32886347521E+02  0.47787272232E+02  0.20000005415E+02 0.  0.
         12    1    1    2    0    0 -0.19699846679E+02 -0.20347662234E+02  0.32886347521E+02  0.43400727768E+02  0.00000000000E+00 0. -1.
         11    1    3    3    0    0 -0.68550749442E+00  0.15416666117E+01  0.67719028168E+00  0.18180328395E+01  0.51100000000E-03 0. -1.
        -11    1    3    3    0    0  0.14860464365E+02  0.54121531827E+01 -0.11422270647E+02  0.19508794688E+02  0.51100000000E-03 0.  1.
         12    1    3    3    0    0  0.55248898083E+01  0.13393842439E+02 -0.22141267156E+02  0.26460444704E+02  0.00000000000E+00 0. -1.
</event>
<event>
 7    1  0.8440037E-011  0.4778727E+02  0.7816164E-02  0.1312668E+00
        -11   -1    0    0    0    0  0.00000000000E+00  0.00000000000E+00  0.45593999997E+02  0.45594000000E+02  0.51100000000E-03 0. -1.
         11   -1    0    0    0    0 -0.00000000000E+00 -0.00000000000E+00 -0.45593999997E+02  0.45594000000E+02  0.51100000000E-03 0.  1.
    9900012    2    1    2    0    0  0.24978018515E+02 -0.20651168755E+01  0.35432427583E+02  0.47787273727E+02  0.20000012229E+02 0.  0.
        -12    1    1    2    0    0 -0.24978018515E+02  0.20651168755E+01 -0.35432427583E+02  0.43400726273E+02  0.00000000000E+00 0.  1.
         11    1    3    3    0    0  0.13738765093E+02 -0.46866269580E+01  0.10538593953E+02  0.17938230161E+02  0.51100000000E-03 0. -1.
        -11    1    3    3    0    0 -0.10513681618E+01 -0.20053041590E+01  0.78686329854E+00  0.23970343955E+01  0.51100000000E-03 0.  1.
        -12    1    3    3    0    0  0.12290621583E+02  0.46268142415E+01  0.24106970332E+02  0.27452009171E+02  0.00000000000E+00 0.  1.
</event>
<event>
 7    1  0.8440037E-011  0.4778728E+02  0.7816164E-02  0.1312668E+00
        -11   -1    0    0    0    0  0.00000000000E+00  0.00000000000E+00  0.45593999997E+02  0.45594000000E+02  0.51100000000E-03 0. -1.
         11   -1    0    0    0    0 -0.00000000000E+00 -0.00000000000E+00 -0.45593999997E+02  0.45594000000E+02  0.51100000000E-03 0.  1.
    9900012    2    1    2    0    0 -0.16486819430E+02  0.46284041926E+01 -0.39879637569E+02  0.47787276124E+02  0.20000023162E+02 0.  0.
         12    1    1    2    0    0  0.16486819430E+02 -0.46284041926E+01  0.39879637569E+02  0.43400723876E+02  0.00000000000E+00 0. -1.
         11    1    3    3    0    0 -0.12039197992E+02 -0.93877826858E+00 -0.19864141097E+02  0.23246670616E+02  0.51100000000E-03 0. -1.
        -11    1    3    3    0    0 -0.33300870564E+01  0.18615675449E+01 -0.20304086573E+02  0.20659400896E+02  0.51100000000E-03 0.  1.
         12    1    3    3    0    0 -0.11175343816E+01  0.37056149163E+01  0.28859010157E+00  0.38812046131E+01  0.00000000000E+00 0. -1.
</event>
<event>
 7    1  0.8440037E-011  0.4778727E+02  0.7816164E-02  0.1312668E+00
        -11   -1    0    0    0    0  0.00000000000E+00  0.00000000000E+00  0.45593999997E+02  0.45594000000E+02  0.51100000000E-03 0. -1.
         11   -1    0    0    0    0 -0.00000000000E+00 -0.00000000000E+00 -0.45593999997E+02  0.45594000000E+02  0.51100000000E-03 0.  1.
    9900012    2    1    2    0    0 -0.38234412984E+01  0.52597400588E+01 -0.42910834890E+02  0.47787270515E+02  0.19999997587E+02 0.  0.
         12    1    1    2    0    0  0.38234412984E+01 -0.52597400588E+01  0.42910834890E+02  0.43400729485E+02  0.00000000000E+00 0. -1.
         11    1    3    3    0    0  0.23282515524E+01  0.34716507434E+01 -0.89107699585E+00  0.42740066271E+01  0.51100000000E-03 0. -1.
        -11    1    3    3    0    0  0.15565855227E+01  0.31106301870E+01 -0.13411855865E+02  0.13855571322E+02  0.51100000000E-03 0.  1.
        -12    1    3    3    0    0 -0.77082783735E+01 -0.13225408716E+01 -0.28607902029E+02  0.29657692566E+02  0.00000000000E+00 0.  1.
</event>
<event>
 7    1  0.8440037E-011  0.4778727E+02  0.7816164E-02  0.1312668E+00
        -11   -1    0    0    0    0  0.00000000000E+00  0.00000000000E+00  0.45593999997E+02  0.45594000000E+02  0.51100000000E-03 0. -1.
         11   -1    0    0    0    0 -0.00000000000E+00 -0.00000000000E+00 -0.45593999997E+02  0.45594000000E+02  0.51100000000E-03 0.  1.
    9900012    2    1    2    0    0 -0.19795216999E+02  0.12582355635E+02  0.36516528870E+02  0.47787272240E+02  0.20000005451E+02 0.  0.
        -12    1    1    2    0    0  0.19795216999E+02 -0.12582355635E+02 -0.36516528870E+02  0.43400727760E+02  0.00000000000E+00 0.  1.
         11    1    3    3    0    0 -0.58355046803E+01  0.75734258062E+01  0.25987998004E+01  0.99077572628E+01  0.51100000000E-03 0.  1.
        -11    1    3    3    0    0 -0.68323489041E+01  0.64531449543E+01  0.21922116101E+02  0.23851692727E+02  0.51100000000E-03 0. -1.
        -12    1    3    3    0    0 -0.71273634145E+01 -0.14442151254E+01  0.11995612969E+02  0.14027822250E+02  0.00000000000E+00 0.  1.
</event>
<event>
 7    1  0.8440037E-011  0.4778723E+02  0.7816164E-02  0.1312668E+00
        -11   -1    0    0    0    0  0.00000000000E+00  0.00000000000E+00  0.45593999997E+02  0.45594000000E+02  0.51100000000E-03 0. -1.
         11   -1    0    0    0    0 -0.00000000000E+00 -0.00000000000E+00 -0.45593999997E+02  0.45594000000E+02  0.51100000000E-03 0.  1.
    9900012    2    1    2    0    0 -0.24823157165E+02 -0.20130107075E+01  0.35544133208E+02  0.47787231006E+02  0.19999817448E+02 0.  0.
        -12    1    1    2    0    0  0.24823157165E+02  0.20130107075E+01 -0.35544133208E+02  0.43400768994E+02  0.00000000000E+00 0.  1.
         11    1    3    3    0    0 -0.36053603660E+01  0.31314635423E+01 -0.11223776321E+01  0.49055498260E+01  0.51100000000E-03 0. -1.
        -11    1    3    3    0    0 -0.50356306514E+01  0.58240371660E+00  0.84651305504E+01  0.98668741576E+01  0.51100000000E-03 0.  1.
         12    1    3    3    0    0 -0.16182166147E+02 -0.57268779664E+01  0.28201380290E+02  0.33014807022E+02  0.00000000000E+00 0. -1.
</event>
<event>
 7    1  0.8440037E-011  0.4778727E+02  0.7816164E-02  0.1312668E+00
        -11   -1    0    0    0    0  0.00000000000E+00  0.00000000000E+00  0.45593999997E+02  0.45594000000E+02  0.51100000000E-03 0. -1.
         11   -1    0    0    0    0 -0.00000000000E+00 -0.00000000000E+00 -0.45593999997E+02  0.45594000000E+02  0.51100000000E-03 0.  1.
    9900012    2    1    2    0    0  0.74664078514E+01  0.17248218440E+02 -0.39120007758E+02  0.47787270830E+02  0.19999999022E+02 0.  0.
         12    1    1    2    0    0 -0.74664078514E+01 -0.17248218440E+02  0.39120007758E+02  0.43400729170E+02  0.00000000000E+00 0. -1.
         11    1    3    3    0    0  0.61635622213E+01  0.62483490815E+01 -0.12760824894E+02  0.15487737657E+02  0.51100000000E-03 0. -1.
        -11    1    3    3    0    0  0.70252899174E+01  0.86619253734E+01 -0.22214776918E+02  0.24857191381E+02  0.51100000000E-03 0.  1.
         12    1    3    3    0    0 -0.57224442873E+01  0.23379439848E+01 -0.41444059458E+01  0.74423417915E+01  0.00000000000E+00 0. -1.
</event>
<event>
 7    1  0.8440037E-011  0.4778727E+02  0.7816164E-02  0.1312668E+00
        -11   -1    0    0    0    0  0.00000000000E+00  0.00000000000E+00  0.45593999997E+02  0.45594000000E+02  0.51100000000E-03 0. -1.
         11   -1    0    0    0    0 -0.00000000000E+00 -0.00000000000E+00 -0.45593999997E+02  0.45594000000E+02  0.51100000000E-03 0.  1.
    9900012    2    1    2    0    0  0.33012561899E+02 -0.21486126864E+02 -0.18224725563E+02  0.47787268294E+02  0.19999987459E+02 0.  0.
         12    1    1    2    0    0 -0.33012561899E+02  0.21486126864E+02  0.18224725563E+02  0.43400731706E+02  0.00000000000E+00 0. -1.
         11    1    3    3    0    0  0.20946192015E+02 -0.85458381247E+01 -0.96465616422E+01  0.24593301140E+02  0.51100000000E-03 0. -1.
        -11    1    3    3    0    0  0.13547028623E+02 -0.80322524098E+01 -0.38342403143E+01  0.16209270876E+02  0.51100000000E-03 0.  1.
         12    1    3    3    0    0 -0.14806587381E+01 -0.49080363298E+01 -0.47439236069E+01  0.69846962783E+01  0.00000000000E+00 0. -1.
</event>
<event>
 7    1  0.8440037E-011  0.4778727E+02  0.7816164E-02  0.1312668E+00
        -11   -1    0    0    0    0  0.00000000000E+00  0.00000000000E+00  0.45593999997E+02  0.45594000000E+02  0.51100000000E-03 0. -1.
         11   -1    0    0    0    0 -0.00000000000E+00 -0.00000000000E+00 -0.45593999997E+02  0.45594000000E+02  0.51100000000E-03 0.  1.
    9900012    2    1    2    0    0  0.26565255840E+02 -0.14900119175E+02 -0.30917582296E+02  0.47787271155E+02  0.20000000503E+02 0.  0.
         12    1    1    2    0    0 -0.26565255840E+02  0.14900119175E+02  0.30917582296E+02  0.43400728845E+02  0.00000000000E+00 0. -1.
         11    1    3    3    0    0  0.16247818881E+02 -0.16582676545E+02 -0.28897514800E+02  0.37068087915E+02  0.51100000000E-03 0. -1.
        -11    1    3    3    0    0  0.31348457183E+01  0.34671730604E+00 -0.11706710914E+01  0.33642148613E+01  0.51100000000E-03 0.  1.
         12    1    3    3    0    0  0.71825912399E+01  0.13358400630E+01 -0.84939640436E+00  0.73549683783E+01  0.00000000000E+00 0. -1.
</event>
<event>
 7    1  0.8440037E-011  0.4778727E+02  0.7816164E-02  0.1312668E+00
        -11   -1    0    0    0    0  0.00000000000E+00  0.00000000000E+00  0.45593999997E+02  0.45594000000E+02  0.51100000000E-03 0. -1.
         11   -1    0    0    0    0 -0.00000000000E+00 -0.00000000000E+00 -0.45593999997E+02  0.45594000000E+02  0.51100000000E-03 0.  1.
    9900012    2    1    2    0    0  0.99878584466E+01  0.13229114773E+02  0.40110554244E+02  0.47787270101E+02  0.19999995697E+02 0.  0.
        -12    1    1    2    0    0 -0.99878584466E+01 -0.13229114773E+02 -0.40110554244E+02  0.43400729899E+02  0.00000000000E+00 0.  1.
         11    1    3    3    0    0 -0.34275070388E+01  0.66947412671E+01  0.16679047454E+02  0.18296392797E+02  0.51100000000E-03 0.  1.
        -11    1    3    3    0    0  0.17233603066E+01  0.17742750177E+01  0.12650147553E+02  0.12889695728E+02  0.51100000000E-03 0. -1.
        -12    1    3    3    0    0  0.11692005179E+02  0.47600984882E+01  0.10781359237E+02  0.16601181576E+02  0.00000000000E+00 0.  1.
</event>
<event>
 7    1  0.8440037E-011  0.4778727E+02  0.7816164E-02  0.1312668E+00
        -11   -1    0    0    0    0  0.00000000000E+00  0.00000000000E+00  0.45593999997E+02  0.45594000000E+02  0.51100000000E-03 0. -1.
         11   -1    0    0    0    0 -0.00000000000E+00 -0.00000000000E+00 -0.45593999997E+02  0.45594000000E+02  0.51100000000E-03 0.  1.
    9900012    2    1    2    0    0 -0.90587332527E+00  0.20614458537E+02  0.38181760064E+02  0.47787270642E+02  0.19999998165E+02 0.  0.
        -12    1    1    2    0    0  0.90587332527E+00 -0.20614458537E+02 -0.38181760064E+02  0.43400729358E+02  0.00000000000E+00 0.  1.
         11    1    3    3    0    0 -0.27559133745E+01  0.74270816769E+01  0.35538843207E+01  0.86825511682E+01  0.51100000000E-03 0. -1.
        -11    1    3    3    0    0  0.64854316985E+00  0.68536174136E+01  0.43393651115E+01  0.81377373837E+01  0.51100000000E-03 0.  1.
        -12    1    3    3    0    0  0.12014968793E+01  0.63337594464E+01  0.30288510632E+02  0.30966982090E+02  0.00000000000E+00 0.  1.
</event>
<event>
 7    1  0.8440037E-011  0.4778727E+02  0.7816164E-02  0.1312668E+00
        -11   -1    0    0    0    0  0.00000000000E+00  0.00000000000E+00  0.45593999997E+02  0.45594000000E+02  0.51100000000E-03 0. -1.
         11   -1    0    0    0    0 -0.00000000000E+00 -0.00000000000E+00 -0.45593999997E+02  0.45594000000E+02  0.51100000000E-03 0.  1.
    9900012    2    1    2    0    0 -0.35798174169E+02  0.14847055767E+02 -0.19536606312E+02  0.47787270456E+02  0.19999997315E+02 0.  0.
         12    1    1    2    0    0  0.35798174169E+02 -0.14847055767E+02  0.19536606312E+02  0.43400729544E+02  0.00000000000E+00 0. -1.
         11    1    3    3    0    0 -0.14910460212E+02  0.58101874992E+01 -0.74046420927E+01  0.17632606934E+02  0.51100000000E-03 0. -1.
        -11    1    3    3    0    0 -0.68569258656E+01  0.81180302068E+01  0.13044676056E+01  0.10706142291E+02  0.51100000000E-03 0.  1.
         12    1    3    3    0    0 -0.14030788091E+02  0.91883806067E+00 -0.13436431825E+02  0.19448521230E+02  0.00000000000E+00 0. -1.
</event>
<event>
 7    1  0.8440037E-011  0.4778727E+02  0.7816164E-02  0.1312668E+00
        -11   -1    0    0    0    0  0.00000000000E+00  0.00000000000E+00  0.45593999997E+02  0.45594000000E+02  0.51100000000E-03 0. -1.
         11   -1    0    0    0    0 -0.00000000000E+00 -0.00000000000E+00 -0.45593999997E+02  0.45594000000E+02  0.51100000000E-03 0.  1.
    9900012    2    1    2    0    0  0.11433251000E+02 -0.85549816465E+01  0.40984341703E+02  0.47787271847E+02  0.20000003658E+02 0.  0.
        -12    1    1    2    0    0 -0.11433251000E+02  0.85549816465E+01 -0.40984341703E+02  0.43400728153E+02  0.00000000000E+00 0.  1.
         11    1    3    3    0    0  0.25910441083E+01 -0.40738481165E+01  0.71025750077E+01  0.85881499782E+01  0.51100000000E-03 0. -1.
        -11    1    3    3    0    0  0.36894968858E+01 -0.73632279804E+01  0.48177301629E+01  0.95414903315E+01  0.51100000000E-03 0.  1.
         12    1    3    3    0    0  0.51527100058E+01  0.28820944504E+01  0.29064036532E+02  0.29657631537E+02  0.00000000000E+00 0. -1.
</event>
<event>
 7    1  0.8440037E-011  0.4778727E+02  0.7816164E-02  0.1312668E+00
        -11   -1    0    0    0    0  0.00000000000E+00  0.00000000000E+00  0.45593999997E+02  0.45594000000E+02  0.51100000000E-03 0. -1.
         11   -1    0    0    0    0 -0.00000000000E+00 -0.00000000000E+00 -0.45593999997E+02  0.45594000000E+02  0.51100000000E-03 0.  1.
    9900012    2    1    2    0    0 -0.26287740377E+02  0.25231878398E+02  0.23578169948E+02  0.47787273281E+02  0.20000010198E+02 0.  0.
        -12    1    1    2    0    0  0.26287740377E+02 -0.25231878398E+02 -0.23578169948E+02  0.43400726719E+02  0.00000000000E+00 0.  1.
         11    1    3    3    0    0 -0.46530382444E+01  0.11833716609E+02  0.10436244303E+02  0.16450009395E+02  0.51100000000E-03 0. -1.
        -11    1    3    3    0    0 -0.16989843852E+01  0.69557579138E+01  0.55277197138E+01  0.90457062517E+01  0.51100000000E-03 0.  1.
        -12    1    3    3    0    0 -0.19935717747E+02  0.64424038747E+01  0.76142059312E+01  0.22291557634E+02  0.00000000000E+00 0.  1.
</event>
<event>
 7    1  0.8440037E-011  0.4778727E+02  0.7816164E-02  0.1312668E+00
        -11   -1    0    0    0    0  0.00000000000E+00  0.00000000000E+00  0.45593999997E+02  0.45594000000E+02  0.51100000000E-03 0. -1.
         11   -1    0    0    0    0 -0.00000000000E+00 -0.00000000000E+00 -0.45593999997E+02  0.45594000000E+02  0.51100000000E-03 0.  1.
    9900012    2    1    2    0    0  0.12293130289E+02 -0.27727491106E+02  0.31043327668E+02  0.47787274107E+02  0.20000013964E+02 0.  0.
        -12    1    1    2    0    0 -0.12293130289E+02  0.27727491106E+02 -0.31043327668E+02  0.43400725893E+02  0.00000000000E+00 0.  1.
         11    1    3    3    0    0  0.99577186483E+01 -0.88025290295E+01  0.16557114521E+02  0.21231550097E+02  0.51100000000E-03 0. -1.
        -11    1    3    3    0    0  0.49730862636E+01 -0.93480263999E+01  0.12576371211E+02  0.16440264525E+02  0.51100000000E-03 0.  1.
        -12    1    3    3    0    0 -0.26376746234E+01 -0.95769356764E+01  0.19098419361E+01  0.10115459485E+02  0.00000000000E+00 0.  1.
</event>
<event>
 7    1  0.8440037E-011  0.4778728E+02  0.7816164E-02  0.1312668E+00
        -11   -1    0    0    0    0  0.00000000000E+00  0.00000000000E+00  0.45593999997E+02  0.45594000000E+02  0.51100000000E-03 0.  1.
         11   -1    0    0    0    0 -0.00000000000E+00 -0.00000000000E+00 -0.45593999997E+02  0.45594000000E+02  0.51100000000E-03 0. -1.
    9900012    2    1    2    0    0  0.15539011900E+02 -0.28546684174E+02 -0.28761923203E+02  0.47787282327E+02  0.20000051442E+02 0.  0.
         12    1    1    2    0    0 -0.15539011900E+02  0.28546684174E+02  0.28761923203E+02  0.43400717673E+02  0.00000000000E+00 0. -1.
         11    1    3    3    0    0  0.56121696495E+01 -0.88487474094E+01  0.25666752111E+00  0.10481538884E+02  0.51100000000E-03 0. -1.
        -11    1    3    3    0    0  0.21089219278E+01 -0.18399454873E+01 -0.63083557038E+00  0.28689553625E+01  0.51100000000E-03 0.  1.
        -12    1    3    3    0    0  0.78179203225E+01 -0.17857991278E+02 -0.28387755154E+02  0.34436788081E+02  0.00000000000E+00 0.  1.
</event>
<event>
 7    1  0.8440037E-011  0.4778727E+02  0.7816164E-02  0.1312668E+00
        -11   -1    0    0    0    0  0.00000000000E+00  0.00000000000E+00  0.45593999997E+02  0.45594000000E+02  0.51100000000E-03 0. -1.
         11   -1    0    0    0    0 -0.00000000000E+00 -0.00000000000E+00 -0.45593999997E+02  0.45594000000E+02  0.51100000000E-03 0.  1.
    9900012    2    1    2    0    0  0.16604290792E+02  0.42222111024E+01  0.39875976215E+02  0.47787273988E+02  0.20000013420E+02 0.  0.
        -12    1    1    2    0    0 -0.16604290792E+02 -0.42222111024E+01 -0.39875976215E+02  0.43400726012E+02  0.00000000000E+00 0.  1.
         11    1    3    3    0    0  0.16785711167E+02  0.87060712507E+01  0.23805138805E+02  0.30401322501E+02  0.51100000000E-03 0. -1.
        -11    1    3    3    0    0 -0.51479242450E+00  0.45406257157E+00  0.13539611695E+00  0.69965450677E+00  0.51100000000E-03 0.  1.
        -12    1    3    3    0    0  0.33337204962E+00 -0.49379227199E+01  0.15935441293E+02  0.16686296980E+02  0.00000000000E+00 0.  1.
</event>
<event>
 7    1  0.8440037E-011  0.4778727E+02  0.7816164E-02  0.1312668E+00
        -11   -1    0    0    0    0  0.00000000000E+00  0.00000000000E+00  0.45593999997E+02  0.45594000000E+02  0.51100000000E-03 0. -1.
         11   -1    0    0    0    0 -0.00000000000E+00 -0.00000000000E+00 -0.45593999997E+02  0.45594000000E+02  0.51100000000E-03 0.  1.
    9900012    2    1    2    0    0  0.16653659845E+02 -0.29217760045E+02  0.27433582804E+02  0.47787270124E+02  0.19999995803E+02 0.  0.
        -12    1    1    2    0    0 -0.16653659845E+02  0.29217760045E+02 -0.27433582804E+02  0.43400729876E+02  0.00000000000E+00 0.  1.
         11    1    3    3    0    0  0.28810439689E+01 -0.16676958223E+02  0.13356680226E+02  0.21559736938E+02  0.51100000000E-03 0. -1.
        -11    1    3    3    0    0  0.14444557114E+02 -0.11203464525E+02  0.79736780061E+01  0.19943479856E+02  0.51100000000E-03 0.  1.
         12    1    3    3    0    0 -0.67194123756E+00 -0.13373372975E+01  0.61032245720E+01  0.62840533296E+01  0.00000000000E+00 0. -1.
</event>
<event>
 7    1  0.8440037E-011  0.4778727E+02  0.7816164E-02  0.1312668E+00
        -11   -1    0    0    0    0  0.00000000000E+00  0.00000000000E+00  0.45593999997E+02  0.45594000000E+02  0.51100000000E-03 0. -1.
         11   -1    0    0    0    0 -0.00000000000E+00 -0.00000000000E+00 -0.45593999997E+02  0.45594000000E+02  0.51100000000E-03 0.  1.
    9900012    2    1    2    0    0  0.22369929364E+02 -0.13549311440E+02  0.34635613751E+02  0.47787270511E+02  0.19999997568E+02 0.  0.
        -12    1    1    2    0    0 -0.22369929364E+02  0.13549311440E+02 -0.34635613751E+02  0.43400729489E+02  0.00000000000E+00 0.  1.
         11    1    3    3    0    0  0.13928882675E+02 -0.12437763012E+02  0.27104214650E+02  0.32914285248E+02  0.51100000000E-03 0. -1.
        -11    1    3    3    0    0  0.23518411879E+01 -0.35942006935E+01 -0.68455973682E+00  0.43494893829E+01  0.51100000000E-03 0.  1.
         12    1    3    3    0    0  0.60892055015E+01  0.24826522660E+01  0.82159588380E+01  0.10523495880E+02  0.00000000000E+00 0. -1.
</event>
<event>
 7    1  0.8440037E-011  0.4778727E+02  0.7816164E-02  0.1312668E+00
        -11   -1    0    0    0    0  0.00000000000E+00  0.00000000000E+00  0.45593999997E+02  0.45594000000E+02  0.51100000000E-03 0. -1.
         11   -1    0    0    0    0 -0.00000000000E+00 -0.00000000000E+00 -0.45593999997E+02  0.45594000000E+02  0.51100000000E-03 0.  1.
    9900012    2    1    2    0    0  0.36923512194E+02 -0.11568940813E+02 -0.19658005346E+02  0.47787270531E+02  0.19999997658E+02 0.  0.
         12    1    1    2    0    0 -0.36923512194E+02  0.11568940813E+02  0.19658005346E+02  0.43400729469E+02  0.00000000000E+00 0. -1.
         11    1    3    3    0    0  0.35109257107E+01  0.16388637784E+00  0.13297295442E+01  0.37578769289E+01  0.51100000000E-03 0. -1.
        -11    1    3    3    0    0  0.21813323411E+02 -0.55040522394E+01 -0.45217175191E+01  0.22946930054E+02  0.51100000000E-03 0.  1.
         12    1    3    3    0    0  0.11599263072E+02 -0.62287749510E+01 -0.16466017371E+02  0.21082463548E+02  0.00000000000E+00 0. -1.
</event>
<event>
 7    1  0.8440037E-011  0.4778726E+02  0.7816164E-02  0.1312668E+00
        -11   -1    0    0    0    0  0.00000000000E+00  0.00000000000E+00  0.45593999997E+02  0.45594000000E+02  0.51100000000E-03 0. -1.
         11   -1    0    0    0    0 -0.00000000000E+00 -0.00000000000E+00 -0.45593999997E+02  0.45594000000E+02  0.51100000000E-03 0.  1.
    9900012    2    1    2    0    0 -0.25223304300E+02 -0.64656810353E+01  0.34721807065E+02  0.47787262714E+02  0.19999962020E+02 0.  0.
        -12    1    1    2    0    0  0.25223304300E+02  0.64656810353E+01 -0.34721807065E+02  0.43400737286E+02  0.00000000000E+00 0.  1.
         11    1    3    3    0    0 -0.70668682736E+01  0.20912394561E+01  0.10329203832E+02  0.12688828225E+02  0.51100000000E-03 0. -1.
        -11    1    3    3    0    0 -0.82136560346E+01  0.40682862997E+01  0.87416594370E+01  0.12666163936E+02  0.51100000000E-03 0.  1.
        -12    1    3    3    0    0 -0.99427799913E+01 -0.12625206791E+02  0.15650943796E+02  0.22432270554E+02  0.00000000000E+00 0.  1.
</event>
<event>
 7    1  0.8440037E-011  0.4778727E+02  0.7816164E-02  0.1312668E+00
        -11   -1    0    0    0    0  0.00000000000E+00  0.00000000000E+00  0.45593999997E+02  0.45594000000E+02  0.51100000000E-03 0. -1.
         11   -1    0    0    0    0 -0.00000000000E+00 -0.00000000000E+00 -0.45593999997E+02  0.45594000000E+02  0.51100000000E-03 0.  1.
    9900012    2    1    2    0    0  0.29452924161E+02  0.14920847419E+00 -0.31876731763E+02  0.47787273823E+02  0.20000012669E+02 0.  0.
         12    1    1    2    0    0 -0.29452924161E+02 -0.14920847419E+00  0.31876731763E+02  0.43400726177E+02  0.00000000000E+00 0. -1.
         11    1    3    3    0    0 -0.14453846060E+01  0.18638702440E+01 -0.30608084209E+01  0.38641554571E+01  0.51100000000E-03 0. -1.
        -11    1    3    3    0    0 -0.10504767200E+01  0.81184326901E-01 -0.15976257545E+01  0.19137660638E+01  0.51100000000E-03 0.  1.
         12    1    3    3    0    0  0.31948785487E+02 -0.17958460967E+01 -0.27218297587E+02  0.42009352302E+02  0.00000000000E+00 0. -1.
</event>
<event>
 7    1  0.8440037E-011  0.4778727E+02  0.7816164E-02  0.1312668E+00
        -11   -1    0    0    0    0  0.00000000000E+00  0.00000000000E+00  0.45593999997E+02  0.45594000000E+02  0.51100000000E-03 0. -1.
         11   -1    0    0    0    0 -0.00000000000E+00 -0.00000000000E+00 -0.45593999997E+02  0.45594000000E+02  0.51100000000E-03 0.  1.
    9900012    2    1    2    0    0  0.11629653727E+02  0.88085130012E+01  0.40875228694E+02  0.47787273417E+02  0.20000010820E+02 0.  0.
        -12    1    1    2    0    0 -0.11629653727E+02 -0.88085130012E+01 -0.40875228694E+02  0.43400726583E+02  0.00000000000E+00 0.  1.
         11    1    3    3    0    0  0.44842633313E+01  0.31032234906E+00  0.52137358619E+01  0.68838913039E+01  0.51100000000E-03 0. -1.
        -11    1    3    3    0    0  0.16663208742E-01  0.46529077465E+01  0.34026550690E+00  0.46653626908E+01  0.51100000000E-03 0.  1.
         12    1    3    3    0    0  0.71287271871E+01  0.38452829057E+01  0.35321227325E+02  0.36238019423E+02  0.00000000000E+00 0. -1.
</event>
<event>
 7    1  0.8440037E-011  0.4778727E+02  0.7816164E-02  0.1312668E+00
        -11   -1    0    0    0    0  0.00000000000E+00  0.00000000000E+00  0.45593999997E+02  0.45594000000E+02  0.51100000000E-03 0.  1.
         11   -1    0    0    0    0 -0.00000000000E+00 -0.00000000000E+00 -0.45593999997E+02  0.45594000000E+02  0.51100000000E-03 0. -1.
    9900012    2    1    2    0    0 -0.28703973088E+02 -0.22317338176E+02 -0.23698972789E+02  0.47787274597E+02  0.20000016195E+02 0.  0.
         12    1    1    2    0    0  0.28703973088E+02  0.22317338176E+02  0.23698972789E+02  0.43400725403E+02  0.00000000000E+00 0. -1.
         11    1    3    3    0    0 -0.13189494066E+02 -0.18684378087E+02 -0.73018058975E+01  0.24008021740E+02  0.51100000000E-03 0. -1.
        -11    1    3    3    0    0 -0.10478465529E+02 -0.38209102552E+01 -0.71511205199E+01  0.13249004490E+02  0.51100000000E-03 0.  1.
         12    1    3    3    0    0 -0.50360134936E+01  0.18795016661E+00 -0.92460463717E+01  0.10530248367E+02  0.00000000000E+00 0. -1.
</event>
<event>
 7    1  0.8440037E-011  0.4778727E+02  0.7816164E-02  0.1312668E+00
        -11   -1    0    0    0    0  0.00000000000E+00  0.00000000000E+00  0.45593999997E+02  0.45594000000E+02  0.51100000000E-03 0. -1.
         11   -1    0    0    0    0 -0.00000000000E+00 -0.00000000000E+00 -0.45593999997E+02  0.45594000000E+02  0.51100000000E-03 0.  1.
    9900012    2    1    2    0    0 -0.36810046913E+01  0.77362574449E+01 -0.42546724739E+02  0.47787271195E+02  0.20000000688E+02 0.  0.
         12    1    1    2    0    0  0.36810046913E+01 -0.77362574449E+01  0.42546724739E+02  0.43400728805E+02  0.00000000000E+00 0. -1.
         11    1    3    3    0    0 -0.62654051458E+01  0.21456458048E+01 -0.11047060489E+02  0.12880087083E+02  0.51100000000E-03 0. -1.
        -11    1    3    3    0    0 -0.34743227313E+01 -0.23812901865E+01 -0.15243383381E+02  0.15814619772E+02  0.51100000000E-03 0.  1.
        -12    1    3    3    0    0  0.60587231858E+01  0.79719018266E+01 -0.16256280869E+02  0.19092564340E+02  0.00000000000E+00 0.  1.
</event>
<event>
 7    1  0.8440037E-011  0.4778727E+02  0.7816164E-02  0.1312668E+00
        -11   -1    0    0    0    0  0.00000000000E+00  0.00000000000E+00  0.45593999997E+02  0.45594000000E+02  0.51100000000E-03 0. -1.
         11   -1    0    0    0    0 -0.00000000000E+00 -0.00000000000E+00 -0.45593999997E+02  0.45594000000E+02  0.51100000000E-03 0.  1.
    9900012    2    1    2    0    0 -0.39403393563E+01  0.92379747369E+01 -0.42222704638E+02  0.47787271453E+02  0.20000001863E+02 0.  0.
         12    1    1    2    0    0  0.39403393563E+01 -0.92379747369E+01  0.42222704638E+02  0.43400728547E+02  0.00000000000E+00 0. -1.
         11    1    3    3    0    0 -0.85493408432E+01  0.26670485145E+01 -0.15458819513E+02  0.17865594802E+02  0.51100000000E-03 0.  1.
        -11    1    3    3    0    0  0.41823039538E+01  0.61557898165E+01 -0.72205284961E+01  0.10369254874E+02  0.51100000000E-03 0. -1.
         12    1    3    3    0    0  0.42669753301E+00  0.41513640599E+00 -0.19543356628E+02  0.19552421776E+02  0.00000000000E+00 0. -1.
</event>
<event>
 7    1  0.8440037E-011  0.4778727E+02  0.7816164E-02  0.1312668E+00
        -11   -1    0    0    0    0  0.00000000000E+00  0.00000000000E+00  0.45593999997E+02  0.45594000000E+02  0.51100000000E-03 0. -1.
         11   -1    0    0    0    0 -0.00000000000E+00 -0.00000000000E+00 -0.45593999997E+02  0.45594000000E+02  0.51100000000E-03 0.  1.
    9900012    2    1    2    0    0 -0.88926491435E+01  0.24415439765E+02 -0.34762489206E+02  0.47787267708E+02  0.19999984789E+02 0.  0.
         12    1    1    2    0    0  0.88926491435E+01 -0.24415439765E+02  0.34762489206E+02  0.43400732292E+02  0.00000000000E+00 0. -1.
         11    1    3    3    0    0 -0.25120244530E+01 -0.11656344453E+01 -0.40209934475E+01  0.48823517979E+01  0.51100000000E-03 0. -1.
        -11    1    3    3    0    0  0.10836710634E+01  0.80821440345E+01 -0.18671879584E+02  0.20374849267E+02  0.51100000000E-03 0.  1.
        -12    1    3    3    0    0 -0.74642957539E+01  0.17498930175E+02 -0.12069616174E+02  0.22530066644E+02  0.00000000000E+00 0.  1.
</event>
<event>
 7    1  0.8440037E-011  0.4778727E+02  0.7816164E-02  0.1312668E+00
        -11   -1    0    0    0    0  0.00000000000E+00  0.00000000000E+00  0.45593999997E+02  0.45594000000E+02  0.51100000000E-03 0. -1.
         11   -1    0    0    0    0 -0.00000000000E+00 -0.00000000000E+00 -0.45593999997E+02  0.45594000000E+02  0.51100000000E-03 0.  1.
    9900012    2    1    2    0    0 -0.31056090519E+02 -0.12299542484E+02 -0.27710351318E+02  0.47787273349E+02  0.20000010509E+02 0.  0.
         12    1    1    2    0    0  0.31056090519E+02  0.12299542484E+02  0.27710351318E+02  0.43400726651E+02  0.00000000000E+00 0. -1.
         11    1    3    3    0    0 -0.10775110761E+02 -0.15723430281E+01 -0.20619050640E+01  0.11082722015E+02  0.51100000000E-03 0. -1.
        -11    1    3    3    0    0 -0.58009271411E+01  0.27652229257E+01 -0.71543012605E+01  0.96167167116E+01  0.51100000000E-03 0.  1.
         12    1    3    3    0    0 -0.14480052617E+02 -0.13492422381E+02 -0.18494144993E+02  0.27087834622E+02  0.00000000000E+00 0. -1.
</event>
<event>
 7    1  0.8440037E-011  0.4778727E+02  0.7816164E-02  0.1312668E+00
        -11   -1    0    0    0    0  0.00000000000E+00  0.00000000000E+00  0.45593999997E+02  0.45594000000E+02  0.51100000000E-03 0. -1.
         11   -1    0    0    0    0 -0.00000000000E+00 -0.00000000000E+00 -0.45593999997E+02  0.45594000000E+02  0.51100000000E-03 0.  1.
    9900012    2    1    2    0    0 -0.89098963023E+01  0.55978294776E+01  0.42105832241E+02  0.47787273558E+02  0.20000011460E+02 0.  0.
        -12    1    1    2    0    0  0.89098963023E+01 -0.55978294776E+01 -0.42105832241E+02  0.43400726442E+02  0.00000000000E+00 0.  1.
         11    1    3    3    0    0 -0.61622766686E+01  0.81385806126E+01  0.11668595239E+02  0.15503749973E+02  0.51100000000E-03 0. -1.
        -11    1    3    3    0    0 -0.53810389610E+01  0.38880843307E+00  0.90463782659E+01  0.10532982118E+02  0.51100000000E-03 0.  1.
        -12    1    3    3    0    0  0.26334193273E+01 -0.29295595681E+01  0.21390858737E+02  0.21750541467E+02  0.00000000000E+00 0.  1.
</event>
<event>
 7    1  0.8440037E-011  0.4778727E+02  0.7816164E-02  0.1312668E+00
        -11   -1    0    0    0    0  0.00000000000E+00  0.00000000000E+00  0.45593999997E+02  0.45594000000E+02  0.51100000000E-03 0. -1.
         11   -1    0    0    0    0 -0.00000000000E+00 -0.00000000000E+00 -0.45593999997E+02  0.45594000000E+02  0.51100000000E-03 0.  1.
    9900012    2    1    2    0    0  0.19869377782E+02 -0.19870667237E+02 -0.33075484928E+02  0.47787270823E+02  0.19999998991E+02 0.  0.
         12    1    1    2    0    0 -0.19869377782E+02  0.19870667237E+02  0.33075484928E+02  0.43400729177E+02  0.00000000000E+00 0. -1.
         11    1    3    3    0    0 -0.14268008643E+01 -0.50455955504E+00 -0.96350903895E+01  0.97532203977E+01  0.51100000000E-03 0. -1.
        -11    1    3    3    0    0  0.84860444193E+00 -0.33093867739E+01 -0.68671444024E+00  0.34847879852E+01  0.51100000000E-03 0.  1.
        -12    1    3    3    0    0  0.20447574205E+02 -0.16056720908E+02 -0.22753680098E+02  0.34549262440E+02  0.00000000000E+00 0.  1.
</event>
<event>
 7    1  0.8440037E-011  0.4778726E+02  0.7816164E-02  0.1312668E+00
        -11   -1    0    0    0    0  0.00000000000E+00  0.00000000000E+00  0.45593999997E+02  0.45594000000E+02  0.51100000000E-03 0. -1.
         11   -1    0    0    0    0 -0.00000000000E+00 -0.00000000000E+00 -0.45593999997E+02  0.45594000000E+02  0.51100000000E-03 0.  1.
    9900012    2    1    2    0    0  0.92819563443E+01 -0.57532018724E+01 -0.42004402421E+02  0.47787264198E+02  0.19999968785E+02 0.  0.
         12    1    1    2    0    0 -0.92819563443E+01  0.57532018724E+01  0.42004402421E+02  0.43400735802E+02  0.00000000000E+00 0. -1.
         11    1    3    3    0    0 -0.47380184140E+01 -0.49994154269E+01 -0.12530883740E+02  0.14299161537E+02  0.51100000000E-03 0. -1.
        -11    1    3    3    0    0 -0.26231644380E+00 -0.15711136746E+01 -0.29263952067E+01  0.33318159106E+01  0.51100000000E-03 0.  1.
         12    1    3    3    0    0  0.14282291202E+02  0.81732722912E+00 -0.26547123475E+02  0.30156286750E+02  0.00000000000E+00 0. -1.
</event>
<event>
 7    1  0.8440037E-011  0.4778727E+02  0.7816164E-02  0.1312668E+00
        -11   -1    0    0    0    0  0.00000000000E+00  0.00000000000E+00  0.45593999997E+02  0.45594000000E+02  0.51100000000E-03 0. -1.
         11   -1    0    0    0    0 -0.00000000000E+00 -0.00000000000E+00 -0.45593999997E+02  0.45594000000E+02  0.51100000000E-03 0.  1.
    9900012    2    1    2    0    0 -0.93471892172E+01 -0.38184754906E+01 -0.42209860945E+02  0.47787273481E+02  0.20000011111E+02 0.  0.
         12    1    1    2    0    0  0.93471892172E+01  0.38184754906E+01  0.42209860945E+02  0.43400726519E+02  0.00000000000E+00 0. -1.
         11    1    3    3    0    0 -0.61776747734E+01  0.14139143559E+01 -0.18153719034E+02  0.19228113128E+02  0.51100000000E-03 0.  1.
        -11    1    3    3    0    0  0.15957820919E+01  0.42080049045E-01 -0.20588222690E+02  0.20650017070E+02  0.51100000000E-03 0. -1.
        -12    1    3    3    0    0 -0.47652965357E+01 -0.52744698956E+01 -0.34679192209E+01  0.79091432833E+01  0.00000000000E+00 0.  1.
</event>
<event>
 7    1  0.8440037E-011  0.4778728E+02  0.7816164E-02  0.1312668E+00
        -11   -1    0    0    0    0  0.00000000000E+00  0.00000000000E+00  0.45593999997E+02  0.45594000000E+02  0.51100000000E-03 0. -1.
         11   -1    0    0    0    0 -0.00000000000E+00 -0.00000000000E+00 -0.45593999997E+02  0.45594000000E+02  0.51100000000E-03 0.  1.
    9900012    2    1    2    0    0 -0.65874256001E+01 -0.15182160260E+02 -0.40121446972E+02  0.47787277963E+02  0.20000031547E+02 0.  0.
         12    1    1    2    0    0  0.65874256001E+01  0.15182160260E+02  0.40121446972E+02  0.43400722037E+02  0.00000000000E+00 0. -1.
         11    1    3    3    0    0  0.12532713890E+01 -0.58146206466E+01 -0.13691352924E+02  0.14927613593E+02  0.51100000000E-03 0. -1.
        -11    1    3    3    0    0 -0.86722206957E+01 -0.11495311861E+02 -0.26914479089E+02  0.30524396660E+02  0.51100000000E-03 0.  1.
         12    1    3    3    0    0  0.83152370657E+00  0.21277722477E+01  0.48438504074E+00  0.23352677106E+01  0.00000000000E+00 0. -1.
</event>
<event>
 7    1  0.8440037E-011  0.4778727E+02  0.7816164E-02  0.1312668E+00
        -11   -1    0    0    0    0  0.00000000000E+00  0.00000000000E+00  0.45593999997E+02  0.45594000000E+02  0.51100000000E-03 0. -1.
         11   -1    0    0    0    0 -0.00000000000E+00 -0.00000000000E+00 -0.45593999997E+02  0.45594000000E+02  0.51100000000E-03 0.  1.
    9900012    2    1    2    0    0  0.77499786954E+01  0.20573810848E+02  0.37420306315E+02  0.47787272042E+02  0.20000004550E+02 0.  0.
        -12    1    1    2    0    0 -0.77499786954E+01 -0.20573810848E+02 -0.37420306315E+02  0.43400727958E+02  0.00000000000E+00 0.  1.
         11    1    3    3    0    0  0.68959049588E+01  0.64084619541E+01  0.83832795375E+01  0.12605604543E+02  0.51100000000E-03 0. -1.
        -11    1    3    3    0    0  0.70859286593E+01  0.93489589433E+01  0.14529563760E+02  0.18674090114E+02  0.51100000000E-03 0.  1.
        -12    1    3    3    0    0 -0.62318549228E+01  0.48163899502E+01  0.14507463017E+02  0.16507577385E+02  0.00000000000E+00 0.  1.
</event>
<event>
 7    1  0.8440037E-011  0.4778727E+02  0.7816164E-02  0.1312668E+00
        -11   -1    0    0    0    0  0.00000000000E+00  0.00000000000E+00  0.45593999997E+02  0.45594000000E+02  0.51100000000E-03 0. -1.
         11   -1    0    0    0    0 -0.00000000000E+00 -0.00000000000E+00 -0.45593999997E+02  0.45594000000E+02  0.51100000000E-03 0.  1.
    9900012    2    1    2    0    0 -0.16645092568E+02 -0.16193962720E+02  0.36664969422E+02  0.47787268233E+02  0.19999987182E+02 0.  0.
        -12    1    1    2    0    0  0.16645092568E+02  0.16193962720E+02 -0.36664969422E+02  0.43400731767E+02  0.00000000000E+00 0.  1.
         11    1    3    3    0    0 -0.24562039545E+01  0.22007383998E+01  0.14158297407E+01  0.35889777774E+01  0.51100000000E-03 0.  1.
        -11    1    3    3    0    0  0.10244630369E+01 -0.42742866782E+01  0.13217144651E+02  0.13928817757E+02  0.51100000000E-03 0. -1.
         12    1    3    3    0    0 -0.15213351650E+02 -0.14120414441E+02  0.22031995030E+02  0.30269472698E+02  0.00000000000E+00 0. -1.
</event>
<event>
 7    1  0.8440037E-011  0.4778728E+02  0.7816164E-02  0.1312668E+00
        -11   -1    0    0    0    0  0.00000000000E+00  0.00000000000E+00  0.45593999997E+02  0.45594000000E+02  0.51100000000E-03 0. -1.
         11   -1    0    0    0    0 -0.00000000000E+00 -0.00000000000E+00 -0.45593999997E+02  0.45594000000E+02  0.51100000000E-03 0.  1.
    9900012    2    1    2    0    0 -0.35417207436E+02  0.24764059268E+02  0.39981801498E+01  0.47787278134E+02  0.20000032324E+02 0.  0.
        -12    1    1    2    0    0  0.35417207436E+02 -0.24764059268E+02 -0.39981801498E+01  0.43400721866E+02  0.00000000000E+00 0.  1.
         11    1    3    3    0    0 -0.99384709308E+01 -0.51677779227E+00  0.22976264266E+01  0.10213684506E+02  0.51100000000E-03 0.  1.
        -11    1    3    3    0    0 -0.18312554006E+02  0.10701393670E+02 -0.24903034873E+00  0.21211588273E+02  0.51100000000E-03 0. -1.
        -12    1    3    3    0    0 -0.71661824994E+01  0.14579443390E+02  0.19495840719E+01  0.16362005355E+02  0.00000000000E+00 0.  1.
</event>
<event>
 7    1  0.8440037E-011  0.4778728E+02  0.7816164E-02  0.1312668E+00
        -11   -1    0    0    0    0  0.00000000000E+00  0.00000000000E+00  0.45593999997E+02  0.45594000000E+02  0.51100000000E-03 0. -1.
         11   -1    0    0    0    0 -0.00000000000E+00 -0.00000000000E+00 -0.45593999997E+02  0.45594000000E+02  0.51100000000E-03 0.  1.
    9900012    2    1    2    0    0  0.19372558104E+02 -0.36630173444E+02  0.12905706207E+02  0.47787275735E+02  0.20000021385E+02 0.  0.
        -12    1    1    2    0    0 -0.19372558104E+02  0.36630173444E+02 -0.12905706207E+02  0.43400724265E+02  0.00000000000E+00 0.  1.
         11    1    3    3    0    0  0.49112092766E+01 -0.70826416302E+01 -0.14418583335E+01  0.87385779584E+01  0.51100000000E-03 0. -1.
        -11    1    3    3    0    0  0.17002386509E+02 -0.27515528782E+02  0.10492358092E+02  0.34004044609E+02  0.51100000000E-03 0.  1.
        -12    1    3    3    0    0 -0.25410376818E+01 -0.20320030319E+01  0.38552064481E+01  0.50446531674E+01  0.00000000000E+00 0.  1.
</event>
<event>
 7    1  0.8440037E-011  0.4778726E+02  0.7816164E-02  0.1312668E+00
        -11   -1    0    0    0    0  0.00000000000E+00  0.00000000000E+00  0.45593999997E+02  0.45594000000E+02  0.51100000000E-03 0. -1.
         11   -1    0    0    0    0 -0.00000000000E+00 -0.00000000000E+00 -0.45593999997E+02  0.45594000000E+02  0.51100000000E-03 0.  1.
    9900012    2    1    2    0    0 -0.41984950367E+02 -0.15256618646E+01  0.10888556924E+02  0.47787258378E+02  0.19999942248E+02 0.  0.
        -12    1    1    2    0    0  0.41984950367E+02  0.15256618646E+01 -0.10888556924E+02  0.43400741622E+02  0.00000000000E+00 0.  1.
         11    1    3    3    0    0 -0.15905809612E+02 -0.80214985291E+00  0.51910513301E+01  0.16750678732E+02  0.51100000000E-03 0. -1.
        -11    1    3    3    0    0 -0.16132567151E+01 -0.29014893719E+01  0.55574765549E+01  0.64735449117E+01  0.51100000000E-03 0.  1.
        -12    1    3    3    0    0 -0.24465884040E+02  0.21779773603E+01  0.14002903925E+00  0.24563034734E+02  0.00000000000E+00 0.  1.
</event>
<event>
 7    1  0.8440037E-011  0.4778727E+02  0.7816164E-02  0.1312668E+00
        -11   -1    0    0    0    0  0.00000000000E+00  0.00000000000E+00  0.45593999997E+02  0.45594000000E+02  0.51100000000E-03 0. -1.
         11   -1    0    0    0    0 -0.00000000000E+00 -0.00000000000E+00 -0.45593999997E+02  0.45594000000E+02  0.51100000000E-03 0.  1.
    9900012    2    1    2    0    0  0.20516105628E+02  0.28312540603E+02 -0.25712109615E+02  0.47787272743E+02  0.20000007745E+02 0.  0.
         12    1    1    2    0    0 -0.20516105628E+02 -0.28312540603E+02  0.25712109615E+02  0.43400727257E+02  0.00000000000E+00 0. -1.
         11    1    3    3    0    0  0.10383445351E+01  0.59698647361E+00 -0.29586264212E+01  0.31918682279E+01  0.51100000000E-03 0. -1.
        -11    1    3    3    0    0  0.10684853426E+02  0.19887960207E+02 -0.47279709065E+01  0.23066225592E+02  0.51100000000E-03 0.  1.
        -12    1    3    3    0    0  0.87929076675E+01  0.78275939228E+01 -0.18025512288E+02  0.21529178923E+02  0.00000000000E+00 0.  1.
</event>
<event>
 7    1  0.8440037E-011  0.4778727E+02  0.7816164E-02  0.1312668E+00
        -11   -1    0    0    0    0  0.00000000000E+00  0.00000000000E+00  0.45593999997E+02  0.45594000000E+02  0.51100000000E-03 0. -1.
         11   -1    0    0    0    0 -0.00000000000E+00 -0.00000000000E+00 -0.45593999997E+02  0.45594000000E+02  0.51100000000E-03 0.  1.
    9900012    2    1    2    0    0 -0.15879634924E+02  0.14316387587E+02  0.37769056278E+02  0.47787269926E+02  0.19999994901E+02 0.  0.
        -12    1    1    2    0    0  0.15879634924E+02 -0.14316387587E+02 -0.37769056278E+02  0.43400730074E+02  0.00000000000E+00 0.  1.
         11    1    3    3    0    0 -0.99558946865E+01  0.92807081821E+01  0.25133503544E+02  0.28582238961E+02  0.51100000000E-03 0. -1.
        -11    1    3    3    0    0  0.34952958006E+00  0.17273111767E+01  0.11950594006E+02  0.12079837424E+02  0.51100000000E-03 0.  1.
         12    1    3    3    0    0 -0.62732698172E+01  0.33083682281E+01  0.68495872696E+00  0.71251935406E+01  0.00000000000E+00 0. -1.
</event>
<event>
 7    1  0.8440037E-011  0.4778728E+02  0.7816164E-02  0.1312668E+00
        -11   -1    0    0    0    0  0.00000000000E+00  0.00000000000E+00  0.45593999997E+02  0.45594000000E+02  0.51100000000E-03 0. -1.
         11   -1    0    0    0    0 -0.00000000000E+00 -0.00000000000E+00 -0.45593999997E+02  0.45594000000E+02  0.51100000000E-03 0.  1.
    9900012    2    1    2    0    0 -0.29119904831E+02  0.29143597838E+02  0.13649321458E+02  0.47787284239E+02  0.20000060160E+02 0.  0.
        -12    1    1    2    0    0  0.29119904831E+02 -0.29143597838E+02 -0.13649321458E+02  0.43400715761E+02  0.00000000000E+00 0.  1.
         11    1    3    3    0    0 -0.44945181211E+01 -0.92095592911E+00  0.66913164614E+00  0.46364415649E+01  0.51100000000E-03 0. -1.
        -11    1    3    3    0    0 -0.69481995272E+01  0.92640396644E+00  0.13383906026E+01  0.71363149205E+01  0.51100000000E-03 0.  1.
         12    1    3    3    0    0 -0.17677187183E+02  0.29138149801E+02  0.11641799209E+02  0.36014527754E+02  0.00000000000E+00 0. -1.
</event>
<event>
 7    1  0.8440037E-011  0.4778728E+02  0.7816164E-02  0.1312668E+00
        -11   -1    0    0    0    0  0.00000000000E+00  0.00000000000E+00  0.45593999997E+02  0.45594000000E+02  0.51100000000E-03 0.  1.
         11   -1    0    0    0    0 -0.00000000000E+00 -0.00000000000E+00 -0.45593999997E+02  0.45594000000E+02  0.51100000000E-03 0. -1.
    9900012    2    1    2    0    0 -0.24101045027E+02  0.34026913825E+02  0.12038726212E+02  0.47787283823E+02  0.20000058264E+02 0.  0.
        -12    1    1    2    0    0  0.24101045027E+02 -0.34026913825E+02 -0.12038726212E+02  0.43400716177E+02  0.00000000000E+00 0.  1.
         11    1    3    3    0    0 -0.14503361517E+02  0.15814744100E+02  0.37998054724E+01  0.21792020286E+02  0.51100000000E-03 0. -1.
        -11    1    3    3    0    0 -0.47040428552E+01  0.38600583860E+01 -0.33169657259E+01  0.69303918948E+01  0.51100000000E-03 0.  1.
         12    1    3    3    0    0 -0.48936406539E+01  0.14352111340E+02  0.11555886465E+02  0.19064871643E+02  0.00000000000E+00 0. -1.
</event>
<event>
 7    1  0.8440037E-011  0.4778727E+02  0.7816164E-02  0.1312668E+00
        -11   -1    0    0    0    0  0.00000000000E+00  0.00000000000E+00  0.45593999997E+02  0.45594000000E+02  0.51100000000E-03 0. -1.
         11   -1    0    0    0    0 -0.00000000000E+00 -0.00000000000E+00 -0.45593999997E+02  0.45594000000E+02  0.51100000000E-03 0.  1.
    9900012    2    1    2    0    0 -0.12890633692E+02  0.34598181344E+02 -0.22812736972E+02  0.47787267778E+02  0.19999985107E+02 0.  0.
         12    1    1    2    0    0  0.12890633692E+02 -0.34598181344E+02  0.22812736972E+02  0.43400732222E+02  0.00000000000E+00 0. -1.
         11    1    3    3    0    0  0.30309438520E+01  0.66055869465E+01 -0.73191314932E+01  0.10314556976E+02  0.51100000000E-03 0. -1.
        -11    1    3    3    0    0 -0.80410742480E+01  0.17899306281E+02 -0.14927061923E+02  0.24654841681E+02  0.51100000000E-03 0.  1.
         12    1    3    3    0    0 -0.78805032955E+01  0.10093288117E+02 -0.56654355541E+00  0.12817869121E+02  0.00000000000E+00 0. -1.
</event>
<event>
 7    1  0.8440037E-011  0.4778727E+02  0.7816164E-02  0.1312668E+00
        -11   -1    0    0    0    0  0.00000000000E+00  0.00000000000E+00  0.45593999997E+02  0.45594000000E+02  0.51100000000E-03 0. -1.
         11   -1    0    0    0    0 -0.00000000000E+00 -0.00000000000E+00 -0.45593999997E+02  0.45594000000E+02  0.51100000000E-03 0.  1.
    9900012    2    1    2    0    0 -0.33216698748E+02  0.24463259547E+02  0.13484180620E+02  0.47787271085E+02  0.20000000183E+02 0.  0.
        -12    1    1    2    0    0  0.33216698748E+02 -0.24463259547E+02 -0.13484180620E+02  0.43400728915E+02  0.00000000000E+00 0.  1.
         11    1    3    3    0    0 -0.19694271349E+02  0.12222764644E+02  0.72746916232E+01  0.24293650157E+02  0.51100000000E-03 0. -1.
        -11    1    3    3    0    0 -0.10556300096E+02  0.60548458018E+01  0.99145552596E+01  0.15696975367E+02  0.51100000000E-03 0.  1.
        -12    1    3    3    0    0 -0.29661273031E+01  0.61856491021E+01 -0.37050662625E+01  0.77966455609E+01  0.00000000000E+00 0.  1.
</event>
<event>
 7    1  0.8440037E-011  0.4778726E+02  0.7816164E-02  0.1312668E+00
        -11   -1    0    0    0    0  0.00000000000E+00  0.00000000000E+00  0.45593999997E+02  0.45594000000E+02  0.51100000000E-03 0.  1.
         11   -1    0    0    0    0 -0.00000000000E+00 -0.00000000000E+00 -0.45593999997E+02  0.45594000000E+02  0.51100000000E-03 0. -1.
    9900012    2    1    2    0    0  0.15174662988E+02  0.40135495311E+02  0.65188866240E+01  0.47787259644E+02  0.19999948019E+02 0.  0.
        -12    1    1    2    0    0 -0.15174662988E+02 -0.40135495311E+02 -0.65188866240E+01  0.43400740356E+02  0.00000000000E+00 0.  1.
         11    1    3    3    0    0  0.20712708289E+01  0.12157393597E+02  0.44558379679E+01  0.13112851489E+02  0.51100000000E-03 0. -1.
        -11    1    3    3    0    0 -0.11519077502E+01  0.21602518001E+01  0.44573550969E+01  0.50854295812E+01  0.51100000000E-03 0.  1.
         12    1    3    3    0    0  0.14255299909E+02  0.25817849914E+02 -0.23943064408E+01  0.29588978574E+02  0.00000000000E+00 0. -1.
</event>
<event>
 7    1  0.8440037E-011  0.4778727E+02  0.7816164E-02  0.1312668E+00
        -11   -1    0    0    0    0  0.00000000000E+00  0.00000000000E+00  0.45593999997E+02  0.45594000000E+02  0.51100000000E-03 0. -1.
         11   -1    0    0    0    0 -0.00000000000E+00 -0.00000000000E+00 -0.45593999997E+02  0.45594000000E+02  0.51100000000E-03 0.  1.
    9900012    2    1    2    0    0  0.68730472438E+01  0.15608819795E+02  0.39909263873E+02  0.47787269860E+02  0.19999994599E+02 0.  0.
        -12    1    1    2    0    0 -0.68730472438E+01 -0.15608819795E+02 -0.39909263873E+02  0.43400730140E+02  0.00000000000E+00 0.  1.
         11    1    3    3    0    0  0.53348196154E+00  0.68688171842E+01  0.13602134978E+02  0.15247404000E+02  0.51100000000E-03 0. -1.
        -11    1    3    3    0    0  0.49229538349E+01  0.87943458364E+01  0.28330204020E+02  0.30069526987E+02  0.51100000000E-03 0.  1.
        -12    1    3    3    0    0  0.14166114474E+01 -0.54343225863E-01 -0.20230751257E+01  0.24703388722E+01  0.00000000000E+00 0.  1.
</event>
<event>
 7    1  0.8440037E-011  0.4778727E+02  0.7816164E-02  0.1312668E+00
        -11   -1    0    0    0    0  0.00000000000E+00  0.00000000000E+00  0.45593999997E+02  0.45594000000E+02  0.51100000000E-03 0. -1.
         11   -1    0    0    0    0 -0.00000000000E+00 -0.00000000000E+00 -0.45593999997E+02  0.45594000000E+02  0.51100000000E-03 0.  1.
    9900012    2    1    2    0    0  0.68854069044E+01 -0.41362997852E+02  0.11194505982E+02  0.47787269778E+02  0.19999994228E+02 0.  0.
        -12    1    1    2    0    0 -0.68854069044E+01  0.41362997852E+02 -0.11194505982E+02  0.43400730222E+02  0.00000000000E+00 0.  1.
         11    1    3    3    0    0  0.28917481776E+01 -0.36954896710E+01  0.70829335257E+00  0.47455801716E+01  0.51100000000E-03 0. -1.
        -11    1    3    3    0    0  0.43505094933E+01 -0.47645413003E+01  0.76607076057E+01  0.10015699074E+02  0.51100000000E-03 0.  1.
         12    1    3    3    0    0 -0.35685076650E+00 -0.32902966881E+02  0.28255050241E+01  0.33025990533E+02  0.00000000000E+00 0. -1.
</event>
<event>
 7    1  0.8440037E-011  0.4778726E+02  0.7816164E-02  0.1312668E+00
        -11   -1    0    0    0    0  0.00000000000E+00  0.00000000000E+00  0.45593999997E+02  0.45594000000E+02  0.51100000000E-03 0.  1.
         11   -1    0    0    0    0 -0.00000000000E+00 -0.00000000000E+00 -0.45593999997E+02  0.45594000000E+02  0.51100000000E-03 0. -1.
    9900012    2    1    2    0    0  0.31832447375E+02  0.28871149854E+02 -0.60643457135E+01  0.47787259353E+02  0.19999946693E+02 0.  0.
         12    1    1    2    0    0 -0.31832447375E+02 -0.28871149854E+02  0.60643457135E+01  0.43400740647E+02  0.00000000000E+00 0. -1.
         11    1    3    3    0    0 -0.17541433237E+01  0.19978252766E+00 -0.23285010593E+01  0.29221309523E+01  0.51100000000E-03 0. -1.
        -11    1    3    3    0    0  0.92359393050E+01  0.56988189185E+01 -0.34479047763E+01  0.11387148876E+02  0.51100000000E-03 0.  1.
         12    1    3    3    0    0  0.24350651394E+02  0.22972548408E+02 -0.28793987789E+00  0.33477979525E+02  0.00000000000E+00 0. -1.
</event>
<event>
 7    1  0.8440037E-011  0.4778727E+02  0.7816164E-02  0.1312668E+00
        -11   -1    0    0    0    0  0.00000000000E+00  0.00000000000E+00  0.45593999997E+02  0.45594000000E+02  0.51100000000E-03 0. -1.
         11   -1    0    0    0    0 -0.00000000000E+00 -0.00000000000E+00 -0.45593999997E+02  0.45594000000E+02  0.51100000000E-03 0.  1.
    9900012    2    1    2    0    0 -0.13070005993E+02 -0.47110737660E-01 -0.41385935536E+02  0.47787274933E+02  0.20000017731E+02 0.  0.
         12    1    1    2    0    0  0.13070005993E+02  0.47110737660E-01  0.41385935536E+02  0.43400725067E+02  0.00000000000E+00 0. -1.
         11    1    3    3    0    0  0.27311850809E+01  0.41320077249E+00 -0.14794389090E+02  0.15050051682E+02  0.51100000000E-03 0. -1.
        -11    1    3    3    0    0 -0.64484316554E+01 -0.20417199923E+01 -0.20192033412E+02  0.21294814038E+02  0.51100000000E-03 0.  1.
        -12    1    3    3    0    0 -0.93527594187E+01  0.15814084822E+01 -0.63995130347E+01  0.11442409214E+02  0.00000000000E+00 0.  1.
</event>
<event>
 7    1  0.8440037E-011  0.4778727E+02  0.7816164E-02  0.1312668E+00
        -11   -1    0    0    0    0  0.00000000000E+00  0.00000000000E+00  0.45593999997E+02  0.45594000000E+02  0.51100000000E-03 0.  1.
         11   -1    0    0    0    0 -0.00000000000E+00 -0.00000000000E+00 -0.45593999997E+02  0.45594000000E+02  0.51100000000E-03 0. -1.
    9900012    2    1    2    0    0 -0.26130841356E+02 -0.34232492300E+02  0.53795071051E+01  0.47787268488E+02  0.19999988346E+02 0.  0.
        -12    1    1    2    0    0  0.26130841356E+02  0.34232492300E+02 -0.53795071051E+01  0.43400731512E+02  0.00000000000E+00 0.  1.
         11    1    3    3    0    0 -0.20983679694E+02 -0.23876986834E+02  0.59391553963E+01  0.32337267677E+02  0.51100000000E-03 0. -1.
        -11    1    3    3    0    0 -0.64986537990E+01 -0.33057762462E+01  0.24139441732E+01  0.76803505468E+01  0.51100000000E-03 0.  1.
         12    1    3    3    0    0  0.13514921375E+01 -0.70497292206E+01 -0.29735924644E+01  0.77696502641E+01  0.00000000000E+00 0. -1.
</event>
<event>
 7    1  0.8440037E-011  0.4778727E+02  0.7816164E-02  0.1312668E+00
        -11   -1    0    0    0    0  0.00000000000E+00  0.00000000000E+00  0.45593999997E+02  0.45594000000E+02  0.51100000000E-03 0. -1.
         11   -1    0    0    0    0 -0.00000000000E+00 -0.00000000000E+00 -0.45593999997E+02  0.45594000000E+02  0.51100000000E-03 0.  1.
    9900012    2    1    2    0    0 -0.23807049872E+02  0.39989154121E+01 -0.36067382754E+02  0.47787273660E+02  0.20000011926E+02 0.  0.
         12    1    1    2    0    0  0.23807049872E+02 -0.39989154121E+01  0.36067382754E+02  0.43400726340E+02  0.00000000000E+00 0. -1.
         11    1    3    3    0    0 -0.11381775463E+02 -0.10797952083E+01 -0.14830543020E+02  0.18725805107E+02  0.51100000000E-03 0. -1.
        -11    1    3    3    0    0 -0.99087161987E+01 -0.18756060444E+01 -0.18694371298E+02  0.21240999817E+02  0.51100000000E-03 0.  1.
         12    1    3    3    0    0 -0.25165582108E+01  0.69543166648E+01 -0.25424684363E+01  0.78204687361E+01  0.00000000000E+00 0. -1.
</event>
<event>
 7    1  0.8440037E-011  0.4778726E+02  0.7816164E-02  0.1312668E+00
        -11   -1    0    0    0    0  0.00000000000E+00  0.00000000000E+00  0.45593999997E+02  0.45594000000E+02  0.51100000000E-03 0. -1.
         11   -1    0    0    0    0 -0.00000000000E+00 -0.00000000000E+00 -0.45593999997E+02  0.45594000000E+02  0.51100000000E-03 0.  1.
    9900012    2    1    2    0    0  0.20215401373E+02 -0.84518136260E+01 -0.37463691715E+02  0.47787264947E+02  0.19999972197E+02 0.  0.
         12    1    1    2    0    0 -0.20215401373E+02  0.84518136260E+01  0.37463691715E+02  0.43400735053E+02  0.00000000000E+00 0. -1.
         11    1    3    3    0    0  0.24211110490E+01 -0.27959542076E+00  0.27364499423E+00  0.24525158827E+01  0.51100000000E-03 0. -1.
        -11    1    3    3    0    0  0.80897690883E+01 -0.11959047756E+02 -0.18603709005E+02  0.23549122619E+02  0.51100000000E-03 0.  1.
         12    1    3    3    0    0  0.97045212360E+01  0.37868295505E+01 -0.19133627704E+02  0.21785626444E+02  0.00000000000E+00 0. -1.
</event>
<event>
 7    1  0.8440037E-011  0.4778727E+02  0.7816164E-02  0.1312668E+00
        -11   -1    0    0    0    0  0.00000000000E+00  0.00000000000E+00  0.45593999997E+02  0.45594000000E+02  0.51100000000E-03 0. -1.
         11   -1    0    0    0    0 -0.00000000000E+00 -0.00000000000E+00 -0.45593999997E+02  0.45594000000E+02  0.51100000000E-03 0.  1.
    9900012    2    1    2    0    0  0.11700884743E+02  0.31141502380E+01 -0.41677510519E+02  0.47787268226E+02  0.19999987149E+02 0.  0.
         12    1    1    2    0    0 -0.11700884743E+02 -0.31141502380E+01  0.41677510519E+02  0.43400731774E+02  0.00000000000E+00 0. -1.
         11    1    3    3    0    0  0.17013772377E+02  0.29906753866E+01 -0.29568547257E+02  0.34244876652E+02  0.51100000000E-03 0. -1.
        -11    1    3    3    0    0 -0.23225537883E+01 -0.13650779623E+01 -0.47498377367E+01  0.54606458161E+01  0.51100000000E-03 0.  1.
         12    1    3    3    0    0 -0.29903338464E+01  0.14885528137E+01 -0.73591255252E+01  0.80817457574E+01  0.00000000000E+00 0. -1.
</event>
<event>
 7    1  0.8440037E-011  0.4778727E+02  0.7816164E-02  0.1312668E+00
        -11   -1    0    0    0    0  0.00000000000E+00  0.00000000000E+00  0.45593999997E+02  0.45594000000E+02  0.51100000000E-03 0.  1.
         11   -1    0    0    0    0 -0.00000000000E+00 -0.00000000000E+00 -0.45593999997E+02  0.45594000000E+02  0.51100000000E-03 0. -1.
    9900012    2    1    2    0    0  0.13148409460E+02  0.37724558593E+02 -0.16958779432E+02  0.47787271986E+02  0.20000004292E+02 0.  0.
         12    1    1    2    0    0 -0.13148409460E+02 -0.37724558593E+02  0.16958779432E+02  0.43400728014E+02  0.00000000000E+00 0. -1.
         11    1    3    3    0    0 -0.21154676022E+01  0.36558105714E+01 -0.78878025215E+00  0.42967811973E+01  0.51100000000E-03 0. -1.
        -11    1    3    3    0    0  0.86413612368E+01  0.20404859757E+02 -0.17516946068E+02  0.28246678133E+02  0.51100000000E-03 0.  1.
        -12    1    3    3    0    0  0.66225158254E+01  0.13663888264E+02  0.13469468882E+01  0.15243812655E+02  0.00000000000E+00 0.  1.
</event>
<event>
 7    1  0.8440037E-011  0.4778726E+02  0.7816164E-02  0.1312668E+00
        -11   -1    0    0    0    0  0.00000000000E+00  0.00000000000E+00  0.45593999997E+02  0.45594000000E+02  0.51100000000E-03 0. -1.
         11   -1    0    0    0    0 -0.00000000000E+00 -0.00000000000E+00 -0.45593999997E+02  0.45594000000E+02  0.51100000000E-03 0.  1.
    9900012    2    1    2    0    0 -0.53824118480E+01 -0.45406451213E+01  0.42825650059E+02  0.47787261315E+02  0.19999955638E+02 0.  0.
        -12    1    1    2    0    0  0.53824118480E+01  0.45406451213E+01 -0.42825650059E+02  0.43400738685E+02  0.00000000000E+00 0.  1.
         11    1    3    3    0    0 -0.60200642072E+01  0.36030890378E+01  0.16719370401E+02  0.18131761374E+02  0.51100000000E-03 0. -1.
        -11    1    3    3    0    0  0.10400575081E+01 -0.79885673916E+00 -0.94853535559E+00  0.16185213288E+01  0.51100000000E-03 0.  1.
        -12    1    3    3    0    0 -0.40240514891E+00 -0.73448774200E+01  0.27054815014E+02  0.28036978612E+02  0.00000000000E+00 0.  1.
</event>
<event>
 7    1  0.8440037E-011  0.4778727E+02  0.7816164E-02  0.1312668E+00
        -11   -1    0    0    0    0  0.00000000000E+00  0.00000000000E+00  0.45593999997E+02  0.45594000000E+02  0.51100000000E-03 0. -1.
         11   -1    0    0    0    0 -0.00000000000E+00 -0.00000000000E+00 -0.45593999997E+02  0.45594000000E+02  0.51100000000E-03 0.  1.
    9900012    2    1    2    0    0  0.18857245333E+02 -0.46644052203E+00 -0.39087216589E+02  0.47787265340E+02  0.19999973992E+02 0.  0.
         12    1    1    2    0    0 -0.18857245333E+02  0.46644052203E+00  0.39087216589E+02  0.43400734660E+02  0.00000000000E+00 0. -1.
         11    1    3    3    0    0  0.52657822189E+01 -0.34852217235E+00 -0.21159808055E+02  0.21807966601E+02  0.51100000000E-03 0.  1.
        -11    1    3    3    0    0  0.32062883065E+01 -0.11048513215E+01 -0.14660685854E+02  0.15047813500E+02  0.51100000000E-03 0. -1.
        -12    1    3    3    0    0  0.10385174807E+02  0.98693297187E+00 -0.32667226798E+01  0.10931485239E+02  0.00000000000E+00 0.  1.
</event>
<event>
 7    1  0.8440037E-011  0.4778727E+02  0.7816164E-02  0.1312668E+00
        -11   -1    0    0    0    0  0.00000000000E+00  0.00000000000E+00  0.45593999997E+02  0.45594000000E+02  0.51100000000E-03 0. -1.
         11   -1    0    0    0    0 -0.00000000000E+00 -0.00000000000E+00 -0.45593999997E+02  0.45594000000E+02  0.51100000000E-03 0.  1.
    9900012    2    1    2    0    0 -0.16627238143E+02  0.25250837235E+02  0.31137656443E+02  0.47787268691E+02  0.19999989272E+02 0.  0.
        -12    1    1    2    0    0  0.16627238143E+02 -0.25250837235E+02 -0.31137656443E+02  0.43400731309E+02  0.00000000000E+00 0.  1.
         11    1    3    3    0    0 -0.12348063461E+02  0.25535141324E+02  0.26975419091E+02  0.39143215876E+02  0.51100000000E-03 0. -1.
        -11    1    3    3    0    0 -0.32551007256E+01  0.18244022566E+01  0.49248945683E+01  0.61788923844E+01  0.51100000000E-03 0.  1.
        -12    1    3    3    0    0 -0.10240739571E+01 -0.21087063457E+01 -0.76265721667E+00  0.24651604313E+01  0.00000000000E+00 0.  1.
</event>
<event>
 7    1  0.8440037E-011  0.4778727E+02  0.7816164E-02  0.1312668E+00
        -11   -1    0    0    0    0  0.00000000000E+00  0.00000000000E+00  0.45593999997E+02  0.45594000000E+02  0.51100000000E-03 0. -1.
         11   -1    0    0    0    0 -0.00000000000E+00 -0.00000000000E+00 -0.45593999997E+02  0.45594000000E+02  0.51100000000E-03 0.  1.
    9900012    2    1    2    0    0 -0.10275028498E+02  0.24805122706E+02  0.34099164997E+02  0.47787269861E+02  0.19999994603E+02 0.  0.
        -12    1    1    2    0    0  0.10275028498E+02 -0.24805122706E+02 -0.34099164997E+02  0.43400730139E+02  0.00000000000E+00 0.  1.
         11    1    3    3    0    0 -0.89527879061E+01  0.14430408413E+02  0.90948324514E+01  0.19264087724E+02  0.51100000000E-03 0.  1.
        -11    1    3    3    0    0 -0.43902962302E+01  0.26400234623E+01  0.68594224563E+01  0.85613142429E+01  0.51100000000E-03 0. -1.
        -12    1    3    3    0    0  0.30680556380E+01  0.77346908304E+01  0.18144910090E+02  0.19961867894E+02  0.00000000000E+00 0.  1.
</event>
<event>
 7    1  0.8440037E-011  0.4778728E+02  0.7816164E-02  0.1312668E+00
        -11   -1    0    0    0    0  0.00000000000E+00  0.00000000000E+00  0.45593999997E+02  0.45594000000E+02  0.51100000000E-03 0. -1.
         11   -1    0    0    0    0 -0.00000000000E+00 -0.00000000000E+00 -0.45593999997E+02  0.45594000000E+02  0.51100000000E-03 0.  1.
    9900012    2    1    2    0    0  0.21936362231E+02  0.27662484128E+02  0.25242925591E+02  0.47787282167E+02  0.20000050711E+02 0.  0.
        -12    1    1    2    0    0 -0.21936362231E+02 -0.27662484128E+02 -0.25242925591E+02  0.43400717833E+02  0.00000000000E+00 0.  1.
         11    1    3    3    0    0  0.15657924298E+02  0.25093475532E+02  0.17817745345E+02  0.34530061642E+02  0.51100000000E-03 0. -1.
        -11    1    3    3    0    0  0.40694448274E+01  0.49218262610E+01  0.77169252411E+01  0.10016770457E+02  0.51100000000E-03 0.  1.
        -12    1    3    3    0    0  0.22089931050E+01 -0.23528176642E+01 -0.29174499532E+00  0.32404500677E+01  0.00000000000E+00 0.  1.
</event>
<event>
 7    1  0.8440037E-011  0.4778727E+02  0.7816164E-02  0.1312668E+00
        -11   -1    0    0    0    0  0.00000000000E+00  0.00000000000E+00  0.45593999997E+02  0.45594000000E+02  0.51100000000E-03 0. -1.
         11   -1    0    0    0    0 -0.00000000000E+00 -0.00000000000E+00 -0.45593999997E+02  0.45594000000E+02  0.51100000000E-03 0.  1.
    9900012    2    1    2    0    0 -0.36346598312E+02  0.22147718473E+02  0.84868453901E+01  0.47787272044E+02  0.20000004558E+02 0.  0.
        -12    1    1    2    0    0  0.36346598312E+02 -0.22147718473E+02 -0.84868453901E+01  0.43400727956E+02  0.00000000000E+00 0.  1.
         11    1    3    3    0    0 -0.12987540801E+02  0.77543753868E+01  0.17672989871E+01  0.15229244882E+02  0.51100000000E-03 0. -1.
        -11    1    3    3    0    0 -0.14941008889E+02  0.98197214185E+01 -0.38541120558E+01  0.18289747275E+02  0.51100000000E-03 0.  1.
         12    1    3    3    0    0 -0.84180486221E+01  0.45736216673E+01  0.10573658459E+02  0.14268279888E+02  0.00000000000E+00 0. -1.
</event>
<event>
 7    1  0.8440037E-011  0.4778728E+02  0.7816164E-02  0.1312668E+00
        -11   -1    0    0    0    0  0.00000000000E+00  0.00000000000E+00  0.45593999997E+02  0.45594000000E+02  0.51100000000E-03 0. -1.
         11   -1    0    0    0    0 -0.00000000000E+00 -0.00000000000E+00 -0.45593999997E+02  0.45594000000E+02  0.51100000000E-03 0.  1.
    9900012    2    1    2    0    0 -0.17008140972E+02 -0.87566545558E+01  0.38957246450E+02  0.47787275245E+02  0.20000019151E+02 0.  0.
        -12    1    1    2    0    0  0.17008140972E+02  0.87566545558E+01 -0.38957246450E+02  0.43400724755E+02  0.00000000000E+00 0.  1.
         11    1    3    3    0    0 -0.26741961876E+01 -0.48061230819E+01  0.82635946078E+01  0.99265875522E+01  0.51100000000E-03 0. -1.
        -11    1    3    3    0    0  0.22448352384E+01  0.32739958525E+01  0.70877442968E+01  0.81236970382E+01  0.51100000000E-03 0.  1.
         12    1    3    3    0    0 -0.16578780023E+02 -0.72245273265E+01  0.23605907545E+02  0.29736990654E+02  0.00000000000E+00 0. -1.
</event>
<event>
 7    1  0.8440037E-011  0.4778727E+02  0.7816164E-02  0.1312668E+00
        -11   -1    0    0    0    0  0.00000000000E+00  0.00000000000E+00  0.45593999997E+02  0.45594000000E+02  0.51100000000E-03 0. -1.
         11   -1    0    0    0    0 -0.00000000000E+00 -0.00000000000E+00 -0.45593999997E+02  0.45594000000E+02  0.51100000000E-03 0.  1.
    9900012    2    1    2    0    0 -0.18082140622E+02 -0.44017978893E+00 -0.39452067121E+02  0.47787272266E+02  0.20000005567E+02 0.  0.
         12    1    1    2    0    0  0.18082140622E+02  0.44017978893E+00  0.39452067121E+02  0.43400727734E+02  0.00000000000E+00 0. -1.
         11    1    3    3    0    0 -0.91627437656E+01 -0.31833736641E+01 -0.11397802714E+02  0.14966617793E+02  0.51100000000E-03 0. -1.
        -11    1    3    3    0    0 -0.16188148486E+01 -0.52617749114E+01 -0.14223420034E+02  0.15251639730E+02  0.51100000000E-03 0.  1.
         12    1    3    3    0    0 -0.73005820082E+01  0.80049687866E+01 -0.13830844374E+02  0.17569014743E+02  0.00000000000E+00 0. -1.
</event>
<event>
 7    1  0.8440037E-011  0.4778727E+02  0.7816164E-02  0.1312668E+00
        -11   -1    0    0    0    0  0.00000000000E+00  0.00000000000E+00  0.45593999997E+02  0.45594000000E+02  0.51100000000E-03 0. -1.
         11   -1    0    0    0    0 -0.00000000000E+00 -0.00000000000E+00 -0.45593999997E+02  0.45594000000E+02  0.51100000000E-03 0.  1.
    9900012    2    1    2    0    0  0.11533808050E+02 -0.38664929422E+02  0.15988056999E+02  0.47787268878E+02  0.19999990124E+02 0.  0.
        -12    1    1    2    0    0 -0.11533808050E+02  0.38664929422E+02 -0.15988056999E+02  0.43400731122E+02  0.00000000000E+00 0.  1.
         11    1    3    3    0    0  0.68840537748E+01 -0.96572706430E+01  0.66528690042E+01  0.13598299118E+02  0.51100000000E-03 0. -1.
        -11    1    3    3    0    0  0.59950425547E+01 -0.79624738658E+01  0.84753426125E+01  0.13083308372E+02  0.51100000000E-03 0.  1.
         12    1    3    3    0    0 -0.13452882797E+01 -0.21045184913E+02  0.85984538216E+00  0.21105661388E+02  0.00000000000E+00 0. -1.
</event>
<event>
 7    1  0.8440037E-011  0.4778727E+02  0.7816164E-02  0.1312668E+00
        -11   -1    0    0    0    0  0.00000000000E+00  0.00000000000E+00  0.45593999997E+02  0.45594000000E+02  0.51100000000E-03 0. -1.
         11   -1    0    0    0    0 -0.00000000000E+00 -0.00000000000E+00 -0.45593999997E+02  0.45594000000E+02  0.51100000000E-03 0.  1.
    9900012    2    1    2    0    0 -0.97282924662E+01 -0.19300460979E+02 -0.37636099224E+02  0.47787269210E+02  0.19999991634E+02 0.  0.
         12    1    1    2    0    0  0.97282924662E+01  0.19300460979E+02  0.37636099224E+02  0.43400730790E+02  0.00000000000E+00 0. -1.
         11    1    3    3    0    0  0.11991473900E+00 -0.63326909005E+00  0.55162296303E+00  0.84834983321E+00  0.51100000000E-03 0. -1.
        -11    1    3    3    0    0 -0.63719908417E+01 -0.21433446874E+01 -0.23875197905E+02  0.24803654347E+02  0.51100000000E-03 0.  1.
         12    1    3    3    0    0 -0.34762163635E+01 -0.16523847202E+02 -0.14312524283E+02  0.22135265029E+02  0.00000000000E+00 0. -1.
</event>
<event>
 7    1  0.8440037E-011  0.4778727E+02  0.7816164E-02  0.1312668E+00
        -11   -1    0    0    0    0  0.00000000000E+00  0.00000000000E+00  0.45593999997E+02  0.45594000000E+02  0.51100000000E-03 0. -1.
         11   -1    0    0    0    0 -0.00000000000E+00 -0.00000000000E+00 -0.45593999997E+02  0.45594000000E+02  0.51100000000E-03 0.  1.
    9900012    2    1    2    0    0 -0.29621393185E+02 -0.28145198740E+02 -0.14630258394E+02  0.47787267206E+02  0.19999982499E+02 0.  0.
         12    1    1    2    0    0  0.29621393185E+02  0.28145198740E+02  0.14630258394E+02  0.43400732794E+02  0.00000000000E+00 0. -1.
         11    1    3    3    0    0 -0.30681291009E+02 -0.28362235970E+02 -0.12214803632E+02  0.43531132253E+02  0.51100000000E-03 0. -1.
        -11    1    3    3    0    0 -0.78501016422E+00 -0.61370861490E+00 -0.19350972829E+01  0.21765755161E+01  0.51100000000E-03 0.  1.
         12    1    3    3    0    0  0.18449079882E+01  0.83074584440E+00 -0.48035747903E+00  0.20795594367E+01  0.00000000000E+00 0. -1.
</event>
<event>
 7    1  0.8440037E-011  0.4778727E+02  0.7816164E-02  0.1312668E+00
        -11   -1    0    0    0    0  0.00000000000E+00  0.00000000000E+00  0.45593999997E+02  0.45594000000E+02  0.51100000000E-03 0.  1.
         11   -1    0    0    0    0 -0.00000000000E+00 -0.00000000000E+00 -0.45593999997E+02  0.45594000000E+02  0.51100000000E-03 0. -1.
    9900012    2    1    2    0    0 -0.26190166662E+01 -0.43320292904E+02 -0.34085697535E+00  0.47787271791E+02  0.20000003404E+02 0.  0.
        -12    1    1    2    0    0  0.26190166662E+01  0.43320292904E+02  0.34085697535E+00  0.43400728209E+02  0.00000000000E+00 0.  1.
         11    1    3    3    0    0  0.14575556903E+01 -0.18692948614E+02 -0.38119704596E+01  0.19133267246E+02  0.51100000000E-03 0. -1.
        -11    1    3    3    0    0 -0.11638836517E+01 -0.15662120826E+01 -0.38228946254E+01  0.42921054298E+01  0.51100000000E-03 0.  1.
         12    1    3    3    0    0 -0.29126887048E+01 -0.23061132208E+02  0.72940081097E+01  0.24361899115E+02  0.00000000000E+00 0. -1.
</event>
<event>
 7    1  0.8440037E-011  0.4778727E+02  0.7816164E-02  0.1312668E+00
        -11   -1    0    0    0    0  0.00000000000E+00  0.00000000000E+00  0.45593999997E+02  0.45594000000E+02  0.51100000000E-03 0. -1.
         11   -1    0    0    0    0 -0.00000000000E+00 -0.00000000000E+00 -0.45593999997E+02  0.45594000000E+02  0.51100000000E-03 0.  1.
    9900012    2    1    2    0    0 -0.28859772633E+02  0.16286240022E+02 -0.28026688093E+02  0.47787270329E+02  0.19999996738E+02 0.  0.
         12    1    1    2    0    0  0.28859772633E+02 -0.16286240022E+02  0.28026688093E+02  0.43400729671E+02  0.00000000000E+00 0. -1.
         11    1    3    3    0    0 -0.14236397940E+02 -0.10063231010E+01 -0.11781006139E+02  0.18506210265E+02  0.51100000000E-03 0. -1.
        -11    1    3    3    0    0 -0.16645828759E+01  0.31360249875E+01  0.76897121946E+00  0.36327408207E+01  0.51100000000E-03 0.  1.
        -12    1    3    3    0    0 -0.12958791817E+02  0.14156538136E+02 -0.17014653174E+02  0.25648319243E+02  0.00000000000E+00 0.  1.
</event>
<event>
 7    1  0.8440037E-011  0.4778727E+02  0.7816164E-02  0.1312668E+00
        -11   -1    0    0    0    0  0.00000000000E+00  0.00000000000E+00  0.45593999997E+02  0.45594000000E+02  0.51100000000E-03 0. -1.
         11   -1    0    0    0    0 -0.00000000000E+00 -0.00000000000E+00 -0.45593999997E+02  0.45594000000E+02  0.51100000000E-03 0.  1.
    9900012    2    1    2    0    0 -0.30002981909E+02 -0.22018925799E+02 -0.22329598448E+02  0.47787274389E+02  0.20000015248E+02 0.  0.
         12    1    1    2    0    0  0.30002981909E+02  0.22018925799E+02  0.22329598448E+02  0.43400725611E+02  0.00000000000E+00 0. -1.
         11    1    3    3    0    0 -0.10293789345E+02 -0.92787269855E+01 -0.56951187062E+01  0.14983032099E+02  0.51100000000E-03 0. -1.
        -11    1    3    3    0    0 -0.14518126436E+02 -0.12002728995E+02 -0.19259956104E+02  0.26940441866E+02  0.51100000000E-03 0.  1.
         12    1    3    3    0    0 -0.51910661282E+01 -0.73746981822E+00  0.26254763623E+01  0.58638004238E+01  0.00000000000E+00 0. -1.
</event>
<event>
 7    1  0.8440037E-011  0.4778727E+02  0.7816164E-02  0.1312668E+00
        -11   -1    0    0    0    0  0.00000000000E+00  0.00000000000E+00  0.45593999997E+02  0.45594000000E+02  0.51100000000E-03 0. -1.
         11   -1    0    0    0    0 -0.00000000000E+00 -0.00000000000E+00 -0.45593999997E+02  0.45594000000E+02  0.51100000000E-03 0.  1.
    9900012    2    1    2    0    0  0.12554263195E+02  0.11095687066E+02  0.40036229742E+02  0.47787268580E+02  0.19999988762E+02 0.  0.
        -12    1    1    2    0    0 -0.12554263195E+02 -0.11095687066E+02 -0.40036229742E+02  0.43400731420E+02  0.00000000000E+00 0.  1.
         11    1    3    3    0    0  0.42815738076E+01  0.59919081409E+00  0.79405122284E+01  0.90411635652E+01  0.51100000000E-03 0. -1.
        -11    1    3    3    0    0  0.12643933399E+02  0.40927692773E+01  0.15424685443E+02  0.20360273413E+02  0.51100000000E-03 0.  1.
         12    1    3    3    0    0 -0.43712440119E+01  0.64037269750E+01  0.16671032070E+02  0.18385831601E+02  0.00000000000E+00 0. -1.
</event>
<event>
 7    1  0.8440037E-011  0.4778726E+02  0.7816164E-02  0.1312668E+00
        -11   -1    0    0    0    0  0.00000000000E+00  0.00000000000E+00  0.45593999997E+02  0.45594000000E+02  0.51100000000E-03 0. -1.
         11   -1    0    0    0    0 -0.00000000000E+00 -0.00000000000E+00 -0.45593999997E+02  0.45594000000E+02  0.51100000000E-03 0.  1.
    9900012    2    1    2    0    0  0.58922675763E+01  0.21929418281E+02  0.36986570058E+02  0.47787256135E+02  0.19999932024E+02 0.  0.
        -12    1    1    2    0    0 -0.58922675763E+01 -0.21929418281E+02 -0.36986570058E+02  0.43400743865E+02  0.00000000000E+00 0.  1.
         11    1    3    3    0    0  0.42209898512E+01  0.63072652066E+01  0.17531615705E+02  0.19103818969E+02  0.51100000000E-03 0. -1.
        -11    1    3    3    0    0  0.68752418463E+01  0.13797834316E+02  0.12773875640E+02  0.20020516512E+02  0.51100000000E-03 0.  1.
        -12    1    3    3    0    0 -0.52039641212E+01  0.18243187583E+01  0.66810787125E+01  0.86629206546E+01  0.00000000000E+00 0.  1.
</event>
<event>
 7    1  0.8440037E-011  0.4778727E+02  0.7816164E-02  0.1312668E+00
        -11   -1    0    0    0    0  0.00000000000E+00  0.00000000000E+00  0.45593999997E+02  0.45594000000E+02  0.51100000000E-03 0. -1.
         11   -1    0    0    0    0 -0.00000000000E+00 -0.00000000000E+00 -0.45593999997E+02  0.45594000000E+02  0.51100000000E-03 0.  1.
    9900012    2    1    2    0    0 -0.10681701423E+02  0.11505738490E+02 -0.40461619811E+02  0.47787269117E+02  0.19999991211E+02 0.  0.
         12    1    1    2    0    0  0.10681701423E+02 -0.11505738490E+02  0.40461619811E+02  0.43400730883E+02  0.00000000000E+00 0. -1.
         11    1    3    3    0    0  0.13869036458E+01  0.68760823928E+01 -0.14195532960E+02  0.15834050873E+02  0.51100000000E-03 0. -1.
        -11    1    3    3    0    0 -0.41583625825E+00  0.63340714547E+01 -0.78776115466E+01  0.10116824844E+02  0.51100000000E-03 0.  1.
         12    1    3    3    0    0 -0.11652768810E+02 -0.17044153573E+01 -0.18388475305E+02  0.21836393399E+02  0.00000000000E+00 0. -1.
</event>
<event>
 7    1  0.8440037E-011  0.4778728E+02  0.7816164E-02  0.1312668E+00
        -11   -1    0    0    0    0  0.00000000000E+00  0.00000000000E+00  0.45593999997E+02  0.45594000000E+02  0.51100000000E-03 0. -1.
         11   -1    0    0    0    0 -0.00000000000E+00 -0.00000000000E+00 -0.45593999997E+02  0.45594000000E+02  0.51100000000E-03 0.  1.
    9900012    2    1    2    0    0 -0.74598579353E+01  0.87035495873E+01 -0.41859538441E+02  0.47787283251E+02  0.20000055653E+02 0.  0.
         12    1    1    2    0    0  0.74598579353E+01 -0.87035495873E+01  0.41859538441E+02  0.43400716749E+02  0.00000000000E+00 0. -1.
         11    1    3    3    0    0 -0.18738952581E+01  0.60020205093E+01 -0.28432878981E+02  0.29119827284E+02  0.51100000000E-03 0. -1.
        -11    1    3    3    0    0  0.21638725837E+01  0.15052553366E+01 -0.95745454043E+01  0.99307632207E+01  0.51100000000E-03 0.  1.
         12    1    3    3    0    0 -0.77498352609E+01  0.11962737414E+01 -0.38521140560E+01  0.87366927459E+01  0.00000000000E+00 0. -1.
</event>
<event>
 7    1  0.8440037E-011  0.4778727E+02  0.7816164E-02  0.1312668E+00
        -11   -1    0    0    0    0  0.00000000000E+00  0.00000000000E+00  0.45593999997E+02  0.45594000000E+02  0.51100000000E-03 0.  1.
         11   -1    0    0    0    0 -0.00000000000E+00 -0.00000000000E+00 -0.45593999997E+02  0.45594000000E+02  0.51100000000E-03 0. -1.
    9900012    2    1    2    0    0 -0.20166400595E+02 -0.37811441089E+02  0.68727540946E+01  0.47787267990E+02  0.19999986074E+02 0.  0.
         12    1    1    2    0    0  0.20166400595E+02  0.37811441089E+02 -0.68727540946E+01  0.43400732010E+02  0.00000000000E+00 0. -1.
         11    1    3    3    0    0 -0.10809412142E+02 -0.12176198420E+02  0.23322178668E+01  0.16448174344E+02  0.51100000000E-03 0. -1.
        -11    1    3    3    0    0 -0.12031598707E+02 -0.20853016509E+02 -0.22682072135E+00  0.24076110834E+02  0.51100000000E-03 0.  1.
         12    1    3    3    0    0  0.26746102538E+01 -0.47822261592E+01  0.47673569491E+01  0.72629828120E+01  0.00000000000E+00 0. -1.
</event>
<event>
 7    1  0.8440037E-011  0.4778728E+02  0.7816164E-02  0.1312668E+00
        -11   -1    0    0    0    0  0.00000000000E+00  0.00000000000E+00  0.45593999997E+02  0.45594000000E+02  0.51100000000E-03 0. -1.
         11   -1    0    0    0    0 -0.00000000000E+00 -0.00000000000E+00 -0.45593999997E+02  0.45594000000E+02  0.51100000000E-03 0.  1.
    9900012    2    1    2    0    0 -0.80616889009E+01  0.31517606907E+02  0.28727556618E+02  0.47787275555E+02  0.20000020565E+02 0.  0.
        -12    1    1    2    0    0  0.80616889009E+01 -0.31517606907E+02 -0.28727556618E+02  0.43400724445E+02  0.00000000000E+00 0.  1.
         11    1    3    3    0    0 -0.82663189800E+01  0.93148392005E+01  0.92413474832E+01  0.15508086999E+02  0.51100000000E-03 0. -1.
        -11    1    3    3    0    0 -0.10022175119E+01  0.33623847714E+01 -0.17026606264E+01  0.38998877883E+01  0.51100000000E-03 0.  1.
        -12    1    3    3    0    0  0.12068475909E+01  0.18840382936E+02  0.21188869762E+02  0.28379300767E+02  0.00000000000E+00 0.  1.
</event>
<event>
 7    1  0.8440037E-011  0.4778727E+02  0.7816164E-02  0.1312668E+00
        -11   -1    0    0    0    0  0.00000000000E+00  0.00000000000E+00  0.45593999997E+02  0.45594000000E+02  0.51100000000E-03 0. -1.
         11   -1    0    0    0    0 -0.00000000000E+00 -0.00000000000E+00 -0.45593999997E+02  0.45594000000E+02  0.51100000000E-03 0.  1.
    9900012    2    1    2    0    0  0.23389526366E+02 -0.78087368916E+00 -0.36550558274E+02  0.47787273998E+02  0.20000013467E+02 0.  0.
         12    1    1    2    0    0 -0.23389526366E+02  0.78087368916E+00  0.36550558274E+02  0.43400726002E+02  0.00000000000E+00 0. -1.
         11    1    3    3    0    0  0.65439424752E+00  0.51601719678E+00 -0.29267506789E+00  0.88326923134E+00  0.51100000000E-03 0. -1.
        -11    1    3    3    0    0  0.77835311289E+01  0.72423802186E+01 -0.63216194117E+01  0.12369248171E+02  0.51100000000E-03 0.  1.
        -12    1    3    3    0    0  0.14951600989E+02 -0.85392711046E+01 -0.29936263795E+02  0.34534756596E+02  0.00000000000E+00 0.  1.
</event>
<event>
 7    1  0.8440037E-011  0.4778727E+02  0.7816164E-02  0.1312668E+00
        -11   -1    0    0    0    0  0.00000000000E+00  0.00000000000E+00  0.45593999997E+02  0.45594000000E+02  0.51100000000E-03 0. -1.
         11   -1    0    0    0    0 -0.00000000000E+00 -0.00000000000E+00 -0.45593999997E+02  0.45594000000E+02  0.51100000000E-03 0.  1.
    9900012    2    1    2    0    0  0.64179857961E+01  0.21403154888E+02  0.37206686729E+02  0.47787272838E+02  0.20000008176E+02 0.  0.
        -12    1    1    2    0    0 -0.64179857961E+01 -0.21403154888E+02 -0.37206686729E+02  0.43400727162E+02  0.00000000000E+00 0.  1.
         11    1    3    3    0    0 -0.15990349252E+01  0.25365864717E+01  0.13296227036E+02  0.13630144433E+02  0.51100000000E-03 0. -1.
        -11    1    3    3    0    0  0.41161848304E+01 -0.77111662586E+00  0.58436080183E+01  0.71892526274E+01  0.51100000000E-03 0.  1.
         12    1    3    3    0    0  0.39008358908E+01  0.19637685043E+02  0.18066851675E+02  0.26967875777E+02  0.00000000000E+00 0. -1.
</event>
<event>
 7    1  0.8440037E-011  0.4778727E+02  0.7816164E-02  0.1312668E+00
        -11   -1    0    0    0    0  0.00000000000E+00  0.00000000000E+00  0.45593999997E+02  0.45594000000E+02  0.51100000000E-03 0. -1.
         11   -1    0    0    0    0 -0.00000000000E+00 -0.00000000000E+00 -0.45593999997E+02  0.45594000000E+02  0.51100000000E-03 0.  1.
    9900012    2    1    2    0    0 -0.27258680067E+02  0.32047372301E+02  0.10656149007E+02  0.47787271642E+02  0.20000002724E+02 0.  0.
        -12    1    1    2    0    0  0.27258680067E+02 -0.32047372301E+02 -0.10656149007E+02  0.43400728358E+02  0.00000000000E+00 0.  1.
         11    1    3    3    0    0 -0.44161691366E+01  0.15439534873E+01  0.63513871764E+01  0.78883750886E+01  0.51100000000E-03 0. -1.
        -11    1    3    3    0    0  0.95498242677E-01  0.26634246947E+01 -0.19314393797E+01  0.32914144919E+01  0.51100000000E-03 0.  1.
         12    1    3    3    0    0 -0.22938009173E+02  0.27839994119E+02  0.62362012106E+01  0.36607482061E+02  0.00000000000E+00 0. -1.
</event>
<event>
 7    1  0.8440037E-011  0.4778727E+02  0.7816164E-02  0.1312668E+00
        -11   -1    0    0    0    0  0.00000000000E+00  0.00000000000E+00  0.45593999997E+02  0.45594000000E+02  0.51100000000E-03 0. -1.
         11   -1    0    0    0    0 -0.00000000000E+00 -0.00000000000E+00 -0.45593999997E+02  0.45594000000E+02  0.51100000000E-03 0.  1.
    9900012    2    1    2    0    0 -0.78641368276E+01  0.12787003693E+02 -0.40721873201E+02  0.47787273411E+02  0.20000010790E+02 0.  0.
         12    1    1    2    0    0  0.78641368276E+01 -0.12787003693E+02  0.40721873201E+02  0.43400726589E+02  0.00000000000E+00 0. -1.
         11    1    3    3    0    0 -0.13962452951E+01 -0.41497238902E+00 -0.14636687449E+02  0.14708987822E+02  0.51100000000E-03 0.  1.
        -11    1    3    3    0    0 -0.25607983412E+01  0.12431738423E+00  0.99724017282E+00  0.27509327836E+01  0.51100000000E-03 0. -1.
         12    1    3    3    0    0 -0.39070931914E+01  0.13077658697E+02 -0.27082425924E+02  0.30327352805E+02  0.00000000000E+00 0. -1.
</event>
<event>
 7    1  0.8440037E-011  0.4778727E+02  0.7816164E-02  0.1312668E+00
        -11   -1    0    0    0    0  0.00000000000E+00  0.00000000000E+00  0.45593999997E+02  0.45594000000E+02  0.51100000000E-03 0.  1.
         11   -1    0    0    0    0 -0.00000000000E+00 -0.00000000000E+00 -0.45593999997E+02  0.45594000000E+02  0.51100000000E-03 0. -1.
    9900012    2    1    2    0    0  0.42382382976E+02 -0.25238117210E+01  0.89992940417E+01  0.47787270679E+02  0.19999998334E+02 0.  0.
        -12    1    1    2    0    0 -0.42382382976E+02  0.25238117210E+01 -0.89992940417E+01  0.43400729321E+02  0.00000000000E+00 0.  1.
         11    1    3    3    0    0  0.11372074810E+02 -0.18663026501E+01 -0.18359153878E+00  0.11525661681E+02  0.51100000000E-03 0. -1.
        -11    1    3    3    0    0  0.11114584986E+02 -0.35591449026E+01 -0.38636622052E+01  0.12293469720E+02  0.51100000000E-03 0.  1.
        -12    1    3    3    0    0  0.19895723180E+02  0.29016358317E+01  0.13046547786E+02  0.23968139279E+02  0.00000000000E+00 0.  1.
</event>
<event>
 7    1  0.8440037E-011  0.4778727E+02  0.7816164E-02  0.1312668E+00
        -11   -1    0    0    0    0  0.00000000000E+00  0.00000000000E+00  0.45593999997E+02  0.45594000000E+02  0.51100000000E-03 0. -1.
         11   -1    0    0    0    0 -0.00000000000E+00 -0.00000000000E+00 -0.45593999997E+02  0.45594000000E+02  0.51100000000E-03 0.  1.
    9900012    2    1    2    0    0  0.81994795608E+01  0.34808591506E+01  0.42476763916E+02  0.47787270533E+02  0.19999997666E+02 0.  0.
        -12    1    1    2    0    0 -0.81994795608E+01 -0.34808591506E+01 -0.42476763916E+02  0.43400729467E+02  0.00000000000E+00 0.  1.
         11    1    3    3    0    0 -0.30103754870E+00  0.60344336762E+01  0.36178757315E+02  0.36679796817E+02  0.51100000000E-03 0. -1.
        -11    1    3    3    0    0  0.26073865836E+00 -0.63776008186E+00  0.43585756530E+00  0.81528807690E+00  0.51100000000E-03 0.  1.
         12    1    3    3    0    0  0.82397784511E+01 -0.19158144438E+01  0.58621490363E+01  0.10292185639E+02  0.00000000000E+00 0. -1.
</event>
<event>
 7    1  0.8440037E-011  0.4778727E+02  0.7816164E-02  0.1312668E+00
        -11   -1    0    0    0    0  0.00000000000E+00  0.00000000000E+00  0.45593999997E+02  0.45594000000E+02  0.51100000000E-03 0. -1.
         11   -1    0    0    0    0 -0.00000000000E+00 -0.00000000000E+00 -0.45593999997E+02  0.45594000000E+02  0.51100000000E-03 0.  1.
    9900012    2    1    2    0    0 -0.37715880580E+02 -0.17388972849E+02  0.12599959435E+02  0.47787274172E+02  0.20000014259E+02 0.  0.
        -12    1    1    2    0    0  0.37715880580E+02  0.17388972849E+02 -0.12599959435E+02  0.43400725828E+02  0.00000000000E+00 0.  1.
         11    1    3    3    0    0 -0.15587966062E+02 -0.15878240821E+01  0.10339974294E+02  0.18772877774E+02  0.51100000000E-03 0. -1.
        -11    1    3    3    0    0  0.54899389839E+00 -0.77226882284E+00 -0.12666297321E+01  0.15818168587E+01  0.51100000000E-03 0.  1.
         12    1    3    3    0    0 -0.22676908416E+02 -0.15028879944E+02  0.35266148736E+01  0.27432579539E+02  0.00000000000E+00 0. -1.
</event>
<event>
 7    1  0.8440037E-011  0.4778727E+02  0.7816164E-02  0.1312668E+00
        -11   -1    0    0    0    0  0.00000000000E+00  0.00000000000E+00  0.45593999997E+02  0.45594000000E+02  0.51100000000E-03 0.  1.
         11   -1    0    0    0    0 -0.00000000000E+00 -0.00000000000E+00 -0.45593999997E+02  0.45594000000E+02  0.51100000000E-03 0. -1.
    9900012    2    1    2    0    0 -0.19024747208E+02  0.38801683179E+02  0.40139263263E+01  0.47787271568E+02  0.20000002387E+02 0.  0.
         12    1    1    2    0    0  0.19024747208E+02 -0.38801683179E+02 -0.40139263263E+01  0.43400728432E+02  0.00000000000E+00 0. -1.
         11    1    3    3    0    0 -0.18001853860E+01  0.46588525607E+01 -0.20447481276E+01  0.53969037209E+01  0.51100000000E-03 0. -1.
        -11    1    3    3    0    0 -0.16319468251E+02  0.18416618706E+02 -0.20157257979E+01  0.24689269720E+02  0.51100000000E-03 0.  1.
         12    1    3    3    0    0 -0.90509357182E+00  0.15726211912E+02  0.80744002518E+01  0.17701098127E+02  0.00000000000E+00 0. -1.
</event>
<event>
 7    1  0.8440037E-011  0.4778726E+02  0.7816164E-02  0.1312668E+00
        -11   -1    0    0    0    0  0.00000000000E+00  0.00000000000E+00  0.45593999997E+02  0.45594000000E+02  0.51100000000E-03 0. -1.
         11   -1    0    0    0    0 -0.00000000000E+00 -0.00000000000E+00 -0.45593999997E+02  0.45594000000E+02  0.51100000000E-03 0.  1.
    9900012    2    1    2    0    0  0.22463782992E+02  0.20380493290E+01  0.37078956073E+02  0.47787260665E+02  0.19999952675E+02 0.  0.
        -12    1    1    2    0    0 -0.22463782992E+02 -0.20380493290E+01 -0.37078956073E+02  0.43400739335E+02  0.00000000000E+00 0.  1.
         11    1    3    3    0    0  0.45470890904E+01  0.38649526258E+01  0.32521836134E+01  0.67963649484E+01  0.51100000000E-03 0. -1.
        -11    1    3    3    0    0  0.65555460097E+01  0.60936072448E+01  0.16867978884E+02  0.19095443033E+02  0.51100000000E-03 0.  1.
        -12    1    3    3    0    0  0.11361147892E+02 -0.79205105415E+01  0.16958793576E+02  0.21895452683E+02  0.00000000000E+00 0.  1.
</event>
<event>
 7    1  0.8440037E-011  0.4778728E+02  0.7816164E-02  0.1312668E+00
        -11   -1    0    0    0    0  0.00000000000E+00  0.00000000000E+00  0.45593999997E+02  0.45594000000E+02  0.51100000000E-03 0. -1.
         11   -1    0    0    0    0 -0.00000000000E+00 -0.00000000000E+00 -0.45593999997E+02  0.45594000000E+02  0.51100000000E-03 0.  1.
    9900012    2    1    2    0    0 -0.10823274565E+02  0.23668883426E+02 -0.34731304184E+02  0.47787276443E+02  0.20000024615E+02 0.  0.
         12    1    1    2    0    0  0.10823274565E+02 -0.23668883426E+02  0.34731304184E+02  0.43400723557E+02  0.00000000000E+00 0. -1.
         11    1    3    3    0    0  0.16503999449E+01 -0.12787153852E+01 -0.20795110051E+01  0.29467438464E+01  0.51100000000E-03 0. -1.
        -11    1    3    3    0    0 -0.11359244424E+01  0.11427554491E+02 -0.20228833787E+02  0.23261234762E+02  0.51100000000E-03 0.  1.
        -12    1    3    3    0    0 -0.11337750067E+02  0.13520044320E+02 -0.12422959392E+02  0.21579297835E+02  0.00000000000E+00 0.  1.
</event>
<event>
 7    1  0.8440037E-011  0.4778727E+02  0.7816164E-02  0.1312668E+00
        -11   -1    0    0    0    0  0.00000000000E+00  0.00000000000E+00  0.45593999997E+02  0.45594000000E+02  0.51100000000E-03 0. -1.
         11   -1    0    0    0    0 -0.00000000000E+00 -0.00000000000E+00 -0.45593999997E+02  0.45594000000E+02  0.51100000000E-03 0.  1.
    9900012    2    1    2    0    0  0.11566181068E+02  0.27148734598E+02  0.31824403780E+02  0.47787274076E+02  0.20000013822E+02 0.  0.
        -12    1    1    2    0    0 -0.11566181068E+02 -0.27148734598E+02 -0.31824403780E+02  0.43400725924E+02  0.00000000000E+00 0.  1.
         11    1    3    3    0    0  0.14671121472E+01  0.12471046607E+02  0.17125236458E+02  0.21235657408E+02  0.51100000000E-03 0. -1.
        -11    1    3    3    0    0  0.90093545043E+01  0.51013909637E+01  0.13234106215E+02  0.16802804109E+02  0.51100000000E-03 0.  1.
        -12    1    3    3    0    0  0.10897144165E+01  0.95762970276E+01  0.14650611063E+01  0.97488125592E+01  0.00000000000E+00 0.  1.
</event>
<event>
 7    1  0.8440037E-011  0.4778728E+02  0.7816164E-02  0.1312668E+00
        -11   -1    0    0    0    0  0.00000000000E+00  0.00000000000E+00  0.45593999997E+02  0.45594000000E+02  0.51100000000E-03 0. -1.
         11   -1    0    0    0    0 -0.00000000000E+00 -0.00000000000E+00 -0.45593999997E+02  0.45594000000E+02  0.51100000000E-03 0.  1.
    9900012    2    1    2    0    0 -0.14228965269E+02 -0.38836630106E+02  0.13148203027E+02  0.47787279574E+02  0.20000038892E+02 0.  0.
        -12    1    1    2    0    0  0.14228965269E+02  0.38836630106E+02 -0.13148203027E+02  0.43400720426E+02  0.00000000000E+00 0.  1.
         11    1    3    3    0    0 -0.82566965747E+01 -0.41035042017E+01  0.66295285922E+01  0.11356162850E+02  0.51100000000E-03 0. -1.
        -11    1    3    3    0    0  0.14175621748E+01 -0.57250298685E+01  0.74452969693E+00  0.59447265913E+01  0.51100000000E-03 0.  1.
         12    1    3    3    0    0 -0.73898308695E+01 -0.29008096036E+02  0.57741447378E+01  0.30486390133E+02  0.00000000000E+00 0. -1.
</event>
<event>
 7    1  0.8440037E-011  0.4778727E+02  0.7816164E-02  0.1312668E+00
        -11   -1    0    0    0    0  0.00000000000E+00  0.00000000000E+00  0.45593999997E+02  0.45594000000E+02  0.51100000000E-03 0. -1.
         11   -1    0    0    0    0 -0.00000000000E+00 -0.00000000000E+00 -0.45593999997E+02  0.45594000000E+02  0.51100000000E-03 0.  1.
    9900012    2    1    2    0    0 -0.11876755430E+01 -0.18385812722E+02 -0.39295991462E+02  0.47787266969E+02  0.19999981417E+02 0.  0.
         12    1    1    2    0    0  0.11876755430E+01  0.18385812722E+02  0.39295991462E+02  0.43400733031E+02  0.00000000000E+00 0. -1.
         11    1    3    3    0    0 -0.61637233637E+00 -0.54235722645E+01 -0.23016964461E+02  0.23655352549E+02  0.51100000000E-03 0. -1.
        -11    1    3    3    0    0 -0.54534062668E+01 -0.64626726371E+01 -0.12682105512E+02  0.15242754935E+02  0.51100000000E-03 0.  1.
         12    1    3    3    0    0  0.48821030601E+01 -0.64995678205E+01 -0.35969214896E+01  0.88891594847E+01  0.00000000000E+00 0. -1.
</event>
<event>
 7    1  0.8440037E-011  0.4778727E+02  0.7816164E-02  0.1312668E+00
        -11   -1    0    0    0    0  0.00000000000E+00  0.00000000000E+00  0.45593999997E+02  0.45594000000E+02  0.51100000000E-03 0. -1.
         11   -1    0    0    0    0 -0.00000000000E+00 -0.00000000000E+00 -0.45593999997E+02  0.45594000000E+02  0.51100000000E-03 0.  1.
    9900012    2    1    2    0    0 -0.35693248084E+01 -0.40733109952E+02  0.14549811177E+02  0.47787270383E+02  0.19999996986E+02 0.  0.
        -12    1    1    2    0    0  0.35693248084E+01  0.40733109952E+02 -0.14549811177E+02  0.43400729617E+02  0.00000000000E+00 0.  1.
         11    1    3    3    0    0 -0.14913963233E+01 -0.22453616097E+02  0.14477796724E+02  0.26758096664E+02  0.51100000000E-03 0. -1.
        -11    1    3    3    0    0  0.30449705446E+01 -0.93906118815E+01  0.30741010004E+01  0.10339513255E+02  0.51100000000E-03 0.  1.
         12    1    3    3    0    0 -0.51228990297E+01 -0.88888819733E+01 -0.30020865472E+01  0.10689660464E+02  0.00000000000E+00 0. -1.
</event>
<event>
 7    1  0.8440037E-011  0.4778727E+02  0.7816164E-02  0.1312668E+00
        -11   -1    0    0    0    0  0.00000000000E+00  0.00000000000E+00  0.45593999997E+02  0.45594000000E+02  0.51100000000E-03 0. -1.
         11   -1    0    0    0    0 -0.00000000000E+00 -0.00000000000E+00 -0.45593999997E+02  0.45594000000E+02  0.51100000000E-03 0.  1.
    9900012    2    1    2    0    0  0.32556138752E+02 -0.20775085820E+02 -0.19801942955E+02  0.47787270673E+02  0.19999998308E+02 0.  0.
         12    1    1    2    0    0 -0.32556138752E+02  0.20775085820E+02  0.19801942955E+02  0.43400729327E+02  0.00000000000E+00 0. -1.
         11    1    3    3    0    0  0.51930008476E+01 -0.84524304905E+01 -0.52418222802E+01  0.11219961679E+02  0.51100000000E-03 0. -1.
        -11    1    3    3    0    0  0.26740358748E+02 -0.12742256570E+02 -0.16904678528E+02  0.34105425446E+02  0.51100000000E-03 0.  1.
         12    1    3    3    0    0  0.62277915681E+00  0.41960124076E+00  0.23445578530E+01  0.24618835483E+01  0.00000000000E+00 0. -1.
</event>
<event>
 7    1  0.8440037E-011  0.4778728E+02  0.7816164E-02  0.1312668E+00
        -11   -1    0    0    0    0  0.00000000000E+00  0.00000000000E+00  0.45593999997E+02  0.45594000000E+02  0.51100000000E-03 0. -1.
         11   -1    0    0    0    0 -0.00000000000E+00 -0.00000000000E+00 -0.45593999997E+02  0.45594000000E+02  0.51100000000E-03 0.  1.
    9900012    2    1    2    0    0  0.14544217469E+02 -0.11708293035E+02 -0.39179132678E+02  0.47787276216E+02  0.20000023577E+02 0.  0.
         12    1    1    2    0    0 -0.14544217469E+02  0.11708293035E+02  0.39179132678E+02  0.43400723784E+02  0.00000000000E+00 0. -1.
         11    1    3    3    0    0  0.83019240467E+01 -0.40355603917E+01 -0.81766835360E+01  0.12331498062E+02  0.51100000000E-03 0. -1.
        -11    1    3    3    0    0 -0.75402833842E+00  0.19836373558E+01  0.12160816274E+00  0.21255974927E+01  0.51100000000E-03 0.  1.
        -12    1    3    3    0    0  0.69963217611E+01 -0.96563699987E+01 -0.31124057305E+02  0.33330180661E+02  0.00000000000E+00 0.  1.
</event>
<event>
 7    1  0.8440037E-011  0.4778726E+02  0.7816164E-02  0.1312668E+00
        -11   -1    0    0    0    0  0.00000000000E+00  0.00000000000E+00  0.45593999997E+02  0.45594000000E+02  0.51100000000E-03 0. -1.
         11   -1    0    0    0    0 -0.00000000000E+00 -0.00000000000E+00 -0.45593999997E+02  0.45594000000E+02  0.51100000000E-03 0.  1.
    9900012    2    1    2    0    0 -0.20240454148E+02 -0.47699346693E+01  0.38094565311E+02  0.47787260754E+02  0.19999953083E+02 0.  0.
        -12    1    1    2    0    0  0.20240454148E+02  0.47699346693E+01 -0.38094565311E+02  0.43400739246E+02  0.00000000000E+00 0.  1.
         11    1    3    3    0    0 -0.61761875583E+01  0.10443950764E+01  0.14522491591E+02  0.15815777443E+02  0.51100000000E-03 0. -1.
        -11    1    3    3    0    0 -0.14200605677E+02 -0.14740542182E+01  0.23653604634E+02  0.27628301610E+02  0.51100000000E-03 0.  1.
        -12    1    3    3    0    0  0.13633908757E+00 -0.43402755275E+01 -0.81530914431E-01  0.43431817014E+01  0.00000000000E+00 0.  1.
</event>
<event>
 7    1  0.8440037E-011  0.4778727E+02  0.7816164E-02  0.1312668E+00
        -11   -1    0    0    0    0  0.00000000000E+00  0.00000000000E+00  0.45593999997E+02  0.45594000000E+02  0.51100000000E-03 0.  1.
         11   -1    0    0    0    0 -0.00000000000E+00 -0.00000000000E+00 -0.45593999997E+02  0.45594000000E+02  0.51100000000E-03 0. -1.
    9900012    2    1    2    0    0  0.31946299693E+02  0.11011775001E+02 -0.27235975736E+02  0.47787266976E+02  0.19999981448E+02 0.  0.
         12    1    1    2    0    0 -0.31946299693E+02 -0.11011775001E+02  0.27235975736E+02  0.43400733024E+02  0.00000000000E+00 0. -1.
         11    1    3    3    0    0  0.30538134166E+01 -0.38968573816E+00 -0.63989238339E+01  0.71009758379E+01  0.51100000000E-03 0. -1.
        -11    1    3    3    0    0  0.96345942541E+01 -0.12664286121E+01 -0.13224638403E+02  0.16410981355E+02  0.51100000000E-03 0.  1.
         12    1    3    3    0    0  0.19257892023E+02  0.12667889352E+02 -0.76124134988E+01  0.24275309783E+02  0.00000000000E+00 0. -1.
</event>
<event>
 7    1  0.8440037E-011  0.4778727E+02  0.7816164E-02  0.1312668E+00
        -11   -1    0    0    0    0  0.00000000000E+00  0.00000000000E+00  0.45593999997E+02  0.45594000000E+02  0.51100000000E-03 0. -1.
         11   -1    0    0    0    0 -0.00000000000E+00 -0.00000000000E+00 -0.45593999997E+02  0.45594000000E+02  0.51100000000E-03 0.  1.
    9900012    2    1    2    0    0  0.32216874624E+02 -0.25130694886E+02 -0.14633676387E+02  0.47787270506E+02  0.19999997546E+02 0.  0.
         12    1    1    2    0    0 -0.32216874624E+02  0.25130694886E+02  0.14633676387E+02  0.43400729494E+02  0.00000000000E+00 0. -1.
         11    1    3    3    0    0  0.30169418530E+01 -0.93670696753E+01  0.11961652759E+01  0.99133618957E+01  0.51100000000E-03 0. -1.
        -11    1    3    3    0    0  0.80080629943E+01 -0.39149347115E+01 -0.43931793524E-01  0.89139058207E+01  0.51100000000E-03 0.  1.
        -12    1    3    3    0    0  0.21191869777E+02 -0.11848690499E+02 -0.15785909869E+02  0.28960002790E+02  0.00000000000E+00 0.  1.
</event>
<event>
 7    1  0.8440037E-011  0.4778727E+02  0.7816164E-02  0.1312668E+00
        -11   -1    0    0    0    0  0.00000000000E+00  0.00000000000E+00  0.45593999997E+02  0.45594000000E+02  0.51100000000E-03 0. -1.
         11   -1    0    0    0    0 -0.00000000000E+00 -0.00000000000E+00 -0.45593999997E+02  0.45594000000E+02  0.51100000000E-03 0.  1.
    9900012    2    1    2    0    0  0.32695136076E+02 -0.78061086672E+01 -0.27453890743E+02  0.47787269909E+02  0.19999994823E+02 0.  0.
         12    1    1    2    0    0 -0.32695136076E+02  0.78061086672E+01  0.27453890743E+02  0.43400730091E+02  0.00000000000E+00 0. -1.
         11    1    3    3    0    0  0.12807687372E+02 -0.57894112194E+01 -0.17315652270E+01  0.14161654440E+02  0.51100000000E-03 0. -1.
        -11    1    3    3    0    0  0.82116594658E+01 -0.10870479154E+01 -0.46043701024E+01  0.94769852091E+01  0.51100000000E-03 0.  1.
        -12    1    3    3    0    0  0.11675789238E+02 -0.92964953242E+00 -0.21117955413E+02  0.24148630260E+02  0.00000000000E+00 0.  1.
</event>
<event>
 7    1  0.8440037E-011  0.4778727E+02  0.7816164E-02  0.1312668E+00
        -11   -1    0    0    0    0  0.00000000000E+00  0.00000000000E+00  0.45593999997E+02  0.45594000000E+02  0.51100000000E-03 0. -1.
         11   -1    0    0    0    0 -0.00000000000E+00 -0.00000000000E+00 -0.45593999997E+02  0.45594000000E+02  0.51100000000E-03 0.  1.
    9900012    2    1    2    0    0 -0.16627969601E+02  0.40046557709E+02  0.18458344474E+01  0.47787271179E+02  0.20000000613E+02 0.  0.
         12    1    1    2    0    0  0.16627969601E+02 -0.40046557709E+02 -0.18458344474E+01  0.43400728821E+02  0.00000000000E+00 0. -1.
         11    1    3    3    0    0 -0.35665256544E+01  0.16405092738E+02  0.53942405575E+01  0.17633632764E+02  0.51100000000E-03 0. -1.
        -11    1    3    3    0    0  0.18198829879E+01  0.46332749857E+01  0.20317872974E+01  0.53765575479E+01  0.51100000000E-03 0.  1.
        -12    1    3    3    0    0 -0.14881326934E+02  0.19008189986E+02 -0.55801934075E+01  0.24777080867E+02  0.00000000000E+00 0.  1.
</event>
<event>
 7    1  0.8440037E-011  0.4778727E+02  0.7816164E-02  0.1312668E+00
        -11   -1    0    0    0    0  0.00000000000E+00  0.00000000000E+00  0.45593999997E+02  0.45594000000E+02  0.51100000000E-03 0. -1.
         11   -1    0    0    0    0 -0.00000000000E+00 -0.00000000000E+00 -0.45593999997E+02  0.45594000000E+02  0.51100000000E-03 0.  1.
    9900012    2    1    2    0    0  0.30956646529E+02  0.10343604650E+02 -0.28606277880E+02  0.47787271254E+02  0.20000000957E+02 0.  0.
         12    1    1    2    0    0 -0.30956646529E+02 -0.10343604650E+02  0.28606277880E+02  0.43400728746E+02  0.00000000000E+00 0. -1.
         11    1    3    3    0    0  0.35513412864E+00 -0.74553145849E+00  0.81293265491E+00  0.11587912528E+01  0.51100000000E-03 0. -1.
        -11    1    3    3    0    0  0.53143469239E+01 -0.38020809985E+01 -0.78197124450E+01  0.10190486060E+02  0.51100000000E-03 0.  1.
        -12    1    3    3    0    0  0.25287165477E+02  0.14891217107E+02 -0.21599498090E+02  0.36437993942E+02  0.00000000000E+00 0.  1.
</event>
<event>
 7    1  0.8440037E-011  0.4778727E+02  0.7816164E-02  0.1312668E+00
        -11   -1    0    0    0    0  0.00000000000E+00  0.00000000000E+00  0.45593999997E+02  0.45594000000E+02  0.51100000000E-03 0. -1.
         11   -1    0    0    0    0 -0.00000000000E+00 -0.00000000000E+00 -0.45593999997E+02  0.45594000000E+02  0.51100000000E-03 0.  1.
    9900012    2    1    2    0    0 -0.32295334616E+02  0.27023171038E+02 -0.10506328359E+02  0.47787270208E+02  0.19999996184E+02 0.  0.
         12    1    1    2    0    0  0.32295334616E+02 -0.27023171038E+02  0.10506328359E+02  0.43400729792E+02  0.00000000000E+00 0. -1.
         11    1    3    3    0    0 -0.49218887389E+01  0.42259995634E+01 -0.60319745892E+01  0.88582604824E+01  0.51100000000E-03 0. -1.
        -11    1    3    3    0    0 -0.23024623588E+02  0.20893480781E+02 -0.90025541229E+01  0.32368453957E+02  0.51100000000E-03 0.  1.
         12    1    3    3    0    0 -0.43488222887E+01  0.19036906933E+01  0.45282003529E+01  0.65605557684E+01  0.00000000000E+00 0. -1.
</event>
<event>
 7    1  0.8440037E-011  0.4778727E+02  0.7816164E-02  0.1312668E+00
        -11   -1    0    0    0    0  0.00000000000E+00  0.00000000000E+00  0.45593999997E+02  0.45594000000E+02  0.51100000000E-03 0. -1.
         11   -1    0    0    0    0 -0.00000000000E+00 -0.00000000000E+00 -0.45593999997E+02  0.45594000000E+02  0.51100000000E-03 0.  1.
    9900012    2    1    2    0    0  0.20950231042E+02  0.16967689426E+02  0.34011886790E+02  0.47787272954E+02  0.20000008704E+02 0.  0.
        -12    1    1    2    0    0 -0.20950231042E+02 -0.16967689426E+02 -0.34011886790E+02  0.43400727046E+02  0.00000000000E+00 0.  1.
         11    1    3    3    0    0  0.20107552323E+02  0.16876997725E+02  0.18427578201E+02  0.32073701863E+02  0.51100000000E-03 0. -1.
        -11    1    3    3    0    0 -0.43690802780E+00 -0.48556870629E-01  0.13193138075E+01  0.13906241686E+01  0.51100000000E-03 0.  1.
         12    1    3    3    0    0  0.12795867475E+01  0.13924857168E+00  0.14264994781E+02  0.14322946922E+02  0.00000000000E+00 0. -1.
</event>
<event>
 7    1  0.8440037E-011  0.4778727E+02  0.7816164E-02  0.1312668E+00
        -11   -1    0    0    0    0  0.00000000000E+00  0.00000000000E+00  0.45593999997E+02  0.45594000000E+02  0.51100000000E-03 0. -1.
         11   -1    0    0    0    0 -0.00000000000E+00 -0.00000000000E+00 -0.45593999997E+02  0.45594000000E+02  0.51100000000E-03 0.  1.
    9900012    2    1    2    0    0 -0.10850323320E+02  0.20116437968E+02 -0.36894747199E+02  0.47787274619E+02  0.20000016299E+02 0.  0.
         12    1    1    2    0    0  0.10850323320E+02 -0.20116437968E+02  0.36894747199E+02  0.43400725381E+02  0.00000000000E+00 0. -1.
         11    1    3    3    0    0 -0.11145241897E+01  0.62665721528E+01 -0.25894866568E+00  0.63701762447E+01  0.51100000000E-03 0. -1.
        -11    1    3    3    0    0 -0.19014775912E+01  0.28398853999E+01 -0.14257977383E+01  0.37031696647E+01  0.51100000000E-03 0.  1.
        -12    1    3    3    0    0 -0.78343215386E+01  0.11009980416E+02 -0.35210000795E+02  0.37713928710E+02  0.00000000000E+00 0.  1.
</event>
<event>
 7    1  0.8440037E-011  0.4778727E+02  0.7816164E-02  0.1312668E+00
        -11   -1    0    0    0    0  0.00000000000E+00  0.00000000000E+00  0.45593999997E+02  0.45594000000E+02  0.51100000000E-03 0.  1.
         11   -1    0    0    0    0 -0.00000000000E+00 -0.00000000000E+00 -0.45593999997E+02  0.45594000000E+02  0.51100000000E-03 0. -1.
    9900012    2    1    2    0    0 -0.37877631128E+02  0.89102940450E+01 -0.19222769755E+02  0.47787272392E+02  0.20000006143E+02 0.  0.
         12    1    1    2    0    0  0.37877631128E+02 -0.89102940450E+01  0.19222769755E+02  0.43400727608E+02  0.00000000000E+00 0. -1.
         11    1    3    3    0    0 -0.75226064012E+01  0.98659888142E+01 -0.57400107428E+01  0.13670225526E+02  0.51100000000E-03 0. -1.
        -11    1    3    3    0    0 -0.11201237454E+02  0.24685386802E+01 -0.77129876461E+01  0.13822141021E+02  0.51100000000E-03 0.  1.
         12    1    3    3    0    0 -0.19153787273E+02 -0.34242334494E+01 -0.57697713660E+01  0.20294905844E+02  0.00000000000E+00 0. -1.
</event>
<event>
 7    1  0.8440037E-011  0.4778727E+02  0.7816164E-02  0.1312668E+00
        -11   -1    0    0    0    0  0.00000000000E+00  0.00000000000E+00  0.45593999997E+02  0.45594000000E+02  0.51100000000E-03 0. -1.
         11   -1    0    0    0    0 -0.00000000000E+00 -0.00000000000E+00 -0.45593999997E+02  0.45594000000E+02  0.51100000000E-03 0.  1.
    9900012    2    1    2    0    0 -0.27549691517E+02 -0.28285903997E+02  0.18015138773E+02  0.47787273133E+02  0.20000009521E+02 0.  0.
        -12    1    1    2    0    0  0.27549691517E+02  0.28285903997E+02 -0.18015138773E+02  0.43400726867E+02  0.00000000000E+00 0.  1.
         11    1    3    3    0    0 -0.67170981718E+01  0.32835108141E+00  0.59236355908E+01  0.89619574399E+01  0.51100000000E-03 0. -1.
        -11    1    3    3    0    0 -0.28726102059E+01 -0.90373073708E+01  0.69702261849E+01  0.11768979023E+02  0.51100000000E-03 0.  1.
         12    1    3    3    0    0 -0.17959983139E+02 -0.19576947708E+02  0.51212769974E+01  0.27056336670E+02  0.00000000000E+00 0. -1.
</event>
<event>
 7    1  0.8440037E-011  0.4778729E+02  0.7816164E-02  0.1312668E+00
        -11   -1    0    0    0    0  0.00000000000E+00  0.00000000000E+00  0.45593999997E+02  0.45594000000E+02  0.51100000000E-03 0. -1.
         11   -1    0    0    0    0 -0.00000000000E+00 -0.00000000000E+00 -0.45593999997E+02  0.45594000000E+02  0.51100000000E-03 0.  1.
    9900012    2    1    2    0    0 -0.10077005620E+02  0.21391234524E+02  0.36393554531E+02  0.47787288391E+02  0.20000079091E+02 0.  0.
        -12    1    1    2    0    0  0.10077005620E+02 -0.21391234524E+02 -0.36393554531E+02  0.43400711609E+02  0.00000000000E+00 0.  1.
         11    1    3    3    0    0  0.39580537625E+01  0.97099736239E+01  0.19487458572E+02  0.22129410729E+02  0.51100000000E-03 0. -1.
        -11    1    3    3    0    0 -0.79173947148E+01  0.10152895061E+02  0.12654385114E+02  0.18052697307E+02  0.51100000000E-03 0.  1.
         12    1    3    3    0    0 -0.61176646677E+01  0.15283658394E+01  0.42517108452E+01  0.76051803552E+01  0.00000000000E+00 0. -1.
</event>
<event>
 7    1  0.8440037E-011  0.4778727E+02  0.7816164E-02  0.1312668E+00
        -11   -1    0    0    0    0  0.00000000000E+00  0.00000000000E+00  0.45593999997E+02  0.45594000000E+02  0.51100000000E-03 0. -1.
         11   -1    0    0    0    0 -0.00000000000E+00 -0.00000000000E+00 -0.45593999997E+02  0.45594000000E+02  0.51100000000E-03 0.  1.
    9900012    2    1    2    0    0  0.28372855897E+02 -0.30693236048E+02 -0.11684586005E+02  0.47787271423E+02  0.20000001727E+02 0.  0.
         12    1    1    2    0    0 -0.28372855897E+02  0.30693236048E+02  0.11684586005E+02  0.43400728577E+02  0.00000000000E+00 0. -1.
         11    1    3    3    0    0  0.31103444682E+01  0.11834857875E+01 -0.36275191658E+01  0.49227814170E+01  0.51100000000E-03 0. -1.
        -11    1    3    3    0    0  0.12240995291E+02 -0.74104139072E+01 -0.39637561473E+01  0.14848150156E+02  0.51100000000E-03 0.  1.
        -12    1    3    3    0    0  0.13021516138E+02 -0.24466307929E+02 -0.40933106922E+01  0.28016339850E+02  0.00000000000E+00 0.  1.
</event>
<event>
 7    1  0.8440037E-011  0.4778727E+02  0.7816164E-02  0.1312668E+00
        -11   -1    0    0    0    0  0.00000000000E+00  0.00000000000E+00  0.45593999997E+02  0.45594000000E+02  0.51100000000E-03 0. -1.
         11   -1    0    0    0    0 -0.00000000000E+00 -0.00000000000E+00 -0.45593999997E+02  0.45594000000E+02  0.51100000000E-03 0.  1.
    9900012    2    1    2    0    0 -0.10735123783E+02  0.43132421494E+01  0.41830331933E+02  0.47787267171E+02  0.19999982339E+02 0.  0.
        -12    1    1    2    0    0  0.10735123783E+02 -0.43132421494E+01 -0.41830331933E+02  0.43400732829E+02  0.00000000000E+00 0.  1.
         11    1    3    3    0    0 -0.37396772154E+00 -0.22991888897E+01  0.15636184324E+01  0.28055345784E+01  0.51100000000E-03 0. -1.
        -11    1    3    3    0    0 -0.23137784793E+00 -0.37999250234E+00  0.26543284608E+02  0.26547012790E+02  0.51100000000E-03 0.  1.
         12    1    3    3    0    0 -0.10129778214E+02  0.69924235415E+01  0.13723428892E+02  0.18434719803E+02  0.00000000000E+00 0. -1.
</event>
<event>
 7    1  0.8440037E-011  0.4778727E+02  0.7816164E-02  0.1312668E+00
        -11   -1    0    0    0    0  0.00000000000E+00  0.00000000000E+00  0.45593999997E+02  0.45594000000E+02  0.51100000000E-03 0. -1.
         11   -1    0    0    0    0 -0.00000000000E+00 -0.00000000000E+00 -0.45593999997E+02  0.45594000000E+02  0.51100000000E-03 0.  1.
    9900012    2    1    2    0    0 -0.13825145050E+02 -0.31659591500E+02 -0.26270877312E+02  0.47787270002E+02  0.19999995248E+02 0.  0.
         12    1    1    2    0    0  0.13825145050E+02  0.31659591500E+02  0.26270877312E+02  0.43400729998E+02  0.00000000000E+00 0. -1.
         11    1    3    3    0    0  0.22402567023E+01 -0.10219075638E+01 -0.28034283694E+01  0.37312539507E+01  0.51100000000E-03 0. -1.
        -11    1    3    3    0    0 -0.75065810437E+01 -0.99887023633E+01 -0.16390473162E+02  0.20609962266E+02  0.51100000000E-03 0.  1.
        -12    1    3    3    0    0 -0.85588207083E+01 -0.20648981573E+02 -0.70769757811E+01  0.23446053786E+02  0.00000000000E+00 0.  1.
</event>
<event>
 7    1  0.8440037E-011  0.4778727E+02  0.7816164E-02  0.1312668E+00
        -11   -1    0    0    0    0  0.00000000000E+00  0.00000000000E+00  0.45593999997E+02  0.45594000000E+02  0.51100000000E-03 0. -1.
         11   -1    0    0    0    0 -0.00000000000E+00 -0.00000000000E+00 -0.45593999997E+02  0.45594000000E+02  0.51100000000E-03 0.  1.
    9900012    2    1    2    0    0  0.84681748806E+01  0.42364513562E+02  0.41426123606E+01  0.47787271524E+02  0.20000002185E+02 0.  0.
        -12    1    1    2    0    0 -0.84681748806E+01 -0.42364513562E+02 -0.41426123606E+01  0.43400728476E+02  0.00000000000E+00 0.  1.
         11    1    3    3    0    0  0.21399972840E+01  0.49591908534E+01 -0.16484114598E+01  0.56471606049E+01  0.51100000000E-03 0. -1.
        -11    1    3    3    0    0 -0.39217789136E+01  0.92325265846E+01 -0.37039858176E+01  0.10692960684E+02  0.51100000000E-03 0.  1.
         12    1    3    3    0    0  0.10249956510E+02  0.28172796124E+02  0.94950096381E+01  0.31447150235E+02  0.00000000000E+00 0. -1.
</event>
<event>
 7    1  0.8440037E-011  0.4778727E+02  0.7816164E-02  0.1312668E+00
        -11   -1    0    0    0    0  0.00000000000E+00  0.00000000000E+00  0.45593999997E+02  0.45594000000E+02  0.51100000000E-03 0. -1.
         11   -1    0    0    0    0 -0.00000000000E+00 -0.00000000000E+00 -0.45593999997E+02  0.45594000000E+02  0.51100000000E-03 0.  1.
    9900012    2    1    2    0    0  0.23191004101E+02 -0.36528569107E+02 -0.33859358299E+01  0.47787267360E+02  0.19999983203E+02 0.  0.
        -12    1    1    2    0    0 -0.23191004101E+02  0.36528569107E+02  0.33859358299E+01  0.43400732640E+02  0.00000000000E+00 0.  1.
         11    1    3    3    0    0  0.46536140662E+01 -0.16855072005E+02 -0.89396344739E+01  0.19638397108E+02  0.51100000000E-03 0.  1.
        -11    1    3    3    0    0  0.25230228885E+00 -0.24798232413E+01  0.36837063954E+00  0.25196977879E+01  0.51100000000E-03 0. -1.
         12    1    3    3    0    0  0.18285087746E+02 -0.17193673860E+02  0.51853280045E+01  0.25629172464E+02  0.00000000000E+00 0. -1.
</event>
<event>
 7    1  0.8440037E-011  0.4778727E+02  0.7816164E-02  0.1312668E+00
        -11   -1    0    0    0    0  0.00000000000E+00  0.00000000000E+00  0.45593999997E+02  0.45594000000E+02  0.51100000000E-03 0. -1.
         11   -1    0    0    0    0 -0.00000000000E+00 -0.00000000000E+00 -0.45593999997E+02  0.45594000000E+02  0.51100000000E-03 0.  1.
    9900012    2    1    2    0    0  0.24021908466E+02 -0.15506464205E+02  0.32651502010E+02  0.47787273025E+02  0.20000009029E+02 0.  0.
        -12    1    1    2    0    0 -0.24021908466E+02  0.15506464205E+02 -0.32651502010E+02  0.43400726975E+02  0.00000000000E+00 0.  1.
         11    1    3    3    0    0  0.46664444771E+01 -0.42024446526E+01  0.10972636053E+01  0.63749692389E+01  0.51100000000E-03 0. -1.
        -11    1    3    3    0    0  0.36157027016E+00 -0.58432853772E+01  0.27207382847E+01  0.64557829994E+01  0.51100000000E-03 0.  1.
         12    1    3    3    0    0  0.18993893718E+02 -0.54607341755E+01  0.28833500120E+02  0.34956520786E+02  0.00000000000E+00 0. -1.
</event>
<event>
 7    1  0.8440037E-011  0.4778727E+02  0.7816164E-02  0.1312668E+00
        -11   -1    0    0    0    0  0.00000000000E+00  0.00000000000E+00  0.45593999997E+02  0.45594000000E+02  0.51100000000E-03 0. -1.
         11   -1    0    0    0    0 -0.00000000000E+00 -0.00000000000E+00 -0.45593999997E+02  0.45594000000E+02  0.51100000000E-03 0.  1.
    9900012    2    1    2    0    0 -0.14268701076E+02 -0.32926166498E+02 -0.24410967775E+02  0.47787267076E+02  0.19999981907E+02 0.  0.
         12    1    1    2    0    0  0.14268701076E+02  0.32926166498E+02  0.24410967775E+02  0.43400732924E+02  0.00000000000E+00 0. -1.
         11    1    3    3    0    0  0.10066253797E+01  0.60991950199E+00 -0.52265232664E+01  0.53574100243E+01  0.51100000000E-03 0. -1.
        -11    1    3    3    0    0  0.75542375376E+00 -0.54736157712E+01 -0.26897571815E+01  0.61453989794E+01  0.51100000000E-03 0.  1.
        -12    1    3    3    0    0 -0.16030750209E+02 -0.28062470228E+02 -0.16494687327E+02  0.36284458072E+02  0.00000000000E+00 0.  1.
</event>
<event>
 7    1  0.8440037E-011  0.4778727E+02  0.7816164E-02  0.1312668E+00
        -11   -1    0    0    0    0  0.00000000000E+00  0.00000000000E+00  0.45593999997E+02  0.45594000000E+02  0.51100000000E-03 0. -1.
         11   -1    0    0    0    0 -0.00000000000E+00 -0.00000000000E+00 -0.45593999997E+02  0.45594000000E+02  0.51100000000E-03 0.  1.
    9900012    2    1    2    0    0 -0.18392510065E+02 -0.38553620701E+02  0.76783424607E+01  0.47787273755E+02  0.20000012357E+02 0.  0.
        -12    1    1    2    0    0  0.18392510065E+02  0.38553620701E+02 -0.76783424607E+01  0.43400726245E+02  0.00000000000E+00 0.  1.
         11    1    3    3    0    0  0.60996595421E+00 -0.17525238644E+01  0.20600781079E+01  0.27726017443E+01  0.51100000000E-03 0. -1.
        -11    1    3    3    0    0 -0.74421812568E+01 -0.15120077025E+02  0.10648319074E+02  0.19934630432E+02  0.51100000000E-03 0.  1.
         12    1    3    3    0    0 -0.11560294762E+02 -0.21681019812E+02 -0.50300547210E+01  0.25080041579E+02  0.00000000000E+00 0. -1.
</event>
<event>
 7    1  0.8440037E-011  0.4778727E+02  0.7816164E-02  0.1312668E+00
        -11   -1    0    0    0    0  0.00000000000E+00  0.00000000000E+00  0.45593999997E+02  0.45594000000E+02  0.51100000000E-03 0. -1.
         11   -1    0    0    0    0 -0.00000000000E+00 -0.00000000000E+00 -0.45593999997E+02  0.45594000000E+02  0.51100000000E-03 0.  1.
    9900012    2    1    2    0    0  0.89495121009E+01 -0.16328524264E+02  0.39203430489E+02  0.47787269204E+02  0.19999991611E+02 0.  0.
        -12    1    1    2    0    0 -0.89495121009E+01  0.16328524264E+02 -0.39203430489E+02  0.43400730796E+02  0.00000000000E+00 0.  1.
         11    1    3    3    0    0  0.19510957940E+01 -0.58733021002E+01  0.16870682066E+02  0.17970040790E+02  0.51100000000E-03 0. -1.
        -11    1    3    3    0    0  0.88366347576E+01 -0.11336868088E+02  0.23440736171E+02  0.27496887177E+02  0.51100000000E-03 0.  1.
        -12    1    3    3    0    0 -0.18382184507E+01  0.88164592472E+00 -0.11079877484E+01  0.23203412378E+01  0.00000000000E+00 0.  1.
</event>
<event>
 7    1  0.8440037E-011  0.4778727E+02  0.7816164E-02  0.1312668E+00
        -11   -1    0    0    0    0  0.00000000000E+00  0.00000000000E+00  0.45593999997E+02  0.45594000000E+02  0.51100000000E-03 0.  1.
         11   -1    0    0    0    0 -0.00000000000E+00 -0.00000000000E+00 -0.45593999997E+02  0.45594000000E+02  0.51100000000E-03 0. -1.
    9900012    2    1    2    0    0 -0.39344006244E+02 -0.10659660918E+02  0.14901135306E+02  0.47787273835E+02  0.20000012725E+02 0.  0.
        -12    1    1    2    0    0  0.39344006244E+02  0.10659660918E+02 -0.14901135306E+02  0.43400726165E+02  0.00000000000E+00 0.  1.
         11    1    3    3    0    0 -0.50348093463E+01 -0.40808033472E+01 -0.90523643713E+00  0.65438302531E+01  0.51100000000E-03 0. -1.
        -11    1    3    3    0    0 -0.64222683252E+01 -0.11803772704E+01  0.10473778048E+02  0.12342562449E+02  0.51100000000E-03 0.  1.
         12    1    3    3    0    0 -0.27886928573E+02 -0.53984803001E+01  0.53325936948E+01  0.28900881133E+02  0.00000000000E+00 0. -1.
</event>
<event>
 7    1  0.8440037E-011  0.4778727E+02  0.7816164E-02  0.1312668E+00
        -11   -1    0    0    0    0  0.00000000000E+00  0.00000000000E+00  0.45593999997E+02  0.45594000000E+02  0.51100000000E-03 0.  1.
         11   -1    0    0    0    0 -0.00000000000E+00 -0.00000000000E+00 -0.45593999997E+02  0.45594000000E+02  0.51100000000E-03 0. -1.
    9900012    2    1    2    0    0  0.39078070598E+02 -0.11682757698E+02 -0.14833783526E+02  0.47787267716E+02  0.19999984824E+02 0.  0.
         12    1    1    2    0    0 -0.39078070598E+02  0.11682757698E+02  0.14833783526E+02  0.43400732284E+02  0.00000000000E+00 0. -1.
         11    1    3    3    0    0  0.18062146957E+02 -0.59813384606E+01 -0.54569177648E+01  0.19793825154E+02  0.51100000000E-03 0. -1.
        -11    1    3    3    0    0  0.14809840060E+02 -0.10251661216E+02 -0.93583698505E+01  0.20297955730E+02  0.51100000000E-03 0.  1.
         12    1    3    3    0    0  0.62060835805E+01  0.45502419788E+01 -0.18495910676E-01  0.76954868314E+01  0.00000000000E+00 0. -1.
</event>
<event>
 7    1  0.8440037E-011  0.4778727E+02  0.7816164E-02  0.1312668E+00
        -11   -1    0    0    0    0  0.00000000000E+00  0.00000000000E+00  0.45593999997E+02  0.45594000000E+02  0.51100000000E-03 0. -1.
         11   -1    0    0    0    0 -0.00000000000E+00 -0.00000000000E+00 -0.45593999997E+02  0.45594000000E+02  0.51100000000E-03 0.  1.
    9900012    2    1    2    0    0  0.23747013316E+02 -0.73616322134E+01 -0.35573992947E+02  0.47787271383E+02  0.20000001545E+02 0.  0.
         12    1    1    2    0    0 -0.23747013316E+02  0.73616322134E+01  0.35573992947E+02  0.43400728617E+02  0.00000000000E+00 0. -1.
         11    1    3    3    0    0  0.94740922942E+01  0.28014248093E+01 -0.49993463748E+01  0.11072482567E+02  0.51100000000E-03 0.  1.
        -11    1    3    3    0    0  0.18200884259E+01  0.84574930844E+00 -0.10894003217E+00  0.20099457611E+01  0.51100000000E-03 0. -1.
        -12    1    3    3    0    0  0.12452832596E+02 -0.11008806331E+02 -0.30465706540E+02  0.34704843055E+02  0.00000000000E+00 0.  1.
</event>
<event>
 7    1  0.8440037E-011  0.4778727E+02  0.7816164E-02  0.1312668E+00
        -11   -1    0    0    0    0  0.00000000000E+00  0.00000000000E+00  0.45593999997E+02  0.45594000000E+02  0.51100000000E-03 0. -1.
         11   -1    0    0    0    0 -0.00000000000E+00 -0.00000000000E+00 -0.45593999997E+02  0.45594000000E+02  0.51100000000E-03 0.  1.
    9900012    2    1    2    0    0  0.14680197053E+02 -0.82215897232E+01 -0.40006502552E+02  0.47787274551E+02  0.20000015987E+02 0.  0.
         12    1    1    2    0    0 -0.14680197053E+02  0.82215897232E+01  0.40006502552E+02  0.43400725449E+02  0.00000000000E+00 0. -1.
         11    1    3    3    0    0  0.62623838620E+01  0.20943205070E+01 -0.75600568119E+01  0.10037832898E+02  0.51100000000E-03 0. -1.
        -11    1    3    3    0    0  0.56576810889E+00  0.32956406903E+01 -0.82071767502E+01  0.88622283644E+01  0.51100000000E-03 0.  1.
         12    1    3    3    0    0  0.78520450819E+01 -0.13611550921E+02 -0.24239268990E+02  0.28887213289E+02  0.00000000000E+00 0. -1.
</event>
<event>
 7    1  0.8440037E-011  0.4778726E+02  0.7816164E-02  0.1312668E+00
        -11   -1    0    0    0    0  0.00000000000E+00  0.00000000000E+00  0.45593999997E+02  0.45594000000E+02  0.51100000000E-03 0. -1.
         11   -1    0    0    0    0 -0.00000000000E+00 -0.00000000000E+00 -0.45593999997E+02  0.45594000000E+02  0.51100000000E-03 0.  1.
    9900012    2    1    2    0    0  0.15304618460E+02  0.38170506468E+02 -0.13871009552E+02  0.47787264796E+02  0.19999971511E+02 0.  0.
         12    1    1    2    0    0 -0.15304618460E+02 -0.38170506468E+02  0.13871009552E+02  0.43400735204E+02  0.00000000000E+00 0. -1.
         11    1    3    3    0    0 -0.64945727192E+00  0.10866179820E+02 -0.10888840943E+01  0.10939896136E+02  0.51100000000E-03 0. -1.
        -11    1    3    3    0    0  0.33552525039E+01  0.19395778329E+02 -0.73299755514E+01  0.21004344269E+02  0.51100000000E-03 0.  1.
         12    1    3    3    0    0  0.12598823228E+02  0.79085483200E+01 -0.54521499058E+01  0.15843024391E+02  0.00000000000E+00 0. -1.
</event>
<event>
 7    1  0.8440037E-011  0.4778727E+02  0.7816164E-02  0.1312668E+00
        -11   -1    0    0    0    0  0.00000000000E+00  0.00000000000E+00  0.45593999997E+02  0.45594000000E+02  0.51100000000E-03 0. -1.
         11   -1    0    0    0    0 -0.00000000000E+00 -0.00000000000E+00 -0.45593999997E+02  0.45594000000E+02  0.51100000000E-03 0.  1.
    9900012    2    1    2    0    0  0.22126021147E+02 -0.57373447517E+01 -0.36893702230E+02  0.47787271886E+02  0.20000003835E+02 0.  0.
         12    1    1    2    0    0 -0.22126021147E+02  0.57373447517E+01  0.36893702230E+02  0.43400728114E+02  0.00000000000E+00 0. -1.
         11    1    3    3    0    0  0.45224081930E+01 -0.65370595362E+01 -0.93582058444E+01  0.12278490955E+02  0.51100000000E-03 0. -1.
        -11    1    3    3    0    0  0.17950058428E+01  0.53845422831E+01 -0.97009238704E+01  0.11239362338E+02  0.51100000000E-03 0.  1.
        -12    1    3    3    0    0  0.15808607111E+02 -0.45848274986E+01 -0.17834572515E+02  0.24269418592E+02  0.00000000000E+00 0.  1.
</event>
<event>
 7    1  0.8440037E-011  0.4778727E+02  0.7816164E-02  0.1312668E+00
        -11   -1    0    0    0    0  0.00000000000E+00  0.00000000000E+00  0.45593999997E+02  0.45594000000E+02  0.51100000000E-03 0.  1.
         11   -1    0    0    0    0 -0.00000000000E+00 -0.00000000000E+00 -0.45593999997E+02  0.45594000000E+02  0.51100000000E-03 0. -1.
    9900012    2    1    2    0    0 -0.39090793243E+01 -0.40662871146E+02  0.14658560107E+02  0.47787269874E+02  0.19999994666E+02 0.  0.
        -12    1    1    2    0    0  0.39090793243E+01  0.40662871146E+02 -0.14658560107E+02  0.43400730126E+02  0.00000000000E+00 0.  1.
         11    1    3    3    0    0 -0.35793243418E+00 -0.11505532921E+01  0.17025566474E+01  0.20858062959E+01  0.51100000000E-03 0. -1.
        -11    1    3    3    0    0  0.13080025530E+01 -0.12650059610E+02  0.13299080186E+02  0.18401098143E+02  0.51100000000E-03 0.  1.
         12    1    3    3    0    0 -0.48591494431E+01 -0.26862258244E+02 -0.34307672595E+00  0.27300365436E+02  0.00000000000E+00 0. -1.
</event>
<event>
 7    1  0.8440037E-011  0.4778728E+02  0.7816164E-02  0.1312668E+00
        -11   -1    0    0    0    0  0.00000000000E+00  0.00000000000E+00  0.45593999997E+02  0.45594000000E+02  0.51100000000E-03 0. -1.
         11   -1    0    0    0    0 -0.00000000000E+00 -0.00000000000E+00 -0.45593999997E+02  0.45594000000E+02  0.51100000000E-03 0.  1.
    9900012    2    1    2    0    0 -0.15931255396E+02  0.40277918599E+02  0.27399040718E+01  0.47787277662E+02  0.20000030172E+02 0.  0.
         12    1    1    2    0    0  0.15931255396E+02 -0.40277918599E+02 -0.27399040718E+01  0.43400722338E+02  0.00000000000E+00 0. -1.
         11    1    3    3    0    0 -0.33348993615E+01  0.11252524308E+01  0.17987323576E+01  0.39526175049E+01  0.51100000000E-03 0. -1.
        -11    1    3    3    0    0 -0.13883205236E+02  0.34022752446E+02  0.51105652584E+01  0.37099985838E+02  0.51100000000E-03 0.  1.
        -12    1    3    3    0    0  0.12868492014E+01  0.51299137220E+01 -0.41693935442E+01  0.67346743194E+01  0.00000000000E+00 0.  1.
</event>
<event>
 7    1  0.8440037E-011  0.4778727E+02  0.7816164E-02  0.1312668E+00
        -11   -1    0    0    0    0  0.00000000000E+00  0.00000000000E+00  0.45593999997E+02  0.45594000000E+02  0.51100000000E-03 0. -1.
         11   -1    0    0    0    0 -0.00000000000E+00 -0.00000000000E+00 -0.45593999997E+02  0.45594000000E+02  0.51100000000E-03 0.  1.
    9900012    2    1    2    0    0 -0.28512256851E+01  0.25227137802E+01  0.43233434162E+02  0.47787269566E+02  0.19999993261E+02 0.  0.
        -12    1    1    2    0    0  0.28512256851E+01 -0.25227137802E+01 -0.43233434162E+02  0.43400730434E+02  0.00000000000E+00 0.  1.
         11    1    3    3    0    0 -0.98580680719E+00  0.27980938247E+00  0.18738752766E+02  0.18766751553E+02  0.51100000000E-03 0. -1.
        -11    1    3    3    0    0 -0.61299502528E+01  0.21538876330E+01  0.23834551749E+02  0.24704278564E+02  0.51100000000E-03 0.  1.
        -12    1    3    3    0    0  0.42645313749E+01  0.89016764746E-01  0.66012964663E+00  0.43162394491E+01  0.00000000000E+00 0.  1.
</event>
<event>
 7    1  0.8440037E-011  0.4778727E+02  0.7816164E-02  0.1312668E+00
        -11   -1    0    0    0    0  0.00000000000E+00  0.00000000000E+00  0.45593999997E+02  0.45594000000E+02  0.51100000000E-03 0. -1.
         11   -1    0    0    0    0 -0.00000000000E+00 -0.00000000000E+00 -0.45593999997E+02  0.45594000000E+02  0.51100000000E-03 0.  1.
    9900012    2    1    2    0    0 -0.29353109155E+02 -0.40458149675E+01 -0.31711976727E+02  0.47787273004E+02  0.20000008936E+02 0.  0.
         12    1    1    2    0    0  0.29353109155E+02  0.40458149675E+01  0.31711976727E+02  0.43400726996E+02  0.00000000000E+00 0. -1.
         11    1    3    3    0    0 -0.11696286828E+01  0.43199679975E+00 -0.10749810075E+01  0.16462797205E+01  0.51100000000E-03 0. -1.
        -11    1    3    3    0    0 -0.53412632487E+01 -0.69758472860E+01 -0.17725794446E+02  0.19783713692E+02  0.51100000000E-03 0.  1.
        -12    1    3    3    0    0 -0.22842217224E+02  0.24980355188E+01 -0.12911201274E+02  0.26357279592E+02  0.00000000000E+00 0.  1.
</event>
<event>
 7    1  0.8440037E-011  0.4778726E+02  0.7816164E-02  0.1312668E+00
        -11   -1    0    0    0    0  0.00000000000E+00  0.00000000000E+00  0.45593999997E+02  0.45594000000E+02  0.51100000000E-03 0. -1.
         11   -1    0    0    0    0 -0.00000000000E+00 -0.00000000000E+00 -0.45593999997E+02  0.45594000000E+02  0.51100000000E-03 0.  1.
    9900012    2    1    2    0    0 -0.32902752183E+01 -0.19361434281E+02 -0.38703141460E+02  0.47787260291E+02  0.19999950971E+02 0.  0.
         12    1    1    2    0    0  0.32902752183E+01  0.19361434281E+02  0.38703141460E+02  0.43400739709E+02  0.00000000000E+00 0. -1.
         11    1    3    3    0    0 -0.56187527803E+01 -0.70548970304E+00 -0.88890553454E+01  0.10539611175E+02  0.51100000000E-03 0. -1.
        -11    1    3    3    0    0 -0.16006031098E+01 -0.50853304136E+01 -0.18181232446E+02  0.18946760389E+02  0.51100000000E-03 0.  1.
        -12    1    3    3    0    0  0.39290806718E+01 -0.13570614164E+02 -0.11632853669E+02  0.18300888727E+02  0.00000000000E+00 0.  1.
</event>
<event>
 7    1  0.8440037E-011  0.4778724E+02  0.7816164E-02  0.1312668E+00
        -11   -1    0    0    0    0  0.00000000000E+00  0.00000000000E+00  0.45593999997E+02  0.45594000000E+02  0.51100000000E-03 0. -1.
         11   -1    0    0    0    0 -0.00000000000E+00 -0.00000000000E+00 -0.45593999997E+02  0.45594000000E+02  0.51100000000E-03 0.  1.
    9900012    2    1    2    0    0  0.21387266278E+02  0.80545169969E+01 -0.36896282228E+02  0.47787239118E+02  0.19999854436E+02 0.  0.
         12    1    1    2    0    0 -0.21387266278E+02 -0.80545169969E+01  0.36896282228E+02  0.43400760882E+02  0.00000000000E+00 0. -1.
         11    1    3    3    0    0  0.96160457321E+01  0.47706385537E+01 -0.14892109569E+02  0.18357621181E+02  0.51100000000E-03 0. -1.
        -11    1    3    3    0    0  0.77184554271E+01  0.35471209315E+00 -0.23058997780E+02  0.24319082090E+02  0.51100000000E-03 0.  1.
         12    1    3    3    0    0  0.40527651183E+01  0.29291663501E+01  0.10548251214E+01  0.51105358474E+01  0.00000000000E+00 0. -1.
</event>
<event>
 7    1  0.8440037E-011  0.4778727E+02  0.7816164E-02  0.1312668E+00
        -11   -1    0    0    0    0  0.00000000000E+00  0.00000000000E+00  0.45593999997E+02  0.45594000000E+02  0.51100000000E-03 0. -1.
         11   -1    0    0    0    0 -0.00000000000E+00 -0.00000000000E+00 -0.45593999997E+02  0.45594000000E+02  0.51100000000E-03 0.  1.
    9900012    2    1    2    0    0  0.27815970016E+02  0.73034862682E+01  0.32504679716E+02  0.47787270708E+02  0.19999998468E+02 0.  0.
        -12    1    1    2    0    0 -0.27815970016E+02 -0.73034862682E+01 -0.32504679716E+02  0.43400729292E+02  0.00000000000E+00 0.  1.
         11    1    3    3    0    0  0.13292824315E+02  0.32614193726E+01  0.15834713205E+02  0.20930221622E+02  0.51100000000E-03 0. -1.
        -11    1    3    3    0    0  0.15919446651E+02  0.68678471120E+01  0.16087559539E+02  0.23651758451E+02  0.51100000000E-03 0.  1.
        -12    1    3    3    0    0 -0.13963009508E+01 -0.28257802165E+01  0.58240697224E+00  0.32052906355E+01  0.00000000000E+00 0.  1.
</event>
<event>
 7    1  0.8440037E-011  0.4778727E+02  0.7816164E-02  0.1312668E+00
        -11   -1    0    0    0    0  0.00000000000E+00  0.00000000000E+00  0.45593999997E+02  0.45594000000E+02  0.51100000000E-03 0. -1.
         11   -1    0    0    0    0 -0.00000000000E+00 -0.00000000000E+00 -0.45593999997E+02  0.45594000000E+02  0.51100000000E-03 0.  1.
    9900012    2    1    2    0    0 -0.28078982321E+02  0.32596964114E+02 -0.57124629540E+01  0.47787267856E+02  0.19999985463E+02 0.  0.
         12    1    1    2    0    0  0.28078982321E+02 -0.32596964114E+02  0.57124629540E+01  0.43400732144E+02  0.00000000000E+00 0. -1.
         11    1    3    3    0    0 -0.37997553371E+01  0.21715133418E+01  0.27943278955E+01  0.51924829768E+01  0.51100000000E-03 0. -1.
        -11    1    3    3    0    0 -0.10518050955E+02  0.46860373037E+01  0.17727781593E+01  0.11650368413E+02  0.51100000000E-03 0.  1.
        -12    1    3    3    0    0 -0.13761176029E+02  0.25739413469E+02 -0.10279569009E+02  0.30944416466E+02  0.00000000000E+00 0.  1.
</event>
<event>
 7    1  0.8440037E-011  0.4778728E+02  0.7816164E-02  0.1312668E+00
        -11   -1    0    0    0    0  0.00000000000E+00  0.00000000000E+00  0.45593999997E+02  0.45594000000E+02  0.51100000000E-03 0. -1.
         11   -1    0    0    0    0 -0.00000000000E+00 -0.00000000000E+00 -0.45593999997E+02  0.45594000000E+02  0.51100000000E-03 0.  1.
    9900012    2    1    2    0    0  0.26865323642E+02  0.14376399928E+02 -0.30906247497E+02  0.47787278536E+02  0.20000034156E+02 0.  0.
         12    1    1    2    0    0 -0.26865323642E+02 -0.14376399928E+02  0.30906247497E+02  0.43400721464E+02  0.00000000000E+00 0. -1.
         11    1    3    3    0    0 -0.25667290293E+01  0.88640945939E+00 -0.79815519075E-01  0.27166505881E+01  0.51100000000E-03 0. -1.
        -11    1    3    3    0    0  0.25059704513E+01  0.11068857039E+01 -0.73817934449E+00  0.28372509353E+01  0.51100000000E-03 0.  1.
         12    1    3    3    0    0  0.26926082220E+02  0.12383104765E+02 -0.30088252633E+02  0.42233377012E+02  0.00000000000E+00 0. -1.
</event>
<event>
 7    1  0.8440037E-011  0.4778727E+02  0.7816164E-02  0.1312668E+00
        -11   -1    0    0    0    0  0.00000000000E+00  0.00000000000E+00  0.45593999997E+02  0.45594000000E+02  0.51100000000E-03 0. -1.
         11   -1    0    0    0    0 -0.00000000000E+00 -0.00000000000E+00 -0.45593999997E+02  0.45594000000E+02  0.51100000000E-03 0.  1.
    9900012    2    1    2    0    0  0.98456101006E+01  0.60632973217E+01  0.41832089594E+02  0.47787270369E+02  0.19999996922E+02 0.  0.
        -12    1    1    2    0    0 -0.98456101006E+01 -0.60632973217E+01 -0.41832089594E+02  0.43400729631E+02  0.00000000000E+00 0.  1.
         11    1    3    3    0    0  0.14371384997E+01  0.37834687137E+01  0.41415060812E+01  0.57906886858E+01  0.51100000000E-03 0. -1.
        -11    1    3    3    0    0  0.13385704485E+01  0.86328684460E+01  0.14422672675E+02  0.16862137344E+02  0.51100000000E-03 0.  1.
         12    1    3    3    0    0  0.70699011524E+01 -0.63530398381E+01  0.23267910838E+02  0.25134444340E+02  0.00000000000E+00 0. -1.
</event>
<event>
 7    1  0.8440037E-011  0.4778727E+02  0.7816164E-02  0.1312668E+00
        -11   -1    0    0    0    0  0.00000000000E+00  0.00000000000E+00  0.45593999997E+02  0.45594000000E+02  0.51100000000E-03 0. -1.
         11   -1    0    0    0    0 -0.00000000000E+00 -0.00000000000E+00 -0.45593999997E+02  0.45594000000E+02  0.51100000000E-03 0.  1.
    9900012    2    1    2    0    0 -0.33236269015E+02  0.69505572440E+01 -0.27030793474E+02  0.47787267058E+02  0.19999981826E+02 0.  0.
         12    1    1    2    0    0  0.33236269015E+02 -0.69505572440E+01  0.27030793474E+02  0.43400732942E+02  0.00000000000E+00 0. -1.
         11    1    3    3    0    0 -0.38747687387E+01 -0.80811287826E+00 -0.86274496613E+01  0.94920897131E+01  0.51100000000E-03 0. -1.
        -11    1    3    3    0    0 -0.14848347107E+02  0.27904994935E+00 -0.15935042857E+02  0.21782490028E+02  0.51100000000E-03 0.  1.
         12    1    3    3    0    0 -0.14513153169E+02  0.74796201729E+01 -0.24683009556E+01  0.16512687318E+02  0.00000000000E+00 0. -1.
</event>
<event>
 7    1  0.8440037E-011  0.4778727E+02  0.7816164E-02  0.1312668E+00
        -11   -1    0    0    0    0  0.00000000000E+00  0.00000000000E+00  0.45593999997E+02  0.45594000000E+02  0.51100000000E-03 0.  1.
         11   -1    0    0    0    0 -0.00000000000E+00 -0.00000000000E+00 -0.45593999997E+02  0.45594000000E+02  0.51100000000E-03 0. -1.
    9900012    2    1    2    0    0  0.37314623880E+02  0.19231263788E+02  0.11018196234E+02  0.47787270623E+02  0.19999998078E+02 0.  0.
        -12    1    1    2    0    0 -0.37314623880E+02 -0.19231263788E+02 -0.11018196234E+02  0.43400729377E+02  0.00000000000E+00 0.  1.
         11    1    3    3    0    0  0.18677296762E+02  0.24897445142E+01  0.10182316925E+02  0.21417745453E+02  0.51100000000E-03 0. -1.
        -11    1    3    3    0    0  0.17455552757E+02  0.11653968920E+02  0.17730097747E+01  0.21063116520E+02  0.51100000000E-03 0.  1.
        -12    1    3    3    0    0  0.11817743618E+01  0.50875503538E+01 -0.93713046597E+00  0.53064086495E+01  0.00000000000E+00 0.  1.
</event>
<event>
 7    1  0.8440037E-011  0.4778733E+02  0.7816164E-02  0.1312667E+00
        -11   -1    0    0    0    0  0.00000000000E+00  0.00000000000E+00  0.45593999997E+02  0.45594000000E+02  0.51100000000E-03 0. -1.
         11   -1    0    0    0    0 -0.00000000000E+00 -0.00000000000E+00 -0.45593999997E+02  0.45594000000E+02  0.51100000000E-03 0.  1.
    9900012    2    1    2    0    0 -0.80239872864E+01  0.38701521440E+02 -0.17928351034E+02  0.47787332902E+02  0.20000282031E+02 0.  0.
         12    1    1    2    0    0  0.80239872864E+01 -0.38701521440E+02  0.17928351034E+02  0.43400667098E+02  0.00000000000E+00 0. -1.
         11    1    3    3    0    0 -0.79584091877E+01  0.98030889421E+01 -0.73077964676E+01  0.14589061624E+02  0.51100000000E-03 0. -1.
        -11    1    3    3    0    0 -0.59453971030E+01  0.17839888646E+02 -0.78124805231E+01  0.20362814781E+02  0.51100000000E-03 0.  1.
         12    1    3    3    0    0  0.58798190043E+01  0.11058543852E+02 -0.28080740432E+01  0.12835456497E+02  0.00000000000E+00 0. -1.
</event>
<event>
 7    1  0.8440037E-011  0.4778728E+02  0.7816164E-02  0.1312668E+00
        -11   -1    0    0    0    0  0.00000000000E+00  0.00000000000E+00  0.45593999997E+02  0.45594000000E+02  0.51100000000E-03 0. -1.
         11   -1    0    0    0    0 -0.00000000000E+00 -0.00000000000E+00 -0.45593999997E+02  0.45594000000E+02  0.51100000000E-03 0.  1.
    9900012    2    1    2    0    0 -0.32477206577E+02 -0.25246931200E+02  0.13836413107E+02  0.47787276392E+02  0.20000024381E+02 0.  0.
        -12    1    1    2    0    0  0.32477206577E+02  0.25246931200E+02 -0.13836413107E+02  0.43400723608E+02  0.00000000000E+00 0.  1.
         11    1    3    3    0    0  0.20894281315E+00 -0.27835353114E+00  0.43977921622E+00  0.56084205228E+00  0.51100000000E-03 0.  1.
        -11    1    3    3    0    0 -0.59036211127E+01  0.60015027779E+00  0.77648700964E+01  0.97727238001E+01  0.51100000000E-03 0. -1.
         12    1    3    3    0    0 -0.26782528277E+02 -0.25568727947E+02  0.56317637945E+01  0.37453710539E+02  0.00000000000E+00 0. -1.
</event>
<event>
 7    1  0.8440037E-011  0.4778727E+02  0.7816164E-02  0.1312668E+00
        -11   -1    0    0    0    0  0.00000000000E+00  0.00000000000E+00  0.45593999997E+02  0.45594000000E+02  0.51100000000E-03 0. -1.
         11   -1    0    0    0    0 -0.00000000000E+00 -0.00000000000E+00 -0.45593999997E+02  0.45594000000E+02  0.51100000000E-03 0.  1.
    9900012    2    1    2    0    0 -0.83263182588E+01  0.24741870228E+02 -0.34671828214E+02  0.47787269709E+02  0.19999993911E+02 0.  0.
         12    1    1    2    0    0  0.83263182588E+01 -0.24741870228E+02  0.34671828214E+02  0.43400730291E+02  0.00000000000E+00 0. -1.
         11    1    3    3    0    0  0.23858268684E+01  0.53066670122E+01 -0.53262703396E+01  0.78880948660E+01  0.51100000000E-03 0. -1.
        -11    1    3    3    0    0 -0.75651911236E+01  0.74886750448E+01 -0.34202466058E+01  0.11180807563E+02  0.51100000000E-03 0.  1.
        -12    1    3    3    0    0 -0.31469540035E+01  0.11946528171E+02 -0.25925311268E+02  0.28718367279E+02  0.00000000000E+00 0.  1.
</event>
<event>
 7    1  0.8440037E-011  0.4778727E+02  0.7816164E-02  0.1312668E+00
        -11   -1    0    0    0    0  0.00000000000E+00  0.00000000000E+00  0.45593999997E+02  0.45594000000E+02  0.51100000000E-03 0. -1.
         11   -1    0    0    0    0 -0.00000000000E+00 -0.00000000000E+00 -0.45593999997E+02  0.45594000000E+02  0.51100000000E-03 0.  1.
    9900012    2    1    2    0    0 -0.12305619399E+01  0.23266353846E+02  0.36616746055E+02  0.47787267338E+02  0.19999983099E+02 0.  0.
        -12    1    1    2    0    0  0.12305619399E+01 -0.23266353846E+02 -0.36616746055E+02  0.43400732662E+02  0.00000000000E+00 0.  1.
         11    1    3    3    0    0  0.46158876576E+01  0.21081030963E+01  0.98112753559E+01  0.11045888009E+02  0.51100000000E-03 0. -1.
        -11    1    3    3    0    0  0.36445799507E+01  0.89512128877E+01  0.10392896973E+02  0.14192233190E+02  0.51100000000E-03 0.  1.
        -12    1    3    3    0    0 -0.94910295481E+01  0.12207037862E+02  0.16412573726E+02  0.22549146139E+02  0.00000000000E+00 0.  1.
</event>
<event>
 7    1  0.8440037E-011  0.4778727E+02  0.7816164E-02  0.1312668E+00
        -11   -1    0    0    0    0  0.00000000000E+00  0.00000000000E+00  0.45593999997E+02  0.45594000000E+02  0.51100000000E-03 0.  1.
         11   -1    0    0    0    0 -0.00000000000E+00 -0.00000000000E+00 -0.45593999997E+02  0.45594000000E+02  0.51100000000E-03 0. -1.
    9900012    2    1    2    0    0 -0.17158682017E+02 -0.34578797031E+02  0.19837081782E+02  0.47787269749E+02  0.19999994093E+02 0.  0.
        -12    1    1    2    0    0  0.17158682017E+02  0.34578797031E+02 -0.19837081782E+02  0.43400730251E+02  0.00000000000E+00 0.  1.
         11    1    3    3    0    0 -0.26222619895E+01 -0.20294258784E+02  0.12112089144E+02  0.23778896131E+02  0.51100000000E-03 0. -1.
        -11    1    3    3    0    0 -0.93665011216E+00 -0.74533617706E+01  0.26356548779E+01  0.79609416537E+01  0.51100000000E-03 0.  1.
        -12    1    3    3    0    0 -0.13599769915E+02 -0.68311764771E+01  0.50893377604E+01  0.16047431964E+02  0.00000000000E+00 0.  1.
</event>
<event>
 7    1  0.8440037E-011  0.4778727E+02  0.7816164E-02  0.1312668E+00
        -11   -1    0    0    0    0  0.00000000000E+00  0.00000000000E+00  0.45593999997E+02  0.45594000000E+02  0.51100000000E-03 0.  1.
         11   -1    0    0    0    0 -0.00000000000E+00 -0.00000000000E+00 -0.45593999997E+02  0.45594000000E+02  0.51100000000E-03 0. -1.
    9900012    2    1    2    0    0  0.13488885962E+01 -0.42341069915E+02  0.94359633382E+01  0.47787272977E+02  0.20000008810E+02 0.  0.
         12    1    1    2    0    0 -0.13488885962E+01  0.42341069915E+02 -0.94359633382E+01  0.43400727023E+02  0.00000000000E+00 0. -1.
         11    1    3    3    0    0 -0.59433201144E+01 -0.29879330784E+02  0.14184121122E+01  0.30497694262E+02  0.51100000000E-03 0. -1.
        -11    1    3    3    0    0 -0.79440350505E-01 -0.43572835709E+01  0.24762060904E+01  0.50123674795E+01  0.51100000000E-03 0.  1.
         12    1    3    3    0    0  0.73716490611E+01 -0.81044555602E+01  0.55413451355E+01  0.12277211235E+02  0.00000000000E+00 0. -1.
</event>
<event>
 7    1  0.8440037E-011  0.4778727E+02  0.7816164E-02  0.1312668E+00
        -11   -1    0    0    0    0  0.00000000000E+00  0.00000000000E+00  0.45593999997E+02  0.45594000000E+02  0.51100000000E-03 0. -1.
         11   -1    0    0    0    0 -0.00000000000E+00 -0.00000000000E+00 -0.45593999997E+02  0.45594000000E+02  0.51100000000E-03 0.  1.
    9900012    2    1    2    0    0  0.84107515280E+01 -0.17899533750E+01 -0.42540313770E+02  0.47787274545E+02  0.20000015959E+02 0.  0.
         12    1    1    2    0    0 -0.84107515280E+01  0.17899533750E+01  0.42540313770E+02  0.43400725455E+02  0.00000000000E+00 0. -1.
         11    1    3    3    0    0  0.34040973866E+01 -0.55413188672E+00 -0.70780672494E+01  0.78736254301E+01  0.51100000000E-03 0. -1.
        -11    1    3    3    0    0 -0.60106416027E+01  0.23209063039E+01 -0.94058183738E+01  0.11401045482E+02  0.51100000000E-03 0.  1.
        -12    1    3    3    0    0  0.11017295744E+02 -0.35567277922E+01 -0.26056428147E+02  0.28512603632E+02  0.00000000000E+00 0.  1.
</event>
<event>
 7    1  0.8440037E-011  0.4778727E+02  0.7816164E-02  0.1312668E+00
        -11   -1    0    0    0    0  0.00000000000E+00  0.00000000000E+00  0.45593999997E+02  0.45594000000E+02  0.51100000000E-03 0. -1.
         11   -1    0    0    0    0 -0.00000000000E+00 -0.00000000000E+00 -0.45593999997E+02  0.45594000000E+02  0.51100000000E-03 0.  1.
    9900012    2    1    2    0    0  0.18101307876E+02 -0.48199101750E+01 -0.39150152562E+02  0.47787270437E+02  0.19999997233E+02 0.  0.
         12    1    1    2    0    0 -0.18101307876E+02  0.48199101750E+01  0.39150152562E+02  0.43400729563E+02  0.00000000000E+00 0. -1.
         11    1    3    3    0    0 -0.17611802620E+01 -0.46359864508E+01 -0.10509153689E+02  0.11620517966E+02  0.51100000000E-03 0. -1.
        -11    1    3    3    0    0  0.99821445164E+01 -0.46506235612E+01 -0.17027118285E+02  0.20277925584E+02  0.51100000000E-03 0.  1.
         12    1    3    3    0    0  0.98803436219E+01  0.44666998370E+01 -0.11613880588E+02  0.15888826887E+02  0.00000000000E+00 0. -1.
</event>
<event>
 7    1  0.8440037E-011  0.4778727E+02  0.7816164E-02  0.1312668E+00
        -11   -1    0    0    0    0  0.00000000000E+00  0.00000000000E+00  0.45593999997E+02  0.45594000000E+02  0.51100000000E-03 0.  1.
         11   -1    0    0    0    0 -0.00000000000E+00 -0.00000000000E+00 -0.45593999997E+02  0.45594000000E+02  0.51100000000E-03 0. -1.
    9900012    2    1    2    0    0  0.89965084194E+01  0.38957271947E+02 -0.16882453460E+02  0.47787269175E+02  0.19999991478E+02 0.  0.
         12    1    1    2    0    0 -0.89965084194E+01 -0.38957271947E+02  0.16882453460E+02  0.43400730825E+02  0.00000000000E+00 0. -1.
         11    1    3    3    0    0  0.70287015020E+01  0.17284489176E+02 -0.30183330029E+01  0.18901495847E+02  0.51100000000E-03 0.  1.
        -11    1    3    3    0    0  0.73668755300E+01  0.10131937721E+02 -0.57797549129E+01  0.13796107573E+02  0.51100000000E-03 0. -1.
         12    1    3    3    0    0 -0.53990686127E+01  0.11540845050E+02 -0.80843655444E+01  0.15089665755E+02  0.00000000000E+00 0. -1.
</event>
<event>
 7    1  0.8440037E-011  0.4778727E+02  0.7816164E-02  0.1312668E+00
        -11   -1    0    0    0    0  0.00000000000E+00  0.00000000000E+00  0.45593999997E+02  0.45594000000E+02  0.51100000000E-03 0.  1.
         11   -1    0    0    0    0 -0.00000000000E+00 -0.00000000000E+00 -0.45593999997E+02  0.45594000000E+02  0.51100000000E-03 0. -1.
    9900012    2    1    2    0    0  0.26948394803E+02 -0.13766719158E+02  0.31110844543E+02  0.47787272045E+02  0.20000004563E+02 0.  0.
        -12    1    1    2    0    0 -0.26948394803E+02  0.13766719158E+02 -0.31110844543E+02  0.43400727955E+02  0.00000000000E+00 0.  1.
         11    1    3    3    0    0  0.11881230818E+02 -0.53243337093E+01  0.92254630535E+01  0.15956858839E+02  0.51100000000E-03 0. -1.
        -11    1    3    3    0    0  0.11514153788E+02 -0.16594105683E+01  0.21149749282E+02  0.24137963373E+02  0.51100000000E-03 0.  1.
        -12    1    3    3    0    0  0.35530101971E+01 -0.67829748800E+01  0.73563220839E+00  0.76924498327E+01  0.00000000000E+00 0.  1.
</event>
<event>
 7    1  0.8440037E-011  0.4778727E+02  0.7816164E-02  0.1312668E+00
        -11   -1    0    0    0    0  0.00000000000E+00  0.00000000000E+00  0.45593999997E+02  0.45594000000E+02  0.51100000000E-03 0.  1.
         11   -1    0    0    0    0 -0.00000000000E+00 -0.00000000000E+00 -0.45593999997E+02  0.45594000000E+02  0.51100000000E-03 0. -1.
    9900012    2    1    2    0    0 -0.39344482410E+02 -0.15481628325E+02  0.97956300265E+01  0.47787268678E+02  0.19999989209E+02 0.  0.
         12    1    1    2    0    0  0.39344482410E+02  0.15481628325E+02 -0.97956300265E+01  0.43400731322E+02  0.00000000000E+00 0. -1.
         11    1    3    3    0    0 -0.44131604448E+01 -0.48026283071E+01  0.49497711416E+01  0.81878848540E+01  0.51100000000E-03 0. -1.
        -11    1    3    3    0    0 -0.13950666643E+02 -0.88395297836E+00  0.81953148092E+01  0.16203877861E+02  0.51100000000E-03 0.  1.
         12    1    3    3    0    0 -0.20980655322E+02 -0.97950470395E+01 -0.33494559243E+01  0.23395505963E+02  0.00000000000E+00 0. -1.
</event>
<event>
 7    1  0.8440037E-011  0.4778727E+02  0.7816164E-02  0.1312668E+00
        -11   -1    0    0    0    0  0.00000000000E+00  0.00000000000E+00  0.45593999997E+02  0.45594000000E+02  0.51100000000E-03 0. -1.
         11   -1    0    0    0    0 -0.00000000000E+00 -0.00000000000E+00 -0.45593999997E+02  0.45594000000E+02  0.51100000000E-03 0.  1.
    9900012    2    1    2    0    0  0.25343719974E+02 -0.69438887094E+00 -0.35225522630E+02  0.47787265415E+02  0.19999974332E+02 0.  0.
         12    1    1    2    0    0 -0.25343719974E+02  0.69438887094E+00  0.35225522630E+02  0.43400734585E+02  0.00000000000E+00 0. -1.
         11    1    3    3    0    0  0.56450637491E+01  0.91427527905E+00 -0.15957711000E+02  0.16951436064E+02  0.51100000000E-03 0. -1.
        -11    1    3    3    0    0  0.17380288528E+02 -0.54056853023E+01 -0.19100007214E+02  0.26383823429E+02  0.51100000000E-03 0.  1.
         12    1    3    3    0    0  0.23183676969E+01  0.37970211523E+01 -0.16780441619E+00  0.44520059222E+01  0.00000000000E+00 0. -1.
</event>
<event>
 7    1  0.8440037E-011  0.4778728E+02  0.7816164E-02  0.1312668E+00
        -11   -1    0    0    0    0  0.00000000000E+00  0.00000000000E+00  0.45593999997E+02  0.45594000000E+02  0.51100000000E-03 0. -1.
         11   -1    0    0    0    0 -0.00000000000E+00 -0.00000000000E+00 -0.45593999997E+02  0.45594000000E+02  0.51100000000E-03 0.  1.
    9900012    2    1    2    0    0  0.18306185160E+02  0.38926802637E+01  0.39158058320E+02  0.47787275281E+02  0.20000019315E+02 0.  0.
        -12    1    1    2    0    0 -0.18306185160E+02 -0.38926802637E+01 -0.39158058320E+02  0.43400724719E+02  0.00000000000E+00 0.  1.
         11    1    3    3    0    0  0.17150338317E+02 -0.79388049288E+00  0.21223820335E+02  0.27298624517E+02  0.51100000000E-03 0. -1.
        -11    1    3    3    0    0 -0.10721298894E+00 -0.23065354256E+01  0.20518278971E+01  0.30889477618E+01  0.51100000000E-03 0.  1.
        -12    1    3    3    0    0  0.12630598318E+01  0.69930961822E+01  0.15882410088E+02  0.17399703002E+02  0.00000000000E+00 0.  1.
</event>
<event>
 7    1  0.8440037E-011  0.4778727E+02  0.7816164E-02  0.1312668E+00
        -11   -1    0    0    0    0  0.00000000000E+00  0.00000000000E+00  0.45593999997E+02  0.45594000000E+02  0.51100000000E-03 0. -1.
         11   -1    0    0    0    0 -0.00000000000E+00 -0.00000000000E+00 -0.45593999997E+02  0.45594000000E+02  0.51100000000E-03 0.  1.
    9900012    2    1    2    0    0  0.19081338872E+02 -0.26799503866E+02 -0.28307461349E+02  0.47787271105E+02  0.20000000275E+02 0.  0.
         12    1    1    2    0    0 -0.19081338872E+02  0.26799503866E+02  0.28307461349E+02  0.43400728895E+02  0.00000000000E+00 0. -1.
         11    1    3    3    0    0 -0.16287600985E+01 -0.76108057132E+00  0.61663789391E+00  0.19006171755E+01  0.51100000000E-03 0. -1.
        -11    1    3    3    0    0  0.35330051016E+01 -0.12489793991E+02 -0.15508529486E+02  0.20223539899E+02  0.51100000000E-03 0.  1.
         12    1    3    3    0    0  0.17177093869E+02 -0.13548629304E+02 -0.13415569757E+02  0.25663114030E+02  0.00000000000E+00 0. -1.
</event>
<event>
 7    1  0.8440037E-011  0.4778724E+02  0.7816164E-02  0.1312668E+00
        -11   -1    0    0    0    0  0.00000000000E+00  0.00000000000E+00  0.45593999997E+02  0.45594000000E+02  0.51100000000E-03 0. -1.
         11   -1    0    0    0    0 -0.00000000000E+00 -0.00000000000E+00 -0.45593999997E+02  0.45594000000E+02  0.51100000000E-03 0.  1.
    9900012    2    1    2    0    0 -0.11653969744E+02 -0.25222047114E+02 -0.33341549258E+02  0.47787244496E+02  0.19999878953E+02 0.  0.
         12    1    1    2    0    0  0.11653969744E+02  0.25222047114E+02  0.33341549258E+02  0.43400755504E+02  0.00000000000E+00 0. -1.
         11    1    3    3    0    0  0.10996984247E+01 -0.29892667925E+01  0.93393185399E+00  0.33192290598E+01  0.51100000000E-03 0. -1.
        -11    1    3    3    0    0 -0.62064774388E+01 -0.16952587324E+01 -0.11005794886E+02  0.12748403261E+02  0.51100000000E-03 0.  1.
        -12    1    3    3    0    0 -0.65471907301E+01 -0.20537521589E+02 -0.23269686226E+02  0.31719612175E+02  0.00000000000E+00 0.  1.
</event>
<event>
 7    1  0.8440037E-011  0.4778727E+02  0.7816164E-02  0.1312668E+00
        -11   -1    0    0    0    0  0.00000000000E+00  0.00000000000E+00  0.45593999997E+02  0.45594000000E+02  0.51100000000E-03 0. -1.
         11   -1    0    0    0    0 -0.00000000000E+00 -0.00000000000E+00 -0.45593999997E+02  0.45594000000E+02  0.51100000000E-03 0.  1.
    9900012    2    1    2    0    0  0.28218323122E+02  0.18628460382E+02  0.27209003495E+02  0.47787272273E+02  0.20000005603E+02 0.  0.
        -12    1    1    2    0    0 -0.28218323122E+02 -0.18628460382E+02 -0.27209003495E+02  0.43400727727E+02  0.00000000000E+00 0.  1.
         11    1    3    3    0    0  0.16837232337E+01  0.17378294120E+01  0.10610423952E+02  0.10882833808E+02  0.51100000000E-03 0.  1.
        -11    1    3    3    0    0  0.14910754070E+01  0.39463020134E+01  0.57587462154E-01  0.42189953813E+01  0.51100000000E-03 0. -1.
         12    1    3    3    0    0  0.25043524481E+02  0.12944328957E+02  0.16540992081E+02  0.32685443084E+02  0.00000000000E+00 0. -1.
</event>
<event>
 7    1  0.8440037E-011  0.4778726E+02  0.7816164E-02  0.1312668E+00
        -11   -1    0    0    0    0  0.00000000000E+00  0.00000000000E+00  0.45593999997E+02  0.45594000000E+02  0.51100000000E-03 0. -1.
         11   -1    0    0    0    0 -0.00000000000E+00 -0.00000000000E+00 -0.45593999997E+02  0.45594000000E+02  0.51100000000E-03 0.  1.
    9900012    2    1    2    0    0  0.20276687971E+02 -0.11417215295E+02  0.36635050858E+02  0.47787264620E+02  0.19999970710E+02 0.  0.
        -12    1    1    2    0    0 -0.20276687971E+02  0.11417215295E+02 -0.36635050858E+02  0.43400735380E+02  0.00000000000E+00 0.  1.
         11    1    3    3    0    0  0.99916076527E+01 -0.23601123745E+01  0.15360659229E+02  0.18475719366E+02  0.51100000000E-03 0. -1.
        -11    1    3    3    0    0  0.99974244257E+01  0.91900821661E+00  0.12414693902E+02  0.15966142182E+02  0.51100000000E-03 0.  1.
        -12    1    3    3    0    0  0.28765589246E+00 -0.99761111368E+01  0.88596977272E+01  0.13345403072E+02  0.00000000000E+00 0.  1.
</event>
<event>
 7    1  0.8440037E-011  0.4778727E+02  0.7816164E-02  0.1312668E+00
        -11   -1    0    0    0    0  0.00000000000E+00  0.00000000000E+00  0.45593999997E+02  0.45594000000E+02  0.51100000000E-03 0. -1.
         11   -1    0    0    0    0 -0.00000000000E+00 -0.00000000000E+00 -0.45593999997E+02  0.45594000000E+02  0.51100000000E-03 0.  1.
    9900012    2    1    2    0    0 -0.12989685134E+02  0.40428869238E+02  0.89664881544E+01  0.47787270771E+02  0.19999998754E+02 0.  0.
        -12    1    1    2    0    0  0.12989685134E+02 -0.40428869238E+02 -0.89664881544E+01  0.43400729229E+02  0.00000000000E+00 0.  1.
         11    1    3    3    0    0  0.50880488963E+01  0.85589876954E+01  0.22885748142E+01  0.10216755203E+02  0.51100000000E-03 0.  1.
        -11    1    3    3    0    0 -0.43742818787E+01  0.11791756740E+02  0.10636470239E+01  0.12621854627E+02  0.51100000000E-03 0. -1.
        -12    1    3    3    0    0 -0.13703452152E+02  0.20078124803E+02  0.56142663163E+01  0.24948660941E+02  0.00000000000E+00 0.  1.
</event>
<event>
 7    1  0.8440037E-011  0.4778724E+02  0.7816164E-02  0.1312668E+00
        -11   -1    0    0    0    0  0.00000000000E+00  0.00000000000E+00  0.45593999997E+02  0.45594000000E+02  0.51100000000E-03 0. -1.
         11   -1    0    0    0    0 -0.00000000000E+00 -0.00000000000E+00 -0.45593999997E+02  0.45594000000E+02  0.51100000000E-03 0.  1.
    9900012    2    1    2    0    0  0.96389988935E+01 -0.25115072644E+01 -0.42242258078E+02  0.47787235768E+02  0.19999839159E+02 0.  0.
         12    1    1    2    0    0 -0.96389988935E+01  0.25115072644E+01  0.42242258078E+02  0.43400764232E+02  0.00000000000E+00 0. -1.
         11    1    3    3    0    0  0.74295842331E+01 -0.14743413352E+01 -0.23933673655E+02  0.25103647925E+02  0.51100000000E-03 0. -1.
        -11    1    3    3    0    0  0.39698695421E+01 -0.33624306928E+01 -0.18988981950E+02  0.19688759233E+02  0.51100000000E-03 0.  1.
         12    1    3    3    0    0 -0.17604548817E+01  0.23252647637E+01  0.68039752704E+00  0.29948286105E+01  0.00000000000E+00 0. -1.
</event>
<event>
 7    1  0.8440037E-011  0.4778727E+02  0.7816164E-02  0.1312668E+00
        -11   -1    0    0    0    0  0.00000000000E+00  0.00000000000E+00  0.45593999997E+02  0.45594000000E+02  0.51100000000E-03 0. -1.
         11   -1    0    0    0    0 -0.00000000000E+00 -0.00000000000E+00 -0.45593999997E+02  0.45594000000E+02  0.51100000000E-03 0.  1.
    9900012    2    1    2    0    0  0.10288434059E+02 -0.40242754371E+02  0.12581426211E+02  0.47787269127E+02  0.19999991260E+02 0.  0.
        -12    1    1    2    0    0 -0.10288434059E+02  0.40242754371E+02 -0.12581426211E+02  0.43400730873E+02  0.00000000000E+00 0.  1.
         11    1    3    3    0    0  0.36996970384E+01 -0.25712000208E+01  0.36017641124E+01  0.57681481175E+01  0.51100000000E-03 0. -1.
        -11    1    3    3    0    0  0.57556894865E+01 -0.30598470121E+02  0.13113924275E+02  0.33784158201E+02  0.51100000000E-03 0.  1.
        -12    1    3    3    0    0  0.83304753366E+00 -0.70730842296E+01 -0.41342621770E+01  0.82349628087E+01  0.00000000000E+00 0.  1.
</event>
<event>
 7    1  0.8440037E-011  0.4778727E+02  0.7816164E-02  0.1312668E+00
        -11   -1    0    0    0    0  0.00000000000E+00  0.00000000000E+00  0.45593999997E+02  0.45594000000E+02  0.51100000000E-03 0. -1.
         11   -1    0    0    0    0 -0.00000000000E+00 -0.00000000000E+00 -0.45593999997E+02  0.45594000000E+02  0.51100000000E-03 0.  1.
    9900012    2    1    2    0    0  0.27655198649E+02  0.36906555976E+01 -0.33244433673E+02  0.47787270498E+02  0.19999997509E+02 0.  0.
         12    1    1    2    0    0 -0.27655198649E+02 -0.36906555976E+01  0.33244433673E+02  0.43400729502E+02  0.00000000000E+00 0. -1.
         11    1    3    3    0    0  0.14893037593E+02 -0.55135748022E+01 -0.12518557852E+02  0.20221680613E+02  0.51100000000E-03 0. -1.
        -11    1    3    3    0    0 -0.21458659511E+00  0.11675132156E+01  0.60788193981E+00  0.13336623371E+01  0.51100000000E-03 0.  1.
        -12    1    3    3    0    0  0.12976747651E+02  0.80367171841E+01 -0.21333757761E+02  0.26231927548E+02  0.00000000000E+00 0.  1.
</event>
<event>
 7    1  0.8440037E-011  0.4778727E+02  0.7816164E-02  0.1312668E+00
        -11   -1    0    0    0    0  0.00000000000E+00  0.00000000000E+00  0.45593999997E+02  0.45594000000E+02  0.51100000000E-03 0. -1.
         11   -1    0    0    0    0 -0.00000000000E+00 -0.00000000000E+00 -0.45593999997E+02  0.45594000000E+02  0.51100000000E-03 0.  1.
    9900012    2    1    2    0    0  0.56637617878E+00 -0.21962444885E+02  0.37429312156E+02  0.47787272175E+02  0.20000005154E+02 0.  0.
        -12    1    1    2    0    0 -0.56637617878E+00  0.21962444885E+02 -0.37429312156E+02  0.43400727825E+02  0.00000000000E+00 0.  1.
         11    1    3    3    0    0  0.26967158763E+01 -0.51727838973E+01  0.12969962105E+02  0.14221458681E+02  0.51100000000E-03 0. -1.
        -11    1    3    3    0    0 -0.66957779926E+01 -0.15694123488E+02  0.23021883656E+02  0.28655646605E+02  0.51100000000E-03 0.  1.
        -12    1    3    3    0    0  0.45654382951E+01 -0.10955374990E+01  0.14374663948E+01  0.49101668886E+01  0.00000000000E+00 0.  1.
</event>
<event>
 7    1  0.8440037E-011  0.4778727E+02  0.7816164E-02  0.1312668E+00
        -11   -1    0    0    0    0  0.00000000000E+00  0.00000000000E+00  0.45593999997E+02  0.45594000000E+02  0.51100000000E-03 0. -1.
         11   -1    0    0    0    0 -0.00000000000E+00 -0.00000000000E+00 -0.45593999997E+02  0.45594000000E+02  0.51100000000E-03 0.  1.
    9900012    2    1    2    0    0 -0.19762015066E+02 -0.22342699146E+02 -0.31526024482E+02  0.47787266547E+02  0.19999979496E+02 0.  0.
         12    1    1    2    0    0  0.19762015066E+02  0.22342699146E+02  0.31526024482E+02  0.43400733453E+02  0.00000000000E+00 0. -1.
         11    1    3    3    0    0  0.22802035679E+01 -0.35611532412E+01 -0.24288424384E+01  0.48765168482E+01  0.51100000000E-03 0. -1.
        -11    1    3    3    0    0 -0.68873539564E+01 -0.13940445473E+02 -0.15913066240E+02  0.22248535725E+02  0.51100000000E-03 0.  1.
        -12    1    3    3    0    0 -0.15154864677E+02 -0.48411004319E+01 -0.13184115804E+02  0.20662213974E+02  0.00000000000E+00 0.  1.
</event>
<event>
 7    1  0.8440037E-011  0.4778727E+02  0.7816164E-02  0.1312668E+00
        -11   -1    0    0    0    0  0.00000000000E+00  0.00000000000E+00  0.45593999997E+02  0.45594000000E+02  0.51100000000E-03 0. -1.
         11   -1    0    0    0    0 -0.00000000000E+00 -0.00000000000E+00 -0.45593999997E+02  0.45594000000E+02  0.51100000000E-03 0.  1.
    9900012    2    1    2    0    0 -0.20810352526E+02 -0.22167949277E+00 -0.38085478363E+02  0.47787267562E+02  0.19999984120E+02 0.  0.
         12    1    1    2    0    0  0.20810352526E+02  0.22167949277E+00  0.38085478363E+02  0.43400732438E+02  0.00000000000E+00 0. -1.
         11    1    3    3    0    0  0.25987723904E+01  0.15981689622E+01 -0.73739205882E+01  0.79801295147E+01  0.51100000000E-03 0. -1.
        -11    1    3    3    0    0 -0.47340868978E+01 -0.10231391648E+01 -0.13707403859E+02  0.14537926720E+02  0.51100000000E-03 0.  1.
        -12    1    3    3    0    0 -0.18675038018E+02 -0.79670929013E+00 -0.17004153916E+02  0.25269211327E+02  0.00000000000E+00 0.  1.
</event>
<event>
 7    1  0.8440037E-011  0.4778727E+02  0.7816164E-02  0.1312668E+00
        -11   -1    0    0    0    0  0.00000000000E+00  0.00000000000E+00  0.45593999997E+02  0.45594000000E+02  0.51100000000E-03 0. -1.
         11   -1    0    0    0    0 -0.00000000000E+00 -0.00000000000E+00 -0.45593999997E+02  0.45594000000E+02  0.51100000000E-03 0.  1.
    9900012    2    1    2    0    0 -0.34508996781E+02 -0.20945428097E+02 -0.15938678997E+02  0.47787270684E+02  0.19999998355E+02 0.  0.
         12    1    1    2    0    0  0.34508996781E+02  0.20945428097E+02  0.15938678997E+02  0.43400729316E+02  0.00000000000E+00 0. -1.
         11    1    3    3    0    0 -0.36487286633E+01  0.64342895401E+00 -0.33685804151E+01  0.50074500449E+01  0.51100000000E-03 0. -1.
        -11    1    3    3    0    0 -0.14998693128E+02 -0.31328890268E+01 -0.10027539673E+02  0.18311945319E+02  0.51100000000E-03 0.  1.
        -12    1    3    3    0    0 -0.15861574990E+02 -0.18455968025E+02 -0.25425589089E+01  0.24467875320E+02  0.00000000000E+00 0.  1.
</event>
<event>
 7    1  0.8440037E-011  0.4778727E+02  0.7816164E-02  0.1312668E+00
        -11   -1    0    0    0    0  0.00000000000E+00  0.00000000000E+00  0.45593999997E+02  0.45594000000E+02  0.51100000000E-03 0. -1.
         11   -1    0    0    0    0 -0.00000000000E+00 -0.00000000000E+00 -0.45593999997E+02  0.45594000000E+02  0.51100000000E-03 0.  1.
    9900012    2    1    2    0    0 -0.28357463207E+02 -0.18894111082E+01  0.32801031640E+02  0.47787271082E+02  0.20000000173E+02 0.  0.
        -12    1    1    2    0    0  0.28357463207E+02  0.18894111082E+01 -0.32801031640E+02  0.43400728918E+02  0.00000000000E+00 0.  1.
         11    1    3    3    0    0 -0.18278165855E+02 -0.81093954464E+01  0.22383701322E+02  0.30014725163E+02  0.51100000000E-03 0. -1.
        -11    1    3    3    0    0 -0.69477210609E+01  0.43957546871E+00  0.23103517761E+01  0.73349696743E+01  0.51100000000E-03 0.  1.
        -12    1    3    3    0    0 -0.31315762920E+01  0.57804088696E+01  0.81069785429E+01  0.10437576245E+02  0.00000000000E+00 0.  1.
</event>
<event>
 7    1  0.8440037E-011  0.4778727E+02  0.7816164E-02  0.1312668E+00
        -11   -1    0    0    0    0  0.00000000000E+00  0.00000000000E+00  0.45593999997E+02  0.45594000000E+02  0.51100000000E-03 0.  1.
         11   -1    0    0    0    0 -0.00000000000E+00 -0.00000000000E+00 -0.45593999997E+02  0.45594000000E+02  0.51100000000E-03 0. -1.
    9900012    2    1    2    0    0  0.69027315325E+01 -0.40999815865E+02 -0.12449515021E+02  0.47787273879E+02  0.20000012922E+02 0.  0.
         12    1    1    2    0    0 -0.69027315325E+01  0.40999815865E+02  0.12449515021E+02  0.43400726121E+02  0.00000000000E+00 0. -1.
         11    1    3    3    0    0 -0.17904823907E+00 -0.12581579986E+02 -0.79892602463E+01  0.14904915054E+02  0.51100000000E-03 0.  1.
        -11    1    3    3    0    0 -0.91494889803E+00 -0.14623251831E+00  0.25186716130E+01  0.26836956591E+01  0.51100000000E-03 0. -1.
         12    1    3    3    0    0  0.79967286696E+01 -0.28272003361E+02 -0.69789263881E+01  0.30198663165E+02  0.00000000000E+00 0. -1.
</event>
<event>
 7    1  0.8440037E-011  0.4778727E+02  0.7816164E-02  0.1312668E+00
        -11   -1    0    0    0    0  0.00000000000E+00  0.00000000000E+00  0.45593999997E+02  0.45594000000E+02  0.51100000000E-03 0. -1.
         11   -1    0    0    0    0 -0.00000000000E+00 -0.00000000000E+00 -0.45593999997E+02  0.45594000000E+02  0.51100000000E-03 0.  1.
    9900012    2    1    2    0    0 -0.13944360164E+02 -0.33937477136E+02 -0.23182441651E+02  0.47787272637E+02  0.20000007260E+02 0.  0.
         12    1    1    2    0    0  0.13944360164E+02  0.33937477136E+02  0.23182441651E+02  0.43400727363E+02  0.00000000000E+00 0. -1.
         11    1    3    3    0    0 -0.34626208257E+01  0.11326708986E+01 -0.17348936764E+01  0.40351632775E+01  0.51100000000E-03 0. -1.
        -11    1    3    3    0    0  0.19408587899E+01 -0.73926438552E+01 -0.27896763286E+01  0.81363634562E+01  0.51100000000E-03 0.  1.
        -12    1    3    3    0    0 -0.12422598128E+02 -0.27677504180E+02 -0.18657871646E+02  0.35615745903E+02  0.00000000000E+00 0.  1.
</event>
<event>
 7    1  0.8440037E-011  0.4778727E+02  0.7816164E-02  0.1312668E+00
        -11   -1    0    0    0    0  0.00000000000E+00  0.00000000000E+00  0.45593999997E+02  0.45594000000E+02  0.51100000000E-03 0. -1.
         11   -1    0    0    0    0 -0.00000000000E+00 -0.00000000000E+00 -0.45593999997E+02  0.45594000000E+02  0.51100000000E-03 0.  1.
    9900012    2    1    2    0    0  0.24987197852E+02  0.82685017497E+01 -0.34509347878E+02  0.47787271105E+02  0.20000000276E+02 0.  0.
         12    1    1    2    0    0 -0.24987197852E+02 -0.82685017497E+01  0.34509347878E+02  0.43400728895E+02  0.00000000000E+00 0. -1.
         11    1    3    3    0    0  0.35092041378E+01 -0.92816330486E+00 -0.10160315667E+02  0.10789254632E+02  0.51100000000E-03 0. -1.
        -11    1    3    3    0    0  0.17773688864E+02 -0.22389739485E-01 -0.17404858706E+02  0.24876366776E+02  0.51100000000E-03 0.  1.
         12    1    3    3    0    0  0.37043048502E+01  0.92190547940E+01 -0.69441735057E+01  0.12121649698E+02  0.00000000000E+00 0. -1.
</event>
<event>
 7    1  0.8440037E-011  0.4778727E+02  0.7816164E-02  0.1312668E+00
        -11   -1    0    0    0    0  0.00000000000E+00  0.00000000000E+00  0.45593999997E+02  0.45594000000E+02  0.51100000000E-03 0. -1.
         11   -1    0    0    0    0 -0.00000000000E+00 -0.00000000000E+00 -0.45593999997E+02  0.45594000000E+02  0.51100000000E-03 0.  1.
    9900012    2    1    2    0    0 -0.36597976117E+02  0.15323966424E+02  0.17589415180E+02  0.47787270407E+02  0.19999997093E+02 0.  0.
        -12    1    1    2    0    0  0.36597976117E+02 -0.15323966424E+02 -0.17589415180E+02  0.43400729593E+02  0.00000000000E+00 0.  1.
         11    1    3    3    0    0 -0.25513020169E+02  0.10551152345E+02  0.15860586195E+02  0.31840213703E+02  0.51100000000E-03 0. -1.
        -11    1    3    3    0    0 -0.97986038975E+01  0.76415022430E+01  0.25777875320E+01  0.12690554901E+02  0.51100000000E-03 0.  1.
        -12    1    3    3    0    0 -0.12863520505E+01 -0.28686881640E+01 -0.84895854640E+00  0.32565018031E+01  0.00000000000E+00 0.  1.
</event>
<event>
 7    1  0.8440037E-011  0.4778727E+02  0.7816164E-02  0.1312668E+00
        -11   -1    0    0    0    0  0.00000000000E+00  0.00000000000E+00  0.45593999997E+02  0.45594000000E+02  0.51100000000E-03 0.  1.
         11   -1    0    0    0    0 -0.00000000000E+00 -0.00000000000E+00 -0.45593999997E+02  0.45594000000E+02  0.51100000000E-03 0. -1.
    9900012    2    1    2    0    0 -0.36989372026E+02  0.10623922804E+02  0.20063443652E+02  0.47787272473E+02  0.20000006515E+02 0.  0.
        -12    1    1    2    0    0  0.36989372026E+02 -0.10623922804E+02 -0.20063443652E+02  0.43400727527E+02  0.00000000000E+00 0.  1.
         11    1    3    3    0    0 -0.94611010395E+01 -0.71058530651E+00  0.10829017707E+02  0.14397395220E+02  0.51100000000E-03 0. -1.
        -11    1    3    3    0    0 -0.23259377441E+02  0.76829629753E+01  0.11829008969E+02  0.27202058974E+02  0.51100000000E-03 0.  1.
         12    1    3    3    0    0 -0.42688935461E+01  0.36515451357E+01 -0.25945830236E+01  0.61878182789E+01  0.00000000000E+00 0. -1.
</event>
<event>
 7    1  0.8440037E-011  0.4778727E+02  0.7816164E-02  0.1312668E+00
        -11   -1    0    0    0    0  0.00000000000E+00  0.00000000000E+00  0.45593999997E+02  0.45594000000E+02  0.51100000000E-03 0. -1.
         11   -1    0    0    0    0 -0.00000000000E+00 -0.00000000000E+00 -0.45593999997E+02  0.45594000000E+02  0.51100000000E-03 0.  1.
    9900012    2    1    2    0    0 -0.10256078525E+01 -0.19510559323E+02 -0.38754475425E+02  0.47787272333E+02  0.20000005876E+02 0.  0.
         12    1    1    2    0    0  0.10256078525E+01  0.19510559323E+02  0.38754475425E+02  0.43400727667E+02  0.00000000000E+00 0. -1.
         11    1    3    3    0    0  0.58795374906E+01 -0.38393823001E+01 -0.28917878957E+01  0.75942251115E+01  0.51100000000E-03 0. -1.
        -11    1    3    3    0    0 -0.10919534070E+01 -0.83671796568E+01 -0.13004912409E+02  0.15502574130E+02  0.51100000000E-03 0.  1.
         12    1    3    3    0    0 -0.58131919360E+01 -0.73039973662E+01 -0.22857775120E+02  0.24690473091E+02  0.00000000000E+00 0. -1.
</event>
<event>
 7    1  0.8440037E-011  0.4778728E+02  0.7816164E-02  0.1312668E+00
        -11   -1    0    0    0    0  0.00000000000E+00  0.00000000000E+00  0.45593999997E+02  0.45594000000E+02  0.51100000000E-03 0. -1.
         11   -1    0    0    0    0 -0.00000000000E+00 -0.00000000000E+00 -0.45593999997E+02  0.45594000000E+02  0.51100000000E-03 0.  1.
    9900012    2    1    2    0    0 -0.17835652009E+02  0.10264926393E+02  0.38211821892E+02  0.47787279628E+02  0.20000039138E+02 0.  0.
        -12    1    1    2    0    0  0.17835652009E+02 -0.10264926393E+02 -0.38211821892E+02  0.43400720372E+02  0.00000000000E+00 0.  1.
         11    1    3    3    0    0 -0.15482735745E+02  0.12033458770E+02  0.21224753409E+02  0.28896529093E+02  0.51100000000E-03 0. -1.
        -11    1    3    3    0    0 -0.64778864991E+00  0.28236969696E+01  0.95956769025E+01  0.10023467972E+02  0.51100000000E-03 0.  1.
        -12    1    3    3    0    0 -0.17051276140E+01 -0.45922293464E+01  0.73913915810E+01  0.88672825631E+01  0.00000000000E+00 0.  1.
</event>
<event>
 7    1  0.8440037E-011  0.4778727E+02  0.7816164E-02  0.1312668E+00
        -11   -1    0    0    0    0  0.00000000000E+00  0.00000000000E+00  0.45593999997E+02  0.45594000000E+02  0.51100000000E-03 0. -1.
         11   -1    0    0    0    0 -0.00000000000E+00 -0.00000000000E+00 -0.45593999997E+02  0.45594000000E+02  0.51100000000E-03 0.  1.
    9900012    2    1    2    0    0 -0.77945193731E+00  0.16938714918E+02  0.39951166869E+02  0.47787270252E+02  0.19999996389E+02 0.  0.
        -12    1    1    2    0    0  0.77945193731E+00 -0.16938714918E+02 -0.39951166869E+02  0.43400729748E+02  0.00000000000E+00 0.  1.
         11    1    3    3    0    0  0.44229566551E+00  0.66957272730E+01  0.17020056309E+02  0.18295100606E+02  0.51100000000E-03 0. -1.
        -11    1    3    3    0    0  0.57563383643E+01  0.48282709827E+01  0.37976076937E+01  0.84183998778E+01  0.51100000000E-03 0.  1.
        -12    1    3    3    0    0 -0.69780859671E+01  0.54147166628E+01  0.19133502867E+02  0.21073769768E+02  0.00000000000E+00 0.  1.
</event>
<event>
 7    1  0.8440037E-011  0.4778727E+02  0.7816164E-02  0.1312668E+00
        -11   -1    0    0    0    0  0.00000000000E+00  0.00000000000E+00  0.45593999997E+02  0.45594000000E+02  0.51100000000E-03 0. -1.
         11   -1    0    0    0    0 -0.00000000000E+00 -0.00000000000E+00 -0.45593999997E+02  0.45594000000E+02  0.51100000000E-03 0.  1.
    9900012    2    1    2    0    0 -0.52914766716E+01 -0.28255237779E+02  0.32515613335E+02  0.47787270768E+02  0.19999998740E+02 0.  0.
        -12    1    1    2    0    0  0.52914766716E+01  0.28255237779E+02 -0.32515613335E+02  0.43400729232E+02  0.00000000000E+00 0.  1.
         11    1    3    3    0    0  0.17890966599E+01 -0.12663917191E+02  0.10990025034E+02  0.16862867964E+02  0.51100000000E-03 0.  1.
        -11    1    3    3    0    0 -0.66458332132E+01 -0.17999182879E+02  0.16384372130E+02  0.25230642753E+02  0.51100000000E-03 0. -1.
        -12    1    3    3    0    0 -0.43474011832E+00  0.24078622912E+01  0.51412161719E+01  0.56937600503E+01  0.00000000000E+00 0.  1.
</event>
<event>
 7    1  0.8440037E-011  0.4778727E+02  0.7816164E-02  0.1312668E+00
        -11   -1    0    0    0    0  0.00000000000E+00  0.00000000000E+00  0.45593999997E+02  0.45594000000E+02  0.51100000000E-03 0. -1.
         11   -1    0    0    0    0 -0.00000000000E+00 -0.00000000000E+00 -0.45593999997E+02  0.45594000000E+02  0.51100000000E-03 0.  1.
    9900012    2    1    2    0    0 -0.25991510959E+02  0.31705406416E+02 -0.14241910067E+02  0.47787269127E+02  0.19999991259E+02 0.  0.
         12    1    1    2    0    0  0.25991510959E+02 -0.31705406416E+02  0.14241910067E+02  0.43400730873E+02  0.00000000000E+00 0. -1.
         11    1    3    3    0    0 -0.16948644646E+02  0.13589390552E+02 -0.69822973983E+01  0.22818426066E+02  0.51100000000E-03 0. -1.
        -11    1    3    3    0    0 -0.10539415447E+02  0.17287075141E+02 -0.31146581472E+01  0.20484709921E+02  0.51100000000E-03 0.  1.
         12    1    3    3    0    0  0.14965491347E+01  0.82894072274E+00 -0.41449545215E+01  0.44841331402E+01  0.00000000000E+00 0. -1.
</event>
<event>
 7    1  0.8440037E-011  0.4778727E+02  0.7816164E-02  0.1312668E+00
        -11   -1    0    0    0    0  0.00000000000E+00  0.00000000000E+00  0.45593999997E+02  0.45594000000E+02  0.51100000000E-03 0. -1.
         11   -1    0    0    0    0 -0.00000000000E+00 -0.00000000000E+00 -0.45593999997E+02  0.45594000000E+02  0.51100000000E-03 0.  1.
    9900012    2    1    2    0    0 -0.12082685750E+02  0.13233494200E+02 -0.39528556510E+02  0.47787269091E+02  0.19999991095E+02 0.  0.
         12    1    1    2    0    0  0.12082685750E+02 -0.13233494200E+02  0.39528556510E+02  0.43400730909E+02  0.00000000000E+00 0. -1.
         11    1    3    3    0    0 -0.18006859164E+01  0.81148798933E+01 -0.81717277227E+01  0.11656366487E+02  0.51100000000E-03 0. -1.
        -11    1    3    3    0    0 -0.49716213182E+01  0.64631130913E+01 -0.58323723861E+01  0.10025239013E+02  0.51100000000E-03 0.  1.
         12    1    3    3    0    0 -0.53103785156E+01 -0.13444987847E+01 -0.25524456401E+02  0.26105663591E+02  0.00000000000E+00 0. -1.
</event>
<event>
 7    1  0.8440037E-011  0.4778727E+02  0.7816164E-02  0.1312668E+00
        -11   -1    0    0    0    0  0.00000000000E+00  0.00000000000E+00  0.45593999997E+02  0.45594000000E+02  0.51100000000E-03 0. -1.
         11   -1    0    0    0    0 -0.00000000000E+00 -0.00000000000E+00 -0.45593999997E+02  0.45594000000E+02  0.51100000000E-03 0.  1.
    9900012    2    1    2    0    0  0.12292987220E+02  0.52296396379E+00  0.41620094728E+02  0.47787270613E+02  0.19999998034E+02 0.  0.
        -12    1    1    2    0    0 -0.12292987220E+02 -0.52296396379E+00 -0.41620094728E+02  0.43400729387E+02  0.00000000000E+00 0.  1.
         11    1    3    3    0    0 -0.44094176766E+01  0.20965087904E+00  0.15968727660E+02  0.16567654665E+02  0.51100000000E-03 0. -1.
        -11    1    3    3    0    0  0.26570109417E+01 -0.16856772154E+01  0.78456773462E+01  0.84531572859E+01  0.51100000000E-03 0.  1.
        -12    1    3    3    0    0  0.14045393955E+02  0.19989903002E+01  0.17805689722E+02  0.22766458663E+02  0.00000000000E+00 0.  1.
</event>
<event>
 7    1  0.8440037E-011  0.4778725E+02  0.7816164E-02  0.1312668E+00
        -11   -1    0    0    0    0  0.00000000000E+00  0.00000000000E+00  0.45593999997E+02  0.45594000000E+02  0.51100000000E-03 0. -1.
         11   -1    0    0    0    0 -0.00000000000E+00 -0.00000000000E+00 -0.45593999997E+02  0.45594000000E+02  0.51100000000E-03 0.  1.
    9900012    2    1    2    0    0  0.10093148889E+02 -0.89778160296E+01  0.41245028704E+02  0.47787248533E+02  0.19999897360E+02 0.  0.
        -12    1    1    2    0    0 -0.10093148889E+02  0.89778160296E+01 -0.41245028704E+02  0.43400751467E+02  0.00000000000E+00 0.  1.
         11    1    3    3    0    0  0.71970773555E+01 -0.21564002971E+01  0.25705185906E+02  0.26780675261E+02  0.51100000000E-03 0. -1.
        -11    1    3    3    0    0 -0.18961877232E+01  0.27827753663E+01  0.43507206212E+01  0.55016485535E+01  0.51100000000E-03 0.  1.
        -12    1    3    3    0    0  0.47922592563E+01 -0.96041910988E+01  0.11189122177E+02  0.15504924719E+02  0.00000000000E+00 0.  1.
</event>
<event>
 7    1  0.8440037E-011  0.4778727E+02  0.7816164E-02  0.1312668E+00
        -11   -1    0    0    0    0  0.00000000000E+00  0.00000000000E+00  0.45593999997E+02  0.45594000000E+02  0.51100000000E-03 0. -1.
         11   -1    0    0    0    0 -0.00000000000E+00 -0.00000000000E+00 -0.45593999997E+02  0.45594000000E+02  0.51100000000E-03 0.  1.
    9900012    2    1    2    0    0  0.82761309617E+01  0.32693757259E+01  0.42478700204E+02  0.47787272675E+02  0.20000007435E+02 0.  0.
        -12    1    1    2    0    0 -0.82761309617E+01 -0.32693757259E+01 -0.42478700204E+02  0.43400727325E+02  0.00000000000E+00 0.  1.
         11    1    3    3    0    0  0.48495906882E+01  0.11454527263E+01  0.10445049341E+02  0.11572797751E+02  0.51100000000E-03 0.  1.
        -11    1    3    3    0    0  0.91786558008E+01  0.21162742713E+01  0.26911294771E+02  0.28512175042E+02  0.51100000000E-03 0. -1.
        -12    1    3    3    0    0 -0.57521155273E+01  0.76487282996E-02  0.51223560913E+01  0.77022998818E+01  0.00000000000E+00 0.  1.
</event>
<event>
 7    1  0.8440037E-011  0.4778727E+02  0.7816164E-02  0.1312668E+00
        -11   -1    0    0    0    0  0.00000000000E+00  0.00000000000E+00  0.45593999997E+02  0.45594000000E+02  0.51100000000E-03 0. -1.
         11   -1    0    0    0    0 -0.00000000000E+00 -0.00000000000E+00 -0.45593999997E+02  0.45594000000E+02  0.51100000000E-03 0.  1.
    9900012    2    1    2    0    0 -0.18307304320E+02 -0.23161145981E+01  0.39282331529E+02  0.47787270183E+02  0.19999996073E+02 0.  0.
        -12    1    1    2    0    0  0.18307304320E+02  0.23161145981E+01 -0.39282331529E+02  0.43400729817E+02  0.00000000000E+00 0.  1.
         11    1    3    3    0    0 -0.51176495735E+01  0.91538140045E+00  0.18872141143E+02  0.19575136573E+02  0.51100000000E-03 0. -1.
        -11    1    3    3    0    0 -0.87601641037E+01  0.49891952037E+01  0.11675439938E+02  0.15425577523E+02  0.51100000000E-03 0.  1.
         12    1    3    3    0    0 -0.44294906428E+01 -0.82206912022E+01  0.87347504475E+01  0.12786556087E+02  0.00000000000E+00 0. -1.
</event>
<event>
 7    1  0.8440037E-011  0.4778727E+02  0.7816164E-02  0.1312668E+00
        -11   -1    0    0    0    0  0.00000000000E+00  0.00000000000E+00  0.45593999997E+02  0.45594000000E+02  0.51100000000E-03 0. -1.
         11   -1    0    0    0    0 -0.00000000000E+00 -0.00000000000E+00 -0.45593999997E+02  0.45594000000E+02  0.51100000000E-03 0.  1.
    9900012    2    1    2    0    0 -0.32184280116E+01  0.37273960006E+02 -0.21998114264E+02  0.47787269538E+02  0.19999993134E+02 0.  0.
         12    1    1    2    0    0  0.32184280116E+01 -0.37273960006E+02  0.21998114264E+02  0.43400730462E+02  0.00000000000E+00 0. -1.
         11    1    3    3    0    0 -0.61494154071E+00 -0.13963502599E+00  0.10373129373E+01  0.12139478695E+01  0.51100000000E-03 0. -1.
        -11    1    3    3    0    0 -0.58035274612E+01  0.17859988731E+02 -0.18257760489E+02  0.26191715232E+02  0.51100000000E-03 0.  1.
        -12    1    3    3    0    0  0.32000409902E+01  0.19553606301E+02 -0.47776667120E+01  0.20381606437E+02  0.00000000000E+00 0.  1.
</event>
<event>
 7    1  0.8440037E-011  0.4778727E+02  0.7816164E-02  0.1312668E+00
        -11   -1    0    0    0    0  0.00000000000E+00  0.00000000000E+00  0.45593999997E+02  0.45594000000E+02  0.51100000000E-03 0. -1.
         11   -1    0    0    0    0 -0.00000000000E+00 -0.00000000000E+00 -0.45593999997E+02  0.45594000000E+02  0.51100000000E-03 0.  1.
    9900012    2    1    2    0    0 -0.22604327759E+02  0.16737215680E+02  0.33053495874E+02  0.47787267153E+02  0.19999982258E+02 0.  0.
        -12    1    1    2    0    0  0.22604327759E+02 -0.16737215680E+02 -0.33053495874E+02  0.43400732847E+02  0.00000000000E+00 0.  1.
         11    1    3    3    0    0 -0.12280968212E+02  0.35041104033E+00  0.13866886245E+02  0.18526616057E+02  0.51100000000E-03 0. -1.
        -11    1    3    3    0    0 -0.99312517935E+01  0.58562030363E+01  0.10716631978E+02  0.15740745770E+02  0.51100000000E-03 0.  1.
        -12    1    3    3    0    0 -0.39210775377E+00  0.10530601604E+02  0.84699776512E+01  0.13519905327E+02  0.00000000000E+00 0.  1.
</event>
<event>
 7    1  0.8440037E-011  0.4778727E+02  0.7816164E-02  0.1312668E+00
        -11   -1    0    0    0    0  0.00000000000E+00  0.00000000000E+00  0.45593999997E+02  0.45594000000E+02  0.51100000000E-03 0. -1.
         11   -1    0    0    0    0 -0.00000000000E+00 -0.00000000000E+00 -0.45593999997E+02  0.45594000000E+02  0.51100000000E-03 0.  1.
    9900012    2    1    2    0    0  0.36627945865E+01 -0.75719363235E+01 -0.42577844031E+02  0.47787273206E+02  0.20000009856E+02 0.  0.
         12    1    1    2    0    0 -0.36627945865E+01  0.75719363235E+01  0.42577844031E+02  0.43400726794E+02  0.00000000000E+00 0. -1.
         11    1    3    3    0    0  0.16730840877E+01 -0.28801828121E+01 -0.37898915739E+01  0.50455863682E+01  0.51100000000E-03 0. -1.
        -11    1    3    3    0    0  0.22575786323E+01  0.58640700782E+01 -0.22249852092E+02  0.23120118892E+02  0.51100000000E-03 0.  1.
        -12    1    3    3    0    0 -0.26786813341E+00 -0.10555823590E+02 -0.16538100365E+02  0.19621567946E+02  0.00000000000E+00 0.  1.
</event>
<event>
 7    1  0.8440037E-011  0.4778725E+02  0.7816164E-02  0.1312668E+00
        -11   -1    0    0    0    0  0.00000000000E+00  0.00000000000E+00  0.45593999997E+02  0.45594000000E+02  0.51100000000E-03 0. -1.
         11   -1    0    0    0    0 -0.00000000000E+00 -0.00000000000E+00 -0.45593999997E+02  0.45594000000E+02  0.51100000000E-03 0.  1.
    9900012    2    1    2    0    0 -0.17816181646E+02  0.27099433437E+01 -0.39482465675E+02  0.47787248657E+02  0.19999897925E+02 0.  0.
         12    1    1    2    0    0  0.17816181646E+02 -0.27099433437E+01  0.39482465675E+02  0.43400751343E+02  0.00000000000E+00 0. -1.
         11    1    3    3    0    0 -0.16465444463E+02 -0.35718331226E+00 -0.22733839403E+02  0.28072511387E+02  0.51100000000E-03 0. -1.
        -11    1    3    3    0    0 -0.12198110840E+01 -0.75018292511E+00  0.87750858608E+00  0.16795044154E+01  0.51100000000E-03 0.  1.
        -12    1    3    3    0    0 -0.13092609908E+00  0.38173095810E+01 -0.17626134858E+02  0.18035232855E+02  0.00000000000E+00 0.  1.
</event>
<event>
 7    1  0.8440037E-011  0.4778727E+02  0.7816164E-02  0.1312668E+00
        -11   -1    0    0    0    0  0.00000000000E+00  0.00000000000E+00  0.45593999997E+02  0.45594000000E+02  0.51100000000E-03 0. -1.
         11   -1    0    0    0    0 -0.00000000000E+00 -0.00000000000E+00 -0.45593999997E+02  0.45594000000E+02  0.51100000000E-03 0.  1.
    9900012    2    1    2    0    0 -0.22431610843E+02  0.35088592097E+02 -0.12216249259E+02  0.47787271822E+02  0.20000003547E+02 0.  0.
         12    1    1    2    0    0  0.22431610843E+02 -0.35088592097E+02  0.12216249259E+02  0.43400728178E+02  0.00000000000E+00 0. -1.
         11    1    3    3    0    0  0.19062126731E+01  0.82345034815E+00  0.34693929961E+00  0.21052516167E+01  0.51100000000E-03 0. -1.
        -11    1    3    3    0    0 -0.56234113530E+01  0.14716455194E+02  0.21197934312E+00  0.15755689265E+02  0.51100000000E-03 0.  1.
         12    1    3    3    0    0 -0.18714412163E+02  0.19548686556E+02 -0.12775167902E+02  0.29926330941E+02  0.00000000000E+00 0. -1.
</event>
<event>
 7    1  0.8440037E-011  0.4778732E+02  0.7816164E-02  0.1312668E+00
        -11   -1    0    0    0    0  0.00000000000E+00  0.00000000000E+00  0.45593999997E+02  0.45594000000E+02  0.51100000000E-03 0. -1.
         11   -1    0    0    0    0 -0.00000000000E+00 -0.00000000000E+00 -0.45593999997E+02  0.45594000000E+02  0.51100000000E-03 0.  1.
    9900012    2    1    2    0    0 -0.70228376148E+01 -0.48072425237E+01  0.42558072034E+02  0.47787316548E+02  0.20000207467E+02 0.  0.
        -12    1    1    2    0    0  0.70228376148E+01  0.48072425237E+01 -0.42558072034E+02  0.43400683452E+02  0.00000000000E+00 0.  1.
         11    1    3    3    0    0 -0.38047142873E+01 -0.49306786671E+01  0.86155262049E+01  0.10630838865E+02  0.51100000000E-03 0. -1.
        -11    1    3    3    0    0 -0.90964494265E+01 -0.91802100268E+00  0.20117963815E+02  0.22097977804E+02  0.51100000000E-03 0.  1.
         12    1    3    3    0    0  0.58783260990E+01  0.10414571461E+01  0.13824582015E+02  0.15058499878E+02  0.00000000000E+00 0. -1.
</event>
<event>
 7    1  0.8440037E-011  0.4778727E+02  0.7816164E-02  0.1312668E+00
        -11   -1    0    0    0    0  0.00000000000E+00  0.00000000000E+00  0.45593999997E+02  0.45594000000E+02  0.51100000000E-03 0. -1.
         11   -1    0    0    0    0 -0.00000000000E+00 -0.00000000000E+00 -0.45593999997E+02  0.45594000000E+02  0.51100000000E-03 0.  1.
    9900012    2    1    2    0    0  0.13844145068E+02 -0.97214255489E+00 -0.41121992468E+02  0.47787266385E+02  0.19999978756E+02 0.  0.
         12    1    1    2    0    0 -0.13844145068E+02  0.97214255489E+00  0.41121992468E+02  0.43400733615E+02  0.00000000000E+00 0. -1.
         11    1    3    3    0    0 -0.14283555978E+01  0.87982858312E-01  0.54814746862E-02  0.14310733750E+01  0.51100000000E-03 0. -1.
        -11    1    3    3    0    0  0.11136357747E+02 -0.53565618526E+01 -0.14418932757E+02  0.18989914187E+02  0.51100000000E-03 0.  1.
        -12    1    3    3    0    0  0.41361429186E+01  0.42964364394E+01 -0.26708541186E+02  0.27366278823E+02  0.00000000000E+00 0.  1.
</event>
<event>
 7    1  0.8440037E-011  0.4778727E+02  0.7816164E-02  0.1312668E+00
        -11   -1    0    0    0    0  0.00000000000E+00  0.00000000000E+00  0.45593999997E+02  0.45594000000E+02  0.51100000000E-03 0. -1.
         11   -1    0    0    0    0 -0.00000000000E+00 -0.00000000000E+00 -0.45593999997E+02  0.45594000000E+02  0.51100000000E-03 0.  1.
    9900012    2    1    2    0    0  0.75326465140E+01  0.30660376421E+02  0.29779587975E+02  0.47787270677E+02  0.19999998327E+02 0.  0.
        -12    1    1    2    0    0 -0.75326465140E+01 -0.30660376421E+02 -0.29779587975E+02  0.43400729323E+02  0.00000000000E+00 0.  1.
         11    1    3    3    0    0  0.10993392411E+00  0.20766222586E+02  0.17031449423E+02  0.26857370602E+02  0.51100000000E-03 0. -1.
        -11    1    3    3    0    0 -0.25178162014E+01  0.31493531819E+01  0.57643155050E+01  0.70345687423E+01  0.51100000000E-03 0.  1.
        -12    1    3    3    0    0  0.99405287913E+01  0.67448006530E+01  0.69838230471E+01  0.13895331333E+02  0.00000000000E+00 0.  1.
</event>
<event>
 7    1  0.8440037E-011  0.4778727E+02  0.7816164E-02  0.1312668E+00
        -11   -1    0    0    0    0  0.00000000000E+00  0.00000000000E+00  0.45593999997E+02  0.45594000000E+02  0.51100000000E-03 0. -1.
         11   -1    0    0    0    0 -0.00000000000E+00 -0.00000000000E+00 -0.45593999997E+02  0.45594000000E+02  0.51100000000E-03 0.  1.
    9900012    2    1    2    0    0 -0.29208853080E+02  0.13258516431E+02 -0.29234874085E+02  0.47787271677E+02  0.20000002885E+02 0.  0.
         12    1    1    2    0    0  0.29208853080E+02 -0.13258516431E+02  0.29234874085E+02  0.43400728323E+02  0.00000000000E+00 0. -1.
         11    1    3    3    0    0  0.10142529920E+01 -0.90146585653E+00  0.99846565004E+00  0.16847206705E+01  0.51100000000E-03 0. -1.
        -11    1    3    3    0    0 -0.58249737303E+01  0.64980341755E+01 -0.44810414030E+01  0.98099184208E+01  0.51100000000E-03 0.  1.
        -12    1    3    3    0    0 -0.24398132342E+02  0.76619481123E+01 -0.25752298332E+02  0.36292632586E+02  0.00000000000E+00 0.  1.
</event>
<event>
 7    1  0.8440037E-011  0.4778727E+02  0.7816164E-02  0.1312668E+00
        -11   -1    0    0    0    0  0.00000000000E+00  0.00000000000E+00  0.45593999997E+02  0.45594000000E+02  0.51100000000E-03 0. -1.
         11   -1    0    0    0    0 -0.00000000000E+00 -0.00000000000E+00 -0.45593999997E+02  0.45594000000E+02  0.51100000000E-03 0.  1.
    9900012    2    1    2    0    0  0.85622517272E+01  0.64719596774E+01  0.42052646565E+02  0.47787268441E+02  0.19999988131E+02 0.  0.
        -12    1    1    2    0    0 -0.85622517272E+01 -0.64719596774E+01 -0.42052646565E+02  0.43400731559E+02  0.00000000000E+00 0.  1.
         11    1    3    3    0    0  0.13477546033E+01  0.29655157996E+01  0.23845139539E+02  0.24066603547E+02  0.51100000000E-03 0. -1.
        -11    1    3    3    0    0  0.23356616515E+01  0.73939238940E+01  0.14555509715E+02  0.16492067464E+02  0.51100000000E-03 0.  1.
        -12    1    3    3    0    0  0.48788354724E+01 -0.38874800163E+01  0.36519973112E+01  0.72285974300E+01  0.00000000000E+00 0.  1.
</event>
<event>
 7    1  0.8440037E-011  0.4778727E+02  0.7816164E-02  0.1312668E+00
        -11   -1    0    0    0    0  0.00000000000E+00  0.00000000000E+00  0.45593999997E+02  0.45594000000E+02  0.51100000000E-03 0. -1.
         11   -1    0    0    0    0 -0.00000000000E+00 -0.00000000000E+00 -0.45593999997E+02  0.45594000000E+02  0.51100000000E-03 0.  1.
    9900012    2    1    2    0    0 -0.17490673823E+01  0.55517308426E+01  0.43008630841E+02  0.47787270987E+02  0.19999999737E+02 0.  0.
        -12    1    1    2    0    0  0.17490673823E+01 -0.55517308426E+01 -0.43008630841E+02  0.43400729013E+02  0.00000000000E+00 0.  1.
         11    1    3    3    0    0  0.84481349547E+00 -0.40093272662E+00  0.40028888463E+01  0.41106661589E+01  0.51100000000E-03 0. -1.
        -11    1    3    3    0    0 -0.61424340917E+01 -0.17459994453E+01  0.32139002022E+02  0.32767262044E+02  0.51100000000E-03 0.  1.
        -12    1    3    3    0    0  0.35485532139E+01  0.76986630145E+01  0.68667399730E+01  0.10909342784E+02  0.00000000000E+00 0.  1.
</event>
<event>
 7    1  0.1065899E-010  0.4778727E+02  0.7816164E-02  0.1312668E+00
        -11   -1    0    0    0    0  0.00000000000E+00  0.00000000000E+00  0.45593999997E+02  0.45594000000E+02  0.51100000000E-03 0. -1.
         11   -1    0    0    0    0 -0.00000000000E+00 -0.00000000000E+00 -0.45593999997E+02  0.45594000000E+02  0.51100000000E-03 0.  1.
    9900012    2    1    2    0    0 -0.56521039753E+01 -0.32584431480E+02  0.28105728795E+02  0.47787269069E+02  0.19999990993E+02 0.  0.
        -12    1    1    2    0    0  0.56521039753E+01  0.32584431480E+02 -0.28105728795E+02  0.43400730931E+02  0.00000000000E+00 0.  1.
         11    1    3    3    0    0  0.14845632019E+01 -0.10018473342E+01 -0.17655214258E+01  0.25148940628E+01  0.51100000000E-03 0. -1.
        -11    1    3    3    0    0 -0.40111762952E+01 -0.12654017806E+02  0.57874049583E+01  0.14481289939E+02  0.51100000000E-03 0.  1.
         12    1    3    3    0    0 -0.31254908819E+01 -0.18928566340E+02  0.24083845263E+02  0.30791085067E+02  0.00000000000E+00 0. -1.
</event>
<event>
 7    1  0.8440037E-011  0.4778727E+02  0.7816164E-02  0.1312668E+00
        -11   -1    0    0    0    0  0.00000000000E+00  0.00000000000E+00  0.45593999997E+02  0.45594000000E+02  0.51100000000E-03 0. -1.
         11   -1    0    0    0    0 -0.00000000000E+00 -0.00000000000E+00 -0.45593999997E+02  0.45594000000E+02  0.51100000000E-03 0.  1.
    9900012    2    1    2    0    0 -0.63141195606E+01  0.23774713380E+02  0.35756373325E+02  0.47787270334E+02  0.19999996763E+02 0.  0.
        -12    1    1    2    0    0  0.63141195606E+01 -0.23774713380E+02 -0.35756373325E+02  0.43400729666E+02  0.00000000000E+00 0.  1.
         11    1    3    3    0    0  0.53867854810E+00  0.47460014917E+01  0.82309046967E+01  0.95164330043E+01  0.51100000000E-03 0. -1.
        -11    1    3    3    0    0 -0.99753264012E+01  0.18295989252E+02  0.15902213627E+02  0.26213179090E+02  0.51100000000E-03 0.  1.
         12    1    3    3    0    0  0.31225282926E+01  0.73272263638E+00  0.11623255002E+02  0.12057658240E+02  0.00000000000E+00 0. -1.
</event>
<event>
 7    1  0.8440037E-011  0.4778728E+02  0.7816164E-02  0.1312668E+00
        -11   -1    0    0    0    0  0.00000000000E+00  0.00000000000E+00  0.45593999997E+02  0.45594000000E+02  0.51100000000E-03 0. -1.
         11   -1    0    0    0    0 -0.00000000000E+00 -0.00000000000E+00 -0.45593999997E+02  0.45594000000E+02  0.51100000000E-03 0.  1.
    9900012    2    1    2    0    0  0.93620172030E+01  0.25931890898E+02 -0.33518836840E+02  0.47787277025E+02  0.20000027268E+02 0.  0.
         12    1    1    2    0    0 -0.93620172030E+01 -0.25931890898E+02  0.33518836840E+02  0.43400722975E+02  0.00000000000E+00 0. -1.
         11    1    3    3    0    0 -0.26416372918E+01  0.38575379445E+01 -0.68497766392E+01  0.82932675612E+01  0.51100000000E-03 0. -1.
        -11    1    3    3    0    0 -0.32590181998E+01  0.37165182677E+01 -0.25681689019E+01  0.55703859320E+01  0.51100000000E-03 0.  1.
        -12    1    3    3    0    0  0.15262672695E+02  0.18357834686E+02 -0.24100891299E+02  0.33923623532E+02  0.00000000000E+00 0.  1.
</event>
<event>
 7    1  0.1690456E-010  0.4778726E+02  0.7816164E-02  0.1312668E+00
        -11   -1    0    0    0    0  0.00000000000E+00  0.00000000000E+00  0.45593999997E+02  0.45594000000E+02  0.51100000000E-03 0. -1.
         11   -1    0    0    0    0 -0.00000000000E+00 -0.00000000000E+00 -0.45593999997E+02  0.45594000000E+02  0.51100000000E-03 0.  1.
    9900012    2    1    2    0    0 -0.19708946556E+02 -0.23977606072E+02  0.30335717324E+02  0.47787263683E+02  0.19999966437E+02 0.  0.
        -12    1    1    2    0    0  0.19708946556E+02  0.23977606072E+02 -0.30335717324E+02  0.43400736317E+02  0.00000000000E+00 0.  1.
         11    1    3    3    0    0 -0.18211009542E+00 -0.69077661901E+01  0.44361441091E+01  0.82115633494E+01  0.51100000000E-03 0. -1.
        -11    1    3    3    0    0 -0.64556454898E+01 -0.21493833166E+01 -0.18378957110E+00  0.68065399579E+01  0.51100000000E-03 0.  1.
         12    1    3    3    0    0 -0.13071190971E+02 -0.14920456565E+02  0.26083362786E+02  0.32769160376E+02  0.00000000000E+00 0. -1.
</event>
<event>
 7    1  0.8440037E-011  0.4778727E+02  0.7816164E-02  0.1312668E+00
        -11   -1    0    0    0    0  0.00000000000E+00  0.00000000000E+00  0.45593999997E+02  0.45594000000E+02  0.51100000000E-03 0. -1.
         11   -1    0    0    0    0 -0.00000000000E+00 -0.00000000000E+00 -0.45593999997E+02  0.45594000000E+02  0.51100000000E-03 0.  1.
    9900012    2    1    2    0    0  0.10813683746E+02  0.11081137664E+02 -0.40544985476E+02  0.47787271719E+02  0.20000003075E+02 0.  0.
         12    1    1    2    0    0 -0.10813683746E+02 -0.11081137664E+02  0.40544985476E+02  0.43400728281E+02  0.00000000000E+00 0. -1.
         11    1    3    3    0    0  0.10041668725E+02  0.32075838924E+01 -0.29487833980E+02  0.31315428439E+02  0.51100000000E-03 0.  1.
        -11    1    3    3    0    0  0.11796431878E+01 -0.14454723881E+01 -0.50331743438E+01  0.53678480521E+01  0.51100000000E-03 0. -1.
        -12    1    3    3    0    0 -0.40762816673E+00  0.93190261602E+01 -0.60239771522E+01  0.11103995228E+02  0.00000000000E+00 0.  1.
</event>
<event>
 7    1  0.8440037E-011  0.4778727E+02  0.7816164E-02  0.1312668E+00
        -11   -1    0    0    0    0  0.00000000000E+00  0.00000000000E+00  0.45593999997E+02  0.45594000000E+02  0.51100000000E-03 0. -1.
         11   -1    0    0    0    0 -0.00000000000E+00 -0.00000000000E+00 -0.45593999997E+02  0.45594000000E+02  0.51100000000E-03 0.  1.
    9900012    2    1    2    0    0 -0.16654453494E+02  0.14850749632E+01 -0.40050555077E+02  0.47787271540E+02  0.20000002260E+02 0.  0.
         12    1    1    2    0    0  0.16654453494E+02 -0.14850749632E+01  0.40050555077E+02  0.43400728460E+02  0.00000000000E+00 0. -1.
         11    1    3    3    0    0 -0.52783733267E+01 -0.78175501449E+01 -0.15928930061E+02  0.18512323690E+02  0.51100000000E-03 0. -1.
        -11    1    3    3    0    0 -0.73780861639E+01  0.20843663191E+01 -0.15768017317E+02  0.17533143152E+02  0.51100000000E-03 0.  1.
         12    1    3    3    0    0 -0.39979940033E+01  0.72182587890E+01 -0.83536076991E+01  0.11741804699E+02  0.00000000000E+00 0. -1.
</event>
<event>
 7    1  0.8440037E-011  0.4778727E+02  0.7816164E-02  0.1312668E+00
        -11   -1    0    0    0    0  0.00000000000E+00  0.00000000000E+00  0.45593999997E+02  0.45594000000E+02  0.51100000000E-03 0. -1.
         11   -1    0    0    0    0 -0.00000000000E+00 -0.00000000000E+00 -0.45593999997E+02  0.45594000000E+02  0.51100000000E-03 0.  1.
    9900012    2    1    2    0    0 -0.22452118531E+02 -0.89594333577E+01  0.36045173122E+02  0.47787267541E+02  0.19999984025E+02 0.  0.
        -12    1    1    2    0    0  0.22452118531E+02  0.89594333577E+01 -0.36045173122E+02  0.43400732459E+02  0.00000000000E+00 0.  1.
         11    1    3    3    0    0  0.39334706380E+00  0.31657092720E+01  0.55682352490E+01  0.64172954706E+01  0.51100000000E-03 0. -1.
        -11    1    3    3    0    0 -0.87396881660E+01  0.65421527865E+00  0.75153252111E+01  0.11545140110E+02  0.51100000000E-03 0.  1.
         12    1    3    3    0    0 -0.14105777429E+02 -0.12779357908E+02  0.22961612662E+02  0.29824831960E+02  0.00000000000E+00 0. -1.
</event>
<event>
 7    1  0.8440037E-011  0.4778728E+02  0.7816164E-02  0.1312668E+00
        -11   -1    0    0    0    0  0.00000000000E+00  0.00000000000E+00  0.45593999997E+02  0.45594000000E+02  0.51100000000E-03 0. -1.
         11   -1    0    0    0    0 -0.00000000000E+00 -0.00000000000E+00 -0.45593999997E+02  0.45594000000E+02  0.51100000000E-03 0.  1.
    9900012    2    1    2    0    0 -0.19035400892E+02  0.75293121343E+01 -0.38269904242E+02  0.47787278819E+02  0.20000035447E+02 0.  0.
         12    1    1    2    0    0  0.19035400892E+02 -0.75293121343E+01  0.38269904242E+02  0.43400721181E+02  0.00000000000E+00 0. -1.
         11    1    3    3    0    0  0.38201655427E+01  0.36444119563E+00 -0.23773407122E+01  0.45142254354E+01  0.51100000000E-03 0.  1.
        -11    1    3    3    0    0 -0.59954257946E+01  0.95939708153E+00 -0.11147706506E+02  0.12693972342E+02  0.51100000000E-03 0. -1.
        -12    1    3    3    0    0 -0.16860140640E+02  0.62054738571E+01 -0.24744857024E+02  0.30579081041E+02  0.00000000000E+00 0.  1.
</event>
<event>
 7    1  0.8440037E-011  0.4778727E+02  0.7816164E-02  0.1312668E+00
        -11   -1    0    0    0    0  0.00000000000E+00  0.00000000000E+00  0.45593999997E+02  0.45594000000E+02  0.51100000000E-03 0. -1.
         11   -1    0    0    0    0 -0.00000000000E+00 -0.00000000000E+00 -0.45593999997E+02  0.45594000000E+02  0.51100000000E-03 0.  1.
    9900012    2    1    2    0    0 -0.38369885478E+02  0.17362193611E+02 -0.10484722690E+02  0.47787270876E+02  0.19999999232E+02 0.  0.
         12    1    1    2    0    0  0.38369885478E+02 -0.17362193611E+02  0.10484722690E+02  0.43400729124E+02  0.00000000000E+00 0. -1.
         11    1    3    3    0    0 -0.15296434395E+02  0.77847488955E+01  0.83544336833E+00  0.17183747742E+02  0.51100000000E-03 0. -1.
        -11    1    3    3    0    0 -0.16537650782E+02  0.56721809534E+01 -0.64990564912E+00  0.17495425338E+02  0.51100000000E-03 0.  1.
        -12    1    3    3    0    0 -0.65358003011E+01  0.39052637626E+01 -0.10670260409E+02  0.13108097796E+02  0.00000000000E+00 0.  1.
</event>
<event>
 7    1  0.8440037E-011  0.4778727E+02  0.7816164E-02  0.1312668E+00
        -11   -1    0    0    0    0  0.00000000000E+00  0.00000000000E+00  0.45593999997E+02  0.45594000000E+02  0.51100000000E-03 0. -1.
         11   -1    0    0    0    0 -0.00000000000E+00 -0.00000000000E+00 -0.45593999997E+02  0.45594000000E+02  0.51100000000E-03 0.  1.
    9900012    2    1    2    0    0  0.62885019808E+00 -0.34822143883E+02  0.25896835200E+02  0.47787271543E+02  0.20000002275E+02 0.  0.
        -12    1    1    2    0    0 -0.62885019808E+00  0.34822143883E+02 -0.25896835200E+02  0.43400728457E+02  0.00000000000E+00 0.  1.
         11    1    3    3    0    0  0.14133654422E+01 -0.21305306602E+02  0.19807082412E+02  0.29124460599E+02  0.51100000000E-03 0. -1.
        -11    1    3    3    0    0 -0.35851187899E+01 -0.42096459400E+01  0.69776573891E+01  0.89029151730E+01  0.51100000000E-03 0.  1.
         12    1    3    3    0    0  0.28006035458E+01 -0.93071913410E+01 -0.88790460068E+00  0.97598957709E+01  0.00000000000E+00 0. -1.
</event>
<event>
 7    1  0.8440037E-011  0.4778727E+02  0.7816164E-02  0.1312668E+00
        -11   -1    0    0    0    0  0.00000000000E+00  0.00000000000E+00  0.45593999997E+02  0.45594000000E+02  0.51100000000E-03 0. -1.
         11   -1    0    0    0    0 -0.00000000000E+00 -0.00000000000E+00 -0.45593999997E+02  0.45594000000E+02  0.51100000000E-03 0.  1.
    9900012    2    1    2    0    0 -0.27337410809E+02 -0.19983198521E+02 -0.27147022084E+02  0.47787273498E+02  0.20000011187E+02 0.  0.
         12    1    1    2    0    0  0.27337410809E+02  0.19983198521E+02  0.27147022084E+02  0.43400726502E+02  0.00000000000E+00 0. -1.
         11    1    3    3    0    0 -0.95790885645E+01 -0.70522175596E+00 -0.67803065445E+01  0.11757075850E+02  0.51100000000E-03 0. -1.
        -11    1    3    3    0    0 -0.14599931356E+02 -0.82449132428E+01 -0.63849180915E+01  0.17941676880E+02  0.51100000000E-03 0.  1.
        -12    1    3    3    0    0 -0.31583908890E+01 -0.11033063522E+02 -0.13981797448E+02  0.18088520767E+02  0.00000000000E+00 0.  1.
</event>
<event>
 7    1  0.8440037E-011  0.4778728E+02  0.7816164E-02  0.1312668E+00
        -11   -1    0    0    0    0  0.00000000000E+00  0.00000000000E+00  0.45593999997E+02  0.45594000000E+02  0.51100000000E-03 0. -1.
         11   -1    0    0    0    0 -0.00000000000E+00 -0.00000000000E+00 -0.45593999997E+02  0.45594000000E+02  0.51100000000E-03 0.  1.
    9900012    2    1    2    0    0 -0.21008826894E+02  0.31022778416E+02  0.21905233809E+02  0.47787275855E+02  0.20000021933E+02 0.  0.
        -12    1    1    2    0    0  0.21008826894E+02 -0.31022778416E+02 -0.21905233809E+02  0.43400724145E+02  0.00000000000E+00 0.  1.
         11    1    3    3    0    0 -0.39131476703E+01  0.57012102884E+01 -0.32668473993E+00  0.69226618163E+01  0.51100000000E-03 0. -1.
        -11    1    3    3    0    0 -0.19970649415E+01  0.15455774686E+02  0.63348459739E+01  0.16822589375E+02  0.51100000000E-03 0.  1.
         12    1    3    3    0    0 -0.15098614282E+02  0.98657934420E+01  0.15897072575E+02  0.24042024664E+02  0.00000000000E+00 0. -1.
</event>
<event>
 7    1  0.8440037E-011  0.4778727E+02  0.7816164E-02  0.1312668E+00
        -11   -1    0    0    0    0  0.00000000000E+00  0.00000000000E+00  0.45593999997E+02  0.45594000000E+02  0.51100000000E-03 0. -1.
         11   -1    0    0    0    0 -0.00000000000E+00 -0.00000000000E+00 -0.45593999997E+02  0.45594000000E+02  0.51100000000E-03 0.  1.
    9900012    2    1    2    0    0 -0.24943699768E+01  0.48394997493E+01  0.43057871691E+02  0.47787274730E+02  0.20000016803E+02 0.  0.
        -12    1    1    2    0    0  0.24943699768E+01 -0.48394997493E+01 -0.43057871691E+02  0.43400725270E+02  0.00000000000E+00 0.  1.
         11    1    3    3    0    0 -0.33642254871E+01  0.33039563025E+00  0.10048178150E+01  0.35265895003E+01  0.51100000000E-03 0. -1.
        -11    1    3    3    0    0 -0.56954253423E+01  0.37052127061E+01  0.16037270003E+02  0.17417247212E+02  0.51100000000E-03 0.  1.
        -12    1    3    3    0    0  0.65652808526E+01  0.80389141298E+00  0.26015783873E+02  0.26843438018E+02  0.00000000000E+00 0.  1.
</event>
<event>
 7    1  0.8440037E-011  0.4778727E+02  0.7816164E-02  0.1312668E+00
        -11   -1    0    0    0    0  0.00000000000E+00  0.00000000000E+00  0.45593999997E+02  0.45594000000E+02  0.51100000000E-03 0. -1.
         11   -1    0    0    0    0 -0.00000000000E+00 -0.00000000000E+00 -0.45593999997E+02  0.45594000000E+02  0.51100000000E-03 0.  1.
    9900012    2    1    2    0    0 -0.33434976269E+02  0.24300284928E+02 -0.13237130660E+02  0.47787272888E+02  0.20000008406E+02 0.  0.
         12    1    1    2    0    0  0.33434976269E+02 -0.24300284928E+02  0.13237130660E+02  0.43400727112E+02  0.00000000000E+00 0. -1.
         11    1    3    3    0    0 -0.27132497242E+01  0.25305382508E+01 -0.49759961338E+01  0.62069224008E+01  0.51100000000E-03 0. -1.
        -11    1    3    3    0    0 -0.26084791950E+02  0.23563614749E+02 -0.95849243338E+01  0.36435299996E+02  0.51100000000E-03 0.  1.
         12    1    3    3    0    0 -0.46369345955E+01 -0.17938680711E+01  0.13237898075E+01  0.51450504909E+01  0.00000000000E+00 0. -1.
</event>
<event>
 7    1  0.8440037E-011  0.4778728E+02  0.7816164E-02  0.1312668E+00
        -11   -1    0    0    0    0  0.00000000000E+00  0.00000000000E+00  0.45593999997E+02  0.45594000000E+02  0.51100000000E-03 0. -1.
         11   -1    0    0    0    0 -0.00000000000E+00 -0.00000000000E+00 -0.45593999997E+02  0.45594000000E+02  0.51100000000E-03 0.  1.
    9900012    2    1    2    0    0 -0.24522252786E+02 -0.38444470617E+01  0.35601997194E+02  0.47787275823E+02  0.20000021785E+02 0.  0.
        -12    1    1    2    0    0  0.24522252786E+02  0.38444470617E+01 -0.35601997194E+02  0.43400724177E+02  0.00000000000E+00 0.  1.
         11    1    3    3    0    0 -0.47817660226E+01  0.17330461587E+01  0.22673967014E+01  0.55686464555E+01  0.51100000000E-03 0. -1.
        -11    1    3    3    0    0 -0.70868417221E+01  0.15155446960E+01  0.17399676062E+01  0.74530321917E+01  0.51100000000E-03 0.  1.
         12    1    3    3    0    0 -0.12653645041E+02 -0.70930379164E+01  0.31594632887E+02  0.34765597175E+02  0.00000000000E+00 0. -1.
</event>
<event>
 7    1  0.8440037E-011  0.4778727E+02  0.7816164E-02  0.1312668E+00
        -11   -1    0    0    0    0  0.00000000000E+00  0.00000000000E+00  0.45593999997E+02  0.45594000000E+02  0.51100000000E-03 0. -1.
         11   -1    0    0    0    0 -0.00000000000E+00 -0.00000000000E+00 -0.45593999997E+02  0.45594000000E+02  0.51100000000E-03 0.  1.
    9900012    2    1    2    0    0  0.13764401824E+02  0.33168979887E+01  0.41026371905E+02  0.47787265426E+02  0.19999974383E+02 0.  0.
        -12    1    1    2    0    0 -0.13764401824E+02 -0.33168979887E+01 -0.41026371905E+02  0.43400734574E+02  0.00000000000E+00 0.  1.
         11    1    3    3    0    0  0.85183655747E+01  0.53343357724E+01  0.20157744395E+02  0.22524483336E+02  0.51100000000E-03 0. -1.
        -11    1    3    3    0    0  0.60289369966E+01  0.69966963426E-01  0.21338166790E+01  0.63957916293E+01  0.51100000000E-03 0.  1.
         12    1    3    3    0    0 -0.78290074674E+00 -0.20874047471E+01  0.18734810831E+02  0.18866990461E+02  0.00000000000E+00 0. -1.
</event>
<event>
 7    1  0.8440037E-011  0.4778727E+02  0.7816164E-02  0.1312668E+00
        -11   -1    0    0    0    0  0.00000000000E+00  0.00000000000E+00  0.45593999997E+02  0.45594000000E+02  0.51100000000E-03 0. -1.
         11   -1    0    0    0    0 -0.00000000000E+00 -0.00000000000E+00 -0.45593999997E+02  0.45594000000E+02  0.51100000000E-03 0.  1.
    9900012    2    1    2    0    0 -0.17952873589E+02 -0.35353284725E+02 -0.17648315456E+02  0.47787269022E+02  0.19999990780E+02 0.  0.
         12    1    1    2    0    0  0.17952873589E+02  0.35353284725E+02  0.17648315456E+02  0.43400730978E+02  0.00000000000E+00 0. -1.
         11    1    3    3    0    0 -0.98867431332E+01 -0.23354563036E+02 -0.37992842869E+01  0.25644061022E+02  0.51100000000E-03 0. -1.
        -11    1    3    3    0    0 -0.68719837922E+01 -0.12132601330E+02 -0.78020461890E+01  0.15977988023E+02  0.51100000000E-03 0.  1.
         12    1    3    3    0    0 -0.11941466639E+01  0.13387964051E+00 -0.60469849799E+01  0.61652199767E+01  0.00000000000E+00 0. -1.
</event>
<event>
 7    1  0.8440037E-011  0.4778727E+02  0.7816164E-02  0.1312668E+00
        -11   -1    0    0    0    0  0.00000000000E+00  0.00000000000E+00  0.45593999997E+02  0.45594000000E+02  0.51100000000E-03 0. -1.
         11   -1    0    0    0    0 -0.00000000000E+00 -0.00000000000E+00 -0.45593999997E+02  0.45594000000E+02  0.51100000000E-03 0.  1.
    9900012    2    1    2    0    0 -0.19902531763E+02  0.29631042116E+01  0.38454297568E+02  0.47787265460E+02  0.19999974537E+02 0.  0.
        -12    1    1    2    0    0  0.19902531763E+02 -0.29631042116E+01 -0.38454297568E+02  0.43400734540E+02  0.00000000000E+00 0.  1.
         11    1    3    3    0    0  0.15626234796E+01 -0.42641106999E+01  0.98455743630E+01  0.10842498190E+02  0.51100000000E-03 0. -1.
        -11    1    3    3    0    0  0.23995594006E+00 -0.31674236345E+00  0.46292912711E+00  0.61008869505E+00  0.51100000000E-03 0.  1.
        -12    1    3    3    0    0 -0.21705111183E+02  0.75439572749E+01  0.28145794078E+02  0.36334678575E+02  0.00000000000E+00 0.  1.
</event>
<event>
 7    1  0.8440037E-011  0.4778727E+02  0.7816164E-02  0.1312668E+00
        -11   -1    0    0    0    0  0.00000000000E+00  0.00000000000E+00  0.45593999997E+02  0.45594000000E+02  0.51100000000E-03 0. -1.
         11   -1    0    0    0    0 -0.00000000000E+00 -0.00000000000E+00 -0.45593999997E+02  0.45594000000E+02  0.51100000000E-03 0.  1.
    9900012    2    1    2    0    0  0.13546757848E+02  0.11875461354E+02  0.39485210947E+02  0.47787272885E+02  0.20000008392E+02 0.  0.
        -12    1    1    2    0    0 -0.13546757848E+02 -0.11875461354E+02 -0.39485210947E+02  0.43400727115E+02  0.00000000000E+00 0.  1.
         11    1    3    3    0    0 -0.20905232818E+01 -0.96856303838E+00  0.90129058716E+01  0.93027347841E+01  0.51100000000E-03 0. -1.
        -11    1    3    3    0    0  0.33573293261E+01 -0.21837546382E+01  0.39987936214E+01  0.56595755328E+01  0.51100000000E-03 0.  1.
        -12    1    3    3    0    0  0.12279951804E+02  0.15027779030E+02  0.26473511454E+02  0.32824962568E+02  0.00000000000E+00 0.  1.
</event>
<event>
 7    1  0.8440037E-011  0.4778727E+02  0.7816164E-02  0.1312668E+00
        -11   -1    0    0    0    0  0.00000000000E+00  0.00000000000E+00  0.45593999997E+02  0.45594000000E+02  0.51100000000E-03 0. -1.
         11   -1    0    0    0    0 -0.00000000000E+00 -0.00000000000E+00 -0.45593999997E+02  0.45594000000E+02  0.51100000000E-03 0.  1.
    9900012    2    1    2    0    0 -0.11767374596E+02 -0.24390539471E+02  0.33915393919E+02  0.47787268840E+02  0.19999989949E+02 0.  0.
        -12    1    1    2    0    0  0.11767374596E+02  0.24390539471E+02 -0.33915393919E+02  0.43400731160E+02  0.00000000000E+00 0.  1.
         11    1    3    3    0    0  0.11578069901E+01 -0.94421926797E+01  0.22875206635E+02  0.24774394008E+02  0.51100000000E-03 0. -1.
        -11    1    3    3    0    0 -0.80054973318E+01 -0.12090613671E+02  0.80577873377E+01  0.16589118829E+02  0.51100000000E-03 0.  1.
         12    1    3    3    0    0 -0.49196842539E+01 -0.28577331202E+01  0.29823999461E+01  0.64237560027E+01  0.00000000000E+00 0. -1.
</event>
<event>
 7    1  0.8440037E-011  0.4778728E+02  0.7816164E-02  0.1312668E+00
        -11   -1    0    0    0    0  0.00000000000E+00  0.00000000000E+00  0.45593999997E+02  0.45594000000E+02  0.51100000000E-03 0. -1.
         11   -1    0    0    0    0 -0.00000000000E+00 -0.00000000000E+00 -0.45593999997E+02  0.45594000000E+02  0.51100000000E-03 0.  1.
    9900012    2    1    2    0    0  0.53251242699E+01 -0.39648321188E+01  0.42889927675E+02  0.47787277216E+02  0.20000028138E+02 0.  0.
        -12    1    1    2    0    0 -0.53251242699E+01  0.39648321188E+01 -0.42889927675E+02  0.43400722784E+02  0.00000000000E+00 0.  1.
         11    1    3    3    0    0 -0.80614218569E+00 -0.21030217941E+00  0.46944006929E+00  0.95627740222E+00  0.51100000000E-03 0. -1.
        -11    1    3    3    0    0  0.76242869520E+01 -0.69141442448E+01  0.10441073351E+02  0.14661212608E+02  0.51100000000E-03 0.  1.
         12    1    3    3    0    0 -0.14930204964E+01  0.31596143054E+01  0.31979414255E+02  0.32169787205E+02  0.00000000000E+00 0. -1.
</event>
<event>
 7    1  0.8440037E-011  0.4778729E+02  0.7816164E-02  0.1312668E+00
        -11   -1    0    0    0    0  0.00000000000E+00  0.00000000000E+00  0.45593999997E+02  0.45594000000E+02  0.51100000000E-03 0. -1.
         11   -1    0    0    0    0 -0.00000000000E+00 -0.00000000000E+00 -0.45593999997E+02  0.45594000000E+02  0.51100000000E-03 0.  1.
    9900012    2    1    2    0    0  0.36433678376E+01 -0.41448320456E+02 -0.12344417359E+02  0.47787285285E+02  0.20000064930E+02 0.  0.
         12    1    1    2    0    0 -0.36433678376E+01  0.41448320456E+02  0.12344417359E+02  0.43400714715E+02  0.00000000000E+00 0. -1.
         11    1    3    3    0    0 -0.12401582110E+01 -0.43339845887E+01  0.16241540833E+01  0.47915854945E+01  0.51100000000E-03 0. -1.
        -11    1    3    3    0    0  0.78678667349E+01 -0.20076578394E+02 -0.13889736510E+01  0.21607905383E+02  0.51100000000E-03 0.  1.
         12    1    3    3    0    0 -0.29843406863E+01 -0.17037757473E+02 -0.12579597792E+02  0.21387794408E+02  0.00000000000E+00 0. -1.
</event>
<event>
 7    1  0.8440037E-011  0.4778727E+02  0.7816164E-02  0.1312668E+00
        -11   -1    0    0    0    0  0.00000000000E+00  0.00000000000E+00  0.45593999997E+02  0.45594000000E+02  0.51100000000E-03 0. -1.
         11   -1    0    0    0    0 -0.00000000000E+00 -0.00000000000E+00 -0.45593999997E+02  0.45594000000E+02  0.51100000000E-03 0.  1.
    9900012    2    1    2    0    0 -0.20488411667E+02  0.38079662063E+02 -0.37131507286E+01  0.47787272313E+02  0.20000005783E+02 0.  0.
         12    1    1    2    0    0  0.20488411667E+02 -0.38079662063E+02  0.37131507286E+01  0.43400727687E+02  0.00000000000E+00 0. -1.
         11    1    3    3    0    0  0.13422621433E+01  0.15459685150E+02 -0.57883492267E+00  0.15528637504E+02  0.51100000000E-03 0. -1.
        -11    1    3    3    0    0 -0.10730243910E+01  0.92924637011E+00  0.12820884796E+01  0.19127548956E+01  0.51100000000E-03 0.  1.
        -12    1    3    3    0    0 -0.20757649419E+02  0.21690730542E+02 -0.44164042856E+01  0.30345879913E+02  0.00000000000E+00 0.  1.
</event>
<event>
 7    1  0.8440037E-011  0.4778727E+02  0.7816164E-02  0.1312668E+00
        -11   -1    0    0    0    0  0.00000000000E+00  0.00000000000E+00  0.45593999997E+02  0.45594000000E+02  0.51100000000E-03 0. -1.
         11   -1    0    0    0    0 -0.00000000000E+00 -0.00000000000E+00 -0.45593999997E+02  0.45594000000E+02  0.51100000000E-03 0.  1.
    9900012    2    1    2    0    0 -0.47315450848E+01 -0.75223766610E+01  0.42481167019E+02  0.47787271656E+02  0.20000002787E+02 0.  0.
        -12    1    1    2    0    0  0.47315450848E+01  0.75223766610E+01 -0.42481167019E+02  0.43400728344E+02  0.00000000000E+00 0.  1.
         11    1    3    3    0    0  0.11875147050E+01 -0.74894021119E+00  0.27407688426E+01  0.30794344812E+01  0.51100000000E-03 0. -1.
        -11    1    3    3    0    0  0.38531784285E+01  0.87988401834E+00  0.25553819409E+02  0.25857665528E+02  0.51100000000E-03 0.  1.
         12    1    3    3    0    0 -0.97722382183E+01 -0.76533204682E+01  0.14186578767E+02  0.18850171646E+02  0.00000000000E+00 0. -1.
</event>
<event>
 7    1  0.8440037E-011  0.4778726E+02  0.7816164E-02  0.1312668E+00
        -11   -1    0    0    0    0  0.00000000000E+00  0.00000000000E+00  0.45593999997E+02  0.45594000000E+02  0.51100000000E-03 0. -1.
         11   -1    0    0    0    0 -0.00000000000E+00 -0.00000000000E+00 -0.45593999997E+02  0.45594000000E+02  0.51100000000E-03 0.  1.
    9900012    2    1    2    0    0  0.19367268716E+02  0.28508636180E+02 -0.26377854272E+02  0.47787255417E+02  0.19999928747E+02 0.  0.
         12    1    1    2    0    0 -0.19367268716E+02 -0.28508636180E+02  0.26377854272E+02  0.43400744583E+02  0.00000000000E+00 0. -1.
         11    1    3    3    0    0 -0.22693972386E+00  0.60260095388E+01 -0.69919437965E+01  0.92331777258E+01  0.51100000000E-03 0. -1.
        -11    1    3    3    0    0  0.15915948367E+02  0.24375236376E+02 -0.17811495922E+02  0.34127978962E+02  0.51100000000E-03 0.  1.
         12    1    3    3    0    0  0.36782600733E+01 -0.18926097344E+01 -0.15744145536E+01  0.44260987291E+01  0.00000000000E+00 0. -1.
</event>
<event>
 7    1  0.8440037E-011  0.4778727E+02  0.7816164E-02  0.1312668E+00
        -11   -1    0    0    0    0  0.00000000000E+00  0.00000000000E+00  0.45593999997E+02  0.45594000000E+02  0.51100000000E-03 0. -1.
         11   -1    0    0    0    0 -0.00000000000E+00 -0.00000000000E+00 -0.45593999997E+02  0.45594000000E+02  0.51100000000E-03 0.  1.
    9900012    2    1    2    0    0 -0.11714719116E+02  0.22249383407E+02  0.35374478437E+02  0.47787269238E+02  0.19999991766E+02 0.  0.
        -12    1    1    2    0    0  0.11714719116E+02 -0.22249383407E+02 -0.35374478437E+02  0.43400730762E+02  0.00000000000E+00 0.  1.
         11    1    3    3    0    0 -0.19083296521E+01  0.14854595839E+01  0.70139323033E+01  0.74191346431E+01  0.51100000000E-03 0. -1.
        -11    1    3    3    0    0 -0.10631142360E+02  0.53392985097E+01  0.18654677268E+02  0.22125240806E+02  0.51100000000E-03 0.  1.
         12    1    3    3    0    0  0.82475289674E+00  0.15424625313E+02  0.97058688657E+01  0.18242893790E+02  0.00000000000E+00 0. -1.
</event>
<event>
 7    1  0.8440037E-011  0.4778727E+02  0.7816164E-02  0.1312668E+00
        -11   -1    0    0    0    0  0.00000000000E+00  0.00000000000E+00  0.45593999997E+02  0.45594000000E+02  0.51100000000E-03 0. -1.
         11   -1    0    0    0    0 -0.00000000000E+00 -0.00000000000E+00 -0.45593999997E+02  0.45594000000E+02  0.51100000000E-03 0.  1.
    9900012    2    1    2    0    0 -0.83731090543E+01  0.17247903175E+02 -0.38936151661E+02  0.47787273908E+02  0.20000013057E+02 0.  0.
         12    1    1    2    0    0  0.83731090543E+01 -0.17247903175E+02  0.38936151661E+02  0.43400726092E+02  0.00000000000E+00 0. -1.
         11    1    3    3    0    0  0.92954482902E-01  0.73723953086E+01 -0.38599867729E+01  0.83222804129E+01  0.51100000000E-03 0. -1.
        -11    1    3    3    0    0 -0.66205121619E+01  0.37097566272E+01 -0.59701434944E+01  0.96558836532E+01  0.51100000000E-03 0.  1.
         12    1    3    3    0    0 -0.18455513753E+01  0.61657512387E+01 -0.29106021393E+02  0.29809109842E+02  0.00000000000E+00 0. -1.
</event>
<event>
 7    1  0.8440037E-011  0.4778727E+02  0.7816164E-02  0.1312668E+00
        -11   -1    0    0    0    0  0.00000000000E+00  0.00000000000E+00  0.45593999997E+02  0.45594000000E+02  0.51100000000E-03 0.  1.
         11   -1    0    0    0    0 -0.00000000000E+00 -0.00000000000E+00 -0.45593999997E+02  0.45594000000E+02  0.51100000000E-03 0. -1.
    9900012    2    1    2    0    0  0.36083713197E+02  0.21078333569E+02  0.11717201574E+02  0.47787270549E+02  0.19999997742E+02 0.  0.
        -12    1    1    2    0    0 -0.36083713197E+02 -0.21078333569E+02 -0.11717201574E+02  0.43400729451E+02  0.00000000000E+00 0.  1.
         11    1    3    3    0    0  0.16852050917E+02  0.74681212784E+01  0.12895474495E+02  0.22495726666E+02  0.51100000000E-03 0. -1.
        -11    1    3    3    0    0  0.10448358565E+02  0.10609277129E+02  0.28713914752E+01  0.15164756746E+02  0.51100000000E-03 0.  1.
        -12    1    3    3    0    0  0.87833037146E+01  0.30009351620E+01 -0.40496643962E+01  0.10126787137E+02  0.00000000000E+00 0.  1.
</event>
<event>
 7    1  0.8440037E-011  0.4778727E+02  0.7816164E-02  0.1312668E+00
        -11   -1    0    0    0    0  0.00000000000E+00  0.00000000000E+00  0.45593999997E+02  0.45594000000E+02  0.51100000000E-03 0. -1.
         11   -1    0    0    0    0 -0.00000000000E+00 -0.00000000000E+00 -0.45593999997E+02  0.45594000000E+02  0.51100000000E-03 0.  1.
    9900012    2    1    2    0    0 -0.18083795133E+02  0.20520704311E+02  0.33697181061E+02  0.47787274623E+02  0.20000016315E+02 0.  0.
        -12    1    1    2    0    0  0.18083795133E+02 -0.20520704311E+02 -0.33697181061E+02  0.43400725377E+02  0.00000000000E+00 0.  1.
         11    1    3    3    0    0 -0.50002362751E+01  0.91853730862E-01  0.16577618106E+02  0.17315548569E+02  0.51100000000E-03 0. -1.
        -11    1    3    3    0    0 -0.30928949261E+00  0.39357297306E+00 -0.63602336176E+00  0.80937361780E+00  0.51100000000E-03 0.  1.
         12    1    3    3    0    0 -0.12774269366E+02  0.20035277607E+02  0.17755586317E+02  0.29662352436E+02  0.00000000000E+00 0. -1.
</event>
<event>
 7    1  0.8440037E-011  0.4778727E+02  0.7816164E-02  0.1312668E+00
        -11   -1    0    0    0    0  0.00000000000E+00  0.00000000000E+00  0.45593999997E+02  0.45594000000E+02  0.51100000000E-03 0. -1.
         11   -1    0    0    0    0 -0.00000000000E+00 -0.00000000000E+00 -0.45593999997E+02  0.45594000000E+02  0.51100000000E-03 0.  1.
    9900012    2    1    2    0    0  0.14466516034E+02 -0.16363871307E+01 -0.40886003053E+02  0.47787273110E+02  0.20000009416E+02 0.  0.
         12    1    1    2    0    0 -0.14466516034E+02  0.16363871307E+01  0.40886003053E+02  0.43400726890E+02  0.00000000000E+00 0. -1.
         11    1    3    3    0    0 -0.28422652915E+00  0.13610469875E+01 -0.10004022602E+02  0.10100183271E+02  0.51100000000E-03 0. -1.
        -11    1    3    3    0    0  0.65804072577E+01  0.61226006456E+01 -0.16579650866E+02  0.18859290057E+02  0.51100000000E-03 0.  1.
         12    1    3    3    0    0  0.81703353051E+01 -0.91200347637E+01 -0.14302329584E+02  0.18827799782E+02  0.00000000000E+00 0. -1.
</event>
<event>
 7    1  0.8440037E-011  0.4778727E+02  0.7816164E-02  0.1312668E+00
        -11   -1    0    0    0    0  0.00000000000E+00  0.00000000000E+00  0.45593999997E+02  0.45594000000E+02  0.51100000000E-03 0. -1.
         11   -1    0    0    0    0 -0.00000000000E+00 -0.00000000000E+00 -0.45593999997E+02  0.45594000000E+02  0.51100000000E-03 0.  1.
    9900012    2    1    2    0    0  0.31706546059E+02 -0.14900355295E+01  0.29598954698E+02  0.47787269728E+02  0.19999993999E+02 0.  0.
        -12    1    1    2    0    0 -0.31706546059E+02  0.14900355295E+01 -0.29598954698E+02  0.43400730272E+02  0.00000000000E+00 0.  1.
         11    1    3    3    0    0  0.92319221863E+01  0.24714196965E+01  0.12280125340E+02  0.15560777011E+02  0.51100000000E-03 0. -1.
        -11    1    3    3    0    0 -0.55896027860E+00 -0.29945849836E+01 -0.50254256660E+00  0.30874787626E+01  0.51100000000E-03 0.  1.
        -12    1    3    3    0    0  0.23033584152E+02 -0.96687024240E+00  0.17821371925E+02  0.29139013955E+02  0.00000000000E+00 0.  1.
</event>
<event>
 7    1  0.8440037E-011  0.4778727E+02  0.7816164E-02  0.1312668E+00
        -11   -1    0    0    0    0  0.00000000000E+00  0.00000000000E+00  0.45593999997E+02  0.45594000000E+02  0.51100000000E-03 0. -1.
         11   -1    0    0    0    0 -0.00000000000E+00 -0.00000000000E+00 -0.45593999997E+02  0.45594000000E+02  0.51100000000E-03 0.  1.
    9900012    2    1    2    0    0  0.26222152897E+02 -0.12389662839E+02 -0.32288054860E+02  0.47787268042E+02  0.19999986311E+02 0.  0.
         12    1    1    2    0    0 -0.26222152897E+02  0.12389662839E+02  0.32288054860E+02  0.43400731958E+02  0.00000000000E+00 0. -1.
         11    1    3    3    0    0  0.46616920288E+01 -0.33372779465E+01 -0.12512484499E+02  0.13763395848E+02  0.51100000000E-03 0. -1.
        -11    1    3    3    0    0  0.82467314328E+01 -0.10786100488E+02 -0.13695824847E+02  0.19285335402E+02  0.51100000000E-03 0.  1.
         12    1    3    3    0    0  0.13313729436E+02  0.17337155955E+01 -0.60797455136E+01  0.14738536792E+02  0.00000000000E+00 0. -1.
</event>
<event>
 7    1  0.8440037E-011  0.4778727E+02  0.7816164E-02  0.1312668E+00
        -11   -1    0    0    0    0  0.00000000000E+00  0.00000000000E+00  0.45593999997E+02  0.45594000000E+02  0.51100000000E-03 0. -1.
         11   -1    0    0    0    0 -0.00000000000E+00 -0.00000000000E+00 -0.45593999997E+02  0.45594000000E+02  0.51100000000E-03 0.  1.
    9900012    2    1    2    0    0  0.94994813670E+01  0.28197973193E+02 -0.31595208026E+02  0.47787274100E+02  0.20000013931E+02 0.  0.
         12    1    1    2    0    0 -0.94994813670E+01 -0.28197973193E+02  0.31595208026E+02  0.43400725900E+02  0.00000000000E+00 0. -1.
         11    1    3    3    0    0  0.42084698928E+01  0.99803451540E+01 -0.16274577287E+02  0.19549434119E+02  0.51100000000E-03 0. -1.
        -11    1    3    3    0    0  0.36713836254E+01  0.20538514532E+02 -0.13908041786E+02  0.25074753508E+02  0.51100000000E-03 0.  1.
        -12    1    3    3    0    0  0.16196278487E+01 -0.23208864933E+01 -0.14125889533E+01  0.31630864727E+01  0.00000000000E+00 0.  1.
</event>
<event>
 7    1  0.8440037E-011  0.4778727E+02  0.7816164E-02  0.1312668E+00
        -11   -1    0    0    0    0  0.00000000000E+00  0.00000000000E+00  0.45593999997E+02  0.45594000000E+02  0.51100000000E-03 0.  1.
         11   -1    0    0    0    0 -0.00000000000E+00 -0.00000000000E+00 -0.45593999997E+02  0.45594000000E+02  0.51100000000E-03 0. -1.
    9900012    2    1    2    0    0  0.13963988065E+02 -0.40960014284E+02 -0.33026049026E+01  0.47787274984E+02  0.20000017960E+02 0.  0.
        -12    1    1    2    0    0 -0.13963988065E+02  0.40960014284E+02  0.33026049026E+01  0.43400725016E+02  0.00000000000E+00 0.  1.
         11    1    3    3    0    0  0.51734185269E+01 -0.76273485101E+01  0.23956818399E+01  0.95226044908E+01  0.51100000000E-03 0. -1.
        -11    1    3    3    0    0  0.99912414228E+00 -0.15413161089E+02  0.46806772292E+01  0.16139161174E+02  0.51100000000E-03 0.  1.
        -12    1    3    3    0    0  0.77914453963E+01 -0.17919504685E+02 -0.10378963972E+02  0.22125509319E+02  0.00000000000E+00 0.  1.
</event>
<event>
 7    1  0.8440037E-011  0.4778727E+02  0.7816164E-02  0.1312668E+00
        -11   -1    0    0    0    0  0.00000000000E+00  0.00000000000E+00  0.45593999997E+02  0.45594000000E+02  0.51100000000E-03 0. -1.
         11   -1    0    0    0    0 -0.00000000000E+00 -0.00000000000E+00 -0.45593999997E+02  0.45594000000E+02  0.51100000000E-03 0.  1.
    9900012    2    1    2    0    0 -0.15687633688E+02  0.29557003863E+01  0.40358216861E+02  0.47787266323E+02  0.19999978472E+02 0.  0.
        -12    1    1    2    0    0  0.15687633688E+02 -0.29557003863E+01 -0.40358216861E+02  0.43400733677E+02  0.00000000000E+00 0.  1.
         11    1    3    3    0    0 -0.58286861286E+01  0.10087768608E+02  0.16571971690E+02  0.20257514740E+02  0.51100000000E-03 0. -1.
        -11    1    3    3    0    0 -0.17460771293E+01 -0.92216885243E+00  0.40772337693E+00  0.20162885079E+01  0.51100000000E-03 0.  1.
        -12    1    3    3    0    0 -0.81128704302E+01 -0.62098993696E+01  0.23378521794E+02  0.25513463075E+02  0.00000000000E+00 0.  1.
</event>
<event>
 7    1  0.8440037E-011  0.4778727E+02  0.7816164E-02  0.1312668E+00
        -11   -1    0    0    0    0  0.00000000000E+00  0.00000000000E+00  0.45593999997E+02  0.45594000000E+02  0.51100000000E-03 0.  1.
         11   -1    0    0    0    0 -0.00000000000E+00 -0.00000000000E+00 -0.45593999997E+02  0.45594000000E+02  0.51100000000E-03 0. -1.
    9900012    2    1    2    0    0  0.22915275961E+02 -0.30210447996E+02 -0.21114974864E+02  0.47787271850E+02  0.20000003671E+02 0.  0.
         12    1    1    2    0    0 -0.22915275961E+02  0.30210447996E+02  0.21114974864E+02  0.43400728150E+02  0.00000000000E+00 0. -1.
         11    1    3    3    0    0  0.45462238520E+01 -0.85465175791E+01 -0.18465553621E+01  0.98549926945E+01  0.51100000000E-03 0.  1.
        -11    1    3    3    0    0  0.20113036768E+02 -0.14217564440E+02 -0.17094032690E+02  0.29981316524E+02  0.51100000000E-03 0. -1.
         12    1    3    3    0    0 -0.17439846590E+01 -0.74463659770E+01 -0.21743868118E+01  0.79509626311E+01  0.00000000000E+00 0. -1.
</event>
<event>
 7    1  0.8440037E-011  0.4778726E+02  0.7816164E-02  0.1312668E+00
        -11   -1    0    0    0    0  0.00000000000E+00  0.00000000000E+00  0.45593999997E+02  0.45594000000E+02  0.51100000000E-03 0.  1.
         11   -1    0    0    0    0 -0.00000000000E+00 -0.00000000000E+00 -0.45593999997E+02  0.45594000000E+02  0.51100000000E-03 0. -1.
    9900012    2    1    2    0    0  0.92867047038E+01 -0.41921814849E+02  0.63200239352E+01  0.47787260985E+02  0.19999954136E+02 0.  0.
         12    1    1    2    0    0 -0.92867047038E+01  0.41921814849E+02 -0.63200239352E+01  0.43400739015E+02  0.00000000000E+00 0. -1.
         11    1    3    3    0    0 -0.24287755978E+01 -0.68738748687E+00 -0.17183178361E+01  0.30535338394E+01  0.51100000000E-03 0. -1.
        -11    1    3    3    0    0  0.65853159367E+00 -0.15960055544E+02 -0.90503645233E-01  0.15973892074E+02  0.51100000000E-03 0.  1.
         12    1    3    3    0    0  0.11056948708E+02 -0.25274371818E+02  0.81288454165E+01  0.28759835072E+02  0.00000000000E+00 0. -1.
</event>
<event>
 7    1  0.8440037E-011  0.4778727E+02  0.7816164E-02  0.1312668E+00
        -11   -1    0    0    0    0  0.00000000000E+00  0.00000000000E+00  0.45593999997E+02  0.45594000000E+02  0.51100000000E-03 0. -1.
         11   -1    0    0    0    0 -0.00000000000E+00 -0.00000000000E+00 -0.45593999997E+02  0.45594000000E+02  0.51100000000E-03 0.  1.
    9900012    2    1    2    0    0  0.30319458951E+01  0.14524097162E+02 -0.40785797076E+02  0.47787270312E+02  0.19999996662E+02 0.  0.
         12    1    1    2    0    0 -0.30319458951E+01 -0.14524097162E+02  0.40785797076E+02  0.43400729688E+02  0.00000000000E+00 0. -1.
         11    1    3    3    0    0  0.25825254137E+01 -0.15488628302E+01 -0.10307781915E+02  0.10738658289E+02  0.51100000000E-03 0. -1.
        -11    1    3    3    0    0  0.64049883077E+01  0.71078158450E+01 -0.95679400312E+01  0.13531090053E+02  0.51100000000E-03 0.  1.
        -12    1    3    3    0    0 -0.59555678264E+01  0.89651441472E+01 -0.20910075130E+02  0.23517521971E+02  0.00000000000E+00 0.  1.
</event>
<event>
 7    1  0.8440037E-011  0.4778728E+02  0.7816164E-02  0.1312668E+00
        -11   -1    0    0    0    0  0.00000000000E+00  0.00000000000E+00  0.45593999997E+02  0.45594000000E+02  0.51100000000E-03 0. -1.
         11   -1    0    0    0    0 -0.00000000000E+00 -0.00000000000E+00 -0.45593999997E+02  0.45594000000E+02  0.51100000000E-03 0.  1.
    9900012    2    1    2    0    0  0.18790668438E+02 -0.47396641291E+01 -0.38833863063E+02  0.47787279305E+02  0.20000037665E+02 0.  0.
         12    1    1    2    0    0 -0.18790668438E+02  0.47396641291E+01  0.38833863063E+02  0.43400720695E+02  0.00000000000E+00 0. -1.
         11    1    3    3    0    0 -0.12242986363E+01  0.33295621068E+01 -0.10412327615E+01  0.36971687680E+01  0.51100000000E-03 0. -1.
        -11    1    3    3    0    0 -0.56872195557E+00 -0.56288201498E-01 -0.57046250761E+00  0.80749040743E+00  0.51100000000E-03 0.  1.
         12    1    3    3    0    0  0.20583689030E+02 -0.80129380344E+01 -0.37222167794E+02  0.43282620130E+02  0.00000000000E+00 0. -1.
</event>
<event>
 7    1  0.8440037E-011  0.4778727E+02  0.7816164E-02  0.1312668E+00
        -11   -1    0    0    0    0  0.00000000000E+00  0.00000000000E+00  0.45593999997E+02  0.45594000000E+02  0.51100000000E-03 0. -1.
         11   -1    0    0    0    0 -0.00000000000E+00 -0.00000000000E+00 -0.45593999997E+02  0.45594000000E+02  0.51100000000E-03 0.  1.
    9900012    2    1    2    0    0  0.11981927698E+02 -0.23442746972E+02  0.34503542385E+02  0.47787269430E+02  0.19999992639E+02 0.  0.
        -12    1    1    2    0    0 -0.11981927698E+02  0.23442746972E+02 -0.34503542385E+02  0.43400730570E+02  0.00000000000E+00 0.  1.
         11    1    3    3    0    0  0.72854206567E+00 -0.68587919731E+01  0.55492095763E+01  0.88525435923E+01  0.51100000000E-03 0.  1.
        -11    1    3    3    0    0  0.15447245710E+02 -0.12673311775E+02  0.19777852541E+02  0.28113941075E+02  0.51100000000E-03 0. -1.
        -12    1    3    3    0    0 -0.41938600784E+01 -0.39106432236E+01  0.91764802672E+01  0.10820784762E+02  0.00000000000E+00 0.  1.
</event>
<event>
 7    1  0.8440037E-011  0.4778726E+02  0.7816164E-02  0.1312668E+00
        -11   -1    0    0    0    0  0.00000000000E+00  0.00000000000E+00  0.45593999997E+02  0.45594000000E+02  0.51100000000E-03 0. -1.
         11   -1    0    0    0    0 -0.00000000000E+00 -0.00000000000E+00 -0.45593999997E+02  0.45594000000E+02  0.51100000000E-03 0.  1.
    9900012    2    1    2    0    0 -0.40151556929E+02 -0.68276795632E+00  0.16462404751E+02  0.47787257309E+02  0.19999937374E+02 0.  0.
        -12    1    1    2    0    0  0.40151556929E+02  0.68276795632E+00 -0.16462404751E+02  0.43400742691E+02  0.00000000000E+00 0.  1.
         11    1    3    3    0    0 -0.96140075286E+01  0.63136422815E+01  0.55883059477E+01  0.12787508876E+02  0.51100000000E-03 0. -1.
        -11    1    3    3    0    0 -0.18350014875E+02  0.87897433851E+00  0.34205702553E+01  0.18686785249E+02  0.51100000000E-03 0.  1.
        -12    1    3    3    0    0 -0.12187534526E+02 -0.78753845763E+01  0.74535285481E+01  0.16312963185E+02  0.00000000000E+00 0.  1.
</event>
<event>
 7    1  0.8440037E-011  0.4778726E+02  0.7816164E-02  0.1312668E+00
        -11   -1    0    0    0    0  0.00000000000E+00  0.00000000000E+00  0.45593999997E+02  0.45594000000E+02  0.51100000000E-03 0. -1.
         11   -1    0    0    0    0 -0.00000000000E+00 -0.00000000000E+00 -0.45593999997E+02  0.45594000000E+02  0.51100000000E-03 0.  1.
    9900012    2    1    2    0    0  0.28412226287E+02 -0.12417726592E+02 -0.30367243043E+02  0.47787262837E+02  0.19999962578E+02 0.  0.
         12    1    1    2    0    0 -0.28412226287E+02  0.12417726592E+02  0.30367243043E+02  0.43400737163E+02  0.00000000000E+00 0. -1.
         11    1    3    3    0    0  0.20330547470E+02 -0.12613068229E+02 -0.12354326741E+02  0.26926753241E+02  0.51100000000E-03 0. -1.
        -11    1    3    3    0    0  0.24279113940E+01 -0.16288458848E+01 -0.14481703127E+01  0.32626814385E+01  0.51100000000E-03 0.  1.
        -12    1    3    3    0    0  0.56537674222E+01  0.18241875222E+01 -0.16564745989E+02  0.17597828158E+02  0.00000000000E+00 0.  1.
</event>
<event>
 7    1  0.8440037E-011  0.4778729E+02  0.7816164E-02  0.1312668E+00
        -11   -1    0    0    0    0  0.00000000000E+00  0.00000000000E+00  0.45593999997E+02  0.45594000000E+02  0.51100000000E-03 0. -1.
         11   -1    0    0    0    0 -0.00000000000E+00 -0.00000000000E+00 -0.45593999997E+02  0.45594000000E+02  0.51100000000E-03 0.  1.
    9900012    2    1    2    0    0 -0.13914448608E+02 -0.14701304121E+02  0.38391158610E+02  0.47787293988E+02  0.20000104608E+02 0.  0.
        -12    1    1    2    0    0  0.13914448608E+02  0.14701304121E+02 -0.38391158610E+02  0.43400706012E+02  0.00000000000E+00 0.  1.
         11    1    3    3    0    0 -0.92585019504E+01 -0.14932449202E+02  0.18437191769E+02  0.25468175006E+02  0.51100000000E-03 0. -1.
        -11    1    3    3    0    0 -0.14913741164E+01 -0.34921149261E+01  0.14533022078E+02  0.15020911903E+02  0.51100000000E-03 0.  1.
        -12    1    3    3    0    0 -0.31645725415E+01  0.37232600067E+01  0.54209447631E+01  0.72982070793E+01  0.00000000000E+00 0.  1.
</event>
<event>
 7    1  0.8440037E-011  0.4778728E+02  0.7816164E-02  0.1312668E+00
        -11   -1    0    0    0    0  0.00000000000E+00  0.00000000000E+00  0.45593999997E+02  0.45594000000E+02  0.51100000000E-03 0.  1.
         11   -1    0    0    0    0 -0.00000000000E+00 -0.00000000000E+00 -0.45593999997E+02  0.45594000000E+02  0.51100000000E-03 0. -1.
    9900012    2    1    2    0    0 -0.31285264164E+02  0.18544280786E+02 -0.23684694642E+02  0.47787275767E+02  0.20000021531E+02 0.  0.
         12    1    1    2    0    0  0.31285264164E+02 -0.18544280786E+02  0.23684694642E+02  0.43400724233E+02  0.00000000000E+00 0. -1.
         11    1    3    3    0    0  0.10339481039E+01  0.22598040824E+01 -0.35335661188E+01  0.43199366836E+01  0.51100000000E-03 0. -1.
        -11    1    3    3    0    0  0.63341285677E+00  0.10126708298E+01  0.89325631203E+00  0.14915163951E+01  0.51100000000E-03 0.  1.
        -12    1    3    3    0    0 -0.32952625125E+02  0.15271805874E+02 -0.21044384835E+02  0.41975822688E+02  0.00000000000E+00 0.  1.
</event>
<event>
 7    1  0.8440037E-011  0.4778727E+02  0.7816164E-02  0.1312668E+00
        -11   -1    0    0    0    0  0.00000000000E+00  0.00000000000E+00  0.45593999997E+02  0.45594000000E+02  0.51100000000E-03 0. -1.
         11   -1    0    0    0    0 -0.00000000000E+00 -0.00000000000E+00 -0.45593999997E+02  0.45594000000E+02  0.51100000000E-03 0.  1.
    9900012    2    1    2    0    0 -0.29017306610E+02 -0.18340270729E+02  0.26556608087E+02  0.47787273665E+02  0.20000011950E+02 0.  0.
        -12    1    1    2    0    0  0.29017306610E+02  0.18340270729E+02 -0.26556608087E+02  0.43400726335E+02  0.00000000000E+00 0.  1.
         11    1    3    3    0    0 -0.20042763312E+02 -0.65039141357E+01  0.16872159791E+02  0.26994129668E+02  0.51100000000E-03 0. -1.
        -11    1    3    3    0    0 -0.82799739061E+01 -0.33158712775E+01  0.16682778353E+01  0.90739253585E+01  0.51100000000E-03 0.  1.
        -12    1    3    3    0    0 -0.69456939173E+00 -0.85204853154E+01  0.80161704610E+01  0.11719218639E+02  0.00000000000E+00 0.  1.
</event>
<event>
 7    1  0.8440037E-011  0.4778727E+02  0.7816164E-02  0.1312668E+00
        -11   -1    0    0    0    0  0.00000000000E+00  0.00000000000E+00  0.45593999997E+02  0.45594000000E+02  0.51100000000E-03 0. -1.
         11   -1    0    0    0    0 -0.00000000000E+00 -0.00000000000E+00 -0.45593999997E+02  0.45594000000E+02  0.51100000000E-03 0.  1.
    9900012    2    1    2    0    0 -0.16550870614E+02  0.22163163263E+02  0.33443774471E+02  0.47787272186E+02  0.20000005204E+02 0.  0.
        -12    1    1    2    0    0  0.16550870614E+02 -0.22163163263E+02 -0.33443774471E+02  0.43400727814E+02  0.00000000000E+00 0.  1.
         11    1    3    3    0    0 -0.94587704145E+00  0.13810884717E+01 -0.23247547982E+01  0.28647118314E+01  0.51100000000E-03 0. -1.
        -11    1    3    3    0    0 -0.57705406375E+01  0.86164924983E+01  0.81826178148E+01  0.13209781103E+02  0.51100000000E-03 0.  1.
         12    1    3    3    0    0 -0.98344529349E+01  0.12165582293E+02  0.27585911455E+02  0.31712779251E+02  0.00000000000E+00 0. -1.
</event>
<event>
 7    1  0.8440037E-011  0.4778727E+02  0.7816164E-02  0.1312668E+00
        -11   -1    0    0    0    0  0.00000000000E+00  0.00000000000E+00  0.45593999997E+02  0.45594000000E+02  0.51100000000E-03 0. -1.
         11   -1    0    0    0    0 -0.00000000000E+00 -0.00000000000E+00 -0.45593999997E+02  0.45594000000E+02  0.51100000000E-03 0.  1.
    9900012    2    1    2    0    0 -0.39967842257E+01 -0.38701237352E+02  0.19231830781E+02  0.47787269915E+02  0.19999994850E+02 0.  0.
        -12    1    1    2    0    0  0.39967842257E+01  0.38701237352E+02 -0.19231830781E+02  0.43400730085E+02  0.00000000000E+00 0.  1.
         11    1    3    3    0    0  0.63399836944E+01 -0.18301494841E+02  0.13577742168E+02  0.23653650655E+02  0.51100000000E-03 0. -1.
        -11    1    3    3    0    0 -0.15830138505E+01 -0.50871428147E+01 -0.72609295550E+00  0.53770034507E+01  0.51100000000E-03 0.  1.
         12    1    3    3    0    0 -0.87537540696E+01 -0.15312599696E+02  0.63801815686E+01  0.18756615809E+02  0.00000000000E+00 0. -1.
</event>
<event>
 7    1  0.8440037E-011  0.4778727E+02  0.7816164E-02  0.1312668E+00
        -11   -1    0    0    0    0  0.00000000000E+00  0.00000000000E+00  0.45593999997E+02  0.45594000000E+02  0.51100000000E-03 0. -1.
         11   -1    0    0    0    0 -0.00000000000E+00 -0.00000000000E+00 -0.45593999997E+02  0.45594000000E+02  0.51100000000E-03 0.  1.
    9900012    2    1    2    0    0  0.87091475138E+01 -0.21131896663E+00 -0.42517397509E+02  0.47787274234E+02  0.20000014541E+02 0.  0.
         12    1    1    2    0    0 -0.87091475138E+01  0.21131896663E+00  0.42517397509E+02  0.43400725766E+02  0.00000000000E+00 0. -1.
         11    1    3    3    0    0 -0.78665020054E+00  0.49130315573E+01 -0.56999991249E+01  0.75661541027E+01  0.51100000000E-03 0. -1.
        -11    1    3    3    0    0  0.88966147138E+01 -0.77901805873E+00 -0.11675551693E+02  0.14699494212E+02  0.51100000000E-03 0.  1.
         12    1    3    3    0    0  0.59918300060E+00 -0.43453324652E+01 -0.25141846691E+02  0.25521625919E+02  0.00000000000E+00 0. -1.
</event>
<event>
 7    1  0.8440037E-011  0.4778728E+02  0.7816164E-02  0.1312668E+00
        -11   -1    0    0    0    0  0.00000000000E+00  0.00000000000E+00  0.45593999997E+02  0.45594000000E+02  0.51100000000E-03 0. -1.
         11   -1    0    0    0    0 -0.00000000000E+00 -0.00000000000E+00 -0.45593999997E+02  0.45594000000E+02  0.51100000000E-03 0.  1.
    9900012    2    1    2    0    0  0.73519710775E+01 -0.32671314056E+02 -0.27607181525E+02  0.47787277511E+02  0.20000029482E+02 0.  0.
         12    1    1    2    0    0 -0.73519710775E+01  0.32671314056E+02  0.27607181525E+02  0.43400722489E+02  0.00000000000E+00 0. -1.
         11    1    3    3    0    0  0.46776666473E+01 -0.70174486476E+01 -0.20406580784E+01  0.86769485673E+01  0.51100000000E-03 0. -1.
        -11    1    3    3    0    0  0.61902586163E+00  0.18468321795E+01 -0.24201171217E+01  0.31065976986E+01  0.51100000000E-03 0.  1.
        -12    1    3    3    0    0  0.20552785686E+01 -0.27500697588E+02 -0.23146406325E+02  0.36003731245E+02  0.00000000000E+00 0.  1.
</event>
<event>
 7    1  0.8440037E-011  0.4778727E+02  0.7816164E-02  0.1312668E+00
        -11   -1    0    0    0    0  0.00000000000E+00  0.00000000000E+00  0.45593999997E+02  0.45594000000E+02  0.51100000000E-03 0. -1.
         11   -1    0    0    0    0 -0.00000000000E+00 -0.00000000000E+00 -0.45593999997E+02  0.45594000000E+02  0.51100000000E-03 0.  1.
    9900012    2    1    2    0    0 -0.23846518988E+02  0.12206443501E+02  0.34146303456E+02  0.47787265323E+02  0.19999973914E+02 0.  0.
        -12    1    1    2    0    0  0.23846518988E+02 -0.12206443501E+02 -0.34146303456E+02  0.43400734677E+02  0.00000000000E+00 0.  1.
         11    1    3    3    0    0 -0.10841094705E+02  0.99641741156E+01  0.21563666674E+02  0.26111411699E+02  0.51100000000E-03 0. -1.
        -11    1    3    3    0    0 -0.79476078156E+01  0.70497807194E+01  0.68049314697E+01  0.12616297823E+02  0.51100000000E-03 0.  1.
        -12    1    3    3    0    0 -0.50578164682E+01 -0.48075113342E+01  0.57777053118E+01  0.90595558017E+01  0.00000000000E+00 0.  1.
</event>
<event>
 7    1  0.8440037E-011  0.4778730E+02  0.7816164E-02  0.1312668E+00
        -11   -1    0    0    0    0  0.00000000000E+00  0.00000000000E+00  0.45593999997E+02  0.45594000000E+02  0.51100000000E-03 0. -1.
         11   -1    0    0    0    0 -0.00000000000E+00 -0.00000000000E+00 -0.45593999997E+02  0.45594000000E+02  0.51100000000E-03 0.  1.
    9900012    2    1    2    0    0 -0.49599014044E+01 -0.79923122206E+01 -0.42369128871E+02  0.47787300031E+02  0.20000132159E+02 0.  0.
         12    1    1    2    0    0  0.49599014044E+01  0.79923122206E+01  0.42369128871E+02  0.43400699969E+02  0.00000000000E+00 0. -1.
         11    1    3    3    0    0 -0.27642415785E+01 -0.58963264294E+01 -0.51849721242E+01  0.83241596006E+01  0.51100000000E-03 0. -1.
        -11    1    3    3    0    0 -0.68723849812E+00 -0.22886216362E+00  0.98273978867E+00  0.12208408564E+01  0.51100000000E-03 0.  1.
        -12    1    3    3    0    0 -0.15084213278E+01 -0.18671236276E+01 -0.38166896535E+02  0.38242299574E+02  0.00000000000E+00 0.  1.
</event>
<event>
 7    1  0.8440037E-011  0.4778728E+02  0.7816164E-02  0.1312668E+00
        -11   -1    0    0    0    0  0.00000000000E+00  0.00000000000E+00  0.45593999997E+02  0.45594000000E+02  0.51100000000E-03 0. -1.
         11   -1    0    0    0    0 -0.00000000000E+00 -0.00000000000E+00 -0.45593999997E+02  0.45594000000E+02  0.51100000000E-03 0.  1.
    9900012    2    1    2    0    0 -0.79867209502E+00 -0.15734908418E+02  0.40440049334E+02  0.47787276386E+02  0.20000024355E+02 0.  0.
        -12    1    1    2    0    0  0.79867209502E+00  0.15734908418E+02 -0.40440049334E+02  0.43400723614E+02  0.00000000000E+00 0.  1.
         11    1    3    3    0    0  0.51494454740E+01 -0.10144871219E+01  0.52942028751E+01  0.74548344820E+01  0.51100000000E-03 0. -1.
        -11    1    3    3    0    0 -0.21521939665E+00 -0.16165475622E+01 -0.67240918302E+00  0.17639954025E+01  0.51100000000E-03 0.  1.
        -12    1    3    3    0    0 -0.57328981724E+01 -0.13103873734E+02  0.35818255642E+02  0.38568446502E+02  0.00000000000E+00 0.  1.
</event>
<event>
 7    1  0.8440037E-011  0.4778727E+02  0.7816164E-02  0.1312668E+00
        -11   -1    0    0    0    0  0.00000000000E+00  0.00000000000E+00  0.45593999997E+02  0.45594000000E+02  0.51100000000E-03 0. -1.
         11   -1    0    0    0    0 -0.00000000000E+00 -0.00000000000E+00 -0.45593999997E+02  0.45594000000E+02  0.51100000000E-03 0.  1.
    9900012    2    1    2    0    0  0.18938758633E+02 -0.34561892565E+02  0.18177520090E+02  0.47787271517E+02  0.20000002156E+02 0.  0.
        -12    1    1    2    0    0 -0.18938758633E+02  0.34561892565E+02 -0.18177520090E+02  0.43400728483E+02  0.00000000000E+00 0.  1.
         11    1    3    3    0    0  0.19573369949E+01  0.53523391150E+00  0.63361487066E+00  0.21258201987E+01  0.51100000000E-03 0. -1.
        -11    1    3    3    0    0  0.13298183578E+01 -0.27829708760E+00  0.54497857238E+01  0.56165853355E+01  0.51100000000E-03 0.  1.
         12    1    3    3    0    0  0.15651603280E+02 -0.34818829389E+02  0.12094119495E+02  0.40044865983E+02  0.00000000000E+00 0. -1.
</event>
<event>
 7    1  0.8440037E-011  0.4778727E+02  0.7816164E-02  0.1312668E+00
        -11   -1    0    0    0    0  0.00000000000E+00  0.00000000000E+00  0.45593999997E+02  0.45594000000E+02  0.51100000000E-03 0. -1.
         11   -1    0    0    0    0 -0.00000000000E+00 -0.00000000000E+00 -0.45593999997E+02  0.45594000000E+02  0.51100000000E-03 0.  1.
    9900012    2    1    2    0    0 -0.20857360907E+02 -0.15917062880E+02  0.34572259105E+02  0.47787268504E+02  0.19999988418E+02 0.  0.
        -12    1    1    2    0    0  0.20857360907E+02  0.15917062880E+02 -0.34572259105E+02  0.43400731496E+02  0.00000000000E+00 0.  1.
         11    1    3    3    0    0 -0.10670340893E+02 -0.77921523587E+01  0.13574586222E+02  0.18943157195E+02  0.51100000000E-03 0. -1.
        -11    1    3    3    0    0 -0.12860727731E+02 -0.10167486568E+02  0.17856421733E+02  0.24241037483E+02  0.51100000000E-03 0.  1.
        -12    1    3    3    0    0  0.26737077171E+01  0.20425760464E+01  0.31412511500E+01  0.46030738261E+01  0.00000000000E+00 0.  1.
</event>
<event>
 7    1  0.8440037E-011  0.4778727E+02  0.7816164E-02  0.1312668E+00
        -11   -1    0    0    0    0  0.00000000000E+00  0.00000000000E+00  0.45593999997E+02  0.45594000000E+02  0.51100000000E-03 0. -1.
         11   -1    0    0    0    0 -0.00000000000E+00 -0.00000000000E+00 -0.45593999997E+02  0.45594000000E+02  0.51100000000E-03 0.  1.
    9900012    2    1    2    0    0  0.91511588985E+01  0.34101808605E+02 -0.25237789072E+02  0.47787273548E+02  0.20000011413E+02 0.  0.
         12    1    1    2    0    0 -0.91511588985E+01 -0.34101808605E+02  0.25237789072E+02  0.43400726452E+02  0.00000000000E+00 0. -1.
         11    1    3    3    0    0 -0.33136816451E+01  0.17700062015E+01 -0.50688986525E+01  0.63092901192E+01  0.51100000000E-03 0. -1.
        -11    1    3    3    0    0  0.16116763726E+01  0.14578414950E+02 -0.12599826293E+02  0.19336062320E+02  0.51100000000E-03 0.  1.
        -12    1    3    3    0    0  0.10853164171E+02  0.17753387454E+02 -0.75690641272E+01  0.22141921109E+02  0.00000000000E+00 0.  1.
</event>
<event>
 7    1  0.8440037E-011  0.4778727E+02  0.7816164E-02  0.1312668E+00
        -11   -1    0    0    0    0  0.00000000000E+00  0.00000000000E+00  0.45593999997E+02  0.45594000000E+02  0.51100000000E-03 0. -1.
         11   -1    0    0    0    0 -0.00000000000E+00 -0.00000000000E+00 -0.45593999997E+02  0.45594000000E+02  0.51100000000E-03 0.  1.
    9900012    2    1    2    0    0  0.33766011132E+02  0.20465685190E+02  0.18017636284E+02  0.47787274253E+02  0.20000014631E+02 0.  0.
        -12    1    1    2    0    0 -0.33766011132E+02 -0.20465685190E+02 -0.18017636284E+02  0.43400725747E+02  0.00000000000E+00 0.  1.
         11    1    3    3    0    0  0.54353709259E+01  0.69605464842E+01  0.67871919353E+01  0.11138152409E+02  0.51100000000E-03 0. -1.
        -11    1    3    3    0    0  0.10417675772E+02  0.11784364039E+02  0.99420756883E+01  0.18607634819E+02  0.51100000000E-03 0.  1.
        -12    1    3    3    0    0  0.17912964435E+02  0.17207746664E+01  0.12883686600E+01  0.18041487025E+02  0.00000000000E+00 0.  1.
</event>
<event>
 7    1  0.1012435E-010  0.4778727E+02  0.7816164E-02  0.1312668E+00
        -11   -1    0    0    0    0  0.00000000000E+00  0.00000000000E+00  0.45593999997E+02  0.45594000000E+02  0.51100000000E-03 0. -1.
         11   -1    0    0    0    0 -0.00000000000E+00 -0.00000000000E+00 -0.45593999997E+02  0.45594000000E+02  0.51100000000E-03 0.  1.
    9900012    2    1    2    0    0  0.18975921208E+02 -0.14167465799E+02  0.36370599092E+02  0.47787272458E+02  0.20000006445E+02 0.  0.
        -12    1    1    2    0    0 -0.18975921208E+02  0.14167465799E+02 -0.36370599092E+02  0.43400727542E+02  0.00000000000E+00 0.  1.
         11    1    3    3    0    0  0.95724631205E+01 -0.48364673762E+01  0.11942444296E+02  0.16051337729E+02  0.51100000000E-03 0. -1.
        -11    1    3    3    0    0  0.24613355749E+01  0.28516279049E+01  0.23642520581E+00  0.37743677165E+01  0.51100000000E-03 0.  1.
         12    1    3    3    0    0  0.69421225128E+01 -0.12182626328E+02  0.24191729590E+02  0.27961567012E+02  0.00000000000E+00 0. -1.
</event>
<event>
 7    1  0.8440037E-011  0.4778726E+02  0.7816164E-02  0.1312668E+00
        -11   -1    0    0    0    0  0.00000000000E+00  0.00000000000E+00  0.45593999997E+02  0.45594000000E+02  0.51100000000E-03 0. -1.
         11   -1    0    0    0    0 -0.00000000000E+00 -0.00000000000E+00 -0.45593999997E+02  0.45594000000E+02  0.51100000000E-03 0.  1.
    9900012    2    1    2    0    0 -0.18262049496E+02 -0.13674696804E+02 -0.36920513942E+02  0.47787261133E+02  0.19999954810E+02 0.  0.
         12    1    1    2    0    0  0.18262049496E+02  0.13674696804E+02  0.36920513942E+02  0.43400738867E+02  0.00000000000E+00 0. -1.
         11    1    3    3    0    0  0.15764115855E+01  0.33373327935E+01 -0.60099428735E+01  0.70528205185E+01  0.51100000000E-03 0. -1.
        -11    1    3    3    0    0 -0.13248621090E+01 -0.30337645008E+01 -0.33372713522E+01  0.47006772910E+01  0.51100000000E-03 0.  1.
         12    1    3    3    0    0 -0.18513598972E+02 -0.13978265097E+02 -0.27573299716E+02  0.36033763324E+02  0.00000000000E+00 0. -1.
</event>
<event>
 7    1  0.8440037E-011  0.4778727E+02  0.7816164E-02  0.1312668E+00
        -11   -1    0    0    0    0  0.00000000000E+00  0.00000000000E+00  0.45593999997E+02  0.45594000000E+02  0.51100000000E-03 0.  1.
         11   -1    0    0    0    0 -0.00000000000E+00 -0.00000000000E+00 -0.45593999997E+02  0.45594000000E+02  0.51100000000E-03 0. -1.
    9900012    2    1    2    0    0  0.12385896292E+02  0.41204791229E+02  0.56901771033E+01  0.47787270022E+02  0.19999995339E+02 0.  0.
        -12    1    1    2    0    0 -0.12385896292E+02 -0.41204791229E+02 -0.56901771033E+01  0.43400729978E+02  0.00000000000E+00 0.  1.
         11    1    3    3    0    0  0.65087394999E+01  0.24366388499E+02  0.96036514315E+00  0.25238995222E+02  0.51100000000E-03 0. -1.
        -11    1    3    3    0    0  0.71547353860E+01  0.15812777504E+02 -0.19594598576E+00  0.17357205015E+02  0.51100000000E-03 0.  1.
        -12    1    3    3    0    0 -0.12775785943E+01  0.10256252254E+01  0.49257579459E+01  0.51910697846E+01  0.00000000000E+00 0.  1.
</event>
<event>
 7    1  0.8440037E-011  0.4778726E+02  0.7816164E-02  0.1312668E+00
        -11   -1    0    0    0    0  0.00000000000E+00  0.00000000000E+00  0.45593999997E+02  0.45594000000E+02  0.51100000000E-03 0. -1.
         11   -1    0    0    0    0 -0.00000000000E+00 -0.00000000000E+00 -0.45593999997E+02  0.45594000000E+02  0.51100000000E-03 0.  1.
    9900012    2    1    2    0    0  0.31736534437E+02  0.24505460277E+02  0.16610208815E+02  0.47787259933E+02  0.19999949340E+02 0.  0.
        -12    1    1    2    0    0 -0.31736534437E+02 -0.24505460277E+02 -0.16610208815E+02  0.43400740067E+02  0.00000000000E+00 0.  1.
         11    1    3    3    0    0  0.12055142769E+02  0.10695867210E+02  0.92077778315E+00  0.16142362731E+02  0.51100000000E-03 0. -1.
        -11    1    3    3    0    0  0.76796327176E+01  0.12729621573E+02  0.54580359662E+01  0.15836987748E+02  0.51100000000E-03 0.  1.
         12    1    3    3    0    0  0.12001758950E+02  0.10799714947E+01  0.10231395065E+02  0.15807909454E+02  0.00000000000E+00 0. -1.
</event>
<event>
 7    1  0.8440037E-011  0.4778727E+02  0.7816164E-02  0.1312668E+00
        -11   -1    0    0    0    0  0.00000000000E+00  0.00000000000E+00  0.45593999997E+02  0.45594000000E+02  0.51100000000E-03 0. -1.
         11   -1    0    0    0    0 -0.00000000000E+00 -0.00000000000E+00 -0.45593999997E+02  0.45594000000E+02  0.51100000000E-03 0.  1.
    9900012    2    1    2    0    0 -0.41563367955E+02 -0.10616153546E+02  0.65884005366E+01  0.47787270818E+02  0.19999998969E+02 0.  0.
        -12    1    1    2    0    0  0.41563367955E+02  0.10616153546E+02 -0.65884005366E+01  0.43400729182E+02  0.00000000000E+00 0.  1.
         11    1    3    3    0    0 -0.13460432558E+02 -0.30658891746E+01 -0.30330773597E+00  0.13808508859E+02  0.51100000000E-03 0. -1.
        -11    1    3    3    0    0  0.15588693103E+01  0.72544630987E+00 -0.12503054268E+01  0.21259373924E+01  0.51100000000E-03 0.  1.
        -12    1    3    3    0    0 -0.29661804708E+02 -0.82757106811E+01  0.81420136994E+01  0.31852824567E+02  0.00000000000E+00 0.  1.
</event>
<event>
 7    1  0.8440037E-011  0.4778727E+02  0.7816164E-02  0.1312668E+00
        -11   -1    0    0    0    0  0.00000000000E+00  0.00000000000E+00  0.45593999997E+02  0.45594000000E+02  0.51100000000E-03 0. -1.
         11   -1    0    0    0    0 -0.00000000000E+00 -0.00000000000E+00 -0.45593999997E+02  0.45594000000E+02  0.51100000000E-03 0.  1.
    9900012    2    1    2    0    0  0.87316404673E+01  0.91105580841E+01 -0.41525644587E+02  0.47787274520E+02  0.20000015846E+02 0.  0.
         12    1    1    2    0    0 -0.87316404673E+01 -0.91105580841E+01  0.41525644587E+02  0.43400725480E+02  0.00000000000E+00 0. -1.
         11    1    3    3    0    0 -0.45861178536E+01  0.29482769243E+01 -0.16438657639E+02  0.17319188174E+02  0.51100000000E-03 0. -1.
        -11    1    3    3    0    0  0.34000543998E+01 -0.14055437651E+01 -0.19063702142E+01  0.41436904869E+01  0.51100000000E-03 0.  1.
        -12    1    3    3    0    0  0.99177039211E+01  0.75678249249E+01 -0.23180616734E+02  0.26324395858E+02  0.00000000000E+00 0.  1.
</event>
<event>
 7    1  0.8440037E-011  0.4778727E+02  0.7816164E-02  0.1312668E+00
        -11   -1    0    0    0    0  0.00000000000E+00  0.00000000000E+00  0.45593999997E+02  0.45594000000E+02  0.51100000000E-03 0. -1.
         11   -1    0    0    0    0 -0.00000000000E+00 -0.00000000000E+00 -0.45593999997E+02  0.45594000000E+02  0.51100000000E-03 0.  1.
    9900012    2    1    2    0    0  0.25598099120E+02  0.16025317835E+02 -0.31169697194E+02  0.47787268284E+02  0.19999987416E+02 0.  0.
         12    1    1    2    0    0 -0.25598099120E+02 -0.16025317835E+02  0.31169697194E+02  0.43400731716E+02  0.00000000000E+00 0. -1.
         11    1    3    3    0    0  0.18180031532E+02  0.63177267501E+01 -0.16926902999E+02  0.25630982486E+02  0.51100000000E-03 0. -1.
        -11    1    3    3    0    0  0.65758347539E+01  0.24259102490E+01 -0.12932697517E+02  0.14709905117E+02  0.51100000000E-03 0.  1.
         12    1    3    3    0    0  0.84223283439E+00  0.72816808359E+01 -0.13100966786E+01  0.74463806813E+01  0.00000000000E+00 0. -1.
</event>
<event>
 7    1  0.8440037E-011  0.4778727E+02  0.7816164E-02  0.1312668E+00
        -11   -1    0    0    0    0  0.00000000000E+00  0.00000000000E+00  0.45593999997E+02  0.45594000000E+02  0.51100000000E-03 0. -1.
         11   -1    0    0    0    0 -0.00000000000E+00 -0.00000000000E+00 -0.45593999997E+02  0.45594000000E+02  0.51100000000E-03 0.  1.
    9900012    2    1    2    0    0 -0.12688633537E+02  0.14936995476E+02 -0.38723477501E+02  0.47787274607E+02  0.20000016241E+02 0.  0.
         12    1    1    2    0    0  0.12688633537E+02 -0.14936995476E+02  0.38723477501E+02  0.43400725393E+02  0.00000000000E+00 0. -1.
         11    1    3    3    0    0  0.23602576927E+01  0.78512908121E+00 -0.49322399011E+00  0.25358458580E+01  0.51100000000E-03 0. -1.
        -11    1    3    3    0    0 -0.18238544527E+01  0.91723648283E+01 -0.20849378427E+02  0.22850717771E+02  0.51100000000E-03 0.  1.
        -12    1    3    3    0    0 -0.13225036777E+02  0.49795015667E+01 -0.17380875084E+02  0.22400710978E+02  0.00000000000E+00 0.  1.
</event>
<event>
 7    1  0.8440037E-011  0.4778727E+02  0.7816164E-02  0.1312668E+00
        -11   -1    0    0    0    0  0.00000000000E+00  0.00000000000E+00  0.45593999997E+02  0.45594000000E+02  0.51100000000E-03 0. -1.
         11   -1    0    0    0    0 -0.00000000000E+00 -0.00000000000E+00 -0.45593999997E+02  0.45594000000E+02  0.51100000000E-03 0.  1.
    9900012    2    1    2    0    0 -0.28304647493E+02 -0.94703396326E+01 -0.31508454756E+02  0.47787272776E+02  0.20000007895E+02 0.  0.
         12    1    1    2    0    0  0.28304647493E+02  0.94703396326E+01  0.31508454756E+02  0.43400727224E+02  0.00000000000E+00 0. -1.
         11    1    3    3    0    0 -0.19730503415E+02 -0.58904414071E+01 -0.13973406279E+02  0.24884656885E+02  0.51100000000E-03 0. -1.
        -11    1    3    3    0    0 -0.93974333923E+01 -0.65197704871E+01 -0.11975373145E+02  0.16559852771E+02  0.51100000000E-03 0.  1.
         12    1    3    3    0    0  0.82328931415E+00  0.29398722615E+01 -0.55596753313E+01  0.63427631201E+01  0.00000000000E+00 0. -1.
</event>
<event>
 7    1  0.8440037E-011  0.4778727E+02  0.7816164E-02  0.1312668E+00
        -11   -1    0    0    0    0  0.00000000000E+00  0.00000000000E+00  0.45593999997E+02  0.45594000000E+02  0.51100000000E-03 0. -1.
         11   -1    0    0    0    0 -0.00000000000E+00 -0.00000000000E+00 -0.45593999997E+02  0.45594000000E+02  0.51100000000E-03 0.  1.
    9900012    2    1    2    0    0 -0.21906692001E+02 -0.33344135702E+02  0.17084755412E+02  0.47787269504E+02  0.19999992974E+02 0.  0.
        -12    1    1    2    0    0  0.21906692001E+02  0.33344135702E+02 -0.17084755412E+02  0.43400730496E+02  0.00000000000E+00 0.  1.
         11    1    3    3    0    0 -0.38376565918E+01 -0.98145572475E+00  0.95599604974E-01  0.39623229300E+01  0.51100000000E-03 0. -1.
        -11    1    3    3    0    0 -0.17047311231E+02 -0.26841806630E+02  0.72973847904E+01  0.32624304259E+02  0.51100000000E-03 0.  1.
        -12    1    3    3    0    0 -0.10217241789E+01 -0.55208733472E+01  0.96917710169E+01  0.11200642315E+02  0.00000000000E+00 0.  1.
</event>
<event>
 7    1  0.8440037E-011  0.4778727E+02  0.7816164E-02  0.1312668E+00
        -11   -1    0    0    0    0  0.00000000000E+00  0.00000000000E+00  0.45593999997E+02  0.45594000000E+02  0.51100000000E-03 0. -1.
         11   -1    0    0    0    0 -0.00000000000E+00 -0.00000000000E+00 -0.45593999997E+02  0.45594000000E+02  0.51100000000E-03 0.  1.
    9900012    2    1    2    0    0 -0.30274642393E+02  0.26518948872E+02  0.16242379482E+02  0.47787268295E+02  0.19999987464E+02 0.  0.
        -12    1    1    2    0    0  0.30274642393E+02 -0.26518948872E+02 -0.16242379482E+02  0.43400731705E+02  0.00000000000E+00 0.  1.
         11    1    3    3    0    0 -0.99879512808E+01  0.11217472657E+02  0.30319727764E+01  0.15322653907E+02  0.51100000000E-03 0. -1.
        -11    1    3    3    0    0 -0.19307666792E+02  0.17277212235E+02  0.85071361001E+01  0.27270119627E+02  0.51100000000E-03 0.  1.
        -12    1    3    3    0    0 -0.97902431973E+00 -0.19757360190E+01  0.47032706050E+01  0.51944947607E+01  0.00000000000E+00 0.  1.
</event>
<event>
 7    1  0.8440037E-011  0.4778723E+02  0.7816164E-02  0.1312668E+00
        -11   -1    0    0    0    0  0.00000000000E+00  0.00000000000E+00  0.45593999997E+02  0.45594000000E+02  0.51100000000E-03 0. -1.
         11   -1    0    0    0    0 -0.00000000000E+00 -0.00000000000E+00 -0.45593999997E+02  0.45594000000E+02  0.51100000000E-03 0.  1.
    9900012    2    1    2    0    0 -0.63429796412E+00  0.11257324276E+02  0.41910583554E+02  0.47787231601E+02  0.19999820163E+02 0.  0.
        -12    1    1    2    0    0  0.63429796412E+00 -0.11257324276E+02 -0.41910583554E+02  0.43400768399E+02  0.00000000000E+00 0.  1.
         11    1    3    3    0    0  0.30728565207E+01 -0.20308691581E+01  0.21827201791E+01  0.42814885701E+01  0.51100000000E-03 0. -1.
        -11    1    3    3    0    0 -0.58818172984E-01 -0.34849422415E+00 -0.64536955474E+00  0.73580562994E+00  0.51100000000E-03 0.  1.
         12    1    3    3    0    0 -0.36483363119E+01  0.13636687659E+02  0.40373232929E+02  0.42769937401E+02  0.00000000000E+00 0. -1.
</event>
<event>
 7    1  0.8440037E-011  0.4778727E+02  0.7816164E-02  0.1312668E+00
        -11   -1    0    0    0    0  0.00000000000E+00  0.00000000000E+00  0.45593999997E+02  0.45594000000E+02  0.51100000000E-03 0. -1.
         11   -1    0    0    0    0 -0.00000000000E+00 -0.00000000000E+00 -0.45593999997E+02  0.45594000000E+02  0.51100000000E-03 0.  1.
    9900012    2    1    2    0    0  0.17216621235E+02  0.89058925454E+01 -0.38831643632E+02  0.47787268256E+02  0.19999987285E+02 0.  0.
         12    1    1    2    0    0 -0.17216621235E+02 -0.89058925454E+01  0.38831643632E+02  0.43400731744E+02  0.00000000000E+00 0. -1.
         11    1    3    3    0    0  0.84543510042E+01  0.78962034769E+01 -0.10097299029E+02  0.15355179198E+02  0.51100000000E-03 0. -1.
        -11    1    3    3    0    0  0.54252582144E+01  0.50101176619E+01 -0.73377801144E+01  0.10410462187E+02  0.51100000000E-03 0.  1.
         12    1    3    3    0    0  0.33370120159E+01 -0.40004285934E+01 -0.21396564489E+02  0.22021626871E+02  0.00000000000E+00 0. -1.
</event>
<event>
 7    1  0.8440037E-011  0.4778723E+02  0.7816164E-02  0.1312668E+00
        -11   -1    0    0    0    0  0.00000000000E+00  0.00000000000E+00  0.45593999997E+02  0.45594000000E+02  0.51100000000E-03 0. -1.
         11   -1    0    0    0    0 -0.00000000000E+00 -0.00000000000E+00 -0.45593999997E+02  0.45594000000E+02  0.51100000000E-03 0.  1.
    9900012    2    1    2    0    0  0.30951201162E+02 -0.75085148904E+00  0.30415224399E+02  0.47787233802E+02  0.19999830198E+02 0.  0.
        -12    1    1    2    0    0 -0.30951201162E+02  0.75085148904E+00 -0.30415224399E+02  0.43400766198E+02  0.00000000000E+00 0.  1.
         11    1    3    3    0    0  0.96014951707E+01 -0.26640715187E+01  0.17517276408E+02  0.20152939230E+02  0.51100000000E-03 0. -1.
        -11    1    3    3    0    0  0.18628900342E+02 -0.25102064134E+00  0.14687769651E+02  0.23724028260E+02  0.51100000000E-03 0.  1.
         12    1    3    3    0    0  0.27208056491E+01  0.21642406710E+01 -0.17898216600E+01  0.39102663128E+01  0.00000000000E+00 0. -1.
</event>
<event>
 7    1  0.8440037E-011  0.4778727E+02  0.7816164E-02  0.1312668E+00
        -11   -1    0    0    0    0  0.00000000000E+00  0.00000000000E+00  0.45593999997E+02  0.45594000000E+02  0.51100000000E-03 0. -1.
         11   -1    0    0    0    0 -0.00000000000E+00 -0.00000000000E+00 -0.45593999997E+02  0.45594000000E+02  0.51100000000E-03 0.  1.
    9900012    2    1    2    0    0  0.23364489940E+02  0.73447789506E+01 -0.35829851363E+02  0.47787269400E+02  0.19999992501E+02 0.  0.
         12    1    1    2    0    0 -0.23364489940E+02 -0.73447789506E+01  0.35829851363E+02  0.43400730600E+02  0.00000000000E+00 0. -1.
         11    1    3    3    0    0  0.17859456092E+02  0.72565717801E+01 -0.16546494809E+02  0.25404812470E+02  0.51100000000E-03 0. -1.
        -11    1    3    3    0    0  0.15633922299E+01  0.95743715282E+00  0.72470737061E+00  0.19713148405E+01  0.51100000000E-03 0.  1.
        -12    1    3    3    0    0  0.39416416185E+01 -0.86922998234E+00 -0.20008063924E+02  0.20411142090E+02  0.00000000000E+00 0.  1.
</event>
<event>
 7    1  0.8440037E-011  0.4778727E+02  0.7816164E-02  0.1312668E+00
        -11   -1    0    0    0    0  0.00000000000E+00  0.00000000000E+00  0.45593999997E+02  0.45594000000E+02  0.51100000000E-03 0. -1.
         11   -1    0    0    0    0 -0.00000000000E+00 -0.00000000000E+00 -0.45593999997E+02  0.45594000000E+02  0.51100000000E-03 0.  1.
    9900012    2    1    2    0    0  0.29886074980E+02  0.10262456682E+02  0.29751100492E+02  0.47787268723E+02  0.19999989417E+02 0.  0.
        -12    1    1    2    0    0 -0.29886074980E+02 -0.10262456682E+02 -0.29751100492E+02  0.43400731277E+02  0.00000000000E+00 0.  1.
         11    1    3    3    0    0  0.20173885335E+02  0.27698928247E+01  0.13384536792E+02  0.24368089403E+02  0.51100000000E-03 0. -1.
        -11    1    3    3    0    0  0.25540246065E-01 -0.14743212292E+01  0.71980544497E+01  0.73475345193E+01  0.51100000000E-03 0.  1.
         12    1    3    3    0    0  0.96866493988E+01  0.89668850864E+01  0.91685092508E+01  0.16071644801E+02  0.00000000000E+00 0. -1.
</event>
<event>
 7    1  0.8440037E-011  0.4778728E+02  0.7816164E-02  0.1312668E+00
        -11   -1    0    0    0    0  0.00000000000E+00  0.00000000000E+00  0.45593999997E+02  0.45594000000E+02  0.51100000000E-03 0. -1.
         11   -1    0    0    0    0 -0.00000000000E+00 -0.00000000000E+00 -0.45593999997E+02  0.45594000000E+02  0.51100000000E-03 0.  1.
    9900012    2    1    2    0    0 -0.32789575885E+02  0.27654944595E+02  0.66083788981E+01  0.47787275133E+02  0.20000018644E+02 0.  0.
        -12    1    1    2    0    0  0.32789575885E+02 -0.27654944595E+02 -0.66083788981E+01  0.43400724867E+02  0.00000000000E+00 0.  1.
         11    1    3    3    0    0 -0.94143833938E+00  0.54491608606E+01 -0.17140296533E+01  0.57894350455E+01  0.51100000000E-03 0.  1.
        -11    1    3    3    0    0 -0.27750530648E+02  0.21606591550E+02  0.11250839234E+02  0.36925846414E+02  0.51100000000E-03 0. -1.
         12    1    3    3    0    0 -0.40976068979E+01  0.59919218398E+00 -0.29284306830E+01  0.50719936739E+01  0.00000000000E+00 0. -1.
</event>
<event>
 7    1  0.8440037E-011  0.4778727E+02  0.7816164E-02  0.1312668E+00
        -11   -1    0    0    0    0  0.00000000000E+00  0.00000000000E+00  0.45593999997E+02  0.45594000000E+02  0.51100000000E-03 0. -1.
         11   -1    0    0    0    0 -0.00000000000E+00 -0.00000000000E+00 -0.45593999997E+02  0.45594000000E+02  0.51100000000E-03 0.  1.
    9900012    2    1    2    0    0  0.36502330278E+00  0.10852829596E+02  0.42020308173E+02  0.47787269001E+02  0.19999990685E+02 0.  0.
        -12    1    1    2    0    0 -0.36502330278E+00 -0.10852829596E+02 -0.42020308173E+02  0.43400730999E+02  0.00000000000E+00 0.  1.
         11    1    3    3    0    0  0.13803341629E+01 -0.64736968302E+00  0.10888539603E+02  0.10994758063E+02  0.51100000000E-03 0. -1.
        -11    1    3    3    0    0  0.36265559385E+00 -0.30657785375E+01  0.13656223915E+02  0.14000820298E+02  0.51100000000E-03 0.  1.
         12    1    3    3    0    0 -0.13779664540E+01  0.14565977816E+02  0.17475544655E+02  0.22791690641E+02  0.00000000000E+00 0. -1.
</event>
<event>
 7    1  0.8440037E-011  0.4778727E+02  0.7816164E-02  0.1312668E+00
        -11   -1    0    0    0    0  0.00000000000E+00  0.00000000000E+00  0.45593999997E+02  0.45594000000E+02  0.51100000000E-03 0.  1.
         11   -1    0    0    0    0 -0.00000000000E+00 -0.00000000000E+00 -0.45593999997E+02  0.45594000000E+02  0.51100000000E-03 0. -1.
    9900012    2    1    2    0    0 -0.29138009946E+02 -0.26903827205E+02 -0.17629060018E+02  0.47787270755E+02  0.19999998680E+02 0.  0.
         12    1    1    2    0    0  0.29138009946E+02  0.26903827205E+02  0.17629060018E+02  0.43400729245E+02  0.00000000000E+00 0. -1.
         11    1    3    3    0    0 -0.15859626438E+02 -0.12856175580E+02 -0.11382470079E+02  0.23374550833E+02  0.51100000000E-03 0. -1.
        -11    1    3    3    0    0 -0.14481193687E+02 -0.11950914727E+02 -0.89384396915E+01  0.20794831997E+02  0.51100000000E-03 0.  1.
        -12    1    3    3    0    0  0.12028101790E+01 -0.20967368990E+01  0.26918497522E+01  0.36178879251E+01  0.00000000000E+00 0.  1.
</event>
<event>
 7    1  0.8440037E-011  0.4778727E+02  0.7816164E-02  0.1312668E+00
        -11   -1    0    0    0    0  0.00000000000E+00  0.00000000000E+00  0.45593999997E+02  0.45594000000E+02  0.51100000000E-03 0. -1.
         11   -1    0    0    0    0 -0.00000000000E+00 -0.00000000000E+00 -0.45593999997E+02  0.45594000000E+02  0.51100000000E-03 0.  1.
    9900012    2    1    2    0    0  0.35714195671E+02 -0.11636334878E+02  0.21742012828E+02  0.47787272085E+02  0.20000004742E+02 0.  0.
        -12    1    1    2    0    0 -0.35714195671E+02  0.11636334878E+02 -0.21742012828E+02  0.43400727915E+02  0.00000000000E+00 0.  1.
         11    1    3    3    0    0  0.15946990930E+02 -0.10503366464E+02  0.10185666693E+02  0.21641973871E+02  0.51100000000E-03 0. -1.
        -11    1    3    3    0    0  0.14217410802E+02 -0.58052472884E+01  0.44469453770E+01  0.15987838799E+02  0.51100000000E-03 0.  1.
        -12    1    3    3    0    0  0.55497939380E+01  0.46722788741E+01  0.71094007572E+01  0.10157459415E+02  0.00000000000E+00 0.  1.
</event>
<event>
 7    1  0.8440037E-011  0.4778726E+02  0.7816164E-02  0.1312668E+00
        -11   -1    0    0    0    0  0.00000000000E+00  0.00000000000E+00  0.45593999997E+02  0.45594000000E+02  0.51100000000E-03 0. -1.
         11   -1    0    0    0    0 -0.00000000000E+00 -0.00000000000E+00 -0.45593999997E+02  0.45594000000E+02  0.51100000000E-03 0.  1.
    9900012    2    1    2    0    0 -0.34467920624E+02  0.41213999277E+01 -0.26049963012E+02  0.47787261960E+02  0.19999958580E+02 0.  0.
         12    1    1    2    0    0  0.34467920624E+02 -0.41213999277E+01  0.26049963012E+02  0.43400738040E+02  0.00000000000E+00 0. -1.
         11    1    3    3    0    0 -0.18544292530E+01 -0.70126455124E+00 -0.31658976616E+00  0.20077124212E+01  0.51100000000E-03 0. -1.
        -11    1    3    3    0    0 -0.19695093416E+02  0.27447124485E+01 -0.25950367794E+02  0.32693298089E+02  0.51100000000E-03 0.  1.
        -12    1    3    3    0    0 -0.12918397955E+02  0.20779520305E+01  0.21699454734E+00  0.13086251449E+02  0.00000000000E+00 0.  1.
</event>
<event>
 7    1  0.8440037E-011  0.4778727E+02  0.7816164E-02  0.1312668E+00
        -11   -1    0    0    0    0  0.00000000000E+00  0.00000000000E+00  0.45593999997E+02  0.45594000000E+02  0.51100000000E-03 0.  1.
         11   -1    0    0    0    0 -0.00000000000E+00 -0.00000000000E+00 -0.45593999997E+02  0.45594000000E+02  0.51100000000E-03 0. -1.
    9900012    2    1    2    0    0 -0.26226435299E+02 -0.33821208569E+02  0.72057640314E+01  0.47787273130E+02  0.20000009510E+02 0.  0.
        -12    1    1    2    0    0  0.26226435299E+02  0.33821208569E+02 -0.72057640314E+01  0.43400726870E+02  0.00000000000E+00 0.  1.
         11    1    3    3    0    0 -0.16289772142E+02 -0.25173422699E+02  0.13450032878E+02  0.32862764210E+02  0.51100000000E-03 0. -1.
        -11    1    3    3    0    0 -0.16326509686E+01 -0.31366697613E+00 -0.13517831914E+00  0.16679956823E+01  0.51100000000E-03 0.  1.
         12    1    3    3    0    0 -0.83040121878E+01 -0.83341188943E+01 -0.61090905278E+01  0.13256513238E+02  0.00000000000E+00 0. -1.
</event>
<event>
 7    1  0.8440037E-011  0.4778726E+02  0.7816164E-02  0.1312668E+00
        -11   -1    0    0    0    0  0.00000000000E+00  0.00000000000E+00  0.45593999997E+02  0.45594000000E+02  0.51100000000E-03 0.  1.
         11   -1    0    0    0    0 -0.00000000000E+00 -0.00000000000E+00 -0.45593999997E+02  0.45594000000E+02  0.51100000000E-03 0. -1.
    9900012    2    1    2    0    0 -0.33866190589E+02  0.21500341734E+02  0.16566238881E+02  0.47787264634E+02  0.19999970772E+02 0.  0.
         12    1    1    2    0    0  0.33866190589E+02 -0.21500341734E+02 -0.16566238881E+02  0.43400735366E+02  0.00000000000E+00 0. -1.
         11    1    3    3    0    0 -0.16592608884E+02  0.37703336485E+01  0.43663369633E+00  0.17021184877E+02  0.51100000000E-03 0. -1.
        -11    1    3    3    0    0 -0.58621201640E+01  0.19710502363E+01  0.13444099122E+01  0.63290544415E+01  0.51100000000E-03 0.  1.
        -12    1    3    3    0    0 -0.11411461541E+02  0.15758957849E+02  0.14785195272E+02  0.24437025315E+02  0.00000000000E+00 0.  1.
</event>
<event>
 7    1  0.8440037E-011  0.4778727E+02  0.7816164E-02  0.1312668E+00
        -11   -1    0    0    0    0  0.00000000000E+00  0.00000000000E+00  0.45593999997E+02  0.45594000000E+02  0.51100000000E-03 0. -1.
         11   -1    0    0    0    0 -0.00000000000E+00 -0.00000000000E+00 -0.45593999997E+02  0.45594000000E+02  0.51100000000E-03 0.  1.
    9900012    2    1    2    0    0 -0.29322569588E+02  0.10374976356E+02 -0.30268299216E+02  0.47787272367E+02  0.20000006032E+02 0.  0.
         12    1    1    2    0    0  0.29322569588E+02 -0.10374976356E+02  0.30268299216E+02  0.43400727633E+02  0.00000000000E+00 0. -1.
         11    1    3    3    0    0 -0.14172843687E+02 -0.13121492698E+01 -0.13376737855E+02  0.19532750697E+02  0.51100000000E-03 0. -1.
        -11    1    3    3    0    0 -0.13381774342E+02  0.40792444129E+01 -0.69771394953E+01  0.15633060971E+02  0.51100000000E-03 0.  1.
         12    1    3    3    0    0 -0.17679515588E+01  0.76078812130E+01 -0.99144218654E+01  0.12621460700E+02  0.00000000000E+00 0. -1.
</event>
<event>
 7    1  0.8440037E-011  0.4778727E+02  0.7816164E-02  0.1312668E+00
        -11   -1    0    0    0    0  0.00000000000E+00  0.00000000000E+00  0.45593999997E+02  0.45594000000E+02  0.51100000000E-03 0. -1.
         11   -1    0    0    0    0 -0.00000000000E+00 -0.00000000000E+00 -0.45593999997E+02  0.45594000000E+02  0.51100000000E-03 0.  1.
    9900012    2    1    2    0    0  0.24609236564E+02 -0.28410063120E+02  0.21699701851E+02  0.47787271075E+02  0.20000000139E+02 0.  0.
        -12    1    1    2    0    0 -0.24609236564E+02  0.28410063120E+02 -0.21699701851E+02  0.43400728925E+02  0.00000000000E+00 0.  1.
         11    1    3    3    0    0 -0.10252139982E+01 -0.86081683997E+00 -0.52008880528E+00  0.14361622473E+01  0.51100000000E-03 0. -1.
        -11    1    3    3    0    0 -0.11544811978E+00 -0.21361806984E+01  0.66121094062E+01  0.69495746133E+01  0.51100000000E-03 0.  1.
         12    1    3    3    0    0  0.25749898682E+02 -0.25413065582E+02  0.15607681250E+02  0.39401534214E+02  0.00000000000E+00 0. -1.
</event>
<event>
 7    1  0.8440037E-011  0.4778727E+02  0.7816164E-02  0.1312668E+00
        -11   -1    0    0    0    0  0.00000000000E+00  0.00000000000E+00  0.45593999997E+02  0.45594000000E+02  0.51100000000E-03 0. -1.
         11   -1    0    0    0    0 -0.00000000000E+00 -0.00000000000E+00 -0.45593999997E+02  0.45594000000E+02  0.51100000000E-03 0.  1.
    9900012    2    1    2    0    0 -0.12835007503E+02 -0.59006891523E+01 -0.41037395104E+02  0.47787270202E+02  0.19999996161E+02 0.  0.
         12    1    1    2    0    0  0.12835007503E+02  0.59006891523E+01  0.41037395104E+02  0.43400729798E+02  0.00000000000E+00 0. -1.
         11    1    3    3    0    0  0.37114276629E+01  0.16926722575E+01 -0.17112289467E+02  0.17591767556E+02  0.51100000000E-03 0. -1.
        -11    1    3    3    0    0 -0.31504843822E+01 -0.20113893793E+01 -0.33640773785E+01  0.50287429788E+01  0.51100000000E-03 0.  1.
         12    1    3    3    0    0 -0.13395950783E+02 -0.55819720305E+01 -0.20561028258E+02  0.25166759668E+02  0.00000000000E+00 0. -1.
</event>
<event>
 7    1  0.8440037E-011  0.4778727E+02  0.7816164E-02  0.1312668E+00
        -11   -1    0    0    0    0  0.00000000000E+00  0.00000000000E+00  0.45593999997E+02  0.45594000000E+02  0.51100000000E-03 0.  1.
         11   -1    0    0    0    0 -0.00000000000E+00 -0.00000000000E+00 -0.45593999997E+02  0.45594000000E+02  0.51100000000E-03 0. -1.
    9900012    2    1    2    0    0 -0.61285574766E+01  0.42674596304E+02  0.49942994195E+01  0.47787269440E+02  0.19999992682E+02 0.  0.
         12    1    1    2    0    0  0.61285574766E+01 -0.42674596304E+02 -0.49942994195E+01  0.43400730560E+02  0.00000000000E+00 0. -1.
         11    1    3    3    0    0  0.70063791192E+00 -0.18779242615E+00  0.11089957647E+01  0.13251533293E+01  0.51100000000E-03 0. -1.
        -11    1    3    3    0    0  0.51225401202E+01  0.15363097831E+02 -0.23359686240E+00  0.16196288464E+02  0.51100000000E-03 0.  1.
         12    1    3    3    0    0 -0.11951735509E+02  0.27499290900E+02  0.41189005172E+01  0.30265827646E+02  0.00000000000E+00 0. -1.
</event>
<event>
 7    1  0.8440037E-011  0.4778728E+02  0.7816164E-02  0.1312668E+00
        -11   -1    0    0    0    0  0.00000000000E+00  0.00000000000E+00  0.45593999997E+02  0.45594000000E+02  0.51100000000E-03 0. -1.
         11   -1    0    0    0    0 -0.00000000000E+00 -0.00000000000E+00 -0.45593999997E+02  0.45594000000E+02  0.51100000000E-03 0.  1.
    9900012    2    1    2    0    0 -0.72437027719E+01  0.24543267468E+02  0.35053949830E+02  0.47787278732E+02  0.20000035051E+02 0.  0.
        -12    1    1    2    0    0  0.72437027719E+01 -0.24543267468E+02 -0.35053949830E+02  0.43400721268E+02  0.00000000000E+00 0.  1.
         11    1    3    3    0    0 -0.60259468927E+01  0.64436083477E+01  0.14010488431E+02  0.16556748196E+02  0.51100000000E-03 0. -1.
        -11    1    3    3    0    0 -0.75133854338E+01  0.91310633109E+01  0.13394295737E+02  0.17867132854E+02  0.51100000000E-03 0.  1.
        -12    1    3    3    0    0  0.62956295546E+01  0.89685958099E+01  0.76491656625E+01  0.13363397683E+02  0.00000000000E+00 0.  1.
</event>
<event>
 7    1  0.8440037E-011  0.4778727E+02  0.7816164E-02  0.1312668E+00
        -11   -1    0    0    0    0  0.00000000000E+00  0.00000000000E+00  0.45593999997E+02  0.45594000000E+02  0.51100000000E-03 0. -1.
         11   -1    0    0    0    0 -0.00000000000E+00 -0.00000000000E+00 -0.45593999997E+02  0.45594000000E+02  0.51100000000E-03 0.  1.
    9900012    2    1    2    0    0 -0.69021043097E-01  0.83740292722E+01 -0.42585139059E+02  0.47787271909E+02  0.20000003942E+02 0.  0.
         12    1    1    2    0    0  0.69021043097E-01 -0.83740292722E+01  0.42585139059E+02  0.43400728091E+02  0.00000000000E+00 0. -1.
         11    1    3    3    0    0 -0.47970353058E+01  0.46034863937E+01 -0.10224497733E+02  0.12196064482E+02  0.51100000000E-03 0. -1.
        -11    1    3    3    0    0 -0.46612718692E+01  0.47646187968E+00 -0.13088592491E+02  0.13902004353E+02  0.51100000000E-03 0.  1.
        -12    1    3    3    0    0  0.93892861318E+01  0.32940809988E+01 -0.19272048835E+02  0.21689203074E+02  0.00000000000E+00 0.  1.
</event>
<event>
 7    1  0.8440037E-011  0.4778727E+02  0.7816164E-02  0.1312668E+00
        -11   -1    0    0    0    0  0.00000000000E+00  0.00000000000E+00  0.45593999997E+02  0.45594000000E+02  0.51100000000E-03 0. -1.
         11   -1    0    0    0    0 -0.00000000000E+00 -0.00000000000E+00 -0.45593999997E+02  0.45594000000E+02  0.51100000000E-03 0.  1.
    9900012    2    1    2    0    0 -0.12777574002E+02  0.11722394371E+02 -0.39786204736E+02  0.47787274033E+02  0.20000013626E+02 0.  0.
         12    1    1    2    0    0  0.12777574002E+02 -0.11722394371E+02  0.39786204736E+02  0.43400725967E+02  0.00000000000E+00 0. -1.
         11    1    3    3    0    0 -0.86558589252E+00 -0.47616524883E+01 -0.42511574744E+01  0.64416545615E+01  0.51100000000E-03 0. -1.
        -11    1    3    3    0    0  0.18908131139E+00  0.28028956661E+01 -0.58877095275E+01  0.65235802745E+01  0.51100000000E-03 0.  1.
        -12    1    3    3    0    0 -0.12101069421E+02  0.13681151193E+02 -0.29647337734E+02  0.34822039197E+02  0.00000000000E+00 0.  1.
</event>
<event>
 7    1  0.8440037E-011  0.4778727E+02  0.7816164E-02  0.1312668E+00
        -11   -1    0    0    0    0  0.00000000000E+00  0.00000000000E+00  0.45593999997E+02  0.45594000000E+02  0.51100000000E-03 0.  1.
         11   -1    0    0    0    0 -0.00000000000E+00 -0.00000000000E+00 -0.45593999997E+02  0.45594000000E+02  0.51100000000E-03 0. -1.
    9900012    2    1    2    0    0 -0.24968992568E+02 -0.34940078998E+02  0.62740506287E+01  0.47787269343E+02  0.19999992243E+02 0.  0.
        -12    1    1    2    0    0  0.24968992568E+02  0.34940078998E+02 -0.62740506287E+01  0.43400730657E+02  0.00000000000E+00 0.  1.
         11    1    3    3    0    0 -0.16214620634E+02 -0.24221732759E+02  0.95719534896E+01  0.30679448398E+02  0.51100000000E-03 0. -1.
        -11    1    3    3    0    0 -0.44681847993E+01 -0.24320097207E+01  0.29491026708E+01  0.58801831184E+01  0.51100000000E-03 0.  1.
        -12    1    3    3    0    0 -0.42861871340E+01 -0.82863365191E+01 -0.62470055317E+01  0.11227637827E+02  0.00000000000E+00 0.  1.
</event>
<event>
 7    1  0.1287159E-010  0.4778727E+02  0.7816164E-02  0.1312668E+00
        -11   -1    0    0    0    0  0.00000000000E+00  0.00000000000E+00  0.45593999997E+02  0.45594000000E+02  0.51100000000E-03 0. -1.
         11   -1    0    0    0    0 -0.00000000000E+00 -0.00000000000E+00 -0.45593999997E+02  0.45594000000E+02  0.51100000000E-03 0.  1.
    9900012    2    1    2    0    0 -0.28123958421E+02 -0.12724772826E+02  0.30508137419E+02  0.47787270404E+02  0.19999997079E+02 0.  0.
        -12    1    1    2    0    0  0.28123958421E+02  0.12724772826E+02 -0.30508137419E+02  0.43400729596E+02  0.00000000000E+00 0.  1.
         11    1    3    3    0    0 -0.29596173796E+00 -0.42009354019E+01  0.67794948016E+01  0.79810401344E+01  0.51100000000E-03 0. -1.
        -11    1    3    3    0    0 -0.21938046971E+01 -0.11190970577E+00  0.85974484476E+01  0.88736363967E+01  0.51100000000E-03 0.  1.
         12    1    3    3    0    0 -0.25634191986E+02 -0.84119277180E+01  0.15131194170E+02  0.30932593873E+02  0.00000000000E+00 0. -1.
</event>
<event>
 7    1  0.9277000E-011  0.4778728E+02  0.7816164E-02  0.1312668E+00
        -11   -1    0    0    0    0  0.00000000000E+00  0.00000000000E+00  0.45593999997E+02  0.45594000000E+02  0.51100000000E-03 0. -1.
         11   -1    0    0    0    0 -0.00000000000E+00 -0.00000000000E+00 -0.45593999997E+02  0.45594000000E+02  0.51100000000E-03 0.  1.
    9900012    2    1    2    0    0  0.32154943505E+02  0.22874861154E+02  0.18067186018E+02  0.47787275637E+02  0.20000020939E+02 0.  0.
        -12    1    1    2    0    0 -0.32154943505E+02 -0.22874861154E+02 -0.18067186018E+02  0.43400724363E+02  0.00000000000E+00 0.  1.
         11    1    3    3    0    0 -0.13365412448E+01  0.32396366424E+00 -0.37968937573E-01  0.13757677333E+01  0.51100000000E-03 0. -1.
        -11    1    3    3    0    0  0.13495152870E+02  0.13055581647E+01  0.56265027164E+01  0.14679276759E+02  0.51100000000E-03 0.  1.
         12    1    3    3    0    0  0.19996331881E+02  0.21245339325E+02  0.12478652239E+02  0.31732231144E+02  0.00000000000E+00 0. -1.
</event>
<event>
 7    1  0.8440037E-011  0.4778727E+02  0.7816164E-02  0.1312668E+00
        -11   -1    0    0    0    0  0.00000000000E+00  0.00000000000E+00  0.45593999997E+02  0.45594000000E+02  0.51100000000E-03 0. -1.
         11   -1    0    0    0    0 -0.00000000000E+00 -0.00000000000E+00 -0.45593999997E+02  0.45594000000E+02  0.51100000000E-03 0.  1.
    9900012    2    1    2    0    0 -0.30669954243E+02 -0.76246612618E+01  0.29746293216E+02  0.47787268293E+02  0.19999987453E+02 0.  0.
        -12    1    1    2    0    0  0.30669954243E+02  0.76246612618E+01 -0.29746293216E+02  0.43400731707E+02  0.00000000000E+00 0.  1.
         11    1    3    3    0    0 -0.70302670715E+01 -0.27476022741E+01  0.18385291514E+02  0.19874428738E+02  0.51100000000E-03 0. -1.
        -11    1    3    3    0    0 -0.79956376717E+01 -0.25923873931E+01  0.82931884250E+01  0.11807949385E+02  0.51100000000E-03 0.  1.
        -12    1    3    3    0    0 -0.15644049500E+02 -0.22846715946E+01  0.30678132772E+01  0.16104890169E+02  0.00000000000E+00 0.  1.
</event>
<event>
 7    1  0.8440037E-011  0.4778727E+02  0.7816164E-02  0.1312668E+00
        -11   -1    0    0    0    0  0.00000000000E+00  0.00000000000E+00  0.45593999997E+02  0.45594000000E+02  0.51100000000E-03 0. -1.
         11   -1    0    0    0    0 -0.00000000000E+00 -0.00000000000E+00 -0.45593999997E+02  0.45594000000E+02  0.51100000000E-03 0.  1.
    9900012    2    1    2    0    0  0.10006103598E+02 -0.25507139797E+01 -0.42154422594E+02  0.47787267342E+02  0.19999983119E+02 0.  0.
         12    1    1    2    0    0 -0.10006103598E+02  0.25507139797E+01  0.42154422594E+02  0.43400732658E+02  0.00000000000E+00 0. -1.
         11    1    3    3    0    0  0.21763419784E+01 -0.18140328763E+01  0.12475729664E+00  0.28359732593E+01  0.51100000000E-03 0. -1.
        -11    1    3    3    0    0  0.12969339763E+01 -0.29191147341E+01 -0.13857941311E+01  0.34819095630E+01  0.51100000000E-03 0.  1.
        -12    1    3    3    0    0  0.65328276435E+01  0.21824336308E+01 -0.40893385759E+02  0.41469384520E+02  0.00000000000E+00 0.  1.
</event>
<event>
 7    1  0.8440037E-011  0.4778729E+02  0.7816164E-02  0.1312668E+00
        -11   -1    0    0    0    0  0.00000000000E+00  0.00000000000E+00  0.45593999997E+02  0.45594000000E+02  0.51100000000E-03 0. -1.
         11   -1    0    0    0    0 -0.00000000000E+00 -0.00000000000E+00 -0.45593999997E+02  0.45594000000E+02  0.51100000000E-03 0.  1.
    9900012    2    1    2    0    0  0.24095038879E+02  0.20855894056E+02 -0.29463235040E+02  0.47787292236E+02  0.20000096619E+02 0.  0.
         12    1    1    2    0    0 -0.24095038879E+02 -0.20855894056E+02  0.29463235040E+02  0.43400707764E+02  0.00000000000E+00 0. -1.
         11    1    3    3    0    0  0.16343230522E+02  0.14031942256E+02 -0.20198293405E+02  0.29529098261E+02  0.51100000000E-03 0.  1.
        -11    1    3    3    0    0  0.69760138738E+01  0.10148505465E+02 -0.70814501575E+01  0.14205768875E+02  0.51100000000E-03 0. -1.
         12    1    3    3    0    0  0.77579448248E+00 -0.33245536653E+01 -0.21834914775E+01  0.40524250993E+01  0.00000000000E+00 0. -1.
</event>
<event>
 7    1  0.8440037E-011  0.4778727E+02  0.7816164E-02  0.1312668E+00
        -11   -1    0    0    0    0  0.00000000000E+00  0.00000000000E+00  0.45593999997E+02  0.45594000000E+02  0.51100000000E-03 0.  1.
         11   -1    0    0    0    0 -0.00000000000E+00 -0.00000000000E+00 -0.45593999997E+02  0.45594000000E+02  0.51100000000E-03 0. -1.
    9900012    2    1    2    0    0 -0.67915524890E+01 -0.42668971455E+02 -0.41057102873E+01  0.47787272273E+02  0.20000005604E+02 0.  0.
        -12    1    1    2    0    0  0.67915524890E+01  0.42668971455E+02  0.41057102873E+01  0.43400727727E+02  0.00000000000E+00 0.  1.
         11    1    3    3    0    0  0.19444633324E+01 -0.37519755195E+01 -0.29461050133E+01  0.51514845394E+01  0.51100000000E-03 0. -1.
        -11    1    3    3    0    0  0.15855108841E+01 -0.12052951506E+02  0.51016950402E+01  0.13183883241E+02  0.51100000000E-03 0.  1.
        -12    1    3    3    0    0 -0.10321526705E+02 -0.26864044429E+02 -0.62613003143E+01  0.29451904493E+02  0.00000000000E+00 0.  1.
</event>
<event>
 7    1  0.1115837E-010  0.4778730E+02  0.7816164E-02  0.1312668E+00
        -11   -1    0    0    0    0  0.00000000000E+00  0.00000000000E+00  0.45593999997E+02  0.45594000000E+02  0.51100000000E-03 0. -1.
         11   -1    0    0    0    0 -0.00000000000E+00 -0.00000000000E+00 -0.45593999997E+02  0.45594000000E+02  0.51100000000E-03 0.  1.
    9900012    2    1    2    0    0  0.17967207976E+02  0.11870475859E+02  0.37681456026E+02  0.47787298534E+02  0.20000125335E+02 0.  0.
        -12    1    1    2    0    0 -0.17967207976E+02 -0.11870475859E+02 -0.37681456026E+02  0.43400701466E+02  0.00000000000E+00 0.  1.
         11    1    3    3    0    0  0.63360738521E+01  0.47979408390E+01  0.23225168116E+02  0.24547392987E+02  0.51100000000E-03 0. -1.
        -11    1    3    3    0    0  0.68678357072E+00 -0.29869212579E+01  0.41174797326E+01  0.51329338476E+01  0.51100000000E-03 0.  1.
         12    1    3    3    0    0  0.10944350553E+02  0.10059456277E+02  0.10338808177E+02  0.18106971700E+02  0.00000000000E+00 0. -1.
</event>
<event>
 7    1  0.8440037E-011  0.4778727E+02  0.7816164E-02  0.1312668E+00
        -11   -1    0    0    0    0  0.00000000000E+00  0.00000000000E+00  0.45593999997E+02  0.45594000000E+02  0.51100000000E-03 0. -1.
         11   -1    0    0    0    0 -0.00000000000E+00 -0.00000000000E+00 -0.45593999997E+02  0.45594000000E+02  0.51100000000E-03 0.  1.
    9900012    2    1    2    0    0  0.30327507328E+02  0.18189726941E+02  0.25159480034E+02  0.47787270715E+02  0.19999998497E+02 0.  0.
        -12    1    1    2    0    0 -0.30327507328E+02 -0.18189726941E+02 -0.25159480034E+02  0.43400729285E+02  0.00000000000E+00 0.  1.
         11    1    3    3    0    0  0.10200079621E+02  0.39806709448E+01  0.43558037196E+01  0.11783903926E+02  0.51100000000E-03 0.  1.
        -11    1    3    3    0    0 -0.85509349957E+00 -0.12994068445E+01 -0.11256027981E+01  0.19200585826E+01  0.51100000000E-03 0. -1.
         12    1    3    3    0    0  0.20982521207E+02  0.15508462840E+02  0.21929279112E+02  0.34083308206E+02  0.00000000000E+00 0. -1.
</event>
<event>
 7    1  0.8440037E-011  0.4778727E+02  0.7816164E-02  0.1312668E+00
        -11   -1    0    0    0    0  0.00000000000E+00  0.00000000000E+00  0.45593999997E+02  0.45594000000E+02  0.51100000000E-03 0. -1.
         11   -1    0    0    0    0 -0.00000000000E+00 -0.00000000000E+00 -0.45593999997E+02  0.45594000000E+02  0.51100000000E-03 0.  1.
    9900012    2    1    2    0    0 -0.21987403414E+02 -0.63920974505E+00 -0.37413482425E+02  0.47787272297E+02  0.20000005709E+02 0.  0.
         12    1    1    2    0    0  0.21987403414E+02  0.63920974505E+00  0.37413482425E+02  0.43400727703E+02  0.00000000000E+00 0. -1.
         11    1    3    3    0    0 -0.68795595139E+01 -0.19211207337E+01 -0.19208149047E+02  0.20493219221E+02  0.51100000000E-03 0.  1.
        -11    1    3    3    0    0 -0.83255233073E+01 -0.39054306380E+01 -0.16033551432E+02  0.18483546699E+02  0.51100000000E-03 0. -1.
         12    1    3    3    0    0 -0.67823205931E+01  0.51873416267E+01 -0.21717819463E+01  0.88105063760E+01  0.00000000000E+00 0. -1.
</event>
<event>
 7    1  0.8440037E-011  0.4778726E+02  0.7816164E-02  0.1312668E+00
        -11   -1    0    0    0    0  0.00000000000E+00  0.00000000000E+00  0.45593999997E+02  0.45594000000E+02  0.51100000000E-03 0. -1.
         11   -1    0    0    0    0 -0.00000000000E+00 -0.00000000000E+00 -0.45593999997E+02  0.45594000000E+02  0.51100000000E-03 0.  1.
    9900012    2    1    2    0    0  0.78666167131E+01 -0.38707873055E+02  0.17984465477E+02  0.47787261602E+02  0.19999956949E+02 0.  0.
        -12    1    1    2    0    0 -0.78666167131E+01  0.38707873055E+02 -0.17984465477E+02  0.43400738398E+02  0.00000000000E+00 0.  1.
         11    1    3    3    0    0 -0.31994951712E+01 -0.11767300572E+01  0.29590105537E+01  0.45141119499E+01  0.51100000000E-03 0. -1.
        -11    1    3    3    0    0  0.46658797376E+01 -0.50208002007E+01 -0.88102236450E-01  0.68546794707E+01  0.51100000000E-03 0.  1.
         12    1    3    3    0    0  0.64002321467E+01 -0.32510342798E+02  0.15113557160E+02  0.36418470182E+02  0.00000000000E+00 0. -1.
</event>
<event>
 7    1  0.8440037E-011  0.4778728E+02  0.7816164E-02  0.1312668E+00
        -11   -1    0    0    0    0  0.00000000000E+00  0.00000000000E+00  0.45593999997E+02  0.45594000000E+02  0.51100000000E-03 0. -1.
         11   -1    0    0    0    0 -0.00000000000E+00 -0.00000000000E+00 -0.45593999997E+02  0.45594000000E+02  0.51100000000E-03 0.  1.
    9900012    2    1    2    0    0 -0.28372038993E+02 -0.26351459708E+02  0.19602317917E+02  0.47787275431E+02  0.20000020000E+02 0.  0.
        -12    1    1    2    0    0  0.28372038993E+02  0.26351459708E+02 -0.19602317917E+02  0.43400724569E+02  0.00000000000E+00 0.  1.
         11    1    3    3    0    0 -0.22065692125E+02 -0.24603025453E+02  0.18384001220E+02  0.37817656346E+02  0.51100000000E-03 0. -1.
        -11    1    3    3    0    0 -0.37759219945E+00 -0.18892702621E+01  0.31843254224E+01  0.37218069064E+01  0.51100000000E-03 0.  1.
         12    1    3    3    0    0 -0.59287546692E+01  0.14083600710E+00 -0.19660087252E+01  0.62478121784E+01  0.00000000000E+00 0. -1.
</event>
<event>
 7    1  0.8440037E-011  0.4778727E+02  0.7816164E-02  0.1312668E+00
        -11   -1    0    0    0    0  0.00000000000E+00  0.00000000000E+00  0.45593999997E+02  0.45594000000E+02  0.51100000000E-03 0. -1.
         11   -1    0    0    0    0 -0.00000000000E+00 -0.00000000000E+00 -0.45593999997E+02  0.45594000000E+02  0.51100000000E-03 0.  1.
    9900012    2    1    2    0    0 -0.26728505160E+02  0.17460845019E+02  0.29399482121E+02  0.47787266760E+02  0.19999980464E+02 0.  0.
        -12    1    1    2    0    0  0.26728505160E+02 -0.17460845019E+02 -0.29399482121E+02  0.43400733240E+02  0.00000000000E+00 0.  1.
         11    1    3    3    0    0 -0.91522825108E+01  0.88970998937E+01  0.12582278658E+02  0.17923068882E+02  0.51100000000E-03 0. -1.
        -11    1    3    3    0    0 -0.18693813015E+02  0.33255983832E+01  0.15035755568E+02  0.24219665468E+02  0.51100000000E-03 0.  1.
        -12    1    3    3    0    0  0.11175903656E+01  0.52381467417E+01  0.17814478945E+01  0.56445324088E+01  0.00000000000E+00 0.  1.
</event>
<event>
 7    1  0.8440037E-011  0.4778729E+02  0.7816164E-02  0.1312668E+00
        -11   -1    0    0    0    0  0.00000000000E+00  0.00000000000E+00  0.45593999997E+02  0.45594000000E+02  0.51100000000E-03 0. -1.
         11   -1    0    0    0    0 -0.00000000000E+00 -0.00000000000E+00 -0.45593999997E+02  0.45594000000E+02  0.51100000000E-03 0.  1.
    9900012    2    1    2    0    0 -0.35647399155E+02 -0.16463292945E+02 -0.18489027596E+02  0.47787294677E+02  0.20000107752E+02 0.  0.
         12    1    1    2    0    0  0.35647399155E+02  0.16463292945E+02  0.18489027596E+02  0.43400705323E+02  0.00000000000E+00 0. -1.
         11    1    3    3    0    0 -0.61674950109E+01 -0.28563019503E+00 -0.19441791456E+01  0.64729755236E+01  0.51100000000E-03 0. -1.
        -11    1    3    3    0    0 -0.28113357300E+02 -0.16543226651E+02 -0.19524176702E+02  0.38016216051E+02  0.51100000000E-03 0.  1.
         12    1    3    3    0    0 -0.13665468438E+01  0.36556390108E+00  0.29793282522E+01  0.32981031027E+01  0.00000000000E+00 0. -1.
</event>
<event>
 7    1  0.8440037E-011  0.4778727E+02  0.7816164E-02  0.1312668E+00
        -11   -1    0    0    0    0  0.00000000000E+00  0.00000000000E+00  0.45593999997E+02  0.45594000000E+02  0.51100000000E-03 0. -1.
         11   -1    0    0    0    0 -0.00000000000E+00 -0.00000000000E+00 -0.45593999997E+02  0.45594000000E+02  0.51100000000E-03 0.  1.
    9900012    2    1    2    0    0 -0.28611337164E+02  0.14855802028E+02 -0.29057181127E+02  0.47787271397E+02  0.20000001608E+02 0.  0.
         12    1    1    2    0    0  0.28611337164E+02 -0.14855802028E+02  0.29057181127E+02  0.43400728603E+02  0.00000000000E+00 0. -1.
         11    1    3    3    0    0 -0.25486275798E+02  0.71317189986E+01 -0.19064243489E+02  0.32616821580E+02  0.51100000000E-03 0.  1.
        -11    1    3    3    0    0 -0.20918859278E+01  0.50047162938E+00 -0.69307704558E+01  0.72568614399E+01  0.51100000000E-03 0. -1.
         12    1    3    3    0    0 -0.10331754389E+01  0.72236114003E+01 -0.30621671816E+01  0.79135883769E+01  0.00000000000E+00 0. -1.
</event>
<event>
 7    1  0.8440037E-011  0.4778728E+02  0.7816164E-02  0.1312668E+00
        -11   -1    0    0    0    0  0.00000000000E+00  0.00000000000E+00  0.45593999997E+02  0.45594000000E+02  0.51100000000E-03 0. -1.
         11   -1    0    0    0    0 -0.00000000000E+00 -0.00000000000E+00 -0.45593999997E+02  0.45594000000E+02  0.51100000000E-03 0.  1.
    9900012    2    1    2    0    0 -0.89894248404E+01 -0.13824564775E+02 -0.40145914790E+02  0.47787276222E+02  0.20000023605E+02 0.  0.
         12    1    1    2    0    0  0.89894248404E+01  0.13824564775E+02  0.40145914790E+02  0.43400723778E+02  0.00000000000E+00 0. -1.
         11    1    3    3    0    0  0.45150155452E+01 -0.98368502783E+01 -0.16127872110E+02  0.19423111178E+02  0.51100000000E-03 0. -1.
        -11    1    3    3    0    0 -0.50230708604E+01 -0.37412811703E+01 -0.13242494082E+02  0.14648961583E+02  0.51100000000E-03 0.  1.
         12    1    3    3    0    0 -0.84813695252E+01 -0.24643332604E+00 -0.10775548597E+02  0.13715203461E+02  0.00000000000E+00 0. -1.
</event>
<event>
 7    1  0.8440037E-011  0.4778727E+02  0.7816164E-02  0.1312668E+00
        -11   -1    0    0    0    0  0.00000000000E+00  0.00000000000E+00  0.45593999997E+02  0.45594000000E+02  0.51100000000E-03 0. -1.
         11   -1    0    0    0    0 -0.00000000000E+00 -0.00000000000E+00 -0.45593999997E+02  0.45594000000E+02  0.51100000000E-03 0.  1.
    9900012    2    1    2    0    0 -0.11621866337E+02  0.53815171289E+01 -0.41467995661E+02  0.47787272266E+02  0.20000005568E+02 0.  0.
         12    1    1    2    0    0  0.11621866337E+02 -0.53815171289E+01  0.41467995661E+02  0.43400727734E+02  0.00000000000E+00 0. -1.
         11    1    3    3    0    0 -0.83699834589E+01  0.16697658185E+01 -0.15778783950E+02  0.17939196308E+02  0.51100000000E-03 0.  1.
        -11    1    3    3    0    0 -0.30625493896E+01  0.81336200894E+01 -0.23190360238E+02  0.24765455634E+02  0.51100000000E-03 0. -1.
         12    1    3    3    0    0 -0.18933348821E+00 -0.44218687789E+01 -0.24988514723E+01  0.50826203231E+01  0.00000000000E+00 0. -1.
</event>
<event>
 7    1  0.8440037E-011  0.4778727E+02  0.7816164E-02  0.1312668E+00
        -11   -1    0    0    0    0  0.00000000000E+00  0.00000000000E+00  0.45593999997E+02  0.45594000000E+02  0.51100000000E-03 0. -1.
         11   -1    0    0    0    0 -0.00000000000E+00 -0.00000000000E+00 -0.45593999997E+02  0.45594000000E+02  0.51100000000E-03 0.  1.
    9900012    2    1    2    0    0 -0.13824424868E+02 -0.39297537151E+02 -0.12174247145E+02  0.47787269100E+02  0.19999991136E+02 0.  0.
         12    1    1    2    0    0  0.13824424868E+02  0.39297537151E+02  0.12174247145E+02  0.43400730900E+02  0.00000000000E+00 0. -1.
         11    1    3    3    0    0  0.81297061416E+00 -0.34070110916E+01  0.29996318852E+00  0.35154834622E+01  0.51100000000E-03 0. -1.
        -11    1    3    3    0    0  0.40279376404E+01 -0.61315563802E+01 -0.17338313120E+01  0.75383311520E+01  0.51100000000E-03 0.  1.
        -12    1    3    3    0    0 -0.18665333123E+02 -0.29758969679E+02 -0.10740379022E+02  0.36733454486E+02  0.00000000000E+00 0.  1.
</event>
<event>
 7    1  0.8440037E-011  0.4778727E+02  0.7816164E-02  0.1312668E+00
        -11   -1    0    0    0    0  0.00000000000E+00  0.00000000000E+00  0.45593999997E+02  0.45594000000E+02  0.51100000000E-03 0. -1.
         11   -1    0    0    0    0 -0.00000000000E+00 -0.00000000000E+00 -0.45593999997E+02  0.45594000000E+02  0.51100000000E-03 0.  1.
    9900012    2    1    2    0    0  0.22825581401E+02 -0.89493035287E+01 -0.35812378228E+02  0.47787266892E+02  0.19999981067E+02 0.  0.
         12    1    1    2    0    0 -0.22825581401E+02  0.89493035287E+01  0.35812378228E+02  0.43400733108E+02  0.00000000000E+00 0. -1.
         11    1    3    3    0    0  0.13899863957E+02  0.12025046225E+01 -0.14473262411E+02  0.20102924177E+02  0.51100000000E-03 0. -1.
        -11    1    3    3    0    0 -0.76267563757E+00  0.10354804790E+01 -0.68621383652E+01  0.69816070610E+01  0.51100000000E-03 0.  1.
         12    1    3    3    0    0  0.96883930814E+01 -0.11187288630E+02 -0.14476977452E+02  0.20702735654E+02  0.00000000000E+00 0. -1.
</event>
<event>
 7    1  0.8440037E-011  0.4778727E+02  0.7816164E-02  0.1312668E+00
        -11   -1    0    0    0    0  0.00000000000E+00  0.00000000000E+00  0.45593999997E+02  0.45594000000E+02  0.51100000000E-03 0. -1.
         11   -1    0    0    0    0 -0.00000000000E+00 -0.00000000000E+00 -0.45593999997E+02  0.45594000000E+02  0.51100000000E-03 0.  1.
    9900012    2    1    2    0    0 -0.15250932603E+02  0.30500683647E+02 -0.26846614332E+02  0.47787270176E+02  0.19999996041E+02 0.  0.
         12    1    1    2    0    0  0.15250932603E+02 -0.30500683647E+02  0.26846614332E+02  0.43400729824E+02  0.00000000000E+00 0. -1.
         11    1    3    3    0    0 -0.37475163267E+01  0.39065058301E+01 -0.12348843004E+02  0.13483270754E+02  0.51100000000E-03 0.  1.
        -11    1    3    3    0    0 -0.22298547315E+01 -0.61185339530E+00 -0.15182029151E+01  0.27661447998E+01  0.51100000000E-03 0. -1.
         12    1    3    3    0    0 -0.92735615445E+01  0.27206031212E+02 -0.12979568413E+02  0.31537854623E+02  0.00000000000E+00 0. -1.
</event>
<event>
 7    1  0.8440037E-011  0.4778728E+02  0.7816164E-02  0.1312668E+00
        -11   -1    0    0    0    0  0.00000000000E+00  0.00000000000E+00  0.45593999997E+02  0.45594000000E+02  0.51100000000E-03 0. -1.
         11   -1    0    0    0    0 -0.00000000000E+00 -0.00000000000E+00 -0.45593999997E+02  0.45594000000E+02  0.51100000000E-03 0.  1.
    9900012    2    1    2    0    0 -0.34536223593E+01  0.13141882165E+02 -0.41218753528E+02  0.47787283224E+02  0.20000055532E+02 0.  0.
         12    1    1    2    0    0  0.34536223593E+01 -0.13141882165E+02  0.41218753528E+02  0.43400716776E+02  0.00000000000E+00 0. -1.
         11    1    3    3    0    0 -0.52352534777E+01 -0.13258977608E+01 -0.71625256214E+01  0.89703766580E+01  0.51100000000E-03 0. -1.
        -11    1    3    3    0    0  0.72962891515E+00  0.20360110517E+01 -0.19610288666E+02  0.19729194641E+02  0.51100000000E-03 0.  1.
        -12    1    3    3    0    0  0.10520022033E+01  0.12431768875E+02 -0.14445939241E+02  0.19087711925E+02  0.00000000000E+00 0.  1.
</event>
<event>
 7    1  0.8440037E-011  0.4778727E+02  0.7816164E-02  0.1312668E+00
        -11   -1    0    0    0    0  0.00000000000E+00  0.00000000000E+00  0.45593999997E+02  0.45594000000E+02  0.51100000000E-03 0.  1.
         11   -1    0    0    0    0 -0.00000000000E+00 -0.00000000000E+00 -0.45593999997E+02  0.45594000000E+02  0.51100000000E-03 0. -1.
    9900012    2    1    2    0    0  0.35811369803E+02  0.11530109490E+02 -0.21638524051E+02  0.47787270108E+02  0.19999995730E+02 0.  0.
        -12    1    1    2    0    0 -0.35811369803E+02 -0.11530109490E+02  0.21638524051E+02  0.43400729892E+02  0.00000000000E+00 0.  1.
         11    1    3    3    0    0  0.13415187356E+02  0.11285619942E+02 -0.55705237646E+01  0.18394651520E+02  0.51100000000E-03 0.  1.
        -11    1    3    3    0    0  0.16871992255E+02  0.46576921104E+01 -0.10692573479E+02  0.20510712965E+02  0.51100000000E-03 0. -1.
        -12    1    3    3    0    0  0.55241901926E+01 -0.44132025622E+01 -0.53754268073E+01  0.88819056232E+01  0.00000000000E+00 0.  1.
</event>
<event>
 7    1  0.8440037E-011  0.4778727E+02  0.7816164E-02  0.1312668E+00
        -11   -1    0    0    0    0  0.00000000000E+00  0.00000000000E+00  0.45593999997E+02  0.45594000000E+02  0.51100000000E-03 0. -1.
         11   -1    0    0    0    0 -0.00000000000E+00 -0.00000000000E+00 -0.45593999997E+02  0.45594000000E+02  0.51100000000E-03 0.  1.
    9900012    2    1    2    0    0 -0.19044144179E+02  0.37911823915E+02  0.91453556375E+01  0.47787270170E+02  0.19999996011E+02 0.  0.
        -12    1    1    2    0    0  0.19044144179E+02 -0.37911823915E+02 -0.91453556375E+01  0.43400729830E+02  0.00000000000E+00 0.  1.
         11    1    3    3    0    0 -0.99007475277E+01  0.62118565862E+01  0.60785310986E+01  0.13174236389E+02  0.51100000000E-03 0. -1.
        -11    1    3    3    0    0  0.96151514244E+00  0.21714783002E+01 -0.18605077941E+01  0.30168392219E+01  0.51100000000E-03 0.  1.
         12    1    3    3    0    0 -0.10104911793E+02  0.29528489029E+02  0.49273323329E+01  0.31596194559E+02  0.00000000000E+00 0. -1.
</event>
<event>
 7    1  0.9009198E-011  0.4778727E+02  0.7816164E-02  0.1312668E+00
        -11   -1    0    0    0    0  0.00000000000E+00  0.00000000000E+00  0.45593999997E+02  0.45594000000E+02  0.51100000000E-03 0. -1.
         11   -1    0    0    0    0 -0.00000000000E+00 -0.00000000000E+00 -0.45593999997E+02  0.45594000000E+02  0.51100000000E-03 0.  1.
    9900012    2    1    2    0    0  0.14378157879E+02  0.96766548795E+01  0.39790128281E+02  0.47787269795E+02  0.19999994305E+02 0.  0.
        -12    1    1    2    0    0 -0.14378157879E+02 -0.96766548795E+01 -0.39790128281E+02  0.43400730205E+02  0.00000000000E+00 0.  1.
         11    1    3    3    0    0  0.58285812962E+01  0.44024211940E+01  0.95346215228E+01  0.12010940019E+02  0.51100000000E-03 0. -1.
        -11    1    3    3    0    0  0.10697102238E+02  0.91392867797E+00  0.91127910173E+01  0.14082124211E+02  0.51100000000E-03 0.  1.
         12    1    3    3    0    0 -0.21475256548E+01  0.43603050075E+01  0.21142715741E+02  0.21694205565E+02  0.00000000000E+00 0. -1.
</event>
<event>
 7    1  0.8755148E-011  0.4778727E+02  0.7816164E-02  0.1312668E+00
        -11   -1    0    0    0    0  0.00000000000E+00  0.00000000000E+00  0.45593999997E+02  0.45594000000E+02  0.51100000000E-03 0. -1.
         11   -1    0    0    0    0 -0.00000000000E+00 -0.00000000000E+00 -0.45593999997E+02  0.45594000000E+02  0.51100000000E-03 0.  1.
    9900012    2    1    2    0    0 -0.17092033489E+02 -0.21979240953E+02  0.33292624380E+02  0.47787268673E+02  0.19999989186E+02 0.  0.
        -12    1    1    2    0    0  0.17092033489E+02  0.21979240953E+02 -0.33292624380E+02  0.43400731327E+02  0.00000000000E+00 0.  1.
         11    1    3    3    0    0 -0.18538140677E+01 -0.77003999550E+01  0.29969487483E+01  0.84684407139E+01  0.51100000000E-03 0. -1.
        -11    1    3    3    0    0  0.21115098666E+01 -0.43094139461E+01  0.38294438942E+01  0.61395572540E+01  0.51100000000E-03 0.  1.
         12    1    3    3    0    0 -0.17349729288E+02 -0.99694270515E+01  0.26466231737E+02  0.33179270705E+02  0.00000000000E+00 0. -1.
</event>
<event>
 7    1  0.8440037E-011  0.4778727E+02  0.7816164E-02  0.1312668E+00
        -11   -1    0    0    0    0  0.00000000000E+00  0.00000000000E+00  0.45593999997E+02  0.45594000000E+02  0.51100000000E-03 0.  1.
         11   -1    0    0    0    0 -0.00000000000E+00 -0.00000000000E+00 -0.45593999997E+02  0.45594000000E+02  0.51100000000E-03 0. -1.
    9900012    2    1    2    0    0  0.23144959923E+02 -0.31742298925E+02 -0.18448867220E+02  0.47787269447E+02  0.19999992715E+02 0.  0.
        -12    1    1    2    0    0 -0.23144959923E+02  0.31742298925E+02  0.18448867220E+02  0.43400730553E+02  0.00000000000E+00 0.  1.
         11    1    3    3    0    0 -0.92081502293E+00 -0.19136123230E+00 -0.10438665324E+01  0.14050541009E+01  0.51100000000E-03 0. -1.
        -11    1    3    3    0    0  0.63468489387E+00 -0.12973472430E+02 -0.67520759487E+01  0.14639137327E+02  0.51100000000E-03 0.  1.
         12    1    3    3    0    0  0.23431090052E+02 -0.18577465263E+02 -0.10652924739E+02  0.31743078019E+02  0.00000000000E+00 0. -1.
</event>
<event>
 7    1  0.8440037E-011  0.4778727E+02  0.7816164E-02  0.1312668E+00
        -11   -1    0    0    0    0  0.00000000000E+00  0.00000000000E+00  0.45593999997E+02  0.45594000000E+02  0.51100000000E-03 0. -1.
         11   -1    0    0    0    0 -0.00000000000E+00 -0.00000000000E+00 -0.45593999997E+02  0.45594000000E+02  0.51100000000E-03 0.  1.
    9900012    2    1    2    0    0 -0.70510904963E+01 -0.26214378502E+02  0.33863132394E+02  0.47787271285E+02  0.20000001096E+02 0.  0.
        -12    1    1    2    0    0  0.70510904963E+01  0.26214378502E+02 -0.33863132394E+02  0.43400728715E+02  0.00000000000E+00 0.  1.
         11    1    3    3    0    0 -0.78939178154E+01 -0.36308095270E+01  0.17067406127E+02  0.19151842430E+02  0.51100000000E-03 0. -1.
        -11    1    3    3    0    0 -0.20610872793E+01 -0.57591043809E+01  0.42479461642E+01  0.74471746937E+01  0.51100000000E-03 0.  1.
         12    1    3    3    0    0  0.29039145984E+01 -0.16824464594E+02  0.12547780103E+02  0.21188254161E+02  0.00000000000E+00 0. -1.
</event>
<event>
 7    1  0.8440037E-011  0.4778727E+02  0.7816164E-02  0.1312668E+00
        -11   -1    0    0    0    0  0.00000000000E+00  0.00000000000E+00  0.45593999997E+02  0.45594000000E+02  0.51100000000E-03 0. -1.
         11   -1    0    0    0    0 -0.00000000000E+00 -0.00000000000E+00 -0.45593999997E+02  0.45594000000E+02  0.51100000000E-03 0.  1.
    9900012    2    1    2    0    0 -0.28857196387E+02  0.31977934615E+02  0.53194917601E+01  0.47787273299E+02  0.20000010280E+02 0.  0.
        -12    1    1    2    0    0  0.28857196387E+02 -0.31977934615E+02 -0.53194917601E+01  0.43400726701E+02  0.00000000000E+00 0.  1.
         11    1    3    3    0    0 -0.16618692611E+02  0.22773943394E+02  0.52718789938E+01  0.28681460043E+02  0.51100000000E-03 0. -1.
        -11    1    3    3    0    0 -0.28449164138E+01  0.39342047029E+01  0.52445353125E+01  0.71467941731E+01  0.51100000000E-03 0.  1.
         12    1    3    3    0    0 -0.93935873616E+01  0.52697865181E+01 -0.51969225462E+01  0.11959019083E+02  0.00000000000E+00 0. -1.
</event>
<event>
 7    1  0.8794225E-011  0.4778727E+02  0.7816164E-02  0.1312668E+00
        -11   -1    0    0    0    0  0.00000000000E+00  0.00000000000E+00  0.45593999997E+02  0.45594000000E+02  0.51100000000E-03 0. -1.
         11   -1    0    0    0    0 -0.00000000000E+00 -0.00000000000E+00 -0.45593999997E+02  0.45594000000E+02  0.51100000000E-03 0.  1.
    9900012    2    1    2    0    0  0.90951489864E+01  0.23055160738E+01  0.42374356830E+02  0.47787271248E+02  0.20000000927E+02 0.  0.
        -12    1    1    2    0    0 -0.90951489864E+01 -0.23055160738E+01 -0.42374356830E+02  0.43400728752E+02  0.00000000000E+00 0.  1.
         11    1    3    3    0    0  0.16630188491E+01 -0.66887558891E+00 -0.92746111348E+00  0.20182196670E+01  0.51100000000E-03 0. -1.
        -11    1    3    3    0    0  0.62891180573E+01  0.53049803756E+01  0.13191657761E+02  0.15547207385E+02  0.51100000000E-03 0.  1.
         12    1    3    3    0    0  0.11430120799E+01 -0.23305887129E+01  0.30110160183E+02  0.30221844196E+02  0.00000000000E+00 0. -1.
</event>
<event>
 7    1  0.8440037E-011  0.4778730E+02  0.7816164E-02  0.1312668E+00
        -11   -1    0    0    0    0  0.00000000000E+00  0.00000000000E+00  0.45593999997E+02  0.45594000000E+02  0.51100000000E-03 0. -1.
         11   -1    0    0    0    0 -0.00000000000E+00 -0.00000000000E+00 -0.45593999997E+02  0.45594000000E+02  0.51100000000E-03 0.  1.
    9900012    2    1    2    0    0  0.21597216670E+02 -0.19132888153E+02  0.32420875692E+02  0.47787304641E+02  0.20000153181E+02 0.  0.
        -12    1    1    2    0    0 -0.21597216670E+02  0.19132888153E+02 -0.32420875692E+02  0.43400695359E+02  0.00000000000E+00 0.  1.
         11    1    3    3    0    0  0.14807866948E+01 -0.89110869880E+01  0.14233856475E+02  0.16858317560E+02  0.51100000000E-03 0. -1.
        -11    1    3    3    0    0  0.74811776514E+01 -0.28024850985E+01  0.13240767314E+02  0.15464147604E+02  0.51100000000E-03 0.  1.
        -12    1    3    3    0    0  0.12635252323E+02 -0.74193160668E+01  0.49462519030E+01  0.15464839477E+02  0.00000000000E+00 0.  1.
</event>
<event>
 7    1  0.8440037E-011  0.4778729E+02  0.7816164E-02  0.1312668E+00
        -11   -1    0    0    0    0  0.00000000000E+00  0.00000000000E+00  0.45593999997E+02  0.45594000000E+02  0.51100000000E-03 0.  1.
         11   -1    0    0    0    0 -0.00000000000E+00 -0.00000000000E+00 -0.45593999997E+02  0.45594000000E+02  0.51100000000E-03 0. -1.
    9900012    2    1    2    0    0 -0.42356869163E+02  0.80171766975E+01  0.50241533769E+01  0.47787290275E+02  0.20000087678E+02 0.  0.
         12    1    1    2    0    0  0.42356869163E+02 -0.80171766975E+01 -0.50241533769E+01  0.43400709725E+02  0.00000000000E+00 0. -1.
         11    1    3    3    0    0 -0.23886307350E+02  0.81148920731E+01  0.56445622350E+01  0.25850884613E+02  0.51100000000E-03 0.  1.
        -11    1    3    3    0    0 -0.44830647291E+01  0.41791185186E+01  0.30649891848E+01  0.68525221577E+01  0.51100000000E-03 0. -1.
         12    1    3    3    0    0 -0.13987497084E+02 -0.42768338942E+01 -0.36853980429E+01  0.15083883504E+02  0.00000000000E+00 0. -1.
</event>
<event>
 7    1  0.8440037E-011  0.4778727E+02  0.7816164E-02  0.1312668E+00
        -11   -1    0    0    0    0  0.00000000000E+00  0.00000000000E+00  0.45593999997E+02  0.45594000000E+02  0.51100000000E-03 0. -1.
         11   -1    0    0    0    0 -0.00000000000E+00 -0.00000000000E+00 -0.45593999997E+02  0.45594000000E+02  0.51100000000E-03 0.  1.
    9900012    2    1    2    0    0 -0.27235963155E+01  0.44329356665E+01  0.43087753933E+02  0.47787269194E+02  0.19999991563E+02 0.  0.
        -12    1    1    2    0    0  0.27235963155E+01 -0.44329356665E+01 -0.43087753933E+02  0.43400730806E+02  0.00000000000E+00 0.  1.
         11    1    3    3    0    0 -0.38708394530E+01  0.30764359581E+01  0.35869016235E+01  0.61084957062E+01  0.51100000000E-03 0. -1.
        -11    1    3    3    0    0 -0.24012097669E+01  0.64598952939E+01  0.24238463902E+02  0.25199190228E+02  0.51100000000E-03 0.  1.
        -12    1    3    3    0    0  0.35484529044E+01 -0.51033955855E+01  0.15262388408E+02  0.16479583260E+02  0.00000000000E+00 0.  1.
</event>
<event>
 7    1  0.8440037E-011  0.4778727E+02  0.7816164E-02  0.1312668E+00
        -11   -1    0    0    0    0  0.00000000000E+00  0.00000000000E+00  0.45593999997E+02  0.45594000000E+02  0.51100000000E-03 0. -1.
         11   -1    0    0    0    0 -0.00000000000E+00 -0.00000000000E+00 -0.45593999997E+02  0.45594000000E+02  0.51100000000E-03 0.  1.
    9900012    2    1    2    0    0  0.15007520064E+02 -0.11973826788E+02  0.38923323080E+02  0.47787271135E+02  0.20000000413E+02 0.  0.
        -12    1    1    2    0    0 -0.15007520064E+02  0.11973826788E+02 -0.38923323080E+02  0.43400728865E+02  0.00000000000E+00 0.  1.
         11    1    3    3    0    0 -0.23334480575E+00 -0.14700104110E+01  0.14191870979E+02  0.14269708565E+02  0.51100000000E-03 0. -1.
        -11    1    3    3    0    0  0.11579613716E+02 -0.24000896461E+01  0.71606538242E+01  0.13824718716E+02  0.51100000000E-03 0.  1.
        -12    1    3    3    0    0  0.36612511532E+01 -0.81037267305E+01  0.17570798278E+02  0.19692843854E+02  0.00000000000E+00 0.  1.
</event>
<event>
 7    1  0.8440037E-011  0.4778727E+02  0.7816164E-02  0.1312668E+00
        -11   -1    0    0    0    0  0.00000000000E+00  0.00000000000E+00  0.45593999997E+02  0.45594000000E+02  0.51100000000E-03 0. -1.
         11   -1    0    0    0    0 -0.00000000000E+00 -0.00000000000E+00 -0.45593999997E+02  0.45594000000E+02  0.51100000000E-03 0.  1.
    9900012    2    1    2    0    0  0.36356185727E+02 -0.13964330102E+02 -0.19153292465E+02  0.47787269959E+02  0.19999995051E+02 0.  0.
         12    1    1    2    0    0 -0.36356185727E+02  0.13964330102E+02  0.19153292465E+02  0.43400730041E+02  0.00000000000E+00 0. -1.
         11    1    3    3    0    0  0.19221873256E+02 -0.38420966940E+01 -0.58685967818E+01  0.20461733723E+02  0.51100000000E-03 0.  1.
        -11    1    3    3    0    0  0.12999040064E+02 -0.83919952709E+00 -0.10653890871E+02  0.16828092268E+02  0.51100000000E-03 0. -1.
        -12    1    3    3    0    0  0.41352724075E+01 -0.92830338809E+01 -0.26308048122E+01  0.10497443969E+02  0.00000000000E+00 0.  1.
</event>
<event>
 7    1  0.8440037E-011  0.4778727E+02  0.7816164E-02  0.1312668E+00
        -11   -1    0    0    0    0  0.00000000000E+00  0.00000000000E+00  0.45593999997E+02  0.45594000000E+02  0.51100000000E-03 0. -1.
         11   -1    0    0    0    0 -0.00000000000E+00 -0.00000000000E+00 -0.45593999997E+02  0.45594000000E+02  0.51100000000E-03 0.  1.
    9900012    2    1    2    0    0 -0.13800123763E+02 -0.33576226120E+02 -0.23786904454E+02  0.47787271897E+02  0.20000003887E+02 0.  0.
         12    1    1    2    0    0  0.13800123763E+02  0.33576226120E+02  0.23786904454E+02  0.43400728103E+02  0.00000000000E+00 0. -1.
         11    1    3    3    0    0 -0.68152836028E+01 -0.35155911176E+01 -0.86116585824E+01  0.11531181002E+02  0.51100000000E-03 0. -1.
        -11    1    3    3    0    0 -0.91628955849E+01 -0.14080135327E+02 -0.77905870007E+01  0.18517616272E+02  0.51100000000E-03 0.  1.
        -12    1    3    3    0    0  0.21780554242E+01 -0.15980499676E+02 -0.73846588707E+01  0.17738474623E+02  0.00000000000E+00 0.  1.
</event>
<event>
 7    1  0.8440037E-011  0.4778727E+02  0.7816164E-02  0.1312668E+00
        -11   -1    0    0    0    0  0.00000000000E+00  0.00000000000E+00  0.45593999997E+02  0.45594000000E+02  0.51100000000E-03 0. -1.
         11   -1    0    0    0    0 -0.00000000000E+00 -0.00000000000E+00 -0.45593999997E+02  0.45594000000E+02  0.51100000000E-03 0.  1.
    9900012    2    1    2    0    0 -0.10657508189E+01 -0.25267686208E+02  0.35270831039E+02  0.47787270591E+02  0.19999997932E+02 0.  0.
        -12    1    1    2    0    0  0.10657508189E+01  0.25267686208E+02 -0.35270831039E+02  0.43400729409E+02  0.00000000000E+00 0.  1.
         11    1    3    3    0    0  0.57519583329E+01 -0.14989706673E+02  0.15476083338E+02  0.22299898802E+02  0.51100000000E-03 0. -1.
        -11    1    3    3    0    0  0.51553553616E+00 -0.83025439077E+00 -0.10630418032E+01  0.14440074027E+01  0.51100000000E-03 0.  1.
         12    1    3    3    0    0 -0.73332446880E+01 -0.94477251438E+01  0.20857789503E+02  0.24043364386E+02  0.00000000000E+00 0. -1.
</event>
<event>
 7    1  0.8440037E-011  0.4778726E+02  0.7816164E-02  0.1312668E+00
        -11   -1    0    0    0    0  0.00000000000E+00  0.00000000000E+00  0.45593999997E+02  0.45594000000E+02  0.51100000000E-03 0. -1.
         11   -1    0    0    0    0 -0.00000000000E+00 -0.00000000000E+00 -0.45593999997E+02  0.45594000000E+02  0.51100000000E-03 0.  1.
    9900012    2    1    2    0    0 -0.17288971261E+02  0.12328419024E+02  0.37851363949E+02  0.47787260425E+02  0.19999951582E+02 0.  0.
        -12    1    1    2    0    0  0.17288971261E+02 -0.12328419024E+02 -0.37851363949E+02  0.43400739575E+02  0.00000000000E+00 0.  1.
         11    1    3    3    0    0 -0.48518213402E+01 -0.10381973941E+01  0.96655078769E+00  0.50549228315E+01  0.51100000000E-03 0. -1.
        -11    1    3    3    0    0 -0.15397482090E+01 -0.29399040232E+00  0.13231827018E+02  0.13324357448E+02  0.51100000000E-03 0.  1.
         12    1    3    3    0    0 -0.10897401712E+02  0.13660606820E+02  0.23652986143E+02  0.29407980146E+02  0.00000000000E+00 0. -1.
</event>
<event>
 7    1  0.8440037E-011  0.4778727E+02  0.7816164E-02  0.1312668E+00
        -11   -1    0    0    0    0  0.00000000000E+00  0.00000000000E+00  0.45593999997E+02  0.45594000000E+02  0.51100000000E-03 0. -1.
         11   -1    0    0    0    0 -0.00000000000E+00 -0.00000000000E+00 -0.45593999997E+02  0.45594000000E+02  0.51100000000E-03 0.  1.
    9900012    2    1    2    0    0  0.36760711650E+02  0.13499342077E+02 -0.18709386130E+02  0.47787270894E+02  0.19999999315E+02 0.  0.
         12    1    1    2    0    0 -0.36760711650E+02 -0.13499342077E+02  0.18709386130E+02  0.43400729106E+02  0.00000000000E+00 0. -1.
         11    1    3    3    0    0  0.40237736843E+01  0.29268702739E+01  0.91131533910E-01  0.49765077595E+01  0.51100000000E-03 0.  1.
        -11    1    3    3    0    0  0.34520885713E+02  0.10417563587E+02 -0.19369877341E+02  0.40931764316E+02  0.51100000000E-03 0. -1.
         12    1    3    3    0    0 -0.17839477470E+01  0.15490821627E+00  0.56935967795E+00  0.18789988191E+01  0.00000000000E+00 0. -1.
</event>
<event>
 7    1  0.8440037E-011  0.4778727E+02  0.7816164E-02  0.1312668E+00
        -11   -1    0    0    0    0  0.00000000000E+00  0.00000000000E+00  0.45593999997E+02  0.45594000000E+02  0.51100000000E-03 0. -1.
         11   -1    0    0    0    0 -0.00000000000E+00 -0.00000000000E+00 -0.45593999997E+02  0.45594000000E+02  0.51100000000E-03 0.  1.
    9900012    2    1    2    0    0  0.10488725616E+02  0.31647463453E+02 -0.27785752379E+02  0.47787270245E+02  0.19999996354E+02 0.  0.
         12    1    1    2    0    0 -0.10488725616E+02 -0.31647463453E+02  0.27785752379E+02  0.43400729755E+02  0.00000000000E+00 0. -1.
         11    1    3    3    0    0  0.86442802296E+01  0.18345554050E+02 -0.17491580333E+02  0.26781305362E+02  0.51100000000E-03 0. -1.
        -11    1    3    3    0    0  0.35950896696E+01  0.14568797223E+02 -0.59280234657E+01  0.16134310792E+02  0.51100000000E-03 0.  1.
         12    1    3    3    0    0 -0.17506442831E+01 -0.12668878203E+01 -0.43661485805E+01  0.48716540910E+01  0.00000000000E+00 0. -1.
</event>
<event>
 7    1  0.8440037E-011  0.4778727E+02  0.7816164E-02  0.1312668E+00
        -11   -1    0    0    0    0  0.00000000000E+00  0.00000000000E+00  0.45593999997E+02  0.45594000000E+02  0.51100000000E-03 0. -1.
         11   -1    0    0    0    0 -0.00000000000E+00 -0.00000000000E+00 -0.45593999997E+02  0.45594000000E+02  0.51100000000E-03 0.  1.
    9900012    2    1    2    0    0 -0.19575654647E+02  0.36001417298E+02 -0.14293876901E+02  0.47787271675E+02  0.20000002874E+02 0.  0.
         12    1    1    2    0    0  0.19575654647E+02 -0.36001417298E+02  0.14293876901E+02  0.43400728325E+02  0.00000000000E+00 0. -1.
         11    1    3    3    0    0 -0.16391087674E+02  0.19039885274E+02 -0.10254136699E+02  0.27135443724E+02  0.51100000000E-03 0.  1.
        -11    1    3    3    0    0 -0.27792019412E+01  0.82477315620E-01  0.11193460098E+01  0.29972823838E+01  0.51100000000E-03 0. -1.
        -12    1    3    3    0    0 -0.40536503158E+00  0.16879054708E+02 -0.51590862121E+01  0.17654545567E+02  0.00000000000E+00 0.  1.
</event>
<event>
 7    1  0.8440037E-011  0.4778727E+02  0.7816164E-02  0.1312668E+00
        -11   -1    0    0    0    0  0.00000000000E+00  0.00000000000E+00  0.45593999997E+02  0.45594000000E+02  0.51100000000E-03 0. -1.
         11   -1    0    0    0    0 -0.00000000000E+00 -0.00000000000E+00 -0.45593999997E+02  0.45594000000E+02  0.51100000000E-03 0.  1.
    9900012    2    1    2    0    0  0.38247374209E+02 -0.80038341532E+01  0.18886519118E+02  0.47787267293E+02  0.19999982898E+02 0.  0.
        -12    1    1    2    0    0 -0.38247374209E+02  0.80038341532E+01 -0.18886519118E+02  0.43400732707E+02  0.00000000000E+00 0.  1.
         11    1    3    3    0    0  0.11839649475E+02 -0.69697295803E+01  0.15292377453E+02  0.20557510514E+02  0.51100000000E-03 0. -1.
        -11    1    3    3    0    0  0.65899585873E+01  0.38539658110E+00  0.32508127299E+01  0.73582517199E+01  0.51100000000E-03 0.  1.
        -12    1    3    3    0    0  0.19817766147E+02 -0.14195011541E+01  0.34332893575E+00  0.19871505060E+02  0.00000000000E+00 0.  1.
</event>
<event>
 7    1  0.8440037E-011  0.4778727E+02  0.7816164E-02  0.1312668E+00
        -11   -1    0    0    0    0  0.00000000000E+00  0.00000000000E+00  0.45593999997E+02  0.45594000000E+02  0.51100000000E-03 0. -1.
         11   -1    0    0    0    0 -0.00000000000E+00 -0.00000000000E+00 -0.45593999997E+02  0.45594000000E+02  0.51100000000E-03 0.  1.
    9900012    2    1    2    0    0 -0.10828277354E+00  0.15677509265E+02 -0.40470078063E+02  0.47787271431E+02  0.20000001761E+02 0.  0.
         12    1    1    2    0    0  0.10828277354E+00 -0.15677509265E+02  0.40470078063E+02  0.43400728569E+02  0.00000000000E+00 0. -1.
         11    1    3    3    0    0  0.45737980861E+01  0.22492911782E+01 -0.92360027346E+01  0.10549060930E+02  0.51100000000E-03 0.  1.
        -11    1    3    3    0    0  0.52737394627E+00  0.77876583763E+01 -0.36709783129E+01  0.86256494422E+01  0.51100000000E-03 0. -1.
         12    1    3    3    0    0 -0.52094548059E+01  0.56405597102E+01 -0.27563097016E+02  0.28612561058E+02  0.00000000000E+00 0. -1.
</event>
<event>
 7    1  0.8440037E-011  0.4778726E+02  0.7816164E-02  0.1312668E+00
        -11   -1    0    0    0    0  0.00000000000E+00  0.00000000000E+00  0.45593999997E+02  0.45594000000E+02  0.51100000000E-03 0. -1.
         11   -1    0    0    0    0 -0.00000000000E+00 -0.00000000000E+00 -0.45593999997E+02  0.45594000000E+02  0.51100000000E-03 0.  1.
    9900012    2    1    2    0    0  0.14122033121E+02 -0.60000550768E+01 -0.40597924451E+02  0.47787263254E+02  0.19999964479E+02 0.  0.
         12    1    1    2    0    0 -0.14122033121E+02  0.60000550768E+01  0.40597924451E+02  0.43400736746E+02  0.00000000000E+00 0. -1.
         11    1    3    3    0    0  0.10778127567E+02  0.27256215227E+01 -0.20280564601E+02  0.23127869494E+02  0.51100000000E-03 0. -1.
        -11    1    3    3    0    0  0.57122172545E+01 -0.82839880190E+01 -0.19777998672E+02  0.22190608716E+02  0.51100000000E-03 0.  1.
        -12    1    3    3    0    0 -0.23683117006E+01 -0.44168858050E+00 -0.53936117834E+00  0.24687850441E+01  0.00000000000E+00 0.  1.
</event>
<event>
 7    1  0.8440037E-011  0.4778727E+02  0.7816164E-02  0.1312668E+00
        -11   -1    0    0    0    0  0.00000000000E+00  0.00000000000E+00  0.45593999997E+02  0.45594000000E+02  0.51100000000E-03 0.  1.
         11   -1    0    0    0    0 -0.00000000000E+00 -0.00000000000E+00 -0.45593999997E+02  0.45594000000E+02  0.51100000000E-03 0. -1.
    9900012    2    1    2    0    0 -0.14282958535E+02 -0.40921855800E+02 -0.22410159850E+01  0.47787270291E+02  0.19999996566E+02 0.  0.
        -12    1    1    2    0    0  0.14282958535E+02  0.40921855800E+02  0.22410159850E+01  0.43400729709E+02  0.00000000000E+00 0.  1.
         11    1    3    3    0    0 -0.30421560099E+00 -0.15855822088E+02  0.30261714316E+01  0.16144886343E+02  0.51100000000E-03 0. -1.
        -11    1    3    3    0    0 -0.79253578848E+01 -0.72501576452E+01  0.29064131417E+01  0.11127592781E+02  0.51100000000E-03 0.  1.
         12    1    3    3    0    0 -0.60533850493E+01 -0.17815876066E+02 -0.81736005583E+01  0.20514791168E+02  0.00000000000E+00 0. -1.
</event>
<event>
 7    1  0.8440037E-011  0.4778727E+02  0.7816164E-02  0.1312668E+00
        -11   -1    0    0    0    0  0.00000000000E+00  0.00000000000E+00  0.45593999997E+02  0.45594000000E+02  0.51100000000E-03 0. -1.
         11   -1    0    0    0    0 -0.00000000000E+00 -0.00000000000E+00 -0.45593999997E+02  0.45594000000E+02  0.51100000000E-03 0.  1.
    9900012    2    1    2    0    0  0.32797553864E+02 -0.26236251354E+02  0.10936309573E+02  0.47787270840E+02  0.19999999068E+02 0.  0.
        -12    1    1    2    0    0 -0.32797553864E+02  0.26236251354E+02 -0.10936309573E+02  0.43400729160E+02  0.00000000000E+00 0.  1.
         11    1    3    3    0    0  0.12420892498E+01 -0.75801603766E+01  0.72788297162E+00  0.77156614053E+01  0.51100000000E-03 0.  1.
        -11    1    3    3    0    0  0.77534897730E+00 -0.38017719250E+01 -0.11661950471E+01  0.40514993465E+01  0.51100000000E-03 0. -1.
         12    1    3    3    0    0  0.30780115637E+02 -0.14854319052E+02  0.11374621649E+02  0.36020110088E+02  0.00000000000E+00 0. -1.
</event>
<event>
 7    1  0.8440037E-011  0.4778728E+02  0.7816164E-02  0.1312668E+00
        -11   -1    0    0    0    0  0.00000000000E+00  0.00000000000E+00  0.45593999997E+02  0.45594000000E+02  0.51100000000E-03 0. -1.
         11   -1    0    0    0    0 -0.00000000000E+00 -0.00000000000E+00 -0.45593999997E+02  0.45594000000E+02  0.51100000000E-03 0.  1.
    9900012    2    1    2    0    0 -0.26413946238E+02 -0.18084743250E+02 -0.29306443380E+02  0.47787284362E+02  0.20000060719E+02 0.  0.
         12    1    1    2    0    0  0.26413946238E+02  0.18084743250E+02  0.29306443380E+02  0.43400715638E+02  0.00000000000E+00 0. -1.
         11    1    3    3    0    0  0.98504319176E+00  0.83675684384E+00 -0.89577174873E+00  0.15725391545E+01  0.51100000000E-03 0. -1.
        -11    1    3    3    0    0 -0.53091010507E+01 -0.42614735987E+01 -0.15068276198E+02  0.16534801451E+02  0.51100000000E-03 0.  1.
        -12    1    3    3    0    0 -0.22089888379E+02 -0.14660026495E+02 -0.13342395434E+02  0.29679943756E+02  0.00000000000E+00 0.  1.
</event>
<event>
 7    1  0.8440037E-011  0.4778727E+02  0.7816164E-02  0.1312668E+00
        -11   -1    0    0    0    0  0.00000000000E+00  0.00000000000E+00  0.45593999997E+02  0.45594000000E+02  0.51100000000E-03 0. -1.
         11   -1    0    0    0    0 -0.00000000000E+00 -0.00000000000E+00 -0.45593999997E+02  0.45594000000E+02  0.51100000000E-03 0.  1.
    9900012    2    1    2    0    0 -0.90843523951E+01 -0.12205122502E+02  0.40646436780E+02  0.47787270782E+02  0.19999998805E+02 0.  0.
        -12    1    1    2    0    0  0.90843523951E+01  0.12205122502E+02 -0.40646436780E+02  0.43400729218E+02  0.00000000000E+00 0.  1.
         11    1    3    3    0    0 -0.15540187084E+01 -0.22581853190E+01  0.12954221614E+02  0.13241081261E+02  0.51100000000E-03 0. -1.
        -11    1    3    3    0    0 -0.69228784254E+01 -0.32335187781E+01  0.26651899304E+02  0.27725541043E+02  0.51100000000E-03 0.  1.
         12    1    3    3    0    0 -0.60745526128E+00 -0.67134184045E+01  0.10403158622E+01  0.68206484781E+01  0.00000000000E+00 0. -1.
</event>
<event>
 7    1  0.8440037E-011  0.4778727E+02  0.7816164E-02  0.1312668E+00
        -11   -1    0    0    0    0  0.00000000000E+00  0.00000000000E+00  0.45593999997E+02  0.45594000000E+02  0.51100000000E-03 0. -1.
         11   -1    0    0    0    0 -0.00000000000E+00 -0.00000000000E+00 -0.45593999997E+02  0.45594000000E+02  0.51100000000E-03 0.  1.
    9900012    2    1    2    0    0 -0.20676453188E+02 -0.11233196577E+02 -0.36468108493E+02  0.47787270066E+02  0.19999995539E+02 0.  0.
         12    1    1    2    0    0  0.20676453188E+02  0.11233196577E+02  0.36468108493E+02  0.43400729934E+02  0.00000000000E+00 0. -1.
         11    1    3    3    0    0 -0.70759595814E+01  0.20435136979E+00 -0.26507883858E+01  0.75589445565E+01  0.51100000000E-03 0. -1.
        -11    1    3    3    0    0 -0.96345047174E+01 -0.13752304641E+01 -0.94352532617E+01  0.13555033912E+02  0.51100000000E-03 0.  1.
        -12    1    3    3    0    0 -0.39659888887E+01 -0.10062317483E+02 -0.24382066845E+02  0.26673291598E+02  0.00000000000E+00 0.  1.
</event>
<event>
 7    1  0.8440037E-011  0.4778726E+02  0.7816164E-02  0.1312668E+00
        -11   -1    0    0    0    0  0.00000000000E+00  0.00000000000E+00  0.45593999997E+02  0.45594000000E+02  0.51100000000E-03 0. -1.
         11   -1    0    0    0    0 -0.00000000000E+00 -0.00000000000E+00 -0.45593999997E+02  0.45594000000E+02  0.51100000000E-03 0.  1.
    9900012    2    1    2    0    0 -0.43677829238E+01 -0.37722672835E+02  0.21013002033E+02  0.47787264662E+02  0.19999970898E+02 0.  0.
        -12    1    1    2    0    0  0.43677829238E+01  0.37722672835E+02 -0.21013002033E+02  0.43400735338E+02  0.00000000000E+00 0.  1.
         11    1    3    3    0    0  0.38181392897E+00 -0.11437126493E+02  0.10375189742E+01  0.11490434725E+02  0.51100000000E-03 0. -1.
        -11    1    3    3    0    0 -0.80010649224E+00 -0.26670759682E+01 -0.22848789174E+01  0.36019628742E+01  0.51100000000E-03 0.  1.
         12    1    3    3    0    0 -0.39494903605E+01 -0.23618470374E+02  0.22260361976E+02  0.32694867062E+02  0.00000000000E+00 0. -1.
</event>
<event>
 7    1  0.8440037E-011  0.4778728E+02  0.7816164E-02  0.1312668E+00
        -11   -1    0    0    0    0  0.00000000000E+00  0.00000000000E+00  0.45593999997E+02  0.45594000000E+02  0.51100000000E-03 0. -1.
         11   -1    0    0    0    0 -0.00000000000E+00 -0.00000000000E+00 -0.45593999997E+02  0.45594000000E+02  0.51100000000E-03 0.  1.
    9900012    2    1    2    0    0 -0.26424264689E+02 -0.33824457473E+02  0.64254993661E+01  0.47787277313E+02  0.20000028580E+02 0.  0.
        -12    1    1    2    0    0  0.26424264689E+02  0.33824457473E+02 -0.64254993661E+01  0.43400722687E+02  0.00000000000E+00 0.  1.
         11    1    3    3    0    0  0.13688793975E+01 -0.11940568907E+01  0.16681234495E+01  0.24662195294E+01  0.51100000000E-03 0. -1.
        -11    1    3    3    0    0  0.15291172146E+00 -0.66299691924E+01 -0.10393522084E+01  0.67126840207E+01  0.51100000000E-03 0.  1.
         12    1    3    3    0    0 -0.27946055807E+02 -0.26000431390E+02  0.57967281250E+01  0.38608373763E+02  0.00000000000E+00 0. -1.
</event>
<event>
 7    1  0.8440037E-011  0.4778728E+02  0.7816164E-02  0.1312668E+00
        -11   -1    0    0    0    0  0.00000000000E+00  0.00000000000E+00  0.45593999997E+02  0.45594000000E+02  0.51100000000E-03 0. -1.
         11   -1    0    0    0    0 -0.00000000000E+00 -0.00000000000E+00 -0.45593999997E+02  0.45594000000E+02  0.51100000000E-03 0.  1.
    9900012    2    1    2    0    0  0.20074331719E+02 -0.14320975696E+01 -0.38452473683E+02  0.47787280769E+02  0.20000044337E+02 0.  0.
         12    1    1    2    0    0 -0.20074331719E+02  0.14320975696E+01  0.38452473683E+02  0.43400719231E+02  0.00000000000E+00 0. -1.
         11    1    3    3    0    0  0.45855003935E+01 -0.21648218020E+01 -0.93002056501E+01  0.10592784935E+02  0.51100000000E-03 0. -1.
        -11    1    3    3    0    0  0.10864760634E+02  0.86679385621E+01 -0.16865866439E+02  0.21854830898E+02  0.51100000000E-03 0.  1.
         12    1    3    3    0    0  0.46240706919E+01 -0.79352143297E+01 -0.12286401594E+02  0.15339664936E+02  0.00000000000E+00 0. -1.
</event>
<event>
 7    1  0.8440037E-011  0.4778727E+02  0.7816164E-02  0.1312668E+00
        -11   -1    0    0    0    0  0.00000000000E+00  0.00000000000E+00  0.45593999997E+02  0.45594000000E+02  0.51100000000E-03 0.  1.
         11   -1    0    0    0    0 -0.00000000000E+00 -0.00000000000E+00 -0.45593999997E+02  0.45594000000E+02  0.51100000000E-03 0. -1.
    9900012    2    1    2    0    0 -0.38419073219E+02 -0.29510476235E+01 -0.19972217263E+02  0.47787270381E+02  0.19999996975E+02 0.  0.
         12    1    1    2    0    0  0.38419073219E+02  0.29510476235E+01  0.19972217263E+02  0.43400729619E+02  0.00000000000E+00 0. -1.
         11    1    3    3    0    0 -0.65217536147E+00  0.29618342790E+01 -0.24166044923E+01  0.38778566931E+01  0.51100000000E-03 0. -1.
        -11    1    3    3    0    0 -0.21433596690E+02  0.24586710309E+01 -0.67233950796E+01  0.22597525793E+02  0.51100000000E-03 0.  1.
         12    1    3    3    0    0 -0.16333301167E+02 -0.83715529334E+01 -0.10832217691E+02  0.21311887895E+02  0.00000000000E+00 0. -1.
</event>
<event>
 7    1  0.8440037E-011  0.4778727E+02  0.7816164E-02  0.1312668E+00
        -11   -1    0    0    0    0  0.00000000000E+00  0.00000000000E+00  0.45593999997E+02  0.45594000000E+02  0.51100000000E-03 0. -1.
         11   -1    0    0    0    0 -0.00000000000E+00 -0.00000000000E+00 -0.45593999997E+02  0.45594000000E+02  0.51100000000E-03 0.  1.
    9900012    2    1    2    0    0  0.19290165989E+02  0.36325883327E+02 -0.13854338110E+02  0.47787274340E+02  0.20000015026E+02 0.  0.
         12    1    1    2    0    0 -0.19290165989E+02 -0.36325883327E+02  0.13854338110E+02  0.43400725660E+02  0.00000000000E+00 0. -1.
         11    1    3    3    0    0 -0.33510061779E+00  0.60620462464E+00  0.18223159049E+00  0.71622977086E+00  0.51100000000E-03 0. -1.
        -11    1    3    3    0    0  0.59070326756E+01  0.36448736645E+01 -0.96849656206E+01  0.11915397534E+02  0.51100000000E-03 0.  1.
         12    1    3    3    0    0  0.13718233931E+02  0.32074805037E+02 -0.43516040801E+01  0.35155647035E+02  0.00000000000E+00 0. -1.
</event>
<event>
 7    1  0.8440037E-011  0.4778727E+02  0.7816164E-02  0.1312668E+00
        -11   -1    0    0    0    0  0.00000000000E+00  0.00000000000E+00  0.45593999997E+02  0.45594000000E+02  0.51100000000E-03 0. -1.
         11   -1    0    0    0    0 -0.00000000000E+00 -0.00000000000E+00 -0.45593999997E+02  0.45594000000E+02  0.51100000000E-03 0.  1.
    9900012    2    1    2    0    0 -0.43400157401E+02  0.17129454140E+00 -0.14212197607E+00  0.47787271862E+02  0.20000003729E+02 0.  0.
         12    1    1    2    0    0  0.43400157401E+02 -0.17129454140E+00  0.14212197607E+00  0.43400728138E+02  0.00000000000E+00 0. -1.
         11    1    3    3    0    0 -0.21116246372E+02  0.32357198711E+01  0.68748712920E+01  0.22441693329E+02  0.51100000000E-03 0. -1.
        -11    1    3    3    0    0 -0.12091902119E+02  0.29815164257E+01 -0.27799742415E+01  0.12760556183E+02  0.51100000000E-03 0.  1.
        -12    1    3    3    0    0 -0.10192008909E+02 -0.60459417554E+01 -0.42370190266E+01  0.12585022350E+02  0.00000000000E+00 0.  1.
</event>
<event>
 7    1  0.8440037E-011  0.4778727E+02  0.7816164E-02  0.1312668E+00
        -11   -1    0    0    0    0  0.00000000000E+00  0.00000000000E+00  0.45593999997E+02  0.45594000000E+02  0.51100000000E-03 0. -1.
         11   -1    0    0    0    0 -0.00000000000E+00 -0.00000000000E+00 -0.45593999997E+02  0.45594000000E+02  0.51100000000E-03 0.  1.
    9900012    2    1    2    0    0  0.21894958730E+02  0.31385450704E+01  0.37341445738E+02  0.47787271288E+02  0.20000001111E+02 0.  0.
        -12    1    1    2    0    0 -0.21894958730E+02 -0.31385450704E+01 -0.37341445738E+02  0.43400728712E+02  0.00000000000E+00 0.  1.
         11    1    3    3    0    0  0.96778729194E+01  0.50784623128E+01  0.21548433436E+02  0.24161684286E+02  0.51100000000E-03 0. -1.
        -11    1    3    3    0    0  0.31656723802E+00 -0.75145827205E+00  0.10525854663E+02  0.10557391771E+02  0.51100000000E-03 0.  1.
         12    1    3    3    0    0  0.11900518573E+02 -0.11884589704E+01  0.52671576379E+01  0.13068195231E+02  0.00000000000E+00 0. -1.
</event>
<event>
 7    1  0.8440037E-011  0.4778727E+02  0.7816164E-02  0.1312668E+00
        -11   -1    0    0    0    0  0.00000000000E+00  0.00000000000E+00  0.45593999997E+02  0.45594000000E+02  0.51100000000E-03 0.  1.
         11   -1    0    0    0    0 -0.00000000000E+00 -0.00000000000E+00 -0.45593999997E+02  0.45594000000E+02  0.51100000000E-03 0. -1.
    9900012    2    1    2    0    0  0.32073689136E+02  0.24406928674E+02  0.16099800403E+02  0.47787271030E+02  0.19999999933E+02 0.  0.
        -12    1    1    2    0    0 -0.32073689136E+02 -0.24406928674E+02 -0.16099800403E+02  0.43400728970E+02  0.00000000000E+00 0.  1.
         11    1    3    3    0    0  0.64562556173E+01 -0.29994451655E+00  0.39243150750E+01  0.75613128740E+01  0.51100000000E-03 0. -1.
        -11    1    3    3    0    0  0.67416478705E+01 -0.56462493089E+00  0.27746872257E+01  0.73121478913E+01  0.51100000000E-03 0.  1.
         12    1    3    3    0    0  0.18875785649E+02  0.25271498122E+02  0.94007981025E+01  0.32913810265E+02  0.00000000000E+00 0. -1.
</event>
<event>
 7    1  0.8440037E-011  0.4778727E+02  0.7816164E-02  0.1312668E+00
        -11   -1    0    0    0    0  0.00000000000E+00  0.00000000000E+00  0.45593999997E+02  0.45594000000E+02  0.51100000000E-03 0.  1.
         11   -1    0    0    0    0 -0.00000000000E+00 -0.00000000000E+00 -0.45593999997E+02  0.45594000000E+02  0.51100000000E-03 0. -1.
    9900012    2    1    2    0    0  0.34622848812E+02  0.20959135773E+02 -0.15671519435E+02  0.47787267822E+02  0.19999985307E+02 0.  0.
         12    1    1    2    0    0 -0.34622848812E+02 -0.20959135773E+02  0.15671519435E+02  0.43400732178E+02  0.00000000000E+00 0. -1.
         11    1    3    3    0    0  0.12551853499E+02  0.39146379873E+01 -0.74403992542E+01  0.15107380917E+02  0.51100000000E-03 0. -1.
        -11    1    3    3    0    0  0.13568025542E+02  0.15172373955E+02 -0.11501890285E+02  0.23379172974E+02  0.51100000000E-03 0.  1.
        -12    1    3    3    0    0  0.85029697711E+01  0.18721238303E+01  0.32707701044E+01  0.93007139317E+01  0.00000000000E+00 0.  1.
</event>
<event>
 7    1  0.8440037E-011  0.4778727E+02  0.7816164E-02  0.1312668E+00
        -11   -1    0    0    0    0  0.00000000000E+00  0.00000000000E+00  0.45593999997E+02  0.45594000000E+02  0.51100000000E-03 0. -1.
         11   -1    0    0    0    0 -0.00000000000E+00 -0.00000000000E+00 -0.45593999997E+02  0.45594000000E+02  0.51100000000E-03 0.  1.
    9900012    2    1    2    0    0  0.35817992369E+02 -0.13439436123E+02 -0.20495770000E+02  0.47787267189E+02  0.19999982422E+02 0.  0.
         12    1    1    2    0    0 -0.35817992369E+02  0.13439436123E+02  0.20495770000E+02  0.43400732811E+02  0.00000000000E+00 0. -1.
         11    1    3    3    0    0  0.45837714215E+01 -0.73428937645E+01 -0.10134650074E+02  0.13328172480E+02  0.51100000000E-03 0. -1.
        -11    1    3    3    0    0  0.22109775490E+01  0.15346476961E+01  0.58259061895E-01  0.26920177661E+01  0.51100000000E-03 0.  1.
         12    1    3    3    0    0  0.29023243398E+02 -0.76311900549E+01 -0.10419378988E+02  0.31767076943E+02  0.00000000000E+00 0. -1.
</event>
<event>
 7    1  0.8440037E-011  0.4778728E+02  0.7816164E-02  0.1312668E+00
        -11   -1    0    0    0    0  0.00000000000E+00  0.00000000000E+00  0.45593999997E+02  0.45594000000E+02  0.51100000000E-03 0. -1.
         11   -1    0    0    0    0 -0.00000000000E+00 -0.00000000000E+00 -0.45593999997E+02  0.45594000000E+02  0.51100000000E-03 0.  1.
    9900012    2    1    2    0    0  0.13227303870E+02 -0.41250802861E+02  0.26517994850E+01  0.47787281747E+02  0.20000048796E+02 0.  0.
        -12    1    1    2    0    0 -0.13227303870E+02  0.41250802861E+02 -0.26517994850E+01  0.43400718253E+02  0.00000000000E+00 0.  1.
         11    1    3    3    0    0  0.12640833274E+02 -0.29781874906E+02 -0.31501416500E+00  0.32355061010E+02  0.51100000000E-03 0. -1.
        -11    1    3    3    0    0  0.28139562373E+01 -0.12194491949E+02  0.35680051068E+01  0.13013633017E+02  0.51100000000E-03 0.  1.
        -12    1    3    3    0    0 -0.22274856411E+01  0.72556399354E+00 -0.60119145679E+00  0.24185877197E+01  0.00000000000E+00 0.  1.
</event>
<event>
 7    1  0.8440037E-011  0.4778727E+02  0.7816164E-02  0.1312668E+00
        -11   -1    0    0    0    0  0.00000000000E+00  0.00000000000E+00  0.45593999997E+02  0.45594000000E+02  0.51100000000E-03 0. -1.
         11   -1    0    0    0    0 -0.00000000000E+00 -0.00000000000E+00 -0.45593999997E+02  0.45594000000E+02  0.51100000000E-03 0.  1.
    9900012    2    1    2    0    0 -0.19854235612E+02  0.19923211714E+02 -0.33052961964E+02  0.47787270382E+02  0.19999996980E+02 0.  0.
         12    1    1    2    0    0  0.19854235612E+02 -0.19923211714E+02  0.33052961964E+02  0.43400729618E+02  0.00000000000E+00 0. -1.
         11    1    3    3    0    0 -0.26048224815E+01  0.70555850097E+01 -0.11384870325E+02  0.13644839778E+02  0.51100000000E-03 0. -1.
        -11    1    3    3    0    0 -0.83890165101E+01  0.60575448419E+01 -0.20427369819E+02  0.22898621912E+02  0.51100000000E-03 0.  1.
         12    1    3    3    0    0 -0.88603966209E+01  0.68100818627E+01 -0.12407218205E+01  0.11243808692E+02  0.00000000000E+00 0. -1.
</event>
<event>
 7    1  0.8440037E-011  0.4778727E+02  0.7816164E-02  0.1312668E+00
        -11   -1    0    0    0    0  0.00000000000E+00  0.00000000000E+00  0.45593999997E+02  0.45594000000E+02  0.51100000000E-03 0. -1.
         11   -1    0    0    0    0 -0.00000000000E+00 -0.00000000000E+00 -0.45593999997E+02  0.45594000000E+02  0.51100000000E-03 0.  1.
    9900012    2    1    2    0    0  0.40400841679E+02  0.99205433904E+01 -0.12368434291E+02  0.47787270095E+02  0.19999995670E+02 0.  0.
         12    1    1    2    0    0 -0.40400841679E+02 -0.99205433904E+01  0.12368434291E+02  0.43400729905E+02  0.00000000000E+00 0. -1.
         11    1    3    3    0    0  0.33766611511E+02  0.94640370787E+01 -0.16689197651E+01  0.35107511222E+02  0.51100000000E-03 0.  1.
        -11    1    3    3    0    0  0.20895614883E+01  0.52577499271E+00 -0.45342289483E+01  0.50201532818E+01  0.51100000000E-03 0. -1.
        -12    1    3    3    0    0  0.45446686789E+01 -0.69268681004E-01 -0.61652855775E+01  0.76596055906E+01  0.00000000000E+00 0.  1.
</event>
<event>
 7    1  0.8440037E-011  0.4778727E+02  0.7816164E-02  0.1312668E+00
        -11   -1    0    0    0    0  0.00000000000E+00  0.00000000000E+00  0.45593999997E+02  0.45594000000E+02  0.51100000000E-03 0. -1.
         11   -1    0    0    0    0 -0.00000000000E+00 -0.00000000000E+00 -0.45593999997E+02  0.45594000000E+02  0.51100000000E-03 0.  1.
    9900012    2    1    2    0    0 -0.33332818491E+02  0.17957658296E+02  0.21214825487E+02  0.47787273042E+02  0.20000009108E+02 0.  0.
        -12    1    1    2    0    0  0.33332818491E+02 -0.17957658296E+02 -0.21214825487E+02  0.43400726958E+02  0.00000000000E+00 0.  1.
         11    1    3    3    0    0 -0.12188852327E+01 -0.10018514683E+01  0.18913780173E+01  0.24630669176E+01  0.51100000000E-03 0. -1.
        -11    1    3    3    0    0 -0.31988173293E+02  0.14250801008E+02  0.12815139479E+02  0.37290164388E+02  0.51100000000E-03 0.  1.
        -12    1    3    3    0    0 -0.12575996576E+00  0.47087087560E+01  0.65083079906E+01  0.80340417361E+01  0.00000000000E+00 0.  1.
</event>
<event>
 7    1  0.8440037E-011  0.4778728E+02  0.7816164E-02  0.1312668E+00
        -11   -1    0    0    0    0  0.00000000000E+00  0.00000000000E+00  0.45593999997E+02  0.45594000000E+02  0.51100000000E-03 0. -1.
         11   -1    0    0    0    0 -0.00000000000E+00 -0.00000000000E+00 -0.45593999997E+02  0.45594000000E+02  0.51100000000E-03 0.  1.
    9900012    2    1    2    0    0 -0.13051222809E+02  0.17320460972E+02 -0.37593749372E+02  0.47787276770E+02  0.20000026105E+02 0.  0.
         12    1    1    2    0    0  0.13051222809E+02 -0.17320460972E+02  0.37593749372E+02  0.43400723230E+02  0.00000000000E+00 0. -1.
         11    1    3    3    0    0  0.12869715144E+01 -0.59580302029E+00 -0.20672134372E+00  0.14331820865E+01  0.51100000000E-03 0. -1.
        -11    1    3    3    0    0 -0.58060659788E+01  0.91792244669E+01 -0.54296570983E+01  0.12142888471E+02  0.51100000000E-03 0.  1.
        -12    1    3    3    0    0 -0.85321283442E+01  0.87370395256E+01 -0.31957370929E+02  0.34211206212E+02  0.00000000000E+00 0.  1.
</event>
<event>
 7    1  0.8440037E-011  0.4778727E+02  0.7816164E-02  0.1312668E+00
        -11   -1    0    0    0    0  0.00000000000E+00  0.00000000000E+00  0.45593999997E+02  0.45594000000E+02  0.51100000000E-03 0. -1.
         11   -1    0    0    0    0 -0.00000000000E+00 -0.00000000000E+00 -0.45593999997E+02  0.45594000000E+02  0.51100000000E-03 0.  1.
    9900012    2    1    2    0    0  0.41508483289E+02  0.53530857443E+01 -0.11489712360E+02  0.47787271872E+02  0.20000003771E+02 0.  0.
         12    1    1    2    0    0 -0.41508483289E+02 -0.53530857443E+01  0.11489712360E+02  0.43400728128E+02  0.00000000000E+00 0. -1.
         11    1    3    3    0    0  0.64459191222E+01 -0.26556794363E+00  0.29638088534E+01  0.70996170913E+01  0.51100000000E-03 0. -1.
        -11    1    3    3    0    0  0.56094420699E+01  0.18757633514E+01  0.25861433596E+01  0.64554214598E+01  0.51100000000E-03 0.  1.
        -12    1    3    3    0    0  0.29453122097E+02  0.37428903365E+01 -0.17039664573E+02  0.34232233320E+02  0.00000000000E+00 0.  1.
</event>
<event>
 7    1  0.8440037E-011  0.4778727E+02  0.7816164E-02  0.1312668E+00
        -11   -1    0    0    0    0  0.00000000000E+00  0.00000000000E+00  0.45593999997E+02  0.45594000000E+02  0.51100000000E-03 0. -1.
         11   -1    0    0    0    0 -0.00000000000E+00 -0.00000000000E+00 -0.45593999997E+02  0.45594000000E+02  0.51100000000E-03 0.  1.
    9900012    2    1    2    0    0  0.36779977582E+01  0.53381127870E+01  0.42913869297E+02  0.47787270817E+02  0.19999998962E+02 0.  0.
        -12    1    1    2    0    0 -0.36779977582E+01 -0.53381127870E+01 -0.42913869297E+02  0.43400729183E+02  0.00000000000E+00 0.  1.
         11    1    3    3    0    0  0.23009223743E+01  0.56103879589E+01  0.78918393468E+01  0.99524783526E+01  0.51100000000E-03 0. -1.
        -11    1    3    3    0    0  0.55419499651E+01 -0.13095903660E+00  0.48179573184E+01  0.73445947926E+01  0.51100000000E-03 0.  1.
        -12    1    3    3    0    0 -0.41648745812E+01 -0.14131613530E+00  0.30204072631E+02  0.30490197672E+02  0.00000000000E+00 0.  1.
</event>
<event>
 7    1  0.8440037E-011  0.4778726E+02  0.7816164E-02  0.1312668E+00
        -11   -1    0    0    0    0  0.00000000000E+00  0.00000000000E+00  0.45593999997E+02  0.45594000000E+02  0.51100000000E-03 0.  1.
         11   -1    0    0    0    0 -0.00000000000E+00 -0.00000000000E+00 -0.45593999997E+02  0.45594000000E+02  0.51100000000E-03 0. -1.
    9900012    2    1    2    0    0  0.69617187635E+00 -0.33896362477E+02  0.27095687226E+02  0.47787259099E+02  0.19999945536E+02 0.  0.
        -12    1    1    2    0    0 -0.69617187635E+00  0.33896362477E+02 -0.27095687226E+02  0.43400740901E+02  0.00000000000E+00 0.  1.
         11    1    3    3    0    0  0.23721464064E+01 -0.22484573787E+02  0.19716785507E+02  0.29998912779E+02  0.51100000000E-03 0. -1.
        -11    1    3    3    0    0  0.24114324157E+01 -0.67121333666E+01  0.88720986265E+01  0.11383403486E+02  0.51100000000E-03 0.  1.
        -12    1    3    3    0    0 -0.40874069458E+01 -0.46996553242E+01 -0.14931969068E+01  0.64049428342E+01  0.00000000000E+00 0.  1.
</event>
<event>
 7    1  0.8440037E-011  0.4778728E+02  0.7816164E-02  0.1312668E+00
        -11   -1    0    0    0    0  0.00000000000E+00  0.00000000000E+00  0.45593999997E+02  0.45594000000E+02  0.51100000000E-03 0. -1.
         11   -1    0    0    0    0 -0.00000000000E+00 -0.00000000000E+00 -0.45593999997E+02  0.45594000000E+02  0.51100000000E-03 0.  1.
    9900012    2    1    2    0    0 -0.18917113138E+02  0.33384893435E+02  0.20278427874E+02  0.47787275166E+02  0.20000018791E+02 0.  0.
        -12    1    1    2    0    0  0.18917113138E+02 -0.33384893435E+02 -0.20278427874E+02  0.43400724834E+02  0.00000000000E+00 0.  1.
         11    1    3    3    0    0 -0.15571147946E+02  0.19350851287E+02  0.11329361416E+02  0.27299643299E+02  0.51100000000E-03 0. -1.
        -11    1    3    3    0    0 -0.27041465772E+01  0.15737772534E+02  0.60739916502E+01  0.17084591533E+02  0.51100000000E-03 0.  1.
        -12    1    3    3    0    0 -0.64181861405E+00 -0.17037303860E+01  0.28750748080E+01  0.34030403338E+01  0.00000000000E+00 0.  1.
</event>
<event>
 7    1  0.8440037E-011  0.4778727E+02  0.7816164E-02  0.1312668E+00
        -11   -1    0    0    0    0  0.00000000000E+00  0.00000000000E+00  0.45593999997E+02  0.45594000000E+02  0.51100000000E-03 0. -1.
         11   -1    0    0    0    0 -0.00000000000E+00 -0.00000000000E+00 -0.45593999997E+02  0.45594000000E+02  0.51100000000E-03 0.  1.
    9900012    2    1    2    0    0  0.12861254986E+02  0.48295555275E+01  0.41169003232E+02  0.47787270588E+02  0.19999997919E+02 0.  0.
        -12    1    1    2    0    0 -0.12861254986E+02 -0.48295555275E+01 -0.41169003232E+02  0.43400729412E+02  0.00000000000E+00 0.  1.
         11    1    3    3    0    0  0.65604472627E+01 -0.13000317282E+01  0.15561958412E+02  0.16938243730E+02  0.51100000000E-03 0. -1.
        -11    1    3    3    0    0  0.12186420892E+01 -0.29206354567E+01 -0.57315309982E-01  0.31651990962E+01  0.51100000000E-03 0.  1.
        -12    1    3    3    0    0  0.50821656338E+01  0.90502227125E+01  0.25664360129E+02  0.27683827761E+02  0.00000000000E+00 0.  1.
</event>
<event>
 7    1  0.1133041E-010  0.4778727E+02  0.7816164E-02  0.1312668E+00
        -11   -1    0    0    0    0  0.00000000000E+00  0.00000000000E+00  0.45593999997E+02  0.45594000000E+02  0.51100000000E-03 0. -1.
         11   -1    0    0    0    0 -0.00000000000E+00 -0.00000000000E+00 -0.45593999997E+02  0.45594000000E+02  0.51100000000E-03 0.  1.
    9900012    2    1    2    0    0  0.11842912617E+02 -0.36866535504E+02  0.19601713818E+02  0.47787271850E+02  0.20000003674E+02 0.  0.
        -12    1    1    2    0    0 -0.11842912617E+02  0.36866535504E+02 -0.19601713818E+02  0.43400728150E+02  0.00000000000E+00 0.  1.
         11    1    3    3    0    0 -0.34303747468E+01 -0.88291657987E+01  0.21195664817E+01  0.97064000503E+01  0.51100000000E-03 0. -1.
        -11    1    3    3    0    0  0.19095567145E+01  0.33564477298E+00  0.29134367690E+01  0.34995968807E+01  0.51100000000E-03 0.  1.
         12    1    3    3    0    0  0.13363730650E+02 -0.28373014478E+02  0.14568710568E+02  0.34581274919E+02  0.00000000000E+00 0. -1.
</event>
<event>
 7    1  0.1132471E-010  0.4778727E+02  0.7816164E-02  0.1312668E+00
        -11   -1    0    0    0    0  0.00000000000E+00  0.00000000000E+00  0.45593999997E+02  0.45594000000E+02  0.51100000000E-03 0. -1.
         11   -1    0    0    0    0 -0.00000000000E+00 -0.00000000000E+00 -0.45593999997E+02  0.45594000000E+02  0.51100000000E-03 0.  1.
    9900012    2    1    2    0    0  0.61428639964E+01 -0.15645659067E+02  0.40013770439E+02  0.47787271314E+02  0.20000001230E+02 0.  0.
        -12    1    1    2    0    0 -0.61428639964E+01  0.15645659067E+02 -0.40013770439E+02  0.43400728686E+02  0.00000000000E+00 0.  1.
         11    1    3    3    0    0  0.61300498541E+01  0.38527896114E+00  0.56010434768E+01  0.83124989854E+01  0.51100000000E-03 0.  1.
        -11    1    3    3    0    0 -0.29946230395E+01 -0.36517073120E+01  0.30457923784E+01  0.56195715953E+01  0.51100000000E-03 0. -1.
         12    1    3    3    0    0  0.30074371818E+01 -0.12379230716E+02  0.31366934584E+02  0.33855200733E+02  0.00000000000E+00 0. -1.
</event>
<event>
 7    1  0.8440037E-011  0.4778725E+02  0.7816164E-02  0.1312668E+00
        -11   -1    0    0    0    0  0.00000000000E+00  0.00000000000E+00  0.45593999997E+02  0.45594000000E+02  0.51100000000E-03 0.  1.
         11   -1    0    0    0    0 -0.00000000000E+00 -0.00000000000E+00 -0.45593999997E+02  0.45594000000E+02  0.51100000000E-03 0. -1.
    9900012    2    1    2    0    0 -0.13873571092E+02  0.37674804148E+02 -0.16485082001E+02  0.47787253797E+02  0.19999921360E+02 0.  0.
         12    1    1    2    0    0  0.13873571092E+02 -0.37674804148E+02  0.16485082001E+02  0.43400746203E+02  0.00000000000E+00 0. -1.
         11    1    3    3    0    0 -0.79976841334E+01  0.79415009836E+01 -0.45793847626E+01  0.12165572508E+02  0.51100000000E-03 0.  1.
        -11    1    3    3    0    0 -0.22781580958E+01  0.11530645391E+02 -0.12366783890E+02  0.17061158563E+02  0.51100000000E-03 0. -1.
         12    1    3    3    0    0 -0.35977288626E+01  0.18202657773E+02  0.46108665179E+00  0.18560522726E+02  0.00000000000E+00 0. -1.
</event>
<event>
 7    1  0.8440037E-011  0.4778727E+02  0.7816164E-02  0.1312668E+00
        -11   -1    0    0    0    0  0.00000000000E+00  0.00000000000E+00  0.45593999997E+02  0.45594000000E+02  0.51100000000E-03 0. -1.
         11   -1    0    0    0    0 -0.00000000000E+00 -0.00000000000E+00 -0.45593999997E+02  0.45594000000E+02  0.51100000000E-03 0.  1.
    9900012    2    1    2    0    0  0.21044791130E+02 -0.11591924275E+02  0.36143707455E+02  0.47787268086E+02  0.19999986509E+02 0.  0.
        -12    1    1    2    0    0 -0.21044791130E+02  0.11591924275E+02 -0.36143707455E+02  0.43400731914E+02  0.00000000000E+00 0.  1.
         11    1    3    3    0    0  0.12254985123E+02 -0.52214835554E+01  0.11470434342E+02  0.17578948067E+02  0.51100000000E-03 0. -1.
        -11    1    3    3    0    0  0.62583580163E+01  0.32101191653E+01  0.13851596891E+02  0.15535077946E+02  0.51100000000E-03 0.  1.
        -12    1    3    3    0    0  0.25314479906E+01 -0.95805598853E+01  0.10821676223E+02  0.14673242072E+02  0.00000000000E+00 0.  1.
</event>
<event>
 7    1  0.8440037E-011  0.4778728E+02  0.7816164E-02  0.1312668E+00
        -11   -1    0    0    0    0  0.00000000000E+00  0.00000000000E+00  0.45593999997E+02  0.45594000000E+02  0.51100000000E-03 0. -1.
         11   -1    0    0    0    0 -0.00000000000E+00 -0.00000000000E+00 -0.45593999997E+02  0.45594000000E+02  0.51100000000E-03 0.  1.
    9900012    2    1    2    0    0 -0.41342492040E+02  0.12486466380E+02  0.43022148346E+01  0.47787279462E+02  0.20000038380E+02 0.  0.
        -12    1    1    2    0    0  0.41342492040E+02 -0.12486466380E+02 -0.43022148346E+01  0.43400720538E+02  0.00000000000E+00 0.  1.
         11    1    3    3    0    0 -0.10540245650E+02  0.76104572307E+01  0.60845475557E+01  0.14354008390E+02  0.51100000000E-03 0. -1.
        -11    1    3    3    0    0 -0.11666167401E+02 -0.18415999930E+01  0.37846051204E+01  0.12402184829E+02  0.51100000000E-03 0.  1.
        -12    1    3    3    0    0 -0.19136078988E+02  0.67176091427E+01 -0.55669378415E+01  0.21031086243E+02  0.00000000000E+00 0.  1.
</event>
<event>
 7    1  0.8440037E-011  0.4778727E+02  0.7816164E-02  0.1312668E+00
        -11   -1    0    0    0    0  0.00000000000E+00  0.00000000000E+00  0.45593999997E+02  0.45594000000E+02  0.51100000000E-03 0. -1.
         11   -1    0    0    0    0 -0.00000000000E+00 -0.00000000000E+00 -0.45593999997E+02  0.45594000000E+02  0.51100000000E-03 0.  1.
    9900012    2    1    2    0    0 -0.34428896615E+02 -0.26292692594E+01 -0.26293750125E+02  0.47787271036E+02  0.19999999962E+02 0.  0.
         12    1    1    2    0    0  0.34428896615E+02  0.26292692594E+01  0.26293750125E+02  0.43400728964E+02  0.00000000000E+00 0. -1.
         11    1    3    3    0    0 -0.54627169902E+01 -0.52608497652E+01 -0.95910359001E+01  0.12227255909E+02  0.51100000000E-03 0. -1.
        -11    1    3    3    0    0 -0.44228855557E+01 -0.29099804694E+01 -0.65638906926E+01  0.84329451710E+01  0.51100000000E-03 0.  1.
        -12    1    3    3    0    0 -0.24543294069E+02  0.55415609752E+01 -0.10138823533E+02  0.27127069956E+02  0.00000000000E+00 0.  1.
</event>
<event>
 7    1  0.8440037E-011  0.4778727E+02  0.7816164E-02  0.1312668E+00
        -11   -1    0    0    0    0  0.00000000000E+00  0.00000000000E+00  0.45593999997E+02  0.45594000000E+02  0.51100000000E-03 0. -1.
         11   -1    0    0    0    0 -0.00000000000E+00 -0.00000000000E+00 -0.45593999997E+02  0.45594000000E+02  0.51100000000E-03 0.  1.
    9900012    2    1    2    0    0  0.13188761180E+02 -0.21431879016E+01  0.41292690768E+02  0.47787274353E+02  0.20000015085E+02 0.  0.
        -12    1    1    2    0    0 -0.13188761180E+02  0.21431879016E+01 -0.41292690768E+02  0.43400725647E+02  0.00000000000E+00 0.  1.
         11    1    3    3    0    0  0.56499874251E+01 -0.24717420591E+01  0.16149498532E+02  0.17286936392E+02  0.51100000000E-03 0. -1.
        -11    1    3    3    0    0 -0.15865405306E+01 -0.51700775925E+01  0.14347226451E+02  0.15332635790E+02  0.51100000000E-03 0.  1.
         12    1    3    3    0    0  0.91253142859E+01  0.54986317501E+01  0.10795965784E+02  0.15167702171E+02  0.00000000000E+00 0. -1.
</event>
<event>
 7    1  0.8440037E-011  0.4778729E+02  0.7816164E-02  0.1312668E+00
        -11   -1    0    0    0    0  0.00000000000E+00  0.00000000000E+00  0.45593999997E+02  0.45594000000E+02  0.51100000000E-03 0.  1.
         11   -1    0    0    0    0 -0.00000000000E+00 -0.00000000000E+00 -0.45593999997E+02  0.45594000000E+02  0.51100000000E-03 0. -1.
    9900012    2    1    2    0    0 -0.25619699267E+02 -0.23567989665E+02 -0.25919158571E+02  0.47787286775E+02  0.20000071724E+02 0.  0.
         12    1    1    2    0    0  0.25619699267E+02  0.23567989665E+02  0.25919158571E+02  0.43400713225E+02  0.00000000000E+00 0. -1.
         11    1    3    3    0    0 -0.17070690759E+02 -0.85190783819E+01 -0.18960712802E+02  0.26897803065E+02  0.51100000000E-03 0. -1.
        -11    1    3    3    0    0 -0.64870163097E+01 -0.29758508691E+01 -0.80369691245E+00  0.71821304629E+01  0.51100000000E-03 0.  1.
         12    1    3    3    0    0 -0.20619921980E+01 -0.12073060414E+02 -0.61547488563E+01  0.13707353248E+02  0.00000000000E+00 0. -1.
</event>
<event>
 7    1  0.8440037E-011  0.4778729E+02  0.7816164E-02  0.1312668E+00
        -11   -1    0    0    0    0  0.00000000000E+00  0.00000000000E+00  0.45593999997E+02  0.45594000000E+02  0.51100000000E-03 0.  1.
         11   -1    0    0    0    0 -0.00000000000E+00 -0.00000000000E+00 -0.45593999997E+02  0.45594000000E+02  0.51100000000E-03 0. -1.
    9900012    2    1    2    0    0 -0.39893360035E+02  0.12328622319E+02  0.11838366668E+02  0.47787285391E+02  0.20000065413E+02 0.  0.
        -12    1    1    2    0    0  0.39893360035E+02 -0.12328622319E+02 -0.11838366668E+02  0.43400714609E+02  0.00000000000E+00 0.  1.
         11    1    3    3    0    0 -0.57769731158E+01 -0.16940840299E+01  0.26449033434E+01  0.65756256765E+01  0.51100000000E-03 0. -1.
        -11    1    3    3    0    0 -0.43901599302E+01 -0.34555285287E+01  0.27774423126E+00  0.55938648308E+01  0.51100000000E-03 0.  1.
         12    1    3    3    0    0 -0.29726226989E+02  0.17478234878E+02  0.89157190932E+01  0.35617794884E+02  0.00000000000E+00 0. -1.
</event>
<event>
 7    1  0.8440037E-011  0.4778727E+02  0.7816164E-02  0.1312668E+00
        -11   -1    0    0    0    0  0.00000000000E+00  0.00000000000E+00  0.45593999997E+02  0.45594000000E+02  0.51100000000E-03 0. -1.
         11   -1    0    0    0    0 -0.00000000000E+00 -0.00000000000E+00 -0.45593999997E+02  0.45594000000E+02  0.51100000000E-03 0.  1.
    9900012    2    1    2    0    0 -0.30648845613E+02 -0.26059132430E+02  0.16284751228E+02  0.47787271401E+02  0.20000001624E+02 0.  0.
        -12    1    1    2    0    0  0.30648845613E+02  0.26059132430E+02 -0.16284751228E+02  0.43400728599E+02  0.00000000000E+00 0.  1.
         11    1    3    3    0    0 -0.23761510304E+01 -0.66598857745E+01  0.66412218670E-01  0.70713918781E+01  0.51100000000E-03 0. -1.
        -11    1    3    3    0    0 -0.44609095834E+00 -0.19040444887E+01  0.59756058678E+01  0.62874675590E+01  0.51100000000E-03 0.  1.
         12    1    3    3    0    0 -0.27826603624E+02 -0.17495202167E+02  0.10242733141E+02  0.34428411963E+02  0.00000000000E+00 0. -1.
</event>
<event>
 7    1  0.8440037E-011  0.4778727E+02  0.7816164E-02  0.1312668E+00
        -11   -1    0    0    0    0  0.00000000000E+00  0.00000000000E+00  0.45593999997E+02  0.45594000000E+02  0.51100000000E-03 0.  1.
         11   -1    0    0    0    0 -0.00000000000E+00 -0.00000000000E+00 -0.45593999997E+02  0.45594000000E+02  0.51100000000E-03 0. -1.
    9900012    2    1    2    0    0  0.15859424635E+02  0.34622437458E+02 -0.20818001111E+02  0.47787266187E+02  0.19999977852E+02 0.  0.
         12    1    1    2    0    0 -0.15859424635E+02 -0.34622437458E+02  0.20818001111E+02  0.43400733813E+02  0.00000000000E+00 0. -1.
         11    1    3    3    0    0  0.22651402673E+01  0.15050324068E+02 -0.63062257794E+01  0.16474574314E+02  0.51100000000E-03 0. -1.
        -11    1    3    3    0    0  0.21270820564E+01  0.75101857912E+01 -0.12237709269E+02  0.14515126493E+02  0.51100000000E-03 0.  1.
        -12    1    3    3    0    0  0.11467202311E+02  0.12061927598E+02 -0.22740660627E+01  0.16797565380E+02  0.00000000000E+00 0.  1.
</event>
<event>
 7    1  0.8440037E-011  0.4778727E+02  0.7816164E-02  0.1312668E+00
        -11   -1    0    0    0    0  0.00000000000E+00  0.00000000000E+00  0.45593999997E+02  0.45594000000E+02  0.51100000000E-03 0. -1.
         11   -1    0    0    0    0 -0.00000000000E+00 -0.00000000000E+00 -0.45593999997E+02  0.45594000000E+02  0.51100000000E-03 0.  1.
    9900012    2    1    2    0    0 -0.11835562800E+02 -0.38080774924E+01 -0.41581745650E+02  0.47787267607E+02  0.19999984327E+02 0.  0.
         12    1    1    2    0    0  0.11835562800E+02  0.38080774924E+01  0.41581745650E+02  0.43400732393E+02  0.00000000000E+00 0. -1.
         11    1    3    3    0    0 -0.26027852540E+01  0.22984117336E+01 -0.41891446136E+00  0.34975244334E+01  0.51100000000E-03 0. -1.
        -11    1    3    3    0    0 -0.63885872765E+01  0.24747252029E+01 -0.12760632028E+02  0.14483509320E+02  0.51100000000E-03 0.  1.
         12    1    3    3    0    0 -0.28441902700E+01 -0.85812144289E+01 -0.28402199160E+02  0.29806233853E+02  0.00000000000E+00 0. -1.
</event>
<event>
 7    1  0.8440037E-011  0.4778726E+02  0.7816164E-02  0.1312668E+00
        -11   -1    0    0    0    0  0.00000000000E+00  0.00000000000E+00  0.45593999997E+02  0.45594000000E+02  0.51100000000E-03 0. -1.
         11   -1    0    0    0    0 -0.00000000000E+00 -0.00000000000E+00 -0.45593999997E+02  0.45594000000E+02  0.51100000000E-03 0.  1.
    9900012    2    1    2    0    0 -0.17339755184E+02 -0.19797227858E+02 -0.34511263625E+02  0.47787255102E+02  0.19999927311E+02 0.  0.
         12    1    1    2    0    0  0.17339755184E+02  0.19797227858E+02  0.34511263625E+02  0.43400744898E+02  0.00000000000E+00 0. -1.
         11    1    3    3    0    0 -0.13414114406E+02 -0.19657845531E+02 -0.17684680854E+02  0.29649912199E+02  0.51100000000E-03 0. -1.
        -11    1    3    3    0    0  0.97377826520E+00 -0.14009106683E+01 -0.45329673825E+01  0.48434066898E+01  0.51100000000E-03 0.  1.
        -12    1    3    3    0    0 -0.48994190436E+01  0.12615283417E+01 -0.12293615389E+02  0.13293936214E+02  0.00000000000E+00 0.  1.
</event>
<event>
 7    1  0.8440037E-011  0.4778727E+02  0.7816164E-02  0.1312668E+00
        -11   -1    0    0    0    0  0.00000000000E+00  0.00000000000E+00  0.45593999997E+02  0.45594000000E+02  0.51100000000E-03 0.  1.
         11   -1    0    0    0    0 -0.00000000000E+00 -0.00000000000E+00 -0.45593999997E+02  0.45594000000E+02  0.51100000000E-03 0. -1.
    9900012    2    1    2    0    0 -0.36163657795E+02  0.23611991453E+02  0.42763060677E+01  0.47787273289E+02  0.20000010234E+02 0.  0.
        -12    1    1    2    0    0  0.36163657795E+02 -0.23611991453E+02 -0.42763060677E+01  0.43400726711E+02  0.00000000000E+00 0.  1.
         11    1    3    3    0    0 -0.57932312719E+01 -0.26270414120E+01  0.16506054490E+01  0.65717101092E+01  0.51100000000E-03 0.  1.
        -11    1    3    3    0    0 -0.81300626463E+01  0.50637957560E+01 -0.29132152270E+01  0.10011332045E+02  0.51100000000E-03 0. -1.
        -12    1    3    3    0    0 -0.22240363876E+02  0.21175237109E+02  0.55389158458E+01  0.31204231135E+02  0.00000000000E+00 0.  1.
</event>
<event>
 7    1  0.8440037E-011  0.4778727E+02  0.7816164E-02  0.1312668E+00
        -11   -1    0    0    0    0  0.00000000000E+00  0.00000000000E+00  0.45593999997E+02  0.45594000000E+02  0.51100000000E-03 0. -1.
         11   -1    0    0    0    0 -0.00000000000E+00 -0.00000000000E+00 -0.45593999997E+02  0.45594000000E+02  0.51100000000E-03 0.  1.
    9900012    2    1    2    0    0 -0.26200095398E+02 -0.14307642515E+02 -0.31503486137E+02  0.47787271066E+02  0.20000000097E+02 0.  0.
         12    1    1    2    0    0  0.26200095398E+02  0.14307642515E+02  0.31503486137E+02  0.43400728934E+02  0.00000000000E+00 0. -1.
         11    1    3    3    0    0 -0.48204127364E+01  0.21734965169E+01 -0.49559769201E+01  0.72472183320E+01  0.51100000000E-03 0. -1.
        -11    1    3    3    0    0  0.19814673828E+01 -0.11347806404E+01 -0.40925998278E+01  0.46865033557E+01  0.51100000000E-03 0.  1.
         12    1    3    3    0    0 -0.23361150045E+02 -0.15346358392E+02 -0.22454909389E+02  0.35853549378E+02  0.00000000000E+00 0. -1.
</event>
<event>
 7    1  0.1378321E-010  0.4778728E+02  0.7816164E-02  0.1312668E+00
        -11   -1    0    0    0    0  0.00000000000E+00  0.00000000000E+00  0.45593999997E+02  0.45594000000E+02  0.51100000000E-03 0. -1.
         11   -1    0    0    0    0 -0.00000000000E+00 -0.00000000000E+00 -0.45593999997E+02  0.45594000000E+02  0.51100000000E-03 0.  1.
    9900012    2    1    2    0    0 -0.19259123669E+02 -0.20961888644E+02  0.32761381285E+02  0.47787277382E+02  0.20000028895E+02 0.  0.
        -12    1    1    2    0    0  0.19259123669E+02  0.20961888644E+02 -0.32761381285E+02  0.43400722618E+02  0.00000000000E+00 0.  1.
         11    1    3    3    0    0 -0.80141312944E+01 -0.77464612249E+01  0.21474954173E+02  0.24195198261E+02  0.51100000000E-03 0. -1.
        -11    1    3    3    0    0  0.11310379155E+01  0.12461514494E+01  0.93012508828E+00  0.19228294626E+01  0.51100000000E-03 0.  1.
         12    1    3    3    0    0 -0.12376030291E+02 -0.14461578869E+02  0.10356302024E+02  0.21669249658E+02  0.00000000000E+00 0. -1.
</event>
<event>
 7    1  0.8440037E-011  0.4778728E+02  0.7816164E-02  0.1312668E+00
        -11   -1    0    0    0    0  0.00000000000E+00  0.00000000000E+00  0.45593999997E+02  0.45594000000E+02  0.51100000000E-03 0. -1.
         11   -1    0    0    0    0 -0.00000000000E+00 -0.00000000000E+00 -0.45593999997E+02  0.45594000000E+02  0.51100000000E-03 0.  1.
    9900012    2    1    2    0    0  0.98795323211E+01 -0.33384028214E+02 -0.25913784875E+02  0.47787277134E+02  0.20000027766E+02 0.  0.
         12    1    1    2    0    0 -0.98795323211E+01  0.33384028214E+02  0.25913784875E+02  0.43400722866E+02  0.00000000000E+00 0. -1.
         11    1    3    3    0    0  0.28932613068E+00 -0.32008674877E+00 -0.35445360343E+01  0.35707003649E+01  0.51100000000E-03 0. -1.
        -11    1    3    3    0    0  0.50762173099E+01 -0.29389784029E+02 -0.23875823979E+02  0.38204480868E+02  0.51100000000E-03 0.  1.
        -12    1    3    3    0    0  0.45139888806E+01 -0.36741574362E+01  0.15065751380E+01  0.60120959013E+01  0.00000000000E+00 0.  1.
</event>
<event>
 7    1  0.8440037E-011  0.4778727E+02  0.7816164E-02  0.1312668E+00
        -11   -1    0    0    0    0  0.00000000000E+00  0.00000000000E+00  0.45593999997E+02  0.45594000000E+02  0.51100000000E-03 0. -1.
         11   -1    0    0    0    0 -0.00000000000E+00 -0.00000000000E+00 -0.45593999997E+02  0.45594000000E+02  0.51100000000E-03 0.  1.
    9900012    2    1    2    0    0  0.99308045830E+01  0.35726480538E+02  0.22552629815E+02  0.47787269558E+02  0.19999993224E+02 0.  0.
        -12    1    1    2    0    0 -0.99308045830E+01 -0.35726480538E+02 -0.22552629815E+02  0.43400730442E+02  0.00000000000E+00 0.  1.
         11    1    3    3    0    0  0.99464009449E+01  0.16291780182E+02  0.13526144467E+02  0.23394648483E+02  0.51100000000E-03 0. -1.
        -11    1    3    3    0    0  0.56264371101E+01  0.71645128301E+01  0.28765928052E+01  0.95531055199E+01  0.51100000000E-03 0.  1.
        -12    1    3    3    0    0 -0.56420334721E+01  0.12270187526E+02  0.61498925424E+01  0.14839515555E+02  0.00000000000E+00 0.  1.
</event>
<event>
 7    1  0.8440037E-011  0.4778727E+02  0.7816164E-02  0.1312668E+00
        -11   -1    0    0    0    0  0.00000000000E+00  0.00000000000E+00  0.45593999997E+02  0.45594000000E+02  0.51100000000E-03 0. -1.
         11   -1    0    0    0    0 -0.00000000000E+00 -0.00000000000E+00 -0.45593999997E+02  0.45594000000E+02  0.51100000000E-03 0.  1.
    9900012    2    1    2    0    0  0.28953544312E+01 -0.27314458409E+02 -0.33602983652E+02  0.47787271599E+02  0.20000002527E+02 0.  0.
         12    1    1    2    0    0 -0.28953544312E+01  0.27314458409E+02  0.33602983652E+02  0.43400728401E+02  0.00000000000E+00 0. -1.
         11    1    3    3    0    0 -0.50585628644E+01 -0.56625611423E+01 -0.12761495736E+02  0.14849559947E+02  0.51100000000E-03 0. -1.
        -11    1    3    3    0    0 -0.71646959049E+00 -0.11248504758E+02 -0.13311148317E+02  0.17442157485E+02  0.51100000000E-03 0.  1.
        -12    1    3    3    0    0  0.86703868861E+01 -0.10403392509E+02 -0.75303395993E+01  0.15495554167E+02  0.00000000000E+00 0.  1.
</event>
<event>
 7    1  0.8440037E-011  0.4778727E+02  0.7816164E-02  0.1312668E+00
        -11   -1    0    0    0    0  0.00000000000E+00  0.00000000000E+00  0.45593999997E+02  0.45594000000E+02  0.51100000000E-03 0.  1.
         11   -1    0    0    0    0 -0.00000000000E+00 -0.00000000000E+00 -0.45593999997E+02  0.45594000000E+02  0.51100000000E-03 0. -1.
    9900012    2    1    2    0    0 -0.42979424245E+02  0.29430503072E+01 -0.52660046293E+01  0.47787271224E+02  0.20000000819E+02 0.  0.
        -12    1    1    2    0    0  0.42979424245E+02 -0.29430503072E+01  0.52660046293E+01  0.43400728776E+02  0.00000000000E+00 0.  1.
         11    1    3    3    0    0 -0.20934311519E+02 -0.10851357147E+01 -0.42297650892E+01  0.21384897270E+02  0.51100000000E-03 0. -1.
        -11    1    3    3    0    0 -0.21463362986E+02  0.51783073179E+01  0.28922804859E+01  0.22267826657E+02  0.51100000000E-03 0.  1.
         12    1    3    3    0    0 -0.58174973998E+00 -0.11501212961E+01 -0.39285200260E+01  0.41345472969E+01  0.00000000000E+00 0. -1.
</event>
<event>
 7    1  0.8440037E-011  0.4778727E+02  0.7816164E-02  0.1312668E+00
        -11   -1    0    0    0    0  0.00000000000E+00  0.00000000000E+00  0.45593999997E+02  0.45594000000E+02  0.51100000000E-03 0. -1.
         11   -1    0    0    0    0 -0.00000000000E+00 -0.00000000000E+00 -0.45593999997E+02  0.45594000000E+02  0.51100000000E-03 0.  1.
    9900012    2    1    2    0    0  0.36183076801E+02 -0.23114306962E+02  0.63353873448E+01  0.47787269984E+02  0.19999995163E+02 0.  0.
         12    1    1    2    0    0 -0.36183076801E+02  0.23114306962E+02 -0.63353873448E+01  0.43400730016E+02  0.00000000000E+00 0. -1.
         11    1    3    3    0    0  0.91705145018E+00 -0.22963071697E+01 -0.27712169548E+01  0.37139808362E+01  0.51100000000E-03 0. -1.
        -11    1    3    3    0    0  0.29079341508E+01 -0.75285952192E+01  0.27025279088E+01  0.85111388403E+01  0.51100000000E-03 0.  1.
        -12    1    3    3    0    0  0.32358091200E+02 -0.13289404573E+02  0.64040763908E+01  0.35562150307E+02  0.00000000000E+00 0.  1.
</event>
<event>
 7    1  0.8440037E-011  0.4778726E+02  0.7816164E-02  0.1312668E+00
        -11   -1    0    0    0    0  0.00000000000E+00  0.00000000000E+00  0.45593999997E+02  0.45594000000E+02  0.51100000000E-03 0. -1.
         11   -1    0    0    0    0 -0.00000000000E+00 -0.00000000000E+00 -0.45593999997E+02  0.45594000000E+02  0.51100000000E-03 0.  1.
    9900012    2    1    2    0    0 -0.13672467504E+02 -0.11175475083E+01  0.41175707746E+02  0.47787260508E+02  0.19999951959E+02 0.  0.
        -12    1    1    2    0    0  0.13672467504E+02  0.11175475083E+01 -0.41175707746E+02  0.43400739492E+02  0.00000000000E+00 0.  1.
         11    1    3    3    0    0  0.26236889542E+01 -0.35053546531E+01  0.55288166153E+01  0.70525930266E+01  0.51100000000E-03 0. -1.
        -11    1    3    3    0    0 -0.59598466325E+01 -0.19882971938E+01  0.22918479397E+02  0.23764044179E+02  0.51100000000E-03 0.  1.
        -12    1    3    3    0    0 -0.10336309826E+02  0.43761043386E+01  0.12728411734E+02  0.16970623302E+02  0.00000000000E+00 0.  1.
</event>
<event>
 7    1  0.8440037E-011  0.4778727E+02  0.7816164E-02  0.1312668E+00
        -11   -1    0    0    0    0  0.00000000000E+00  0.00000000000E+00  0.45593999997E+02  0.45594000000E+02  0.51100000000E-03 0. -1.
         11   -1    0    0    0    0 -0.00000000000E+00 -0.00000000000E+00 -0.45593999997E+02  0.45594000000E+02  0.51100000000E-03 0.  1.
    9900012    2    1    2    0    0  0.91700782178E+01  0.34620981146E+02  0.24513682228E+02  0.47787270900E+02  0.19999999344E+02 0.  0.
        -12    1    1    2    0    0 -0.91700782178E+01 -0.34620981146E+02 -0.24513682228E+02  0.43400729100E+02  0.00000000000E+00 0.  1.
         11    1    3    3    0    0  0.59122117293E+01  0.40092454318E+01  0.83758528960E+01  0.11008324507E+02  0.51100000000E-03 0. -1.
        -11    1    3    3    0    0  0.34441666559E+01  0.76302463790E+01 -0.53075295588E+00  0.83883635304E+01  0.51100000000E-03 0.  1.
         12    1    3    3    0    0 -0.18630016738E+00  0.22981489335E+02  0.16668582287E+02  0.28390582863E+02  0.00000000000E+00 0. -1.
</event>
<event>
 7    1  0.8440037E-011  0.4778727E+02  0.7816164E-02  0.1312668E+00
        -11   -1    0    0    0    0  0.00000000000E+00  0.00000000000E+00  0.45593999997E+02  0.45594000000E+02  0.51100000000E-03 0. -1.
         11   -1    0    0    0    0 -0.00000000000E+00 -0.00000000000E+00 -0.45593999997E+02  0.45594000000E+02  0.51100000000E-03 0.  1.
    9900012    2    1    2    0    0  0.78878857534E+01 -0.36078496086E+02 -0.22797954223E+02  0.47787270303E+02  0.19999996619E+02 0.  0.
         12    1    1    2    0    0 -0.78878857534E+01  0.36078496086E+02  0.22797954223E+02  0.43400729697E+02  0.00000000000E+00 0. -1.
         11    1    3    3    0    0 -0.12674844130E+01  0.26064434676E+00  0.37349064299E-01  0.12945452585E+01  0.51100000000E-03 0. -1.
        -11    1    3    3    0    0 -0.10315825541E+01 -0.22054433975E+02 -0.17443792355E+02  0.28138018987E+02  0.51100000000E-03 0.  1.
         12    1    3    3    0    0  0.10186952721E+02 -0.14284706458E+02 -0.53915109318E+01  0.18354706057E+02  0.00000000000E+00 0. -1.
</event>
<event>
 7    1  0.8440037E-011  0.4778727E+02  0.7816164E-02  0.1312668E+00
        -11   -1    0    0    0    0  0.00000000000E+00  0.00000000000E+00  0.45593999997E+02  0.45594000000E+02  0.51100000000E-03 0. -1.
         11   -1    0    0    0    0 -0.00000000000E+00 -0.00000000000E+00 -0.45593999997E+02  0.45594000000E+02  0.51100000000E-03 0.  1.
    9900012    2    1    2    0    0  0.22568876746E+02  0.15815746425E+02 -0.33528061661E+02  0.47787274760E+02  0.20000016942E+02 0.  0.
         12    1    1    2    0    0 -0.22568876746E+02 -0.15815746425E+02  0.33528061661E+02  0.43400725240E+02  0.00000000000E+00 0. -1.
         11    1    3    3    0    0  0.14634648028E+02  0.11692131515E+02 -0.12163874091E+02  0.22334697119E+02  0.51100000000E-03 0. -1.
        -11    1    3    3    0    0  0.75720482301E+01  0.75666381812E+00 -0.59195008411E+01  0.96410033193E+01  0.51100000000E-03 0.  1.
         12    1    3    3    0    0  0.36218048836E+00  0.33669510921E+01 -0.15444686730E+02  0.15811574322E+02  0.00000000000E+00 0. -1.
</event>
<event>
 7    1  0.8440037E-011  0.4778727E+02  0.7816164E-02  0.1312668E+00
        -11   -1    0    0    0    0  0.00000000000E+00  0.00000000000E+00  0.45593999997E+02  0.45594000000E+02  0.51100000000E-03 0.  1.
         11   -1    0    0    0    0 -0.00000000000E+00 -0.00000000000E+00 -0.45593999997E+02  0.45594000000E+02  0.51100000000E-03 0. -1.
    9900012    2    1    2    0    0  0.14994338311E+02  0.39036183901E+02 -0.11617638378E+02  0.47787270094E+02  0.19999995666E+02 0.  0.
         12    1    1    2    0    0 -0.14994338311E+02 -0.39036183901E+02  0.11617638378E+02  0.43400729906E+02  0.00000000000E+00 0. -1.
         11    1    3    3    0    0 -0.77963540240E+00  0.83518355898E+00  0.15414335162E+00  0.11528761303E+01  0.51100000000E-03 0. -1.
        -11    1    3    3    0    0  0.86304275857E+01  0.36552043325E+02 -0.80406598977E+01  0.38408180944E+02  0.51100000000E-03 0.  1.
        -12    1    3    3    0    0  0.71435461279E+01  0.16489570164E+01 -0.37311218314E+01  0.82262130196E+01  0.00000000000E+00 0.  1.
</event>
<event>
 7    1  0.8440037E-011  0.4778727E+02  0.7816164E-02  0.1312668E+00
        -11   -1    0    0    0    0  0.00000000000E+00  0.00000000000E+00  0.45593999997E+02  0.45594000000E+02  0.51100000000E-03 0. -1.
         11   -1    0    0    0    0 -0.00000000000E+00 -0.00000000000E+00 -0.45593999997E+02  0.45594000000E+02  0.51100000000E-03 0.  1.
    9900012    2    1    2    0    0 -0.12866881749E+02  0.25745909961E+02 -0.32484068572E+02  0.47787271473E+02  0.20000001952E+02 0.  0.
         12    1    1    2    0    0  0.12866881749E+02 -0.25745909961E+02  0.32484068572E+02  0.43400728527E+02  0.00000000000E+00 0. -1.
         11    1    3    3    0    0  0.41341950138E+01  0.29926887637E+01 -0.13188312052E+01  0.52713442742E+01  0.51100000000E-03 0. -1.
        -11    1    3    3    0    0 -0.21582914324E+01  0.54627165308E+01 -0.42509413490E+01  0.72505169759E+01  0.51100000000E-03 0.  1.
         12    1    3    3    0    0 -0.14842785331E+02  0.17290504667E+02 -0.26914296018E+02  0.35265410223E+02  0.00000000000E+00 0. -1.
</event>
<event>
 7    1  0.8440037E-011  0.4778728E+02  0.7816164E-02  0.1312668E+00
        -11   -1    0    0    0    0  0.00000000000E+00  0.00000000000E+00  0.45593999997E+02  0.45594000000E+02  0.51100000000E-03 0. -1.
         11   -1    0    0    0    0 -0.00000000000E+00 -0.00000000000E+00 -0.45593999997E+02  0.45594000000E+02  0.51100000000E-03 0.  1.
    9900012    2    1    2    0    0 -0.36289391775E+02  0.15745041151E+01  0.23753390579E+02  0.47787279008E+02  0.20000036308E+02 0.  0.
        -12    1    1    2    0    0  0.36289391775E+02 -0.15745041151E+01 -0.23753390579E+02  0.43400720992E+02  0.00000000000E+00 0.  1.
         11    1    3    3    0    0 -0.23922526400E+02  0.34924179290E+01  0.24342764471E+02  0.34308226924E+02  0.51100000000E-03 0. -1.
        -11    1    3    3    0    0 -0.55332447570E+00 -0.15241378835E+01  0.19392198102E+00  0.16330248802E+01  0.51100000000E-03 0.  1.
        -12    1    3    3    0    0 -0.11813540900E+02 -0.39377593036E+00 -0.78329587268E+00  0.11846027203E+02  0.00000000000E+00 0.  1.
</event>
<event>
 7    1  0.8440037E-011  0.4778727E+02  0.7816164E-02  0.1312668E+00
        -11   -1    0    0    0    0  0.00000000000E+00  0.00000000000E+00  0.45593999997E+02  0.45594000000E+02  0.51100000000E-03 0. -1.
         11   -1    0    0    0    0 -0.00000000000E+00 -0.00000000000E+00 -0.45593999997E+02  0.45594000000E+02  0.51100000000E-03 0.  1.
    9900012    2    1    2    0    0 -0.44485660975E+01  0.36600360224E+02 -0.22896447890E+02  0.47787269190E+02  0.19999991545E+02 0.  0.
         12    1    1    2    0    0  0.44485660975E+01 -0.36600360224E+02  0.22896447890E+02  0.43400730810E+02  0.00000000000E+00 0. -1.
         11    1    3    3    0    0 -0.55363269981E+01  0.75916306933E+01 -0.91294580296E+01  0.13100793006E+02  0.51100000000E-03 0. -1.
        -11    1    3    3    0    0 -0.56866197031E+01  0.14902934547E+02 -0.90660132776E+01  0.18347416679E+02  0.51100000000E-03 0.  1.
         12    1    3    3    0    0  0.67743806037E+01  0.14105794983E+02 -0.47009765827E+01  0.16339059505E+02  0.00000000000E+00 0. -1.
</event>
<event>
 7    1  0.8440037E-011  0.4778727E+02  0.7816164E-02  0.1312668E+00
        -11   -1    0    0    0    0  0.00000000000E+00  0.00000000000E+00  0.45593999997E+02  0.45594000000E+02  0.51100000000E-03 0. -1.
         11   -1    0    0    0    0 -0.00000000000E+00 -0.00000000000E+00 -0.45593999997E+02  0.45594000000E+02  0.51100000000E-03 0.  1.
    9900012    2    1    2    0    0 -0.81651258600E+01 -0.42837614898E+01  0.42409945644E+02  0.47787269795E+02  0.19999994303E+02 0.  0.
        -12    1    1    2    0    0  0.81651258600E+01  0.42837614898E+01 -0.42409945644E+02  0.43400730205E+02  0.00000000000E+00 0.  1.
         11    1    3    3    0    0 -0.13817174244E+01 -0.37768083468E+01  0.14814804862E+02  0.15350956572E+02  0.51100000000E-03 0. -1.
        -11    1    3    3    0    0  0.32418860837E+01 -0.50764954563E+01  0.93214242056E+01  0.11098179174E+02  0.51100000000E-03 0.  1.
        -12    1    3    3    0    0 -0.10025294519E+02  0.45695423133E+01  0.18273716577E+02  0.21338134049E+02  0.00000000000E+00 0.  1.
</event>
<event>
 7    1  0.8440037E-011  0.4778728E+02  0.7816164E-02  0.1312668E+00
        -11   -1    0    0    0    0  0.00000000000E+00  0.00000000000E+00  0.45593999997E+02  0.45594000000E+02  0.51100000000E-03 0. -1.
         11   -1    0    0    0    0 -0.00000000000E+00 -0.00000000000E+00 -0.45593999997E+02  0.45594000000E+02  0.51100000000E-03 0.  1.
    9900012    2    1    2    0    0 -0.69961547864E+01  0.41102750986E+02  0.12051567862E+02  0.47787278712E+02  0.20000034959E+02 0.  0.
        -12    1    1    2    0    0  0.69961547864E+01 -0.41102750986E+02 -0.12051567862E+02  0.43400721288E+02  0.00000000000E+00 0.  1.
         11    1    3    3    0    0  0.81643403058E+00 -0.99747922570E+00  0.55867708388E-01  0.12902134684E+01  0.51100000000E-03 0. -1.
        -11    1    3    3    0    0 -0.69920383247E+00  0.56001398359E+01  0.69759997348E+01  0.89730164795E+01  0.51100000000E-03 0.  1.
         12    1    3    3    0    0 -0.71133849845E+01  0.36500090375E+02  0.50197004192E+01  0.37524048764E+02  0.00000000000E+00 0. -1.
</event>
<event>
 7    1  0.8440037E-011  0.4778727E+02  0.7816164E-02  0.1312668E+00
        -11   -1    0    0    0    0  0.00000000000E+00  0.00000000000E+00  0.45593999997E+02  0.45594000000E+02  0.51100000000E-03 0. -1.
         11   -1    0    0    0    0 -0.00000000000E+00 -0.00000000000E+00 -0.45593999997E+02  0.45594000000E+02  0.51100000000E-03 0.  1.
    9900012    2    1    2    0    0 -0.18501914527E+02  0.13932767740E+01 -0.39234698255E+02  0.47787267190E+02  0.19999982426E+02 0.  0.
         12    1    1    2    0    0  0.18501914527E+02 -0.13932767740E+01  0.39234698255E+02  0.43400732810E+02  0.00000000000E+00 0. -1.
         11    1    3    3    0    0 -0.38658051891E+01 -0.11325421777E+01 -0.29345623093E+01  0.49838496920E+01  0.51100000000E-03 0. -1.
        -11    1    3    3    0    0  0.33692766451E+01  0.35738432592E+00 -0.12079040167E+02  0.12545236558E+02  0.51100000000E-03 0.  1.
        -12    1    3    3    0    0 -0.18005385983E+02  0.21684346257E+01 -0.24221095778E+02  0.30258180940E+02  0.00000000000E+00 0.  1.
</event>
<event>
 7    1  0.8440037E-011  0.4778727E+02  0.7816164E-02  0.1312668E+00
        -11   -1    0    0    0    0  0.00000000000E+00  0.00000000000E+00  0.45593999997E+02  0.45594000000E+02  0.51100000000E-03 0. -1.
         11   -1    0    0    0    0 -0.00000000000E+00 -0.00000000000E+00 -0.45593999997E+02  0.45594000000E+02  0.51100000000E-03 0.  1.
    9900012    2    1    2    0    0 -0.20438116016E+02  0.10139184394E+02  0.36920232077E+02  0.47787272090E+02  0.20000004769E+02 0.  0.
        -12    1    1    2    0    0  0.20438116016E+02 -0.10139184394E+02 -0.36920232077E+02  0.43400727910E+02  0.00000000000E+00 0.  1.
         11    1    3    3    0    0 -0.16235465860E+01 -0.35319066048E+01  0.80326088864E+00  0.39693193495E+01  0.51100000000E-03 0.  1.
        -11    1    3    3    0    0 -0.60829204928E+01  0.67510036771E+01  0.76643936103E+01  0.11887846821E+02  0.51100000000E-03 0. -1.
        -12    1    3    3    0    0 -0.12731648937E+02  0.69200873216E+01  0.28452577578E+02  0.31930105920E+02  0.00000000000E+00 0.  1.
</event>
<event>
 7    1  0.8440037E-011  0.4778727E+02  0.7816164E-02  0.1312668E+00
        -11   -1    0    0    0    0  0.00000000000E+00  0.00000000000E+00  0.45593999997E+02  0.45594000000E+02  0.51100000000E-03 0. -1.
         11   -1    0    0    0    0 -0.00000000000E+00 -0.00000000000E+00 -0.45593999997E+02  0.45594000000E+02  0.51100000000E-03 0.  1.
    9900012    2    1    2    0    0 -0.11794779338E+02  0.10035786190E+02 -0.40543674037E+02  0.47787270415E+02  0.19999997132E+02 0.  0.
         12    1    1    2    0    0  0.11794779338E+02 -0.10035786190E+02  0.40543674037E+02  0.43400729585E+02  0.00000000000E+00 0. -1.
         11    1    3    3    0    0 -0.53131113817E+01  0.83334758916E+01 -0.12859056212E+02  0.16218239729E+02  0.51100000000E-03 0. -1.
        -11    1    3    3    0    0 -0.91785976987E+01  0.15492193252E+01 -0.99323988220E+01  0.13612467919E+02  0.51100000000E-03 0.  1.
        -12    1    3    3    0    0  0.26969297420E+01  0.15309097307E+00 -0.17752219003E+02  0.17956562767E+02  0.00000000000E+00 0.  1.
</event>
<event>
 7    1  0.8440037E-011  0.4778727E+02  0.7816164E-02  0.1312668E+00
        -11   -1    0    0    0    0  0.00000000000E+00  0.00000000000E+00  0.45593999997E+02  0.45594000000E+02  0.51100000000E-03 0. -1.
         11   -1    0    0    0    0 -0.00000000000E+00 -0.00000000000E+00 -0.45593999997E+02  0.45594000000E+02  0.51100000000E-03 0.  1.
    9900012    2    1    2    0    0 -0.17762096759E+02  0.13631677985E+02 -0.37179411361E+02  0.47787270109E+02  0.19999995734E+02 0.  0.
         12    1    1    2    0    0  0.17762096759E+02 -0.13631677985E+02  0.37179411361E+02  0.43400729891E+02  0.00000000000E+00 0. -1.
         11    1    3    3    0    0 -0.43190510440E+01 -0.20574160632E+00 -0.12357660177E+02  0.13092299143E+02  0.51100000000E-03 0. -1.
        -11    1    3    3    0    0  0.12929081224E+01  0.62075085540E+01 -0.12534329736E+02  0.14046857159E+02  0.51100000000E-03 0.  1.
         12    1    3    3    0    0 -0.14735953838E+02  0.76299110375E+01 -0.12287421448E+02  0.20648113807E+02  0.00000000000E+00 0. -1.
</event>
<event>
 7    1  0.8440037E-011  0.4778728E+02  0.7816164E-02  0.1312668E+00
        -11   -1    0    0    0    0  0.00000000000E+00  0.00000000000E+00  0.45593999997E+02  0.45594000000E+02  0.51100000000E-03 0. -1.
         11   -1    0    0    0    0 -0.00000000000E+00 -0.00000000000E+00 -0.45593999997E+02  0.45594000000E+02  0.51100000000E-03 0.  1.
    9900012    2    1    2    0    0  0.13895316431E+02 -0.14229155464E+02 -0.38575560855E+02  0.47787279047E+02  0.20000036487E+02 0.  0.
         12    1    1    2    0    0 -0.13895316431E+02  0.14229155464E+02  0.38575560855E+02  0.43400720953E+02  0.00000000000E+00 0. -1.
         11    1    3    3    0    0  0.53270351447E+01 -0.24819089863E+01 -0.97210715887E+00  0.59566910477E+01  0.51100000000E-03 0. -1.
        -11    1    3    3    0    0 -0.32086868408E+00  0.19490486753E+01 -0.47128250999E+01  0.51100360208E+01  0.51100000000E-03 0.  1.
        -12    1    3    3    0    0  0.88891499703E+01 -0.13696295153E+02 -0.32890628597E+02  0.36720551978E+02  0.00000000000E+00 0.  1.
</event>
<event>
 7    1  0.8440037E-011  0.4778727E+02  0.7816164E-02  0.1312668E+00
        -11   -1    0    0    0    0  0.00000000000E+00  0.00000000000E+00  0.45593999997E+02  0.45594000000E+02  0.51100000000E-03 0. -1.
         11   -1    0    0    0    0 -0.00000000000E+00 -0.00000000000E+00 -0.45593999997E+02  0.45594000000E+02  0.51100000000E-03 0.  1.
    9900012    2    1    2    0    0  0.36683180372E+02  0.11195964540E+02  0.20312999324E+02  0.47787270908E+02  0.19999999378E+02 0.  0.
        -12    1    1    2    0    0 -0.36683180372E+02 -0.11195964540E+02 -0.20312999324E+02  0.43400729092E+02  0.00000000000E+00 0.  1.
         11    1    3    3    0    0  0.69944691474E+01  0.43612667779E+01 -0.16347038123E+00  0.82443901769E+01  0.51100000000E-03 0. -1.
        -11    1    3    3    0    0  0.38485893328E+01  0.71146927797E+00 -0.23154993094E+01  0.45474570585E+01  0.51100000000E-03 0.  1.
        -12    1    3    3    0    0  0.25840121892E+02  0.61232284843E+01  0.22791969015E+02  0.34995423673E+02  0.00000000000E+00 0.  1.
</event>
<event>
 7    1  0.1184778E-010  0.4778727E+02  0.7816164E-02  0.1312668E+00
        -11   -1    0    0    0    0  0.00000000000E+00  0.00000000000E+00  0.45593999997E+02  0.45594000000E+02  0.51100000000E-03 0. -1.
         11   -1    0    0    0    0 -0.00000000000E+00 -0.00000000000E+00 -0.45593999997E+02  0.45594000000E+02  0.51100000000E-03 0.  1.
    9900012    2    1    2    0    0  0.18161548824E+02 -0.52867699254E+01  0.39061894321E+02  0.47787269823E+02  0.19999994432E+02 0.  0.
        -12    1    1    2    0    0 -0.18161548824E+02  0.52867699254E+01 -0.39061894321E+02  0.43400730177E+02  0.00000000000E+00 0.  1.
         11    1    3    3    0    0  0.15180242454E+01  0.22499634423E+01  0.37435168462E+00  0.27398672497E+01  0.51100000000E-03 0. -1.
        -11    1    3    3    0    0 -0.50501060888E-01  0.11716918056E+00  0.15349261807E+02  0.15349792091E+02  0.51100000000E-03 0.  1.
         12    1    3    3    0    0  0.16694025639E+02 -0.76539025483E+01  0.23338280830E+02  0.29697610482E+02  0.00000000000E+00 0. -1.
</event>
<event>
 7    1  0.8440037E-011  0.4778725E+02  0.7816164E-02  0.1312668E+00
        -11   -1    0    0    0    0  0.00000000000E+00  0.00000000000E+00  0.45593999997E+02  0.45594000000E+02  0.51100000000E-03 0. -1.
         11   -1    0    0    0    0 -0.00000000000E+00 -0.00000000000E+00 -0.45593999997E+02  0.45594000000E+02  0.51100000000E-03 0.  1.
    9900012    2    1    2    0    0  0.18663310234E+02  0.21426797740E+02  0.32805459976E+02  0.47787250991E+02  0.19999908570E+02 0.  0.
        -12    1    1    2    0    0 -0.18663310234E+02 -0.21426797740E+02 -0.32805459976E+02  0.43400749009E+02  0.00000000000E+00 0.  1.
         11    1    3    3    0    0  0.13526332618E+02  0.10746292453E+02  0.15271783337E+02  0.23058010368E+02  0.51100000000E-03 0. -1.
        -11    1    3    3    0    0  0.52339348019E+01 -0.90422242493E+00  0.85649064392E+01  0.10078160263E+02  0.51100000000E-03 0.  1.
        -12    1    3    3    0    0 -0.96957185477E-01  0.11584727711E+02  0.89687701997E+01  0.14651080361E+02  0.00000000000E+00 0.  1.
</event>
<event>
 7    1  0.8440037E-011  0.4778727E+02  0.7816164E-02  0.1312668E+00
        -11   -1    0    0    0    0  0.00000000000E+00  0.00000000000E+00  0.45593999997E+02  0.45594000000E+02  0.51100000000E-03 0. -1.
         11   -1    0    0    0    0 -0.00000000000E+00 -0.00000000000E+00 -0.45593999997E+02  0.45594000000E+02  0.51100000000E-03 0.  1.
    9900012    2    1    2    0    0 -0.27862671694E+02 -0.30204717329E+02  0.13963163564E+02  0.47787270057E+02  0.19999995499E+02 0.  0.
        -12    1    1    2    0    0  0.27862671694E+02  0.30204717329E+02 -0.13963163564E+02  0.43400729943E+02  0.00000000000E+00 0.  1.
         11    1    3    3    0    0 -0.19108045203E+02 -0.19372530693E+02  0.27036643582E+01  0.27344508373E+02  0.51100000000E-03 0. -1.
        -11    1    3    3    0    0 -0.21334997865E+01 -0.22273634400E-01 -0.13804993610E+01  0.25412784579E+01  0.51100000000E-03 0.  1.
         12    1    3    3    0    0 -0.66211267047E+01 -0.10809913002E+02  0.12639998567E+02  0.17901483226E+02  0.00000000000E+00 0. -1.
</event>
<event>
 7    1  0.8440037E-011  0.4778727E+02  0.7816164E-02  0.1312668E+00
        -11   -1    0    0    0    0  0.00000000000E+00  0.00000000000E+00  0.45593999997E+02  0.45594000000E+02  0.51100000000E-03 0. -1.
         11   -1    0    0    0    0 -0.00000000000E+00 -0.00000000000E+00 -0.45593999997E+02  0.45594000000E+02  0.51100000000E-03 0.  1.
    9900012    2    1    2    0    0  0.40650050247E+02 -0.83602826943E+00  0.15182156034E+02  0.47787269704E+02  0.19999993890E+02 0.  0.
        -12    1    1    2    0    0 -0.40650050247E+02  0.83602826943E+00 -0.15182156034E+02  0.43400730296E+02  0.00000000000E+00 0.  1.
         11    1    3    3    0    0  0.21645982996E+00 -0.19285991730E+01  0.68854061946E+00  0.20592323992E+01  0.51100000000E-03 0.  1.
        -11    1    3    3    0    0  0.12174215157E+00  0.26843853780E+01 -0.41340004055E+00  0.27187581474E+01  0.51100000000E-03 0. -1.
         12    1    3    3    0    0  0.40311848265E+02 -0.15918144745E+01  0.14907015455E+02  0.43009279158E+02  0.00000000000E+00 0. -1.
</event>
<event>
 7    1  0.8440037E-011  0.4778727E+02  0.7816164E-02  0.1312668E+00
        -11   -1    0    0    0    0  0.00000000000E+00  0.00000000000E+00  0.45593999997E+02  0.45594000000E+02  0.51100000000E-03 0. -1.
         11   -1    0    0    0    0 -0.00000000000E+00 -0.00000000000E+00 -0.45593999997E+02  0.45594000000E+02  0.51100000000E-03 0.  1.
    9900012    2    1    2    0    0 -0.21651256532E+01 -0.15035152620E+02 -0.40655621975E+02  0.47787272107E+02  0.20000004846E+02 0.  0.
         12    1    1    2    0    0  0.21651256532E+01  0.15035152620E+02  0.40655621975E+02  0.43400727893E+02  0.00000000000E+00 0. -1.
         11    1    3    3    0    0 -0.56825839443E+00 -0.51671033554E+01 -0.99169983850E+01  0.11196817937E+02  0.51100000000E-03 0.  1.
        -11    1    3    3    0    0  0.26468052597E+01 -0.10779421655E+02 -0.86300549875E+01  0.14059849168E+02  0.51100000000E-03 0. -1.
         12    1    3    3    0    0 -0.42436725185E+01  0.91137238980E+00 -0.22108568603E+02  0.22530605002E+02  0.00000000000E+00 0. -1.
</event>
<event>
 7    1  0.8440037E-011  0.4778727E+02  0.7816164E-02  0.1312668E+00
        -11   -1    0    0    0    0  0.00000000000E+00  0.00000000000E+00  0.45593999997E+02  0.45594000000E+02  0.51100000000E-03 0. -1.
         11   -1    0    0    0    0 -0.00000000000E+00 -0.00000000000E+00 -0.45593999997E+02  0.45594000000E+02  0.51100000000E-03 0.  1.
    9900012    2    1    2    0    0 -0.13486704184E+02  0.34503067535E+02 -0.22611288927E+02  0.47787271365E+02  0.20000001463E+02 0.  0.
         12    1    1    2    0    0  0.13486704184E+02 -0.34503067535E+02  0.22611288927E+02  0.43400728635E+02  0.00000000000E+00 0. -1.
         11    1    3    3    0    0 -0.37642407587E+00 -0.13008702265E+01 -0.17167654799E+01  0.21866052239E+01  0.51100000000E-03 0. -1.
        -11    1    3    3    0    0 -0.92613425769E+01  0.16901645366E+02 -0.17463129416E+02  0.26007671400E+02  0.51100000000E-03 0.  1.
        -12    1    3    3    0    0 -0.38489375312E+01  0.18902292396E+02 -0.34313940315E+01  0.19592994741E+02  0.00000000000E+00 0.  1.
</event>
<event>
 7    1  0.8440037E-011  0.4778727E+02  0.7816164E-02  0.1312668E+00
        -11   -1    0    0    0    0  0.00000000000E+00  0.00000000000E+00  0.45593999997E+02  0.45594000000E+02  0.51100000000E-03 0. -1.
         11   -1    0    0    0    0 -0.00000000000E+00 -0.00000000000E+00 -0.45593999997E+02  0.45594000000E+02  0.51100000000E-03 0.  1.
    9900012    2    1    2    0    0 -0.26455132899E+02  0.28061961900E+02  0.19906666926E+02  0.47787272466E+02  0.20000006482E+02 0.  0.
        -12    1    1    2    0    0  0.26455132899E+02 -0.28061961900E+02 -0.19906666926E+02  0.43400727534E+02  0.00000000000E+00 0.  1.
         11    1    3    3    0    0 -0.68152179349E+01  0.65908657396E+01 -0.97595517490E+00  0.95309598395E+01  0.51100000000E-03 0. -1.
        -11    1    3    3    0    0 -0.78375540057E+01  0.38600363678E+00  0.42766507529E+01  0.89367775805E+01  0.51100000000E-03 0.  1.
         12    1    3    3    0    0 -0.11802360958E+02  0.21085092523E+02  0.16605971348E+02  0.29319535046E+02  0.00000000000E+00 0. -1.
</event>
<event>
 7    1  0.8440037E-011  0.4778727E+02  0.7816164E-02  0.1312668E+00
        -11   -1    0    0    0    0  0.00000000000E+00  0.00000000000E+00  0.45593999997E+02  0.45594000000E+02  0.51100000000E-03 0. -1.
         11   -1    0    0    0    0 -0.00000000000E+00 -0.00000000000E+00 -0.45593999997E+02  0.45594000000E+02  0.51100000000E-03 0.  1.
    9900012    2    1    2    0    0 -0.81628200787E+01 -0.28398645800E+02  0.31788497593E+02  0.47787270811E+02  0.19999998936E+02 0.  0.
        -12    1    1    2    0    0  0.81628200787E+01  0.28398645800E+02 -0.31788497593E+02  0.43400729189E+02  0.00000000000E+00 0.  1.
         11    1    3    3    0    0 -0.66167379376E+01 -0.63667452490E+01  0.43892305795E+01  0.10177524814E+02  0.51100000000E-03 0. -1.
        -11    1    3    3    0    0 -0.13241749999E+01 -0.29607340673E+01 -0.10056968411E+01  0.33957049408E+01  0.51100000000E-03 0.  1.
        -12    1    3    3    0    0 -0.22190714118E+00 -0.19071166484E+02  0.28404963854E+02  0.34214041056E+02  0.00000000000E+00 0.  1.
</event>
<event>
 7    1  0.8440037E-011  0.4778725E+02  0.7816164E-02  0.1312668E+00
        -11   -1    0    0    0    0  0.00000000000E+00  0.00000000000E+00  0.45593999997E+02  0.45594000000E+02  0.51100000000E-03 0. -1.
         11   -1    0    0    0    0 -0.00000000000E+00 -0.00000000000E+00 -0.45593999997E+02  0.45594000000E+02  0.51100000000E-03 0.  1.
    9900012    2    1    2    0    0  0.16786589195E+02 -0.18681343128E+02  0.35395525796E+02  0.47787246501E+02  0.19999888097E+02 0.  0.
        -12    1    1    2    0    0 -0.16786589195E+02  0.18681343128E+02 -0.35395525796E+02  0.43400753499E+02  0.00000000000E+00 0.  1.
         11    1    3    3    0    0 -0.19183748675E+00 -0.14276899156E+02  0.15583719236E+02  0.21135727020E+02  0.51100000000E-03 0. -1.
        -11    1    3    3    0    0  0.35977017534E+01 -0.19977881695E+01  0.59588777018E+01  0.72417428291E+01  0.51100000000E-03 0.  1.
         12    1    3    3    0    0  0.13380724928E+02 -0.24066558021E+01  0.13852928858E+02  0.19409776653E+02  0.00000000000E+00 0. -1.
</event>
<event>
 7    1  0.1102646E-010  0.4778727E+02  0.7816164E-02  0.1312668E+00
        -11   -1    0    0    0    0  0.00000000000E+00  0.00000000000E+00  0.45593999997E+02  0.45594000000E+02  0.51100000000E-03 0. -1.
         11   -1    0    0    0    0 -0.00000000000E+00 -0.00000000000E+00 -0.45593999997E+02  0.45594000000E+02  0.51100000000E-03 0.  1.
    9900012    2    1    2    0    0  0.87966858632E+01 -0.15822214567E+02  0.39444890435E+02  0.47787268008E+02  0.19999986156E+02 0.  0.
        -12    1    1    2    0    0 -0.87966858632E+01  0.15822214567E+02 -0.39444890435E+02  0.43400731992E+02  0.00000000000E+00 0.  1.
         11    1    3    3    0    0  0.49406333874E+01 -0.19660770442E+01  0.33535577607E+01  0.62866260529E+01  0.51100000000E-03 0. -1.
        -11    1    3    3    0    0  0.30202902319E+01  0.24419966665E+01  0.45097962257E+01  0.59517865438E+01  0.51100000000E-03 0.  1.
         12    1    3    3    0    0  0.83576224388E+00 -0.16298134190E+02  0.31581536449E+02  0.35548855411E+02  0.00000000000E+00 0. -1.
</event>
<event>
 7    1  0.8440037E-011  0.4778727E+02  0.7816164E-02  0.1312668E+00
        -11   -1    0    0    0    0  0.00000000000E+00  0.00000000000E+00  0.45593999997E+02  0.45594000000E+02  0.51100000000E-03 0. -1.
         11   -1    0    0    0    0 -0.00000000000E+00 -0.00000000000E+00 -0.45593999997E+02  0.45594000000E+02  0.51100000000E-03 0.  1.
    9900012    2    1    2    0    0 -0.14036572183E+01 -0.20405376591E+02 -0.38278893298E+02  0.47787270518E+02  0.19999997602E+02 0.  0.
         12    1    1    2    0    0  0.14036572183E+01  0.20405376591E+02  0.38278893298E+02  0.43400729482E+02  0.00000000000E+00 0. -1.
         11    1    3    3    0    0 -0.15286363212E+01 -0.86216709242E+01 -0.15961086259E+02  0.18205115033E+02  0.51100000000E-03 0. -1.
        -11    1    3    3    0    0  0.15741629289E+00 -0.12453200110E+02 -0.24400045626E+02  0.27394692911E+02  0.51100000000E-03 0.  1.
         12    1    3    3    0    0 -0.32437189981E-01  0.66949444272E+00  0.20822385875E+01  0.21874625746E+01  0.00000000000E+00 0. -1.
</event>
<event>
 7    1  0.8440037E-011  0.4778728E+02  0.7816164E-02  0.1312668E+00
        -11   -1    0    0    0    0  0.00000000000E+00  0.00000000000E+00  0.45593999997E+02  0.45594000000E+02  0.51100000000E-03 0. -1.
         11   -1    0    0    0    0 -0.00000000000E+00 -0.00000000000E+00 -0.45593999997E+02  0.45594000000E+02  0.51100000000E-03 0.  1.
    9900012    2    1    2    0    0 -0.14061023581E+02  0.11973647571E+02 -0.39275201783E+02  0.47787284621E+02  0.20000061903E+02 0.  0.
         12    1    1    2    0    0  0.14061023581E+02 -0.11973647571E+02  0.39275201783E+02  0.43400715379E+02  0.00000000000E+00 0. -1.
         11    1    3    3    0    0 -0.61792618911E+01  0.47576323846E+01 -0.11727301866E+02  0.14083605815E+02  0.51100000000E-03 0. -1.
        -11    1    3    3    0    0 -0.81855417940E+01  0.10437112362E+01 -0.26076729624E+02  0.27351202090E+02  0.51100000000E-03 0.  1.
         12    1    3    3    0    0  0.30378010449E+00  0.61723039502E+01 -0.14711702924E+01  0.63524767166E+01  0.00000000000E+00 0. -1.
</event>
<event>
 7    1  0.8440037E-011  0.4778727E+02  0.7816164E-02  0.1312668E+00
        -11   -1    0    0    0    0  0.00000000000E+00  0.00000000000E+00  0.45593999997E+02  0.45594000000E+02  0.51100000000E-03 0. -1.
         11   -1    0    0    0    0 -0.00000000000E+00 -0.00000000000E+00 -0.45593999997E+02  0.45594000000E+02  0.51100000000E-03 0.  1.
    9900012    2    1    2    0    0  0.21202716774E+02 -0.12609046374E+01 -0.37848098566E+02  0.47787266779E+02  0.19999980550E+02 0.  0.
         12    1    1    2    0    0 -0.21202716774E+02  0.12609046374E+01  0.37848098566E+02  0.43400733221E+02  0.00000000000E+00 0. -1.
         11    1    3    3    0    0  0.13224939391E+00  0.38544399146E+01 -0.43593557606E+01  0.58204965309E+01  0.51100000000E-03 0. -1.
        -11    1    3    3    0    0  0.97939378055E+00 -0.23970384903E+01  0.25380527565E+00  0.26018114998E+01  0.51100000000E-03 0.  1.
        -12    1    3    3    0    0  0.20091073600E+02 -0.27183060617E+01 -0.33742548081E+02  0.39364958748E+02  0.00000000000E+00 0.  1.
</event>
<event>
 7    1  0.8440037E-011  0.4778727E+02  0.7816164E-02  0.1312668E+00
        -11   -1    0    0    0    0  0.00000000000E+00  0.00000000000E+00  0.45593999997E+02  0.45594000000E+02  0.51100000000E-03 0. -1.
         11   -1    0    0    0    0 -0.00000000000E+00 -0.00000000000E+00 -0.45593999997E+02  0.45594000000E+02  0.51100000000E-03 0.  1.
    9900012    2    1    2    0    0 -0.20058726665E+02  0.44413117076E+01  0.38230160791E+02  0.47787274670E+02  0.20000016528E+02 0.  0.
        -12    1    1    2    0    0  0.20058726665E+02 -0.44413117076E+01 -0.38230160791E+02  0.43400725330E+02  0.00000000000E+00 0.  1.
         11    1    3    3    0    0 -0.17461092059E+01  0.26766940218E+01  0.45652938282E+01  0.55727458442E+01  0.51100000000E-03 0. -1.
        -11    1    3    3    0    0 -0.19697780270E+00 -0.58239384792E+01  0.79442155869E+01  0.98522901509E+01  0.51100000000E-03 0.  1.
         12    1    3    3    0    0 -0.18115639656E+02  0.75885561650E+01  0.25720651376E+02  0.32362238675E+02  0.00000000000E+00 0. -1.
</event>
<event>
 7    1  0.8440037E-011  0.4778727E+02  0.7816164E-02  0.1312668E+00
        -11   -1    0    0    0    0  0.00000000000E+00  0.00000000000E+00  0.45593999997E+02  0.45594000000E+02  0.51100000000E-03 0. -1.
         11   -1    0    0    0    0 -0.00000000000E+00 -0.00000000000E+00 -0.45593999997E+02  0.45594000000E+02  0.51100000000E-03 0.  1.
    9900012    2    1    2    0    0 -0.60415166670E+00  0.18863634645E+02  0.39082240976E+02  0.47787271078E+02  0.20000000154E+02 0.  0.
        -12    1    1    2    0    0  0.60415166670E+00 -0.18863634645E+02 -0.39082240976E+02  0.43400728922E+02  0.00000000000E+00 0.  1.
         11    1    3    3    0    0  0.91633671526E+00 -0.18043041821E+00  0.33709115783E+00  0.99290423574E+00  0.51100000000E-03 0.  1.
        -11    1    3    3    0    0  0.60587172253E+00  0.21688026737E+02  0.37203038177E+02  0.43067431247E+02  0.51100000000E-03 0. -1.
         12    1    3    3    0    0 -0.21263601045E+01 -0.26439616735E+01  0.15421116402E+01  0.37269355958E+01  0.00000000000E+00 0. -1.
</event>
<event>
 7    1  0.8440037E-011  0.4778727E+02  0.7816164E-02  0.1312668E+00
        -11   -1    0    0    0    0  0.00000000000E+00  0.00000000000E+00  0.45593999997E+02  0.45594000000E+02  0.51100000000E-03 0. -1.
         11   -1    0    0    0    0 -0.00000000000E+00 -0.00000000000E+00 -0.45593999997E+02  0.45594000000E+02  0.51100000000E-03 0.  1.
    9900012    2    1    2    0    0  0.24473588113E+02 -0.19206817685E+02 -0.30261609521E+02  0.47787269920E+02  0.19999994872E+02 0.  0.
         12    1    1    2    0    0 -0.24473588113E+02  0.19206817685E+02  0.30261609521E+02  0.43400730080E+02  0.00000000000E+00 0. -1.
         11    1    3    3    0    0  0.75362389557E+00 -0.26646235706E+01 -0.86844590952E+00  0.29021313388E+01  0.51100000000E-03 0. -1.
        -11    1    3    3    0    0  0.20552938524E+02 -0.40253732290E+01 -0.16794300548E+02  0.26845398912E+02  0.51100000000E-03 0.  1.
        -12    1    3    3    0    0  0.31670256934E+01 -0.12516820886E+02 -0.12598863063E+02  0.18039739668E+02  0.00000000000E+00 0.  1.
</event>
<event>
 7    1  0.8440037E-011  0.4778726E+02  0.7816164E-02  0.1312668E+00
        -11   -1    0    0    0    0  0.00000000000E+00  0.00000000000E+00  0.45593999997E+02  0.45594000000E+02  0.51100000000E-03 0. -1.
         11   -1    0    0    0    0 -0.00000000000E+00 -0.00000000000E+00 -0.45593999997E+02  0.45594000000E+02  0.51100000000E-03 0.  1.
    9900012    2    1    2    0    0  0.71673047991E-01  0.20910441186E+02 -0.38031205831E+02  0.47787259171E+02  0.19999945863E+02 0.  0.
         12    1    1    2    0    0 -0.71673047991E-01 -0.20910441186E+02  0.38031205831E+02  0.43400740829E+02  0.00000000000E+00 0. -1.
         11    1    3    3    0    0 -0.18628827060E+01  0.15527453971E+02 -0.14872761087E+02  0.21581732586E+02  0.51100000000E-03 0. -1.
        -11    1    3    3    0    0 -0.36351510636E+01  0.55545282629E+01 -0.13802158450E+02  0.15315570039E+02  0.51100000000E-03 0.  1.
         12    1    3    3    0    0  0.55697068176E+01 -0.17154104802E+00 -0.93562862934E+01  0.10889956546E+02  0.00000000000E+00 0. -1.
</event>
<event>
 7    1  0.8440037E-011  0.4778733E+02  0.7816164E-02  0.1312668E+00
        -11   -1    0    0    0    0  0.00000000000E+00  0.00000000000E+00  0.45593999997E+02  0.45594000000E+02  0.51100000000E-03 0. -1.
         11   -1    0    0    0    0 -0.00000000000E+00 -0.00000000000E+00 -0.45593999997E+02  0.45594000000E+02  0.51100000000E-03 0.  1.
    9900012    2    1    2    0    0  0.42297380691E+01  0.15168528277E+02 -0.40443091215E+02  0.47787325336E+02  0.20000247536E+02 0.  0.
         12    1    1    2    0    0 -0.42297380691E+01 -0.15168528277E+02  0.40443091215E+02  0.43400674664E+02  0.00000000000E+00 0. -1.
         11    1    3    3    0    0 -0.26846271178E+01  0.59191096676E+01 -0.52067661533E+01  0.83278746421E+01  0.51100000000E-03 0. -1.
        -11    1    3    3    0    0 -0.17036710485E-01  0.12991009192E+01  0.10504843281E+01  0.16707695929E+01  0.51100000000E-03 0.  1.
        -12    1    3    3    0    0  0.69314018974E+01  0.79503176904E+01 -0.36286809390E+02  0.37788681101E+02  0.00000000000E+00 0.  1.
</event>
<event>
 7    1  0.8440037E-011  0.4778727E+02  0.7816164E-02  0.1312668E+00
        -11   -1    0    0    0    0  0.00000000000E+00  0.00000000000E+00  0.45593999997E+02  0.45594000000E+02  0.51100000000E-03 0. -1.
         11   -1    0    0    0    0 -0.00000000000E+00 -0.00000000000E+00 -0.45593999997E+02  0.45594000000E+02  0.51100000000E-03 0.  1.
    9900012    2    1    2    0    0 -0.70208950326E+01 -0.86608863813E+01 -0.41944242084E+02  0.47787270006E+02  0.19999995267E+02 0.  0.
         12    1    1    2    0    0  0.70208950326E+01  0.86608863813E+01  0.41944242084E+02  0.43400729994E+02  0.00000000000E+00 0. -1.
         11    1    3    3    0    0 -0.91248394905E+01 -0.40396032438E+00 -0.12623098957E+02  0.15581030365E+02  0.51100000000E-03 0. -1.
        -11    1    3    3    0    0 -0.22527380300E+01 -0.32069079589E+01 -0.21818429299E+02  0.22167610260E+02  0.51100000000E-03 0.  1.
         12    1    3    3    0    0  0.43566824879E+01 -0.50500180980E+01 -0.75027138278E+01  0.10038629382E+02  0.00000000000E+00 0. -1.
</event>
<event>
 7    1  0.8440037E-011  0.4778727E+02  0.7816164E-02  0.1312668E+00
        -11   -1    0    0    0    0  0.00000000000E+00  0.00000000000E+00  0.45593999997E+02  0.45594000000E+02  0.51100000000E-03 0. -1.
         11   -1    0    0    0    0 -0.00000000000E+00 -0.00000000000E+00 -0.45593999997E+02  0.45594000000E+02  0.51100000000E-03 0.  1.
    9900012    2    1    2    0    0  0.13531291137E+02 -0.80754137676E+01  0.40439032286E+02  0.47787268674E+02  0.19999989194E+02 0.  0.
        -12    1    1    2    0    0 -0.13531291137E+02  0.80754137676E+01 -0.40439032286E+02  0.43400731326E+02  0.00000000000E+00 0.  1.
         11    1    3    3    0    0  0.18584959905E+01 -0.79647885527E+01  0.20995361264E+02  0.22532133918E+02  0.51100000000E-03 0. -1.
        -11    1    3    3    0    0  0.35839326171E+01 -0.38159404043E+01  0.18725880018E+01  0.55599064973E+01  0.51100000000E-03 0.  1.
        -12    1    3    3    0    0  0.80888625291E+01  0.37053151894E+01  0.17571083021E+02  0.19695228259E+02  0.00000000000E+00 0.  1.
</event>
<event>
 7    1  0.8440037E-011  0.4778727E+02  0.7816164E-02  0.1312668E+00
        -11   -1    0    0    0    0  0.00000000000E+00  0.00000000000E+00  0.45593999997E+02  0.45594000000E+02  0.51100000000E-03 0. -1.
         11   -1    0    0    0    0 -0.00000000000E+00 -0.00000000000E+00 -0.45593999997E+02  0.45594000000E+02  0.51100000000E-03 0.  1.
    9900012    2    1    2    0    0 -0.30317925000E+02  0.12542292249E+02  0.28410170063E+02  0.47787269197E+02  0.19999991578E+02 0.  0.
        -12    1    1    2    0    0  0.30317925000E+02 -0.12542292249E+02 -0.28410170063E+02  0.43400730803E+02  0.00000000000E+00 0.  1.
         11    1    3    3    0    0 -0.11798708605E+02  0.77101050587E+01  0.10028786642E+02  0.17298318026E+02  0.51100000000E-03 0. -1.
        -11    1    3    3    0    0 -0.56783886719E+01  0.75273838947E+01  0.13548407146E+02  0.16506512129E+02  0.51100000000E-03 0.  1.
        -12    1    3    3    0    0 -0.12840827724E+02 -0.26951967043E+01  0.48329762753E+01  0.13982439043E+02  0.00000000000E+00 0.  1.
</event>
<event>
 7    1  0.8440037E-011  0.4778727E+02  0.7816164E-02  0.1312668E+00
        -11   -1    0    0    0    0  0.00000000000E+00  0.00000000000E+00  0.45593999997E+02  0.45594000000E+02  0.51100000000E-03 0. -1.
         11   -1    0    0    0    0 -0.00000000000E+00 -0.00000000000E+00 -0.45593999997E+02  0.45594000000E+02  0.51100000000E-03 0.  1.
    9900012    2    1    2    0    0 -0.28691412660E+02  0.31783387245E+02 -0.70881831551E+01  0.47787271830E+02  0.20000003582E+02 0.  0.
        -12    1    1    2    0    0  0.28691412660E+02 -0.31783387245E+02  0.70881831551E+01  0.43400728170E+02  0.00000000000E+00 0.  1.
         11    1    3    3    0    0 -0.25095237069E+01  0.10355833929E+02  0.43865752164E+01  0.11523152693E+02  0.51100000000E-03 0. -1.
        -11    1    3    3    0    0 -0.40682035914E+01  0.20810442720E+01 -0.36762313798E+01  0.58647850039E+01  0.51100000000E-03 0.  1.
         12    1    3    3    0    0 -0.22113685362E+02  0.19346509045E+02 -0.77985269916E+01  0.30399334133E+02  0.00000000000E+00 0. -1.
</event>
<event>
 7    1  0.8440037E-011  0.4778728E+02  0.7816164E-02  0.1312668E+00
        -11   -1    0    0    0    0  0.00000000000E+00  0.00000000000E+00  0.45593999997E+02  0.45594000000E+02  0.51100000000E-03 0. -1.
         11   -1    0    0    0    0 -0.00000000000E+00 -0.00000000000E+00 -0.45593999997E+02  0.45594000000E+02  0.51100000000E-03 0.  1.
    9900012    2    1    2    0    0 -0.39298535526E+01  0.41423481568E+02  0.12339939894E+02  0.47787277762E+02  0.20000030630E+02 0.  0.
        -12    1    1    2    0    0  0.39298535526E+01 -0.41423481568E+02 -0.12339939894E+02  0.43400722238E+02  0.00000000000E+00 0.  1.
         11    1    3    3    0    0  0.34260011122E+01  0.14039578247E+02  0.11448938814E+02  0.18437067044E+02  0.51100000000E-03 0. -1.
        -11    1    3    3    0    0 -0.80005788596E+00  0.14767345240E+02  0.26470221008E+01  0.15024024239E+02  0.51100000000E-03 0.  1.
        -12    1    3    3    0    0 -0.65557967789E+01  0.12616558080E+02 -0.17560210207E+01  0.14326186479E+02  0.00000000000E+00 0.  1.
</event>
<event>
 7    1  0.8440037E-011  0.4778727E+02  0.7816164E-02  0.1312668E+00
        -11   -1    0    0    0    0  0.00000000000E+00  0.00000000000E+00  0.45593999997E+02  0.45594000000E+02  0.51100000000E-03 0.  1.
         11   -1    0    0    0    0 -0.00000000000E+00 -0.00000000000E+00 -0.45593999997E+02  0.45594000000E+02  0.51100000000E-03 0. -1.
    9900012    2    1    2    0    0 -0.28120353178E+02 -0.28603594780E+02  0.16574181089E+02  0.47787269868E+02  0.19999994638E+02 0.  0.
        -12    1    1    2    0    0  0.28120353178E+02  0.28603594780E+02 -0.16574181089E+02  0.43400730132E+02  0.00000000000E+00 0.  1.
         11    1    3    3    0    0 -0.30086372576E+01 -0.40543816072E+01  0.93633448731E-01  0.50496213570E+01  0.51100000000E-03 0. -1.
        -11    1    3    3    0    0 -0.12697657840E+01 -0.12105707117E+02  0.78878852379E+01  0.14504453928E+02  0.51100000000E-03 0.  1.
         12    1    3    3    0    0 -0.23841950136E+02 -0.12443506056E+02  0.85926624028E+01  0.28233194584E+02  0.00000000000E+00 0. -1.
</event>
<event>
 7    1  0.8440037E-011  0.4778727E+02  0.7816164E-02  0.1312668E+00
        -11   -1    0    0    0    0  0.00000000000E+00  0.00000000000E+00  0.45593999997E+02  0.45594000000E+02  0.51100000000E-03 0. -1.
         11   -1    0    0    0    0 -0.00000000000E+00 -0.00000000000E+00 -0.45593999997E+02  0.45594000000E+02  0.51100000000E-03 0.  1.
    9900012    2    1    2    0    0 -0.36210509582E+02  0.44076939271E+01  0.23515839812E+02  0.47787268531E+02  0.19999988541E+02 0.  0.
        -12    1    1    2    0    0  0.36210509582E+02 -0.44076939271E+01 -0.23515839812E+02  0.43400731469E+02  0.00000000000E+00 0.  1.
         11    1    3    3    0    0 -0.12614712435E+02  0.52399296722E+01  0.11396785806E+02  0.17789731863E+02  0.51100000000E-03 0. -1.
        -11    1    3    3    0    0 -0.70531811570E+01  0.93790443259E+00  0.11283417801E+02  0.13339510737E+02  0.51100000000E-03 0.  1.
        -12    1    3    3    0    0 -0.16542615990E+02 -0.17701401777E+01  0.83563620426E+00  0.16658025931E+02  0.00000000000E+00 0.  1.
</event>
<event>
 7    1  0.8440037E-011  0.4778727E+02  0.7816164E-02  0.1312668E+00
        -11   -1    0    0    0    0  0.00000000000E+00  0.00000000000E+00  0.45593999997E+02  0.45594000000E+02  0.51100000000E-03 0. -1.
         11   -1    0    0    0    0 -0.00000000000E+00 -0.00000000000E+00 -0.45593999997E+02  0.45594000000E+02  0.51100000000E-03 0.  1.
    9900012    2    1    2    0    0 -0.16560218856E+02  0.36474996739E+02 -0.16702014088E+02  0.47787268321E+02  0.19999987584E+02 0.  0.
         12    1    1    2    0    0  0.16560218856E+02 -0.36474996739E+02  0.16702014088E+02  0.43400731679E+02  0.00000000000E+00 0. -1.
         11    1    3    3    0    0  0.18699096801E+01  0.66315827811E+01 -0.92525274330E+00  0.69520173543E+01  0.51100000000E-03 0. -1.
        -11    1    3    3    0    0 -0.10892725229E+02  0.13864155394E+02 -0.75975419166E+00  0.17647761738E+02  0.51100000000E-03 0.  1.
        -12    1    3    3    0    0 -0.75374033075E+01  0.15979258564E+02 -0.15017007153E+02  0.23187489228E+02  0.00000000000E+00 0.  1.
</event>
<event>
 7    1  0.8440037E-011  0.4778727E+02  0.7816164E-02  0.1312668E+00
        -11   -1    0    0    0    0  0.00000000000E+00  0.00000000000E+00  0.45593999997E+02  0.45594000000E+02  0.51100000000E-03 0. -1.
         11   -1    0    0    0    0 -0.00000000000E+00 -0.00000000000E+00 -0.45593999997E+02  0.45594000000E+02  0.51100000000E-03 0.  1.
    9900012    2    1    2    0    0  0.19765552642E+02 -0.79432188604E+01  0.37813376792E+02  0.47787271187E+02  0.20000000649E+02 0.  0.
        -12    1    1    2    0    0 -0.19765552642E+02  0.79432188604E+01 -0.37813376792E+02  0.43400728813E+02  0.00000000000E+00 0.  1.
         11    1    3    3    0    0  0.82228497465E+01  0.67288145829E+00  0.13948095157E+02  0.16205473957E+02  0.51100000000E-03 0. -1.
        -11    1    3    3    0    0  0.12541849489E+02 -0.11215368385E+01  0.11308966425E+02  0.16924791146E+02  0.51100000000E-03 0.  1.
         12    1    3    3    0    0 -0.99914659374E+00 -0.74945634802E+01  0.12556315210E+02  0.14657006083E+02  0.00000000000E+00 0. -1.
</event>
<event>
 7    1  0.8440037E-011  0.4778727E+02  0.7816164E-02  0.1312668E+00
        -11   -1    0    0    0    0  0.00000000000E+00  0.00000000000E+00  0.45593999997E+02  0.45594000000E+02  0.51100000000E-03 0.  1.
         11   -1    0    0    0    0 -0.00000000000E+00 -0.00000000000E+00 -0.45593999997E+02  0.45594000000E+02  0.51100000000E-03 0. -1.
    9900012    2    1    2    0    0 -0.33867014056E+02  0.17751964005E+02 -0.20530863496E+02  0.47787271630E+02  0.20000002672E+02 0.  0.
         12    1    1    2    0    0  0.33867014056E+02 -0.17751964005E+02  0.20530863496E+02  0.43400728370E+02  0.00000000000E+00 0. -1.
         11    1    3    3    0    0 -0.15330090723E+02 -0.53078394683E+00 -0.97912333035E+01  0.18197847758E+02  0.51100000000E-03 0. -1.
        -11    1    3    3    0    0  0.41509920502E+00  0.25957885946E+01 -0.25440318810E+01  0.36582132593E+01  0.51100000000E-03 0.  1.
        -12    1    3    3    0    0 -0.18952022539E+02  0.15686959357E+02 -0.81955983115E+01  0.25931210613E+02  0.00000000000E+00 0.  1.
</event>
<event>
 7    1  0.8440037E-011  0.4778727E+02  0.7816164E-02  0.1312668E+00
        -11   -1    0    0    0    0  0.00000000000E+00  0.00000000000E+00  0.45593999997E+02  0.45594000000E+02  0.51100000000E-03 0. -1.
         11   -1    0    0    0    0 -0.00000000000E+00 -0.00000000000E+00 -0.45593999997E+02  0.45594000000E+02  0.51100000000E-03 0.  1.
    9900012    2    1    2    0    0 -0.14001658266E+01  0.20168908631E+02 -0.38404145521E+02  0.47787265756E+02  0.19999975889E+02 0.  0.
         12    1    1    2    0    0  0.14001658266E+01 -0.20168908631E+02  0.38404145521E+02  0.43400734244E+02  0.00000000000E+00 0. -1.
         11    1    3    3    0    0  0.46549559766E+01  0.98383241062E+01 -0.17349383682E+02  0.20480780033E+02  0.51100000000E-03 0. -1.
        -11    1    3    3    0    0  0.24133534557E+01  0.79607152743E+01 -0.12664695815E+02  0.15152286393E+02  0.51100000000E-03 0.  1.
         12    1    3    3    0    0 -0.84684752589E+01  0.23698692503E+01 -0.83900660244E+01  0.12154199331E+02  0.00000000000E+00 0. -1.
</event>
<event>
 7    1  0.8440037E-011  0.4778727E+02  0.7816164E-02  0.1312668E+00
        -11   -1    0    0    0    0  0.00000000000E+00  0.00000000000E+00  0.45593999997E+02  0.45594000000E+02  0.51100000000E-03 0. -1.
         11   -1    0    0    0    0 -0.00000000000E+00 -0.00000000000E+00 -0.45593999997E+02  0.45594000000E+02  0.51100000000E-03 0.  1.
    9900012    2    1    2    0    0  0.21082161570E+02  0.22009774807E+01  0.37872437203E+02  0.47787270305E+02  0.19999996630E+02 0.  0.
        -12    1    1    2    0    0 -0.21082161570E+02 -0.22009774807E+01 -0.37872437203E+02  0.43400729695E+02  0.00000000000E+00 0.  1.
         11    1    3    3    0    0  0.16235166437E+02 -0.24463358700E+00  0.20503992071E+02  0.26154429184E+02  0.51100000000E-03 0. -1.
        -11    1    3    3    0    0  0.77401286798E+01  0.24089082039E+01  0.16842904089E+02  0.18692133349E+02  0.51100000000E-03 0.  1.
        -12    1    3    3    0    0 -0.28931335459E+01  0.36702863861E-01  0.52554104221E+00  0.29407077722E+01  0.00000000000E+00 0.  1.
</event>
<event>
 7    1  0.8440037E-011  0.4778727E+02  0.7816164E-02  0.1312668E+00
        -11   -1    0    0    0    0  0.00000000000E+00  0.00000000000E+00  0.45593999997E+02  0.45594000000E+02  0.51100000000E-03 0. -1.
         11   -1    0    0    0    0 -0.00000000000E+00 -0.00000000000E+00 -0.45593999997E+02  0.45594000000E+02  0.51100000000E-03 0.  1.
    9900012    2    1    2    0    0 -0.44204332919E+00 -0.32590301831E+02 -0.28658335197E+02  0.47787270144E+02  0.19999995894E+02 0.  0.
         12    1    1    2    0    0  0.44204332919E+00  0.32590301831E+02  0.28658335197E+02  0.43400729856E+02  0.00000000000E+00 0. -1.
         11    1    3    3    0    0 -0.53690259819E+00 -0.87242351062E+01 -0.10174995767E+02  0.13413839186E+02  0.51100000000E-03 0. -1.
        -11    1    3    3    0    0 -0.22351868027E+01 -0.25726572062E+02 -0.15318059655E+02  0.30024915020E+02  0.51100000000E-03 0.  1.
         12    1    3    3    0    0  0.23300460717E+01  0.18605053371E+01 -0.31652797753E+01  0.43485159378E+01  0.00000000000E+00 0. -1.
</event>
<event>
 7    1  0.8440037E-011  0.4778727E+02  0.7816164E-02  0.1312668E+00
        -11   -1    0    0    0    0  0.00000000000E+00  0.00000000000E+00  0.45593999997E+02  0.45594000000E+02  0.51100000000E-03 0. -1.
         11   -1    0    0    0    0 -0.00000000000E+00 -0.00000000000E+00 -0.45593999997E+02  0.45594000000E+02  0.51100000000E-03 0.  1.
    9900012    2    1    2    0    0 -0.42069810683E+01  0.36579917666E+02  0.22974642158E+02  0.47787271337E+02  0.20000001334E+02 0.  0.
        -12    1    1    2    0    0  0.42069810683E+01 -0.36579917666E+02 -0.22974642158E+02  0.43400728663E+02  0.00000000000E+00 0.  1.
         11    1    3    3    0    0  0.14830369548E+01  0.10271890388E+02  0.51941752091E+01  0.11605627390E+02  0.51100000000E-03 0. -1.
        -11    1    3    3    0    0  0.49363750076E+01  0.38802878759E+01  0.13633160451E+01  0.64251897338E+01  0.51100000000E-03 0.  1.
        -12    1    3    3    0    0 -0.10626393031E+02  0.22427739403E+02  0.16417150904E+02  0.29756454214E+02  0.00000000000E+00 0.  1.
</event>
<event>
 7    1  0.8440037E-011  0.4778727E+02  0.7816164E-02  0.1312668E+00
        -11   -1    0    0    0    0  0.00000000000E+00  0.00000000000E+00  0.45593999997E+02  0.45594000000E+02  0.51100000000E-03 0. -1.
         11   -1    0    0    0    0 -0.00000000000E+00 -0.00000000000E+00 -0.45593999997E+02  0.45594000000E+02  0.51100000000E-03 0.  1.
    9900012    2    1    2    0    0  0.27384255144E+02 -0.23957168252E+01 -0.33585505984E+02  0.47787273035E+02  0.20000009077E+02 0.  0.
         12    1    1    2    0    0 -0.27384255144E+02  0.23957168252E+01  0.33585505984E+02  0.43400726965E+02  0.00000000000E+00 0. -1.
         11    1    3    3    0    0  0.40564525223E+01 -0.52327722479E+01 -0.22563995965E+01  0.69948589596E+01  0.51100000000E-03 0. -1.
        -11    1    3    3    0    0 -0.68082766427E+00  0.13260576586E+01 -0.45837941415E+01  0.48200751255E+01  0.51100000000E-03 0.  1.
        -12    1    3    3    0    0  0.24008630286E+02  0.15109977640E+01 -0.26745312246E+02  0.35972338950E+02  0.00000000000E+00 0.  1.
</event>
<event>
 7    1  0.8440037E-011  0.4778726E+02  0.7816164E-02  0.1312668E+00
        -11   -1    0    0    0    0  0.00000000000E+00  0.00000000000E+00  0.45593999997E+02  0.45594000000E+02  0.51100000000E-03 0. -1.
         11   -1    0    0    0    0 -0.00000000000E+00 -0.00000000000E+00 -0.45593999997E+02  0.45594000000E+02  0.51100000000E-03 0.  1.
    9900012    2    1    2    0    0  0.10556623206E+02 -0.19688815535E+02  0.37209308313E+02  0.47787258350E+02  0.19999942120E+02 0.  0.
        -12    1    1    2    0    0 -0.10556623206E+02  0.19688815535E+02 -0.37209308313E+02  0.43400741650E+02  0.00000000000E+00 0.  1.
         11    1    3    3    0    0  0.16539999773E+01 -0.81679695270E+01  0.11997099401E+02  0.14607595162E+02  0.51100000000E-03 0. -1.
        -11    1    3    3    0    0 -0.31760760598E+01  0.45404131752E+00  0.60277666584E+00  0.32644988322E+01  0.51100000000E-03 0.  1.
         12    1    3    3    0    0  0.12078699288E+02 -0.11974887326E+02  0.24609432246E+02  0.29915164356E+02  0.00000000000E+00 0. -1.
</event>
<event>
 7    1  0.8440037E-011  0.4778727E+02  0.7816164E-02  0.1312668E+00
        -11   -1    0    0    0    0  0.00000000000E+00  0.00000000000E+00  0.45593999997E+02  0.45594000000E+02  0.51100000000E-03 0.  1.
         11   -1    0    0    0    0 -0.00000000000E+00 -0.00000000000E+00 -0.45593999997E+02  0.45594000000E+02  0.51100000000E-03 0. -1.
    9900012    2    1    2    0    0 -0.26989642915E+02  0.31887237090E+02 -0.11763778916E+02  0.47787271800E+02  0.20000003445E+02 0.  0.
        -12    1    1    2    0    0  0.26989642915E+02 -0.31887237090E+02  0.11763778916E+02  0.43400728200E+02  0.00000000000E+00 0.  1.
         11    1    3    3    0    0 -0.50835033127E+01  0.30016683092E+01 -0.41763178539E+01  0.72314348263E+01  0.51100000000E-03 0. -1.
        -11    1    3    3    0    0 -0.77903037440E+01  0.13791497068E+01 -0.53651929111E+01  0.95590889509E+01  0.51100000000E-03 0.  1.
         12    1    3    3    0    0 -0.14115835858E+02  0.27506419074E+02 -0.22222681514E+01  0.30996748023E+02  0.00000000000E+00 0. -1.
</event>
<event>
 7    1  0.8440037E-011  0.4778728E+02  0.7816164E-02  0.1312668E+00
        -11   -1    0    0    0    0  0.00000000000E+00  0.00000000000E+00  0.45593999997E+02  0.45594000000E+02  0.51100000000E-03 0. -1.
         11   -1    0    0    0    0 -0.00000000000E+00 -0.00000000000E+00 -0.45593999997E+02  0.45594000000E+02  0.51100000000E-03 0.  1.
    9900012    2    1    2    0    0 -0.25298317493E+02 -0.27850786042E+02  0.21632188668E+02  0.47787277222E+02  0.20000028164E+02 0.  0.
        -12    1    1    2    0    0  0.25298317493E+02  0.27850786042E+02 -0.21632188668E+02  0.43400722778E+02  0.00000000000E+00 0.  1.
         11    1    3    3    0    0  0.13957121571E+01 -0.28819266647E+01 -0.60923046902E+00  0.32595514648E+01  0.51100000000E-03 0.  1.
        -11    1    3    3    0    0  0.17538459168E+00  0.10888114380E+01  0.10122914921E+01  0.14969984731E+01  0.51100000000E-03 0. -1.
         12    1    3    3    0    0 -0.26869414242E+02 -0.26057670815E+02  0.21229127645E+02  0.43030727284E+02  0.00000000000E+00 0. -1.
</event>
<event>
 7    1  0.8440037E-011  0.4778727E+02  0.7816164E-02  0.1312668E+00
        -11   -1    0    0    0    0  0.00000000000E+00  0.00000000000E+00  0.45593999997E+02  0.45594000000E+02  0.51100000000E-03 0. -1.
         11   -1    0    0    0    0 -0.00000000000E+00 -0.00000000000E+00 -0.45593999997E+02  0.45594000000E+02  0.51100000000E-03 0.  1.
    9900012    2    1    2    0    0 -0.25910181556E+02 -0.13747335219E+02 -0.31989010155E+02  0.47787268386E+02  0.19999987880E+02 0.  0.
         12    1    1    2    0    0  0.25910181556E+02  0.13747335219E+02  0.31989010155E+02  0.43400731614E+02  0.00000000000E+00 0. -1.
         11    1    3    3    0    0 -0.10730725134E+01  0.20735232680E+01 -0.56580163143E+01  0.61207950657E+01  0.51100000000E-03 0. -1.
        -11    1    3    3    0    0 -0.85312514675E+01 -0.10724042752E+02 -0.18102151842E+02  0.22704079945E+02  0.51100000000E-03 0.  1.
        -12    1    3    3    0    0 -0.16305857575E+02 -0.50968157348E+01 -0.82288419985E+01  0.18962393376E+02  0.00000000000E+00 0.  1.
</event>
<event>
 7    1  0.8440037E-011  0.4778727E+02  0.7816164E-02  0.1312668E+00
        -11   -1    0    0    0    0  0.00000000000E+00  0.00000000000E+00  0.45593999997E+02  0.45594000000E+02  0.51100000000E-03 0. -1.
         11   -1    0    0    0    0 -0.00000000000E+00 -0.00000000000E+00 -0.45593999997E+02  0.45594000000E+02  0.51100000000E-03 0.  1.
    9900012    2    1    2    0    0 -0.20278921061E+01 -0.42346261197E+02  0.92900755768E+01  0.47787266274E+02  0.19999978250E+02 0.  0.
        -12    1    1    2    0    0  0.20278921061E+01  0.42346261197E+02 -0.92900755768E+01  0.43400733726E+02  0.00000000000E+00 0.  1.
         11    1    3    3    0    0  0.34476697612E+01 -0.77281293807E+01  0.68938736043E+01  0.10914939489E+02  0.51100000000E-03 0. -1.
        -11    1    3    3    0    0 -0.31290106016E+01 -0.18066287638E+02  0.68480537311E+01  0.19572360526E+02  0.51100000000E-03 0.  1.
        -12    1    3    3    0    0 -0.23465512657E+01 -0.16551844177E+02 -0.44518517586E+01  0.17299966260E+02  0.00000000000E+00 0.  1.
</event>
<event>
 7    1  0.8440037E-011  0.4778728E+02  0.7816164E-02  0.1312668E+00
        -11   -1    0    0    0    0  0.00000000000E+00  0.00000000000E+00  0.45593999997E+02  0.45594000000E+02  0.51100000000E-03 0. -1.
         11   -1    0    0    0    0 -0.00000000000E+00 -0.00000000000E+00 -0.45593999997E+02  0.45594000000E+02  0.51100000000E-03 0.  1.
    9900012    2    1    2    0    0 -0.58143025630E+01 -0.92045360297E+00  0.42999644339E+02  0.47787276937E+02  0.20000026864E+02 0.  0.
        -12    1    1    2    0    0  0.58143025630E+01  0.92045360297E+00 -0.42999644339E+02  0.43400723063E+02  0.00000000000E+00 0.  1.
         11    1    3    3    0    0  0.18848757634E+01  0.47645198506E+01  0.25673772170E+02  0.26180068444E+02  0.51100000000E-03 0. -1.
        -11    1    3    3    0    0 -0.44948319239E+01  0.15590412820E+01  0.46013944578E+01  0.66186822677E+01  0.51100000000E-03 0.  1.
        -12    1    3    3    0    0 -0.32043464024E+01 -0.72440147355E+01  0.12724477712E+02  0.14988526225E+02  0.00000000000E+00 0.  1.
</event>
<event>
 7    1  0.8440037E-011  0.4778727E+02  0.7816164E-02  0.1312668E+00
        -11   -1    0    0    0    0  0.00000000000E+00  0.00000000000E+00  0.45593999997E+02  0.45594000000E+02  0.51100000000E-03 0.  1.
         11   -1    0    0    0    0 -0.00000000000E+00 -0.00000000000E+00 -0.45593999997E+02  0.45594000000E+02  0.51100000000E-03 0. -1.
    9900012    2    1    2    0    0  0.36639092249E+02 -0.22286613131E+02  0.66713685197E+01  0.47787270011E+02  0.19999995287E+02 0.  0.
         12    1    1    2    0    0 -0.36639092249E+02  0.22286613131E+02 -0.66713685197E+01  0.43400729989E+02  0.00000000000E+00 0. -1.
         11    1    3    3    0    0  0.98363720905E+01 -0.74018095769E+01 -0.32634238238E+01  0.12735420536E+02  0.51100000000E-03 0. -1.
        -11    1    3    3    0    0  0.24436030050E+02 -0.13877873587E+02  0.37466971314E+01  0.28350532262E+02  0.51100000000E-03 0.  1.
        -12    1    3    3    0    0  0.23666901082E+01 -0.10069299678E+01  0.61880952120E+01  0.67013172124E+01  0.00000000000E+00 0.  1.
</event>
<event>
 7    1  0.8440037E-011  0.4778727E+02  0.7816164E-02  0.1312668E+00
        -11   -1    0    0    0    0  0.00000000000E+00  0.00000000000E+00  0.45593999997E+02  0.45594000000E+02  0.51100000000E-03 0.  1.
         11   -1    0    0    0    0 -0.00000000000E+00 -0.00000000000E+00 -0.45593999997E+02  0.45594000000E+02  0.51100000000E-03 0. -1.
    9900012    2    1    2    0    0  0.33555852030E+02 -0.27509944986E+02  0.91161158298E+00  0.47787270579E+02  0.19999997880E+02 0.  0.
         12    1    1    2    0    0 -0.33555852030E+02  0.27509944986E+02 -0.91161158298E+00  0.43400729421E+02  0.00000000000E+00 0. -1.
         11    1    3    3    0    0  0.25291530586E+01 -0.90498421003E+01  0.31585844716E+01  0.99132695595E+01  0.51100000000E-03 0. -1.
        -11    1    3    3    0    0  0.13549193189E+02 -0.11673894746E+02  0.35824209390E+01  0.18239906652E+02  0.51100000000E-03 0.  1.
        -12    1    3    3    0    0  0.17477505782E+02 -0.67862081398E+01 -0.58293938276E+01  0.19634094368E+02  0.00000000000E+00 0.  1.
</event>
<event>
 7    1  0.8440037E-011  0.4778727E+02  0.7816164E-02  0.1312668E+00
        -11   -1    0    0    0    0  0.00000000000E+00  0.00000000000E+00  0.45593999997E+02  0.45594000000E+02  0.51100000000E-03 0. -1.
         11   -1    0    0    0    0 -0.00000000000E+00 -0.00000000000E+00 -0.45593999997E+02  0.45594000000E+02  0.51100000000E-03 0.  1.
    9900012    2    1    2    0    0  0.26558722195E+00 -0.18973529976E+02 -0.39032776870E+02  0.47787273664E+02  0.20000011945E+02 0.  0.
         12    1    1    2    0    0 -0.26558722195E+00  0.18973529976E+02  0.39032776870E+02  0.43400726336E+02  0.00000000000E+00 0. -1.
         11    1    3    3    0    0 -0.22244863418E+01 -0.14768823073E+02 -0.31774404125E+02  0.35109531928E+02  0.51100000000E-03 0.  1.
        -11    1    3    3    0    0  0.16872632082E+00 -0.68593461890E+01 -0.45818008973E+01  0.82505756426E+01  0.51100000000E-03 0. -1.
        -12    1    3    3    0    0  0.23213472429E+01  0.26546392866E+01 -0.26765718475E+01  0.44271660934E+01  0.00000000000E+00 0.  1.
</event>
<event>
 7    1  0.8440037E-011  0.4778727E+02  0.7816164E-02  0.1312668E+00
        -11   -1    0    0    0    0  0.00000000000E+00  0.00000000000E+00  0.45593999997E+02  0.45594000000E+02  0.51100000000E-03 0.  1.
         11   -1    0    0    0    0 -0.00000000000E+00 -0.00000000000E+00 -0.45593999997E+02  0.45594000000E+02  0.51100000000E-03 0. -1.
    9900012    2    1    2    0    0  0.41493688491E+02 -0.11331975205E+02  0.57864853063E+01  0.47787271217E+02  0.20000000788E+02 0.  0.
         12    1    1    2    0    0 -0.41493688491E+02  0.11331975205E+02 -0.57864853063E+01  0.43400728783E+02  0.00000000000E+00 0. -1.
         11    1    3    3    0    0  0.42519596337E-02  0.75672242352E+00 -0.10346322202E+01  0.12818389125E+01  0.51100000000E-03 0. -1.
        -11    1    3    3    0    0  0.86849562493E+01 -0.56387729809E+01  0.79485517377E+01  0.13053876848E+02  0.51100000000E-03 0.  1.
         12    1    3    3    0    0  0.32804480283E+02 -0.64499246471E+01 -0.11274342112E+01  0.33451555457E+02  0.00000000000E+00 0. -1.
</event>
<event>
 7    1  0.8440037E-011  0.4778727E+02  0.7816164E-02  0.1312668E+00
        -11   -1    0    0    0    0  0.00000000000E+00  0.00000000000E+00  0.45593999997E+02  0.45594000000E+02  0.51100000000E-03 0. -1.
         11   -1    0    0    0    0 -0.00000000000E+00 -0.00000000000E+00 -0.45593999997E+02  0.45594000000E+02  0.51100000000E-03 0.  1.
    9900012    2    1    2    0    0  0.32472798501E+01 -0.17666649030E+02  0.39509091371E+02  0.47787267111E+02  0.19999982066E+02 0.  0.
        -12    1    1    2    0    0 -0.32472798501E+01  0.17666649030E+02 -0.39509091371E+02  0.43400732889E+02  0.00000000000E+00 0.  1.
         11    1    3    3    0    0  0.39811583086E+01 -0.18099371930E+01  0.82209818473E+01  0.93118224272E+01  0.51100000000E-03 0. -1.
        -11    1    3    3    0    0  0.53534966566E+00 -0.35593117536E+01  0.23695590404E+02  0.23967400867E+02  0.51100000000E-03 0.  1.
        -12    1    3    3    0    0 -0.12692281241E+01 -0.12297400083E+02  0.75925191188E+01  0.14508043817E+02  0.00000000000E+00 0.  1.
</event>
<event>
 7    1  0.8440037E-011  0.4778727E+02  0.7816164E-02  0.1312668E+00
        -11   -1    0    0    0    0  0.00000000000E+00  0.00000000000E+00  0.45593999997E+02  0.45594000000E+02  0.51100000000E-03 0. -1.
         11   -1    0    0    0    0 -0.00000000000E+00 -0.00000000000E+00 -0.45593999997E+02  0.45594000000E+02  0.51100000000E-03 0.  1.
    9900012    2    1    2    0    0  0.13522479569E+02 -0.39433809913E+02 -0.12072306841E+02  0.47787269472E+02  0.19999992829E+02 0.  0.
         12    1    1    2    0    0 -0.13522479569E+02  0.39433809913E+02  0.12072306841E+02  0.43400730528E+02  0.00000000000E+00 0. -1.
         11    1    3    3    0    0 -0.10616717206E+01 -0.68185597740E+01  0.12023110511E+01  0.70046738938E+01  0.51100000000E-03 0. -1.
        -11    1    3    3    0    0  0.94471197705E+01 -0.28060848709E+02 -0.49947548263E+01  0.30026769361E+02  0.51100000000E-03 0.  1.
         12    1    3    3    0    0  0.51370315195E+01 -0.45544014299E+01 -0.82798630662E+01  0.10755826217E+02  0.00000000000E+00 0. -1.
</event>
<event>
 7    1  0.1012484E-010  0.4778727E+02  0.7816164E-02  0.1312668E+00
        -11   -1    0    0    0    0  0.00000000000E+00  0.00000000000E+00  0.45593999997E+02  0.45594000000E+02  0.51100000000E-03 0. -1.
         11   -1    0    0    0    0 -0.00000000000E+00 -0.00000000000E+00 -0.45593999997E+02  0.45594000000E+02  0.51100000000E-03 0.  1.
    9900012    2    1    2    0    0  0.89783371158E+01  0.17089943731E+02  0.38870895909E+02  0.47787271171E+02  0.20000000577E+02 0.  0.
        -12    1    1    2    0    0 -0.89783371158E+01 -0.17089943731E+02 -0.38870895909E+02  0.43400728829E+02  0.00000000000E+00 0.  1.
         11    1    3    3    0    0  0.50382187197E+01  0.10452156412E+01  0.11682855872E+02  0.12765784159E+02  0.51100000000E-03 0. -1.
        -11    1    3    3    0    0 -0.15437102759E+01 -0.15835614214E+01  0.83794802225E+01  0.86663947090E+01  0.51100000000E-03 0.  1.
         12    1    3    3    0    0  0.54838286720E+01  0.17628289512E+02  0.18808559815E+02  0.26355092303E+02  0.00000000000E+00 0. -1.
</event>
<event>
 7    1  0.8440037E-011  0.4778727E+02  0.7816164E-02  0.1312668E+00
        -11   -1    0    0    0    0  0.00000000000E+00  0.00000000000E+00  0.45593999997E+02  0.45594000000E+02  0.51100000000E-03 0. -1.
         11   -1    0    0    0    0 -0.00000000000E+00 -0.00000000000E+00 -0.45593999997E+02  0.45594000000E+02  0.51100000000E-03 0.  1.
    9900012    2    1    2    0    0  0.24203562395E+02 -0.34947981677E+02 -0.87435352459E+01  0.47787271152E+02  0.20000000492E+02 0.  0.
         12    1    1    2    0    0 -0.24203562395E+02  0.34947981677E+02  0.87435352459E+01  0.43400728848E+02  0.00000000000E+00 0. -1.
         11    1    3    3    0    0  0.14800730727E+02 -0.83023078419E+01  0.16312572457E+01  0.17048488086E+02  0.51100000000E-03 0. -1.
        -11    1    3    3    0    0  0.46919899098E+01 -0.69703607041E+01 -0.51073898578E+01  0.98329105091E+01  0.51100000000E-03 0.  1.
         12    1    3    3    0    0  0.47108417583E+01 -0.19675313131E+02 -0.52674026338E+01  0.20905872557E+02  0.00000000000E+00 0. -1.
</event>
<event>
 7    1  0.8440037E-011  0.4778727E+02  0.7816164E-02  0.1312668E+00
        -11   -1    0    0    0    0  0.00000000000E+00  0.00000000000E+00  0.45593999997E+02  0.45594000000E+02  0.51100000000E-03 0. -1.
         11   -1    0    0    0    0 -0.00000000000E+00 -0.00000000000E+00 -0.45593999997E+02  0.45594000000E+02  0.51100000000E-03 0.  1.
    9900012    2    1    2    0    0  0.34506704126E+02  0.77132306680E+01 -0.25167776081E+02  0.47787268326E+02  0.19999987605E+02 0.  0.
         12    1    1    2    0    0 -0.34506704126E+02 -0.77132306680E+01  0.25167776081E+02  0.43400731674E+02  0.00000000000E+00 0. -1.
         11    1    3    3    0    0  0.11765819419E+02  0.46076273200E+01 -0.60638911924E+01  0.14015545397E+02  0.51100000000E-03 0. -1.
        -11    1    3    3    0    0  0.53510166119E+01  0.51730190237E+01 -0.13445428934E+02  0.15367923220E+02  0.51100000000E-03 0.  1.
         12    1    3    3    0    0  0.17389868095E+02 -0.20674156757E+01 -0.56584559539E+01  0.18403799709E+02  0.00000000000E+00 0. -1.
</event>
<event>
 7    1  0.8440037E-011  0.4778727E+02  0.7816164E-02  0.1312668E+00
        -11   -1    0    0    0    0  0.00000000000E+00  0.00000000000E+00  0.45593999997E+02  0.45594000000E+02  0.51100000000E-03 0.  1.
         11   -1    0    0    0    0 -0.00000000000E+00 -0.00000000000E+00 -0.45593999997E+02  0.45594000000E+02  0.51100000000E-03 0. -1.
    9900012    2    1    2    0    0  0.66713242518E+01 -0.35645417821E+02  0.23843685334E+02  0.47787266029E+02  0.19999977134E+02 0.  0.
        -12    1    1    2    0    0 -0.66713242518E+01  0.35645417821E+02 -0.23843685334E+02  0.43400733971E+02  0.00000000000E+00 0.  1.
         11    1    3    3    0    0 -0.50008526869E+01 -0.75176140165E+01  0.36367030885E+01  0.97338922180E+01  0.51100000000E-03 0. -1.
        -11    1    3    3    0    0 -0.82057000229E+00 -0.85604708452E+01  0.83453776354E+01  0.11983335277E+02  0.51100000000E-03 0.  1.
         12    1    3    3    0    0  0.12492746941E+02 -0.19567332959E+02  0.11861604610E+02  0.26070038534E+02  0.00000000000E+00 0. -1.
</event>
<event>
 7    1  0.8440037E-011  0.4778727E+02  0.7816164E-02  0.1312668E+00
        -11   -1    0    0    0    0  0.00000000000E+00  0.00000000000E+00  0.45593999997E+02  0.45594000000E+02  0.51100000000E-03 0. -1.
         11   -1    0    0    0    0 -0.00000000000E+00 -0.00000000000E+00 -0.45593999997E+02  0.45594000000E+02  0.51100000000E-03 0.  1.
    9900012    2    1    2    0    0 -0.11198059596E+02 -0.12892052561E+02 -0.39900151055E+02  0.47787267147E+02  0.19999982231E+02 0.  0.
         12    1    1    2    0    0  0.11198059596E+02  0.12892052561E+02  0.39900151055E+02  0.43400732853E+02  0.00000000000E+00 0. -1.
         11    1    3    3    0    0  0.16304030876E+01 -0.66538866730E+01 -0.17888497821E+02  0.19155437260E+02  0.51100000000E-03 0. -1.
        -11    1    3    3    0    0 -0.67111761714E+01 -0.82730397587E+01 -0.18349008559E+02  0.21217190856E+02  0.51100000000E-03 0.  1.
         12    1    3    3    0    0 -0.61172865125E+01  0.20348738708E+01 -0.36626446748E+01  0.74146390310E+01  0.00000000000E+00 0. -1.
</event>
<event>
 7    1  0.8440037E-011  0.4778727E+02  0.7816164E-02  0.1312668E+00
        -11   -1    0    0    0    0  0.00000000000E+00  0.00000000000E+00  0.45593999997E+02  0.45594000000E+02  0.51100000000E-03 0. -1.
         11   -1    0    0    0    0 -0.00000000000E+00 -0.00000000000E+00 -0.45593999997E+02  0.45594000000E+02  0.51100000000E-03 0.  1.
    9900012    2    1    2    0    0  0.15650367328E+02  0.20253252804E+02  0.35049893157E+02  0.47787271239E+02  0.20000000887E+02 0.  0.
        -12    1    1    2    0    0 -0.15650367328E+02 -0.20253252804E+02 -0.35049893157E+02  0.43400728761E+02  0.00000000000E+00 0.  1.
         11    1    3    3    0    0  0.14296643247E+02  0.16147787005E+02  0.24897964313E+02  0.32940152709E+02  0.51100000000E-03 0. -1.
        -11    1    3    3    0    0  0.50433617472E+01  0.36499611907E+01  0.90221165586E+01  0.10961583000E+02  0.51100000000E-03 0.  1.
        -12    1    3    3    0    0 -0.36896376660E+01  0.45550460830E+00  0.11298122854E+01  0.38855355300E+01  0.00000000000E+00 0.  1.
</event>
<event>
 7    1  0.8440037E-011  0.4778727E+02  0.7816164E-02  0.1312668E+00
        -11   -1    0    0    0    0  0.00000000000E+00  0.00000000000E+00  0.45593999997E+02  0.45594000000E+02  0.51100000000E-03 0. -1.
         11   -1    0    0    0    0 -0.00000000000E+00 -0.00000000000E+00 -0.45593999997E+02  0.45594000000E+02  0.51100000000E-03 0.  1.
    9900012    2    1    2    0    0 -0.28136063847E+02 -0.28540656710E+02  0.16655817177E+02  0.47787269360E+02  0.19999992318E+02 0.  0.
        -12    1    1    2    0    0  0.28136063847E+02  0.28540656710E+02 -0.16655817177E+02  0.43400730640E+02  0.00000000000E+00 0.  1.
         11    1    3    3    0    0 -0.84968313089E+01 -0.24253109455E+00  0.60765443374E+01  0.10448892524E+02  0.51100000000E-03 0. -1.
        -11    1    3    3    0    0  0.29626585637E+00 -0.52739789269E+00 -0.10645767999E+01  0.12244370212E+01  0.51100000000E-03 0.  1.
         12    1    3    3    0    0 -0.19935498395E+02 -0.27770727723E+02  0.11643849640E+02  0.36113939815E+02  0.00000000000E+00 0. -1.
</event>
<event>
 7    1  0.8440037E-011  0.4778727E+02  0.7816164E-02  0.1312668E+00
        -11   -1    0    0    0    0  0.00000000000E+00  0.00000000000E+00  0.45593999997E+02  0.45594000000E+02  0.51100000000E-03 0.  1.
         11   -1    0    0    0    0 -0.00000000000E+00 -0.00000000000E+00 -0.45593999997E+02  0.45594000000E+02  0.51100000000E-03 0. -1.
    9900012    2    1    2    0    0 -0.27052349657E+02  0.12102320755E+01 -0.33916503169E+02  0.47787268775E+02  0.19999989654E+02 0.  0.
         12    1    1    2    0    0  0.27052349657E+02 -0.12102320755E+01  0.33916503169E+02  0.43400731225E+02  0.00000000000E+00 0. -1.
         11    1    3    3    0    0 -0.77738278512E+01 -0.10228677379E+00 -0.24909652802E+02  0.26094705689E+02  0.51100000000E-03 0. -1.
        -11    1    3    3    0    0 -0.79643817692E+01  0.18369063821E-02 -0.58232813148E+01  0.98662042281E+01  0.51100000000E-03 0.  1.
         12    1    3    3    0    0 -0.11314140037E+02  0.13106819429E+01 -0.31835690524E+01  0.11826358858E+02  0.00000000000E+00 0. -1.
</event>
<event>
 7    1  0.8440037E-011  0.4778727E+02  0.7816164E-02  0.1312668E+00
        -11   -1    0    0    0    0  0.00000000000E+00  0.00000000000E+00  0.45593999997E+02  0.45594000000E+02  0.51100000000E-03 0. -1.
         11   -1    0    0    0    0 -0.00000000000E+00 -0.00000000000E+00 -0.45593999997E+02  0.45594000000E+02  0.51100000000E-03 0.  1.
    9900012    2    1    2    0    0 -0.19512616383E+01  0.68271703570E+01 -0.42815950218E+02  0.47787271088E+02  0.20000000196E+02 0.  0.
         12    1    1    2    0    0  0.19512616383E+01 -0.68271703570E+01  0.42815950218E+02  0.43400728912E+02  0.00000000000E+00 0. -1.
         11    1    3    3    0    0 -0.34378455084E+00  0.31728250648E+01 -0.21102362208E+02  0.21342321751E+02  0.51100000000E-03 0. -1.
        -11    1    3    3    0    0 -0.45027801900E+01  0.64207581720E+01 -0.20948155211E+02  0.22367976483E+02  0.51100000000E-03 0.  1.
         12    1    3    3    0    0  0.28953031025E+01 -0.27664128798E+01 -0.76543279905E+00  0.40769728534E+01  0.00000000000E+00 0. -1.
</event>
<event>
 7    1  0.8440037E-011  0.4778727E+02  0.7816164E-02  0.1312668E+00
        -11   -1    0    0    0    0  0.00000000000E+00  0.00000000000E+00  0.45593999997E+02  0.45594000000E+02  0.51100000000E-03 0. -1.
         11   -1    0    0    0    0 -0.00000000000E+00 -0.00000000000E+00 -0.45593999997E+02  0.45594000000E+02  0.51100000000E-03 0.  1.
    9900012    2    1    2    0    0 -0.16327289808E+02  0.19075854890E+02  0.35399924051E+02  0.47787271261E+02  0.20000000989E+02 0.  0.
        -12    1    1    2    0    0  0.16327289808E+02 -0.19075854890E+02 -0.35399924051E+02  0.43400728739E+02  0.00000000000E+00 0.  1.
         11    1    3    3    0    0 -0.35273044460E+01  0.83720992512E+01  0.28188283943E+01  0.95120826481E+01  0.51100000000E-03 0. -1.
        -11    1    3    3    0    0 -0.80885638624E+01  0.71293995533E+01  0.92497795364E+01  0.14206041851E+02  0.51100000000E-03 0.  1.
         12    1    3    3    0    0 -0.47114214996E+01  0.35743560855E+01  0.23331316120E+02  0.24069146762E+02  0.00000000000E+00 0. -1.
</event>
<event>
 7    1  0.8440037E-011  0.4778727E+02  0.7816164E-02  0.1312668E+00
        -11   -1    0    0    0    0  0.00000000000E+00  0.00000000000E+00  0.45593999997E+02  0.45594000000E+02  0.51100000000E-03 0. -1.
         11   -1    0    0    0    0 -0.00000000000E+00 -0.00000000000E+00 -0.45593999997E+02  0.45594000000E+02  0.51100000000E-03 0.  1.
    9900012    2    1    2    0    0  0.97937868163E+01  0.31030849313E+02 -0.28719181664E+02  0.47787271150E+02  0.20000000479E+02 0.  0.
         12    1    1    2    0    0 -0.97937868163E+01 -0.31030849313E+02  0.28719181664E+02  0.43400728850E+02  0.00000000000E+00 0. -1.
         11    1    3    3    0    0  0.69249268713E+01  0.17674451456E+02 -0.13745404537E+02  0.23436659161E+02  0.51100000000E-03 0. -1.
        -11    1    3    3    0    0 -0.23030832221E+01  0.13510613064E+02 -0.87655788853E+01  0.16268873076E+02  0.51100000000E-03 0.  1.
         12    1    3    3    0    0  0.51719431671E+01 -0.15421520754E+00 -0.62081982417E+01  0.80817389132E+01  0.00000000000E+00 0. -1.
</event>
<event>
 7    1  0.8440037E-011  0.4778727E+02  0.7816164E-02  0.1312668E+00
        -11   -1    0    0    0    0  0.00000000000E+00  0.00000000000E+00  0.45593999997E+02  0.45594000000E+02  0.51100000000E-03 0.  1.
         11   -1    0    0    0    0 -0.00000000000E+00 -0.00000000000E+00 -0.45593999997E+02  0.45594000000E+02  0.51100000000E-03 0. -1.
    9900012    2    1    2    0    0 -0.30487277499E+02 -0.30889209804E+02  0.76853936066E-01  0.47787270996E+02  0.19999999778E+02 0.  0.
        -12    1    1    2    0    0  0.30487277499E+02  0.30889209804E+02 -0.76853936066E-01  0.43400729004E+02  0.00000000000E+00 0.  1.
         11    1    3    3    0    0 -0.59874943428E+01 -0.15988767434E+02 -0.28658138068E+00  0.17075505899E+02  0.51100000000E-03 0. -1.
        -11    1    3    3    0    0 -0.40005542486E+00 -0.40813773208E+01  0.12278105875E+01  0.42807948184E+01  0.51100000000E-03 0.  1.
        -12    1    3    3    0    0 -0.24099727731E+02 -0.10819065049E+02 -0.86437527074E+00  0.26430970279E+02  0.00000000000E+00 0.  1.
</event>
<event>
 7    1  0.8440037E-011  0.4778727E+02  0.7816164E-02  0.1312668E+00
        -11   -1    0    0    0    0  0.00000000000E+00  0.00000000000E+00  0.45593999997E+02  0.45594000000E+02  0.51100000000E-03 0. -1.
         11   -1    0    0    0    0 -0.00000000000E+00 -0.00000000000E+00 -0.45593999997E+02  0.45594000000E+02  0.51100000000E-03 0.  1.
    9900012    2    1    2    0    0  0.26261942382E+02  0.24950344280E+02 -0.23904269753E+02  0.47787269478E+02  0.19999992860E+02 0.  0.
         12    1    1    2    0    0 -0.26261942382E+02 -0.24950344280E+02  0.23904269753E+02  0.43400730522E+02  0.00000000000E+00 0. -1.
         11    1    3    3    0    0 -0.17610963359E+01  0.56979129166E+00 -0.23662236096E+01  0.30041865541E+01  0.51100000000E-03 0. -1.
        -11    1    3    3    0    0  0.76110144403E+01  0.32141443459E+01 -0.10531447669E+02  0.13385426962E+02  0.51100000000E-03 0.  1.
        -12    1    3    3    0    0  0.20412024278E+02  0.21166408642E+02 -0.11006598474E+02  0.31397655962E+02  0.00000000000E+00 0.  1.
</event>
<event>
 7    1  0.8440037E-011  0.4778727E+02  0.7816164E-02  0.1312668E+00
        -11   -1    0    0    0    0  0.00000000000E+00  0.00000000000E+00  0.45593999997E+02  0.45594000000E+02  0.51100000000E-03 0. -1.
         11   -1    0    0    0    0 -0.00000000000E+00 -0.00000000000E+00 -0.45593999997E+02  0.45594000000E+02  0.51100000000E-03 0.  1.
    9900012    2    1    2    0    0 -0.31257294538E+02  0.10664837662E+01  0.30090981634E+02  0.47787273910E+02  0.20000013065E+02 0.  0.
        -12    1    1    2    0    0  0.31257294538E+02 -0.10664837662E+01 -0.30090981634E+02  0.43400726090E+02  0.00000000000E+00 0.  1.
         11    1    3    3    0    0 -0.11759465867E+02  0.68051147257E+01  0.73005759895E+01  0.15423781441E+02  0.51100000000E-03 0. -1.
        -11    1    3    3    0    0 -0.37421678597E+01  0.24297659982E+01  0.84145554789E+01  0.95243019306E+01  0.51100000000E-03 0.  1.
         12    1    3    3    0    0 -0.15755660812E+02 -0.81683969577E+01  0.14375850165E+02  0.22839190538E+02  0.00000000000E+00 0. -1.
</event>
<event>
 7    1  0.8440037E-011  0.4778727E+02  0.7816164E-02  0.1312668E+00
        -11   -1    0    0    0    0  0.00000000000E+00  0.00000000000E+00  0.45593999997E+02  0.45594000000E+02  0.51100000000E-03 0. -1.
         11   -1    0    0    0    0 -0.00000000000E+00 -0.00000000000E+00 -0.45593999997E+02  0.45594000000E+02  0.51100000000E-03 0.  1.
    9900012    2    1    2    0    0 -0.21114580638E+02 -0.36762131126E+02 -0.92921007648E+01  0.47787274925E+02  0.20000017692E+02 0.  0.
         12    1    1    2    0    0  0.21114580638E+02  0.36762131126E+02  0.92921007648E+01  0.43400725075E+02  0.00000000000E+00 0. -1.
         11    1    3    3    0    0 -0.16653046354E+02 -0.19045640374E+02 -0.84826710200E+01  0.26683629402E+02  0.51100000000E-03 0. -1.
        -11    1    3    3    0    0 -0.46040461757E+01 -0.16238751401E+02 -0.42075854080E+01  0.17395346029E+02  0.51100000000E-03 0.  1.
         12    1    3    3    0    0  0.14251189142E+00 -0.14777393506E+01  0.33981556633E+01  0.37082994943E+01  0.00000000000E+00 0. -1.
</event>
<event>
 7    1  0.8440037E-011  0.4778726E+02  0.7816164E-02  0.1312668E+00
        -11   -1    0    0    0    0  0.00000000000E+00  0.00000000000E+00  0.45593999997E+02  0.45594000000E+02  0.51100000000E-03 0. -1.
         11   -1    0    0    0    0 -0.00000000000E+00 -0.00000000000E+00 -0.45593999997E+02  0.45594000000E+02  0.51100000000E-03 0.  1.
    9900012    2    1    2    0    0  0.42765633484E+02  0.73716854324E+01 -0.61889985160E+00  0.47787260485E+02  0.19999951857E+02 0.  0.
        -12    1    1    2    0    0 -0.42765633484E+02 -0.73716854324E+01  0.61889985160E+00  0.43400739515E+02  0.00000000000E+00 0.  1.
         11    1    3    3    0    0 -0.50450627773E+00 -0.31076078502E+00  0.10477690993E+01  0.12037105949E+01  0.51100000000E-03 0. -1.
        -11    1    3    3    0    0  0.20838904226E+02  0.51667370405E+01  0.67308443278E+01  0.22500208146E+02  0.51100000000E-03 0.  1.
        -12    1    3    3    0    0  0.22431235536E+02  0.25157091769E+01 -0.83975132787E+01  0.24083341745E+02  0.00000000000E+00 0.  1.
</event>
<event>
 7    1  0.8440037E-011  0.4778727E+02  0.7816164E-02  0.1312668E+00
        -11   -1    0    0    0    0  0.00000000000E+00  0.00000000000E+00  0.45593999997E+02  0.45594000000E+02  0.51100000000E-03 0. -1.
         11   -1    0    0    0    0 -0.00000000000E+00 -0.00000000000E+00 -0.45593999997E+02  0.45594000000E+02  0.51100000000E-03 0.  1.
    9900012    2    1    2    0    0  0.27037136114E+02  0.32139006759E+02 -0.10940802430E+02  0.47787266798E+02  0.19999980638E+02 0.  0.
         12    1    1    2    0    0 -0.27037136114E+02 -0.32139006759E+02  0.10940802430E+02  0.43400733202E+02  0.00000000000E+00 0. -1.
         11    1    3    3    0    0  0.74184186804E+00  0.10957744920E+01  0.33999709453E+01  0.36484042792E+01  0.51100000000E-03 0. -1.
        -11    1    3    3    0    0  0.54410146236E+01  0.38068865483E+01  0.71106138783E+00  0.66785203365E+01  0.51100000000E-03 0.  1.
        -12    1    3    3    0    0  0.20854279622E+02  0.27236345719E+02 -0.15051834763E+02  0.37460342182E+02  0.00000000000E+00 0.  1.
</event>
<event>
 7    1  0.8440037E-011  0.4778727E+02  0.7816164E-02  0.1312668E+00
        -11   -1    0    0    0    0  0.00000000000E+00  0.00000000000E+00  0.45593999997E+02  0.45594000000E+02  0.51100000000E-03 0. -1.
         11   -1    0    0    0    0 -0.00000000000E+00 -0.00000000000E+00 -0.45593999997E+02  0.45594000000E+02  0.51100000000E-03 0.  1.
    9900012    2    1    2    0    0 -0.25007406840E+02  0.20914269998E+02  0.28650412361E+02  0.47787271725E+02  0.20000003101E+02 0.  0.
        -12    1    1    2    0    0  0.25007406840E+02 -0.20914269998E+02 -0.28650412361E+02  0.43400728275E+02  0.00000000000E+00 0.  1.
         11    1    3    3    0    0 -0.16659470383E+02  0.96932595512E+01  0.70828651041E+01  0.20534464018E+02  0.51100000000E-03 0. -1.
        -11    1    3    3    0    0 -0.50947189789E+00  0.38400138639E+01  0.94250870054E+00  0.39866766863E+01  0.51100000000E-03 0.  1.
        -12    1    3    3    0    0 -0.78384645587E+01  0.73809965829E+01  0.20625038556E+02  0.23266131020E+02  0.00000000000E+00 0.  1.
</event>
<event>
 7    1  0.8440037E-011  0.4778733E+02  0.7816164E-02  0.1312667E+00
        -11   -1    0    0    0    0  0.00000000000E+00  0.00000000000E+00  0.45593999997E+02  0.45594000000E+02  0.51100000000E-03 0. -1.
         11   -1    0    0    0    0 -0.00000000000E+00 -0.00000000000E+00 -0.45593999997E+02  0.45594000000E+02  0.51100000000E-03 0.  1.
    9900012    2    1    2    0    0 -0.40656778592E+01 -0.28389838990E+02  0.32574612167E+02  0.47787331202E+02  0.20000274279E+02 0.  0.
        -12    1    1    2    0    0  0.40656778592E+01  0.28389838990E+02 -0.32574612167E+02  0.43400668798E+02  0.00000000000E+00 0.  1.
         11    1    3    3    0    0  0.12026466385E+01  0.21072914950E+01  0.13159624779E+01  0.27602162752E+01  0.51100000000E-03 0. -1.
        -11    1    3    3    0    0 -0.53967062202E+01 -0.68121813972E+01  0.75076846176E+01  0.11484580184E+02  0.51100000000E-03 0.  1.
         12    1    3    3    0    0  0.12838172248E+00 -0.23684949087E+02  0.23750965072E+02  0.33542534743E+02  0.00000000000E+00 0. -1.
</event>
<event>
 7    1  0.8440037E-011  0.4778727E+02  0.7816164E-02  0.1312668E+00
        -11   -1    0    0    0    0  0.00000000000E+00  0.00000000000E+00  0.45593999997E+02  0.45594000000E+02  0.51100000000E-03 0.  1.
         11   -1    0    0    0    0 -0.00000000000E+00 -0.00000000000E+00 -0.45593999997E+02  0.45594000000E+02  0.51100000000E-03 0. -1.
    9900012    2    1    2    0    0  0.69350484834E+01  0.42733351208E+02  0.30641564298E+01  0.47787271233E+02  0.20000000858E+02 0.  0.
         12    1    1    2    0    0 -0.69350484834E+01 -0.42733351208E+02 -0.30641564298E+01  0.43400728767E+02  0.00000000000E+00 0. -1.
         11    1    3    3    0    0  0.28090336391E+01  0.18815189443E+02  0.28080317540E+01  0.19229848318E+02  0.51100000000E-03 0. -1.
        -11    1    3    3    0    0  0.82618644695E+01  0.22166164950E+02  0.19976154213E+01  0.23740002964E+02  0.51100000000E-03 0.  1.
         12    1    3    3    0    0 -0.41358496251E+01  0.17519968154E+01 -0.17414907455E+01  0.48174199505E+01  0.00000000000E+00 0. -1.
</event>
<event>
 7    1  0.8440037E-011  0.4778727E+02  0.7816164E-02  0.1312668E+00
        -11   -1    0    0    0    0  0.00000000000E+00  0.00000000000E+00  0.45593999997E+02  0.45594000000E+02  0.51100000000E-03 0. -1.
         11   -1    0    0    0    0 -0.00000000000E+00 -0.00000000000E+00 -0.45593999997E+02  0.45594000000E+02  0.51100000000E-03 0.  1.
    9900012    2    1    2    0    0 -0.16354613686E+02  0.81026961512E+01  0.39376341750E+02  0.47787270013E+02  0.19999995298E+02 0.  0.
        -12    1    1    2    0    0  0.16354613686E+02 -0.81026961512E+01 -0.39376341750E+02  0.43400729987E+02  0.00000000000E+00 0.  1.
         11    1    3    3    0    0 -0.11519640066E+02  0.41912084986E+01  0.16303224913E+02  0.20397634146E+02  0.51100000000E-03 0. -1.
        -11    1    3    3    0    0 -0.80858850928E+01  0.17036200476E+01  0.69591576089E+01  0.10803413067E+02  0.51100000000E-03 0.  1.
        -12    1    3    3    0    0  0.32509114727E+01  0.22078676049E+01  0.16113959229E+02  0.16586222801E+02  0.00000000000E+00 0.  1.
</event>
<event>
 7    1  0.8440037E-011  0.4778727E+02  0.7816164E-02  0.1312668E+00
        -11   -1    0    0    0    0  0.00000000000E+00  0.00000000000E+00  0.45593999997E+02  0.45594000000E+02  0.51100000000E-03 0. -1.
         11   -1    0    0    0    0 -0.00000000000E+00 -0.00000000000E+00 -0.45593999997E+02  0.45594000000E+02  0.51100000000E-03 0.  1.
    9900012    2    1    2    0    0  0.26689622113E+02  0.11140084592E+02 -0.32360250028E+02  0.47787271952E+02  0.20000004137E+02 0.  0.
         12    1    1    2    0    0 -0.26689622113E+02 -0.11140084592E+02  0.32360250028E+02  0.43400728048E+02  0.00000000000E+00 0. -1.
         11    1    3    3    0    0  0.44165598487E+01  0.38072403990E+01 -0.13582259879E+02  0.14781030547E+02  0.51100000000E-03 0. -1.
        -11    1    3    3    0    0  0.95245014022E+01  0.65689547193E+00 -0.15567292446E+02  0.18261660193E+02  0.51100000000E-03 0.  1.
         12    1    3    3    0    0  0.12748560862E+02  0.66759487213E+01 -0.32106977028E+01  0.14744581212E+02  0.00000000000E+00 0. -1.
</event>
<event>
 7    1  0.8440037E-011  0.4778727E+02  0.7816164E-02  0.1312668E+00
        -11   -1    0    0    0    0  0.00000000000E+00  0.00000000000E+00  0.45593999997E+02  0.45594000000E+02  0.51100000000E-03 0.  1.
         11   -1    0    0    0    0 -0.00000000000E+00 -0.00000000000E+00 -0.45593999997E+02  0.45594000000E+02  0.51100000000E-03 0. -1.
    9900012    2    1    2    0    0  0.33092603956E+02 -0.60581637788E+01  0.27418995409E+02  0.47787273114E+02  0.20000009437E+02 0.  0.
        -12    1    1    2    0    0 -0.33092603956E+02  0.60581637788E+01 -0.27418995409E+02  0.43400726886E+02  0.00000000000E+00 0.  1.
         11    1    3    3    0    0  0.18609942934E+02 -0.47350038144E+01  0.10636753893E+02  0.21952010631E+02  0.51100000000E-03 0. -1.
        -11    1    3    3    0    0  0.10379713617E+02 -0.70579273356E+01  0.11516006670E+02  0.17034412316E+02  0.51100000000E-03 0.  1.
        -12    1    3    3    0    0  0.41029474049E+01  0.57347673712E+01  0.52662348461E+01  0.88008501671E+01  0.00000000000E+00 0.  1.
</event>
<event>
 7    1  0.8440037E-011  0.4778727E+02  0.7816164E-02  0.1312668E+00
        -11   -1    0    0    0    0  0.00000000000E+00  0.00000000000E+00  0.45593999997E+02  0.45594000000E+02  0.51100000000E-03 0. -1.
         11   -1    0    0    0    0 -0.00000000000E+00 -0.00000000000E+00 -0.45593999997E+02  0.45594000000E+02  0.51100000000E-03 0.  1.
    9900012    2    1    2    0    0  0.25767995241E+02 -0.18183650216E+02  0.29815906400E+02  0.47787274334E+02  0.20000014996E+02 0.  0.
        -12    1    1    2    0    0 -0.25767995241E+02  0.18183650216E+02 -0.29815906400E+02  0.43400725666E+02  0.00000000000E+00 0.  1.
         11    1    3    3    0    0  0.10917566993E+02 -0.60838837623E+01  0.17883473338E+02  0.21818009295E+02  0.51100000000E-03 0. -1.
        -11    1    3    3    0    0  0.13297668345E+02 -0.10821829674E+02  0.14675566237E+02  0.22567946862E+02  0.51100000000E-03 0.  1.
        -12    1    3    3    0    0  0.15527599024E+01 -0.12779367794E+01 -0.27431331749E+01  0.34013181771E+01  0.00000000000E+00 0.  1.
</event>
<event>
 7    1  0.8440037E-011  0.4778727E+02  0.7816164E-02  0.1312668E+00
        -11   -1    0    0    0    0  0.00000000000E+00  0.00000000000E+00  0.45593999997E+02  0.45594000000E+02  0.51100000000E-03 0. -1.
         11   -1    0    0    0    0 -0.00000000000E+00 -0.00000000000E+00 -0.45593999997E+02  0.45594000000E+02  0.51100000000E-03 0.  1.
    9900012    2    1    2    0    0  0.12947789484E+02  0.21086659761E+02  0.35655726155E+02  0.47787270974E+02  0.19999999677E+02 0.  0.
        -12    1    1    2    0    0 -0.12947789484E+02 -0.21086659761E+02 -0.35655726155E+02  0.43400729026E+02  0.00000000000E+00 0.  1.
         11    1    3    3    0    0  0.53680596665E+01  0.10306749726E+02  0.19665984772E+02  0.22842856910E+02  0.51100000000E-03 0. -1.
        -11    1    3    3    0    0  0.60083930833E+01  0.13257916504E+02  0.16459930250E+02  0.21972765907E+02  0.51100000000E-03 0.  1.
        -12    1    3    3    0    0  0.15713367346E+01 -0.24780064698E+01 -0.47018886748E+00  0.29716481570E+01  0.00000000000E+00 0.  1.
</event>
<event>
 7    1  0.8440037E-011  0.4778727E+02  0.7816164E-02  0.1312668E+00
        -11   -1    0    0    0    0  0.00000000000E+00  0.00000000000E+00  0.45593999997E+02  0.45594000000E+02  0.51100000000E-03 0. -1.
         11   -1    0    0    0    0 -0.00000000000E+00 -0.00000000000E+00 -0.45593999997E+02  0.45594000000E+02  0.51100000000E-03 0.  1.
    9900012    2    1    2    0    0 -0.62845373914E+01  0.81681156545E+01  0.42159342674E+02  0.47787266155E+02  0.19999977708E+02 0.  0.
        -12    1    1    2    0    0  0.62845373914E+01 -0.81681156545E+01 -0.42159342674E+02  0.43400733845E+02  0.00000000000E+00 0.  1.
         11    1    3    3    0    0 -0.11736766537E+01  0.24246050024E+01  0.81578588569E+01  0.85910935099E+01  0.51100000000E-03 0. -1.
        -11    1    3    3    0    0  0.61581642678E+01  0.52781907367E+01  0.16309795599E+02  0.18215150764E+02  0.51100000000E-03 0.  1.
        -12    1    3    3    0    0 -0.11269025005E+02  0.46531991534E+00  0.17691688218E+02  0.20981021881E+02  0.00000000000E+00 0.  1.
</event>
<event>
 7    1  0.8440037E-011  0.4778727E+02  0.7816164E-02  0.1312668E+00
        -11   -1    0    0    0    0  0.00000000000E+00  0.00000000000E+00  0.45593999997E+02  0.45594000000E+02  0.51100000000E-03 0. -1.
         11   -1    0    0    0    0 -0.00000000000E+00 -0.00000000000E+00 -0.45593999997E+02  0.45594000000E+02  0.51100000000E-03 0.  1.
    9900012    2    1    2    0    0 -0.22907649229E+02  0.23241589039E+02  0.28612789698E+02  0.47787267419E+02  0.19999983470E+02 0.  0.
        -12    1    1    2    0    0  0.22907649229E+02 -0.23241589039E+02 -0.28612789698E+02  0.43400732581E+02  0.00000000000E+00 0.  1.
         11    1    3    3    0    0 -0.22137181973E+02  0.16353847357E+02  0.16637301198E+02  0.32160580537E+02  0.51100000000E-03 0. -1.
        -11    1    3    3    0    0 -0.12135175365E+00  0.92822012863E+00 -0.97767513774E+00  0.13535759275E+01  0.51100000000E-03 0.  1.
         12    1    3    3    0    0 -0.64911550253E+00  0.59595215541E+01  0.12953163638E+02  0.14273110954E+02  0.00000000000E+00 0. -1.
</event>
<event>
 7    1  0.8440037E-011  0.4778727E+02  0.7816164E-02  0.1312668E+00
        -11   -1    0    0    0    0  0.00000000000E+00  0.00000000000E+00  0.45593999997E+02  0.45594000000E+02  0.51100000000E-03 0. -1.
         11   -1    0    0    0    0 -0.00000000000E+00 -0.00000000000E+00 -0.45593999997E+02  0.45594000000E+02  0.51100000000E-03 0.  1.
    9900012    2    1    2    0    0  0.28366023546E+02 -0.16049497966E+02 -0.28660176250E+02  0.47787269828E+02  0.19999994454E+02 0.  0.
         12    1    1    2    0    0 -0.28366023546E+02  0.16049497966E+02  0.28660176250E+02  0.43400730172E+02  0.00000000000E+00 0. -1.
         11    1    3    3    0    0  0.62108159476E+01  0.11592805121E+01 -0.31238120055E+01  0.70481464051E+01  0.51100000000E-03 0. -1.
        -11    1    3    3    0    0 -0.70208523459E+00  0.61969146761E+00 -0.53102478320E+01  0.53921863367E+01  0.51100000000E-03 0.  1.
        -12    1    3    3    0    0  0.22857292833E+02 -0.17828469946E+02 -0.20226116412E+02  0.35346937086E+02  0.00000000000E+00 0.  1.
</event>
<event>
 7    1  0.8440037E-011  0.4778727E+02  0.7816164E-02  0.1312668E+00
        -11   -1    0    0    0    0  0.00000000000E+00  0.00000000000E+00  0.45593999997E+02  0.45594000000E+02  0.51100000000E-03 0. -1.
         11   -1    0    0    0    0 -0.00000000000E+00 -0.00000000000E+00 -0.45593999997E+02  0.45594000000E+02  0.51100000000E-03 0.  1.
    9900012    2    1    2    0    0 -0.29258937998E+01  0.11363483742E+02 -0.41784370007E+02  0.47787271962E+02  0.20000004185E+02 0.  0.
         12    1    1    2    0    0  0.29258937998E+01 -0.11363483742E+02  0.41784370007E+02  0.43400728038E+02  0.00000000000E+00 0. -1.
         11    1    3    3    0    0  0.25625125112E+00  0.38569650123E+01 -0.15451360265E+02  0.15927535217E+02  0.51100000000E-03 0. -1.
        -11    1    3    3    0    0  0.17941809969E+01  0.10475546012E+02 -0.22578920772E+02  0.24955236188E+02  0.51100000000E-03 0.  1.
         12    1    3    3    0    0 -0.49763260478E+01 -0.29690272829E+01 -0.37540889705E+01  0.69045005569E+01  0.00000000000E+00 0. -1.
</event>
<event>
 7    1  0.8440037E-011  0.4778727E+02  0.7816164E-02  0.1312668E+00
        -11   -1    0    0    0    0  0.00000000000E+00  0.00000000000E+00  0.45593999997E+02  0.45594000000E+02  0.51100000000E-03 0. -1.
         11   -1    0    0    0    0 -0.00000000000E+00 -0.00000000000E+00 -0.45593999997E+02  0.45594000000E+02  0.51100000000E-03 0.  1.
    9900012    2    1    2    0    0 -0.26839766732E+02  0.15149135996E+02 -0.30557384128E+02  0.47787272767E+02  0.20000007852E+02 0.  0.
         12    1    1    2    0    0  0.26839766732E+02 -0.15149135996E+02  0.30557384128E+02  0.43400727233E+02  0.00000000000E+00 0. -1.
         11    1    3    3    0    0 -0.73103986625E+01  0.81926063081E+01 -0.30923180794E+01  0.11407153812E+02  0.51100000000E-03 0. -1.
        -11    1    3    3    0    0 -0.66126237665E+01  0.63677721217E+01 -0.49840207394E+01  0.10445849791E+02  0.51100000000E-03 0.  1.
        -12    1    3    3    0    0 -0.12916744303E+02  0.58875756665E+00 -0.22481045309E+02  0.25934269163E+02  0.00000000000E+00 0.  1.
</event>
<event>
 7    1  0.8440037E-011  0.4778727E+02  0.7816164E-02  0.1312668E+00
        -11   -1    0    0    0    0  0.00000000000E+00  0.00000000000E+00  0.45593999997E+02  0.45594000000E+02  0.51100000000E-03 0. -1.
         11   -1    0    0    0    0 -0.00000000000E+00 -0.00000000000E+00 -0.45593999997E+02  0.45594000000E+02  0.51100000000E-03 0.  1.
    9900012    2    1    2    0    0  0.34409051260E+02  0.23434360558E+02 -0.12266668073E+02  0.47787271792E+02  0.20000003407E+02 0.  0.
         12    1    1    2    0    0 -0.34409051260E+02 -0.23434360558E+02  0.12266668073E+02  0.43400728208E+02  0.00000000000E+00 0. -1.
         11    1    3    3    0    0  0.11256192288E+02  0.10016711459E+01 -0.79752945202E+01  0.13831505083E+02  0.51100000000E-03 0.  1.
        -11    1    3    3    0    0 -0.61063383802E-01 -0.14659835963E+00  0.11128591106E+01  0.11241332114E+01  0.51100000000E-03 0. -1.
        -12    1    3    3    0    0  0.23213922356E+02  0.22579287772E+02 -0.54042326630E+01  0.32831633497E+02  0.00000000000E+00 0.  1.
</event>
<event>
 7    1  0.8440037E-011  0.4778727E+02  0.7816164E-02  0.1312668E+00
        -11   -1    0    0    0    0  0.00000000000E+00  0.00000000000E+00  0.45593999997E+02  0.45594000000E+02  0.51100000000E-03 0. -1.
         11   -1    0    0    0    0 -0.00000000000E+00 -0.00000000000E+00 -0.45593999997E+02  0.45594000000E+02  0.51100000000E-03 0.  1.
    9900012    2    1    2    0    0  0.74302364048E+01 -0.14546233409E+02 -0.40209724836E+02  0.47787270849E+02  0.19999999109E+02 0.  0.
         12    1    1    2    0    0 -0.74302364048E+01  0.14546233409E+02  0.40209724836E+02  0.43400729151E+02  0.00000000000E+00 0. -1.
         11    1    3    3    0    0  0.29882924773E+01 -0.72305150563E+00 -0.12466961978E+01  0.33176719369E+01  0.51100000000E-03 0. -1.
        -11    1    3    3    0    0  0.33718215764E+01  0.30378628588E+01 -0.84095591967E+01  0.95560701983E+01  0.51100000000E-03 0.  1.
         12    1    3    3    0    0  0.10701223511E+01 -0.16861044762E+02 -0.30553469442E+02  0.34913528714E+02  0.00000000000E+00 0. -1.
</event>
<event>
 7    1  0.8440037E-011  0.4778726E+02  0.7816164E-02  0.1312668E+00
        -11   -1    0    0    0    0  0.00000000000E+00  0.00000000000E+00  0.45593999997E+02  0.45594000000E+02  0.51100000000E-03 0. -1.
         11   -1    0    0    0    0 -0.00000000000E+00 -0.00000000000E+00 -0.45593999997E+02  0.45594000000E+02  0.51100000000E-03 0.  1.
    9900012    2    1    2    0    0 -0.75911271258E+01 -0.17265392242E+01  0.42696811226E+02  0.47787264550E+02  0.19999970389E+02 0.  0.
        -12    1    1    2    0    0  0.75911271258E+01  0.17265392242E+01 -0.42696811226E+02  0.43400735450E+02  0.00000000000E+00 0.  1.
         11    1    3    3    0    0 -0.63167098346E+01  0.64143574645E+00  0.31951740555E+02  0.32576463708E+02  0.51100000000E-03 0. -1.
        -11    1    3    3    0    0 -0.26966769234E+01 -0.41714971014E+01  0.11709639529E+02  0.12719634926E+02  0.51100000000E-03 0.  1.
        -12    1    3    3    0    0  0.14222596323E+01  0.18035221308E+01 -0.96456885819E+00  0.24911659158E+01  0.00000000000E+00 0.  1.
</event>
<event>
 7    1  0.8440037E-011  0.4778727E+02  0.7816164E-02  0.1312668E+00
        -11   -1    0    0    0    0  0.00000000000E+00  0.00000000000E+00  0.45593999997E+02  0.45594000000E+02  0.51100000000E-03 0. -1.
         11   -1    0    0    0    0 -0.00000000000E+00 -0.00000000000E+00 -0.45593999997E+02  0.45594000000E+02  0.51100000000E-03 0.  1.
    9900012    2    1    2    0    0 -0.40708347979E+02 -0.13588835713E+02 -0.64650794004E+01  0.47787270711E+02  0.19999998479E+02 0.  0.
         12    1    1    2    0    0  0.40708347979E+02  0.13588835713E+02  0.64650794004E+01  0.43400729289E+02  0.00000000000E+00 0. -1.
         11    1    3    3    0    0 -0.80321321572E+00  0.42395804653E+00 -0.31818394306E+01  0.33089264601E+01  0.51100000000E-03 0. -1.
        -11    1    3    3    0    0 -0.74412550824E+01 -0.86993198177E+01 -0.36908399403E+00  0.11453674771E+02  0.51100000000E-03 0.  1.
         12    1    3    3    0    0 -0.32463879680E+02 -0.53134739419E+01 -0.29141559758E+01  0.33024669480E+02  0.00000000000E+00 0. -1.
</event>
<event>
 7    1  0.8440037E-011  0.4778727E+02  0.7816164E-02  0.1312668E+00
        -11   -1    0    0    0    0  0.00000000000E+00  0.00000000000E+00  0.45593999997E+02  0.45594000000E+02  0.51100000000E-03 0. -1.
         11   -1    0    0    0    0 -0.00000000000E+00 -0.00000000000E+00 -0.45593999997E+02  0.45594000000E+02  0.51100000000E-03 0.  1.
    9900012    2    1    2    0    0  0.76774144575E+01 -0.23279884935E+02 -0.35815185744E+02  0.47787271144E+02  0.20000000455E+02 0.  0.
         12    1    1    2    0    0 -0.76774144575E+01  0.23279884935E+02  0.35815185744E+02  0.43400728856E+02  0.00000000000E+00 0. -1.
         11    1    3    3    0    0  0.50839073400E+00 -0.22234954643E+02 -0.21278818283E+02  0.30780509692E+02  0.51100000000E-03 0.  1.
        -11    1    3    3    0    0  0.82058615810E+00  0.35917552745E+00  0.18397183965E+00  0.91444770287E+00  0.51100000000E-03 0. -1.
        -12    1    3    3    0    0  0.63484375654E+01 -0.14041058189E+01 -0.14720339301E+02  0.16092313749E+02  0.00000000000E+00 0.  1.
</event>
<event>
 7    1  0.8440037E-011  0.4778727E+02  0.7816164E-02  0.1312668E+00
        -11   -1    0    0    0    0  0.00000000000E+00  0.00000000000E+00  0.45593999997E+02  0.45594000000E+02  0.51100000000E-03 0. -1.
         11   -1    0    0    0    0 -0.00000000000E+00 -0.00000000000E+00 -0.45593999997E+02  0.45594000000E+02  0.51100000000E-03 0.  1.
    9900012    2    1    2    0    0 -0.20983359667E+02 -0.36117356307E+02 -0.11783835021E+02  0.47787267548E+02  0.19999984061E+02 0.  0.
         12    1    1    2    0    0  0.20983359667E+02  0.36117356307E+02  0.11783835021E+02  0.43400732452E+02  0.00000000000E+00 0. -1.
         11    1    3    3    0    0 -0.15069274549E+02 -0.20734060547E+02 -0.40561057352E+01  0.25950651171E+02  0.51100000000E-03 0. -1.
        -11    1    3    3    0    0 -0.91587036577E+01 -0.13109988203E+02 -0.79684386968E+01  0.17867558840E+02  0.51100000000E-03 0.  1.
         12    1    3    3    0    0  0.32446185395E+01 -0.22733075565E+01  0.24070941094E+00  0.39690575373E+01  0.00000000000E+00 0. -1.
</event>
<event>
 7    1  0.8440037E-011  0.4778727E+02  0.7816164E-02  0.1312668E+00
        -11   -1    0    0    0    0  0.00000000000E+00  0.00000000000E+00  0.45593999997E+02  0.45594000000E+02  0.51100000000E-03 0. -1.
         11   -1    0    0    0    0 -0.00000000000E+00 -0.00000000000E+00 -0.45593999997E+02  0.45594000000E+02  0.51100000000E-03 0.  1.
    9900012    2    1    2    0    0  0.34657062064E+02  0.16068546499E+02  0.20598860703E+02  0.47787271898E+02  0.20000003893E+02 0.  0.
        -12    1    1    2    0    0 -0.34657062064E+02 -0.16068546499E+02 -0.20598860703E+02  0.43400728102E+02  0.00000000000E+00 0.  1.
         11    1    3    3    0    0  0.63271770176E+01  0.81988600174E+01  0.16407681747E+01  0.10485542192E+02  0.51100000000E-03 0.  1.
        -11    1    3    3    0    0  0.13402506321E+02  0.65659472003E+01  0.26552367932E+01  0.15158796819E+02  0.51100000000E-03 0. -1.
        -12    1    3    3    0    0  0.14927378726E+02  0.13037392816E+01  0.16302855735E+02  0.22142932887E+02  0.00000000000E+00 0.  1.
</event>
<event>
 7    1  0.8440037E-011  0.4778727E+02  0.7816164E-02  0.1312668E+00
        -11   -1    0    0    0    0  0.00000000000E+00  0.00000000000E+00  0.45593999997E+02  0.45594000000E+02  0.51100000000E-03 0. -1.
         11   -1    0    0    0    0 -0.00000000000E+00 -0.00000000000E+00 -0.45593999997E+02  0.45594000000E+02  0.51100000000E-03 0.  1.
    9900012    2    1    2    0    0 -0.10140313862E+02  0.29740770899E+02 -0.29937996562E+02  0.47787273542E+02  0.20000011390E+02 0.  0.
         12    1    1    2    0    0  0.10140313862E+02 -0.29740770899E+02  0.29937996562E+02  0.43400726458E+02  0.00000000000E+00 0. -1.
         11    1    3    3    0    0 -0.56697039140E+01  0.13891814664E+02 -0.56434648792E+01  0.16030494479E+02  0.51100000000E-03 0. -1.
        -11    1    3    3    0    0 -0.14894943163E+01  0.16371410973E+02 -0.16052420701E+02  0.22976551116E+02  0.51100000000E-03 0.  1.
         12    1    3    3    0    0 -0.29811156320E+01 -0.52245473869E+00 -0.82421109819E+01  0.87802279471E+01  0.00000000000E+00 0. -1.
</event>
<event>
 7    1  0.8440037E-011  0.4778727E+02  0.7816164E-02  0.1312668E+00
        -11   -1    0    0    0    0  0.00000000000E+00  0.00000000000E+00  0.45593999997E+02  0.45594000000E+02  0.51100000000E-03 0. -1.
         11   -1    0    0    0    0 -0.00000000000E+00 -0.00000000000E+00 -0.45593999997E+02  0.45594000000E+02  0.51100000000E-03 0.  1.
    9900012    2    1    2    0    0 -0.66052429118E+01  0.18215495461E+02 -0.38835420422E+02  0.47787269728E+02  0.19999993996E+02 0.  0.
         12    1    1    2    0    0  0.66052429118E+01 -0.18215495461E+02  0.38835420422E+02  0.43400730272E+02  0.00000000000E+00 0. -1.
         11    1    3    3    0    0 -0.54998772642E+01  0.15499941464E+01 -0.96364349545E+01  0.11203214301E+02  0.51100000000E-03 0. -1.
        -11    1    3    3    0    0 -0.53054114623E+01  0.16048988954E+02 -0.18425144322E+02  0.25004067284E+02  0.51100000000E-03 0.  1.
         12    1    3    3    0    0  0.42000458148E+01  0.61651236074E+00 -0.10773841146E+02  0.11579988142E+02  0.00000000000E+00 0. -1.
</event>
<event>
 7    1  0.8440037E-011  0.4778727E+02  0.7816164E-02  0.1312668E+00
        -11   -1    0    0    0    0  0.00000000000E+00  0.00000000000E+00  0.45593999997E+02  0.45594000000E+02  0.51100000000E-03 0. -1.
         11   -1    0    0    0    0 -0.00000000000E+00 -0.00000000000E+00 -0.45593999997E+02  0.45594000000E+02  0.51100000000E-03 0.  1.
    9900012    2    1    2    0    0 -0.36005691779E+02 -0.52470239165E+01  0.23657603754E+02  0.47787270560E+02  0.19999997793E+02 0.  0.
        -12    1    1    2    0    0  0.36005691779E+02  0.52470239165E+01 -0.23657603754E+02  0.43400729440E+02  0.00000000000E+00 0.  1.
         11    1    3    3    0    0 -0.60786556798E+00 -0.16996477646E+01  0.21829696327E+01  0.28326065295E+01  0.51100000000E-03 0. -1.
        -11    1    3    3    0    0 -0.40560171872E+01 -0.51905234447E-02 -0.29888241845E+01  0.50382906457E+01  0.51100000000E-03 0.  1.
         12    1    3    3    0    0 -0.31341809024E+02 -0.35421856284E+01  0.24463458306E+02  0.39916373385E+02  0.00000000000E+00 0. -1.
</event>
<event>
 7    1  0.8440037E-011  0.4778727E+02  0.7816164E-02  0.1312668E+00
        -11   -1    0    0    0    0  0.00000000000E+00  0.00000000000E+00  0.45593999997E+02  0.45594000000E+02  0.51100000000E-03 0. -1.
         11   -1    0    0    0    0 -0.00000000000E+00 -0.00000000000E+00 -0.45593999997E+02  0.45594000000E+02  0.51100000000E-03 0.  1.
    9900012    2    1    2    0    0  0.17595891934E+02  0.62035618351E+01  0.39185757724E+02  0.47787271886E+02  0.20000003837E+02 0.  0.
        -12    1    1    2    0    0 -0.17595891934E+02 -0.62035618351E+01 -0.39185757724E+02  0.43400728114E+02  0.00000000000E+00 0.  1.
         11    1    3    3    0    0  0.14923259448E+00  0.17891292284E+01  0.97266119598E+01  0.98909167543E+01  0.51100000000E-03 0. -1.
        -11    1    3    3    0    0  0.14340813233E+02  0.97889251395E+01  0.19039836989E+02  0.25768146468E+02  0.51100000000E-03 0.  1.
        -12    1    3    3    0    0  0.31058461064E+01 -0.53744925328E+01  0.10419308776E+02  0.12128208663E+02  0.00000000000E+00 0.  1.
</event>
<event>
 7    1  0.8440037E-011  0.4778727E+02  0.7816164E-02  0.1312668E+00
        -11   -1    0    0    0    0  0.00000000000E+00  0.00000000000E+00  0.45593999997E+02  0.45594000000E+02  0.51100000000E-03 0. -1.
         11   -1    0    0    0    0 -0.00000000000E+00 -0.00000000000E+00 -0.45593999997E+02  0.45594000000E+02  0.51100000000E-03 0.  1.
    9900012    2    1    2    0    0 -0.33522982885E+02  0.27411127481E+02  0.29091166943E+01  0.47787271306E+02  0.20000001191E+02 0.  0.
        -12    1    1    2    0    0  0.33522982885E+02 -0.27411127481E+02 -0.29091166943E+01  0.43400728694E+02  0.00000000000E+00 0.  1.
         11    1    3    3    0    0 -0.29283102890E+01  0.51972658047E+01  0.36009400213E+00  0.59763066308E+01  0.51100000000E-03 0. -1.
        -11    1    3    3    0    0 -0.17261211941E+02  0.14617114298E+02  0.10025227010E+02  0.24740950768E+02  0.51100000000E-03 0.  1.
         12    1    3    3    0    0 -0.13333460655E+02  0.75967473783E+01 -0.74762043178E+01  0.17070013907E+02  0.00000000000E+00 0. -1.
</event>
<event>
 7    1  0.8440037E-011  0.4778727E+02  0.7816164E-02  0.1312668E+00
        -11   -1    0    0    0    0  0.00000000000E+00  0.00000000000E+00  0.45593999997E+02  0.45594000000E+02  0.51100000000E-03 0. -1.
         11   -1    0    0    0    0 -0.00000000000E+00 -0.00000000000E+00 -0.45593999997E+02  0.45594000000E+02  0.51100000000E-03 0.  1.
    9900012    2    1    2    0    0  0.38813485491E+02  0.34554068409E+01  0.19110113969E+02  0.47787274795E+02  0.20000017100E+02 0.  0.
        -12    1    1    2    0    0 -0.38813485491E+02 -0.34554068409E+01 -0.19110113969E+02  0.43400725205E+02  0.00000000000E+00 0.  1.
         11    1    3    3    0    0  0.11880032061E+02  0.49016680927E+01  0.48950817884E+01  0.13752212107E+02  0.51100000000E-03 0. -1.
        -11    1    3    3    0    0  0.37626915296E+01  0.59964096867E+00 -0.32013059080E+01  0.49765225425E+01  0.51100000000E-03 0.  1.
         12    1    3    3    0    0  0.23170761901E+02 -0.20459022205E+01  0.17416338089E+02  0.29058540145E+02  0.00000000000E+00 0. -1.
</event>
<event>
 7    1  0.8440037E-011  0.4778727E+02  0.7816164E-02  0.1312668E+00
        -11   -1    0    0    0    0  0.00000000000E+00  0.00000000000E+00  0.45593999997E+02  0.45594000000E+02  0.51100000000E-03 0. -1.
         11   -1    0    0    0    0 -0.00000000000E+00 -0.00000000000E+00 -0.45593999997E+02  0.45594000000E+02  0.51100000000E-03 0.  1.
    9900012    2    1    2    0    0  0.24438436310E+02  0.11206297226E+02 -0.34070589667E+02  0.47787270201E+02  0.19999996156E+02 0.  0.
         12    1    1    2    0    0 -0.24438436310E+02 -0.11206297226E+02  0.34070589667E+02  0.43400729799E+02  0.00000000000E+00 0. -1.
         11    1    3    3    0    0  0.33270382452E+01  0.21765736636E+01  0.69517418617E-01  0.39763663477E+01  0.51100000000E-03 0. -1.
        -11    1    3    3    0    0  0.10697693447E+02  0.43589518344E+01 -0.51359274315E+01  0.12641948308E+02  0.51100000000E-03 0.  1.
        -12    1    3    3    0    0  0.10413704618E+02  0.46707717282E+01 -0.29004179654E+02  0.31168955546E+02  0.00000000000E+00 0.  1.
</event>
<event>
 7    1  0.8440037E-011  0.4778727E+02  0.7816164E-02  0.1312668E+00
        -11   -1    0    0    0    0  0.00000000000E+00  0.00000000000E+00  0.45593999997E+02  0.45594000000E+02  0.51100000000E-03 0. -1.
         11   -1    0    0    0    0 -0.00000000000E+00 -0.00000000000E+00 -0.45593999997E+02  0.45594000000E+02  0.51100000000E-03 0.  1.
    9900012    2    1    2    0    0  0.19666964538E+01  0.10146506218E+02  0.42152151961E+02  0.47787269611E+02  0.19999993465E+02 0.  0.
        -12    1    1    2    0    0 -0.19666964538E+01 -0.10146506218E+02 -0.42152151961E+02  0.43400730389E+02  0.00000000000E+00 0.  1.
         11    1    3    3    0    0  0.17116949788E+01  0.99649345956E+01  0.19275426153E+02  0.21766301359E+02  0.51100000000E-03 0. -1.
        -11    1    3    3    0    0  0.71618404512E+00  0.44163417236E+01  0.20811405972E+02  0.21286888279E+02  0.51100000000E-03 0.  1.
        -12    1    3    3    0    0 -0.46118257012E+00 -0.42347701014E+01  0.20653198360E+01  0.47340799740E+01  0.00000000000E+00 0.  1.
</event>
<event>
 7    1  0.8440037E-011  0.4778727E+02  0.7816164E-02  0.1312668E+00
        -11   -1    0    0    0    0  0.00000000000E+00  0.00000000000E+00  0.45593999997E+02  0.45594000000E+02  0.51100000000E-03 0. -1.
         11   -1    0    0    0    0 -0.00000000000E+00 -0.00000000000E+00 -0.45593999997E+02  0.45594000000E+02  0.51100000000E-03 0.  1.
    9900012    2    1    2    0    0 -0.35475064630E+02  0.20661439301E+02 -0.14080058004E+02  0.47787270538E+02  0.19999997689E+02 0.  0.
         12    1    1    2    0    0  0.35475064630E+02 -0.20661439301E+02  0.14080058004E+02  0.43400729462E+02  0.00000000000E+00 0. -1.
         11    1    3    3    0    0 -0.17983394088E+02  0.12666828765E+02 -0.13882737275E+02  0.26011178527E+02  0.51100000000E-03 0.  1.
        -11    1    3    3    0    0 -0.10749855600E+02  0.18304097793E+01 -0.43515842538E+01  0.11740787075E+02  0.51100000000E-03 0. -1.
         12    1    3    3    0    0 -0.67418149427E+01  0.61642007568E+01  0.41542635254E+01  0.10035304935E+02  0.00000000000E+00 0. -1.
</event>
<event>
 7    1  0.8440037E-011  0.4778727E+02  0.7816164E-02  0.1312668E+00
        -11   -1    0    0    0    0  0.00000000000E+00  0.00000000000E+00  0.45593999997E+02  0.45594000000E+02  0.51100000000E-03 0. -1.
         11   -1    0    0    0    0 -0.00000000000E+00 -0.00000000000E+00 -0.45593999997E+02  0.45594000000E+02  0.51100000000E-03 0.  1.
    9900012    2    1    2    0    0 -0.13872514204E+02  0.29703319406E+02 -0.28440983100E+02  0.47787270124E+02  0.19999995802E+02 0.  0.
         12    1    1    2    0    0  0.13872514204E+02 -0.29703319406E+02  0.28440983100E+02  0.43400729876E+02  0.00000000000E+00 0. -1.
         11    1    3    3    0    0 -0.94019580579E+01  0.11769829345E+02 -0.18752536948E+02  0.24053759381E+02  0.51100000000E-03 0. -1.
        -11    1    3    3    0    0  0.32711514915E-01  0.16979307168E+02 -0.67470699118E+01  0.18270766120E+02  0.51100000000E-03 0.  1.
         12    1    3    3    0    0 -0.45032676608E+01  0.95418289294E+00 -0.29413762407E+01  0.54627446222E+01  0.00000000000E+00 0. -1.
</event>
<event>
 7    1  0.8440037E-011  0.4778725E+02  0.7816164E-02  0.1312668E+00
        -11   -1    0    0    0    0  0.00000000000E+00  0.00000000000E+00  0.45593999997E+02  0.45594000000E+02  0.51100000000E-03 0. -1.
         11   -1    0    0    0    0 -0.00000000000E+00 -0.00000000000E+00 -0.45593999997E+02  0.45594000000E+02  0.51100000000E-03 0.  1.
    9900012    2    1    2    0    0  0.11348115766E+02 -0.15760967046E+02 -0.38812851366E+02  0.47787248338E+02  0.19999896472E+02 0.  0.
         12    1    1    2    0    0 -0.11348115766E+02  0.15760967046E+02  0.38812851366E+02  0.43400751662E+02  0.00000000000E+00 0. -1.
         11    1    3    3    0    0  0.37962801335E+01 -0.34177016963E+01 -0.24245248177E+01  0.56542681746E+01  0.51100000000E-03 0. -1.
        -11    1    3    3    0    0  0.60424234578E+01  0.15322584573E+01 -0.17990947289E+02  0.19040296265E+02  0.51100000000E-03 0.  1.
         12    1    3    3    0    0  0.15094121744E+01 -0.13875523807E+02 -0.18397379259E+02  0.23092683899E+02  0.00000000000E+00 0. -1.
</event>
<event>
 7    1  0.8440037E-011  0.4778727E+02  0.7816164E-02  0.1312668E+00
        -11   -1    0    0    0    0  0.00000000000E+00  0.00000000000E+00  0.45593999997E+02  0.45594000000E+02  0.51100000000E-03 0. -1.
         11   -1    0    0    0    0 -0.00000000000E+00 -0.00000000000E+00 -0.45593999997E+02  0.45594000000E+02  0.51100000000E-03 0.  1.
    9900012    2    1    2    0    0 -0.38471986996E+02  0.10045962873E+01  0.20062909959E+02  0.47787270132E+02  0.19999995838E+02 0.  0.
        -12    1    1    2    0    0  0.38471986996E+02 -0.10045962873E+01 -0.20062909959E+02  0.43400729868E+02  0.00000000000E+00 0.  1.
         11    1    3    3    0    0 -0.55438552669E+01  0.64399918254E+00  0.11430886623E+01  0.56969920238E+01  0.51100000000E-03 0. -1.
        -11    1    3    3    0    0 -0.49203377503E+01 -0.29071357460E+01  0.11640999203E+02  0.12968192801E+02  0.51100000000E-03 0.  1.
        -12    1    3    3    0    0 -0.28007793978E+02  0.32677328508E+01  0.72788220932E+01  0.29122085306E+02  0.00000000000E+00 0.  1.
</event>
<event>
 7    1  0.8440037E-011  0.4778727E+02  0.7816164E-02  0.1312668E+00
        -11   -1    0    0    0    0  0.00000000000E+00  0.00000000000E+00  0.45593999997E+02  0.45594000000E+02  0.51100000000E-03 0. -1.
         11   -1    0    0    0    0 -0.00000000000E+00 -0.00000000000E+00 -0.45593999997E+02  0.45594000000E+02  0.51100000000E-03 0.  1.
    9900012    2    1    2    0    0  0.45597803381E+01  0.52127482027E+01 -0.42844592483E+02  0.47787269066E+02  0.19999990978E+02 0.  0.
         12    1    1    2    0    0 -0.45597803381E+01 -0.52127482027E+01  0.42844592483E+02  0.43400730934E+02  0.00000000000E+00 0. -1.
         11    1    3    3    0    0 -0.33341737227E+01 -0.18208223651E+01 -0.15105702789E+02  0.15576083124E+02  0.51100000000E-03 0. -1.
        -11    1    3    3    0    0  0.34072194996E+00  0.50941100750E+01 -0.21851731097E+02  0.22440236209E+02  0.51100000000E-03 0.  1.
         12    1    3    3    0    0  0.75532321109E+01  0.19394604927E+01 -0.58871585980E+01  0.97709497328E+01  0.00000000000E+00 0. -1.
</event>
<event>
 7    1  0.8440037E-011  0.4778727E+02  0.7816164E-02  0.1312668E+00
        -11   -1    0    0    0    0  0.00000000000E+00  0.00000000000E+00  0.45593999997E+02  0.45594000000E+02  0.51100000000E-03 0. -1.
         11   -1    0    0    0    0 -0.00000000000E+00 -0.00000000000E+00 -0.45593999997E+02  0.45594000000E+02  0.51100000000E-03 0.  1.
    9900012    2    1    2    0    0 -0.13364605599E+02 -0.23915489415E+02  0.33660960807E+02  0.47787267296E+02  0.19999982910E+02 0.  0.
        -12    1    1    2    0    0  0.13364605599E+02  0.23915489415E+02 -0.33660960807E+02  0.43400732704E+02  0.00000000000E+00 0.  1.
         11    1    3    3    0    0 -0.78664497792E+01 -0.66914116088E+01  0.16070231129E+02  0.19102574441E+02  0.51100000000E-03 0. -1.
        -11    1    3    3    0    0 -0.99683881434E+01 -0.12627839851E+02  0.10996449212E+02  0.19487252167E+02  0.51100000000E-03 0.  1.
         12    1    3    3    0    0  0.44702323233E+01 -0.45962379554E+01  0.65942804650E+01  0.91974406885E+01  0.00000000000E+00 0. -1.
</event>
<event>
 7    1  0.8440037E-011  0.4778727E+02  0.7816164E-02  0.1312668E+00
        -11   -1    0    0    0    0  0.00000000000E+00  0.00000000000E+00  0.45593999997E+02  0.45594000000E+02  0.51100000000E-03 0.  1.
         11   -1    0    0    0    0 -0.00000000000E+00 -0.00000000000E+00 -0.45593999997E+02  0.45594000000E+02  0.51100000000E-03 0. -1.
    9900012    2    1    2    0    0  0.40080177222E+02 -0.70720981654E+01 -0.15072774068E+02  0.47787266173E+02  0.19999977788E+02 0.  0.
         12    1    1    2    0    0 -0.40080177222E+02  0.70720981654E+01  0.15072774068E+02  0.43400733827E+02  0.00000000000E+00 0. -1.
         11    1    3    3    0    0  0.97192694698E+01 -0.28507201269E+01 -0.76322223840E+01  0.12682335079E+02  0.51100000000E-03 0. -1.
        -11    1    3    3    0    0  0.28910080263E+02  0.90500021308E+00 -0.55512438482E+01  0.29452131922E+02  0.51100000000E-03 0.  1.
        -12    1    3    3    0    0  0.14508274893E+01 -0.51263782515E+01 -0.18893078361E+01  0.56527991721E+01  0.00000000000E+00 0.  1.
</event>
<event>
 7    1  0.8440037E-011  0.4778726E+02  0.7816164E-02  0.1312668E+00
        -11   -1    0    0    0    0  0.00000000000E+00  0.00000000000E+00  0.45593999997E+02  0.45594000000E+02  0.51100000000E-03 0. -1.
         11   -1    0    0    0    0 -0.00000000000E+00 -0.00000000000E+00 -0.45593999997E+02  0.45594000000E+02  0.51100000000E-03 0.  1.
    9900012    2    1    2    0    0  0.42137594436E+02  0.70126656448E+01 -0.76726491382E+01  0.47787263957E+02  0.19999967683E+02 0.  0.
        -12    1    1    2    0    0 -0.42137594436E+02 -0.70126656448E+01  0.76726491382E+01  0.43400736043E+02  0.00000000000E+00 0.  1.
         11    1    3    3    0    0 -0.70092687490E+00 -0.22895881471E+00 -0.16494963786E+01  0.18068091175E+01  0.51100000000E-03 0. -1.
        -11    1    3    3    0    0  0.21603666117E+02  0.10344403855E+02 -0.51641388515E+01  0.24502926583E+02  0.51100000000E-03 0.  1.
         12    1    3    3    0    0  0.21234855194E+02 -0.31027793950E+01 -0.85901390808E+00  0.21477528256E+02  0.00000000000E+00 0. -1.
</event>
<event>
 7    1  0.8440037E-011  0.4778727E+02  0.7816164E-02  0.1312668E+00
        -11   -1    0    0    0    0  0.00000000000E+00  0.00000000000E+00  0.45593999997E+02  0.45594000000E+02  0.51100000000E-03 0. -1.
         11   -1    0    0    0    0 -0.00000000000E+00 -0.00000000000E+00 -0.45593999997E+02  0.45594000000E+02  0.51100000000E-03 0.  1.
    9900012    2    1    2    0    0  0.32364037500E+02 -0.59226066152E+01  0.28303973957E+02  0.47787272653E+02  0.20000007336E+02 0.  0.
        -12    1    1    2    0    0 -0.32364037500E+02  0.59226066152E+01 -0.28303973957E+02  0.43400727347E+02  0.00000000000E+00 0.  1.
         11    1    3    3    0    0  0.10485514841E+00 -0.76143676421E+00 -0.75691409329E+00  0.10787491617E+01  0.51100000000E-03 0. -1.
        -11    1    3    3    0    0  0.97370440247E+01 -0.93286189637E+01  0.85813035290E+01  0.15983489251E+02  0.51100000000E-03 0.  1.
         12    1    3    3    0    0  0.22522138327E+02  0.41674491127E+01  0.20479584522E+02  0.30725034241E+02  0.00000000000E+00 0. -1.
</event>
<event>
 7    1  0.8440037E-011  0.4778727E+02  0.7816164E-02  0.1312668E+00
        -11   -1    0    0    0    0  0.00000000000E+00  0.00000000000E+00  0.45593999997E+02  0.45594000000E+02  0.51100000000E-03 0. -1.
         11   -1    0    0    0    0 -0.00000000000E+00 -0.00000000000E+00 -0.45593999997E+02  0.45594000000E+02  0.51100000000E-03 0.  1.
    9900012    2    1    2    0    0 -0.87361072390E+01 -0.36812203854E+02 -0.21264184686E+02  0.47787268754E+02  0.19999989559E+02 0.  0.
         12    1    1    2    0    0  0.87361072390E+01  0.36812203854E+02  0.21264184686E+02  0.43400731246E+02  0.00000000000E+00 0. -1.
         11    1    3    3    0    0 -0.11500257208E+01  0.34299002219E+00 -0.52867732680E+01  0.54212704380E+01  0.51100000000E-03 0. -1.
        -11    1    3    3    0    0  0.14446903959E+01 -0.12930683987E+02 -0.81543115395E+01  0.15355211352E+02  0.51100000000E-03 0.  1.
        -12    1    3    3    0    0 -0.90307719140E+01 -0.24224509890E+02 -0.78230998783E+01  0.27010786965E+02  0.00000000000E+00 0.  1.
</event>
<event>
 7    1  0.8440037E-011  0.4778727E+02  0.7816164E-02  0.1312668E+00
        -11   -1    0    0    0    0  0.00000000000E+00  0.00000000000E+00  0.45593999997E+02  0.45594000000E+02  0.51100000000E-03 0. -1.
         11   -1    0    0    0    0 -0.00000000000E+00 -0.00000000000E+00 -0.45593999997E+02  0.45594000000E+02  0.51100000000E-03 0.  1.
    9900012    2    1    2    0    0  0.18203337935E+01 -0.14833796447E+02 -0.40746386830E+02  0.47787272220E+02  0.20000005361E+02 0.  0.
         12    1    1    2    0    0 -0.18203337935E+01  0.14833796447E+02  0.40746386830E+02  0.43400727780E+02  0.00000000000E+00 0. -1.
         11    1    3    3    0    0  0.30772926107E+01 -0.35057364695E+01 -0.49325223513E+01  0.67889391669E+01  0.51100000000E-03 0. -1.
        -11    1    3    3    0    0  0.67442322208E+01 -0.90485945390E+00 -0.11581162134E+02  0.13432302689E+02  0.51100000000E-03 0.  1.
        -12    1    3    3    0    0 -0.80011910380E+01 -0.10423200523E+02 -0.24232702344E+02  0.27566030365E+02  0.00000000000E+00 0.  1.
</event>
<event>
 7    1  0.8440037E-011  0.4778727E+02  0.7816164E-02  0.1312668E+00
        -11   -1    0    0    0    0  0.00000000000E+00  0.00000000000E+00  0.45593999997E+02  0.45594000000E+02  0.51100000000E-03 0.  1.
         11   -1    0    0    0    0 -0.00000000000E+00 -0.00000000000E+00 -0.45593999997E+02  0.45594000000E+02  0.51100000000E-03 0. -1.
    9900012    2    1    2    0    0  0.17504387608E+02 -0.28427530980E+02 -0.27732568686E+02  0.47787268796E+02  0.19999989746E+02 0.  0.
         12    1    1    2    0    0 -0.17504387608E+02  0.28427530980E+02  0.27732568686E+02  0.43400731204E+02  0.00000000000E+00 0. -1.
         11    1    3    3    0    0 -0.20382528392E+01 -0.66776519559E+01 -0.68964102657E+01  0.98135612850E+01  0.51100000000E-03 0.  1.
        -11    1    3    3    0    0  0.14696423661E+00 -0.41195111308E+00  0.14596090538E+01  0.15237326070E+01  0.51100000000E-03 0. -1.
        -12    1    3    3    0    0  0.19395676211E+02 -0.21337927911E+02 -0.22295767474E+02  0.36449974904E+02  0.00000000000E+00 0.  1.
</event>
<event>
 7    1  0.8440037E-011  0.4778727E+02  0.7816164E-02  0.1312668E+00
        -11   -1    0    0    0    0  0.00000000000E+00  0.00000000000E+00  0.45593999997E+02  0.45594000000E+02  0.51100000000E-03 0. -1.
         11   -1    0    0    0    0 -0.00000000000E+00 -0.00000000000E+00 -0.45593999997E+02  0.45594000000E+02  0.51100000000E-03 0.  1.
    9900012    2    1    2    0    0 -0.36580877111E+02  0.43121197283E+01  0.22953620986E+02  0.47787266560E+02  0.19999979552E+02 0.  0.
        -12    1    1    2    0    0  0.36580877111E+02 -0.43121197283E+01 -0.22953620986E+02  0.43400733440E+02  0.00000000000E+00 0.  1.
         11    1    3    3    0    0 -0.14976932361E+01  0.66766375564E+00  0.61774290029E+01  0.63913605177E+01  0.51100000000E-03 0. -1.
        -11    1    3    3    0    0 -0.14671766223E+00  0.27100198546E+01  0.23373663456E+01  0.35817614911E+01  0.51100000000E-03 0.  1.
        -12    1    3    3    0    0 -0.34936466213E+02  0.93443611803E+00  0.14438825638E+02  0.37814144551E+02  0.00000000000E+00 0.  1.
</event>
<event>
 7    1  0.8440037E-011  0.4778725E+02  0.7816164E-02  0.1312668E+00
        -11   -1    0    0    0    0  0.00000000000E+00  0.00000000000E+00  0.45593999997E+02  0.45594000000E+02  0.51100000000E-03 0. -1.
         11   -1    0    0    0    0 -0.00000000000E+00 -0.00000000000E+00 -0.45593999997E+02  0.45594000000E+02  0.51100000000E-03 0.  1.
    9900012    2    1    2    0    0 -0.29260478749E+02 -0.57493848222E+01 -0.31534007954E+02  0.47787254614E+02  0.19999925085E+02 0.  0.
         12    1    1    2    0    0  0.29260478749E+02  0.57493848222E+01  0.31534007954E+02  0.43400745386E+02  0.00000000000E+00 0. -1.
         11    1    3    3    0    0  0.48517835512E+00 -0.26263008887E+01  0.10727905948E+00  0.26728942089E+01  0.51100000000E-03 0. -1.
        -11    1    3    3    0    0 -0.64621977674E+01 -0.51213892549E+01 -0.12150171353E+02  0.14683844594E+02  0.51100000000E-03 0.  1.
        -12    1    3    3    0    0 -0.23283459336E+02  0.19983053214E+01 -0.19491115661E+02  0.30430515811E+02  0.00000000000E+00 0.  1.
</event>
<event>
 7    1 -0.8440037E-011  0.4778727E+02  0.7816164E-02  0.1312668E+00
        -11   -1    0    0    0    0  0.00000000000E+00  0.00000000000E+00  0.45593999997E+02  0.45594000000E+02  0.51100000000E-03 0. -1.
         11   -1    0    0    0    0 -0.00000000000E+00 -0.00000000000E+00 -0.45593999997E+02  0.45594000000E+02  0.51100000000E-03 0.  1.
    9900012    2    1    2    0    0 -0.34167298200E+02  0.20068826645E+02  0.17704834688E+02  0.47787271429E+02  0.20000001753E+02 0.  0.
        -12    1    1    2    0    0  0.34167298200E+02 -0.20068826645E+02 -0.17704834688E+02  0.43400728571E+02  0.00000000000E+00 0.  1.
         11    1    3    3    0    0 -0.13402186397E+02  0.10967279850E+02  0.66709632751E+01  0.18558059672E+02  0.51100000000E-03 0. -1.
        -11    1    3    3    0    0 -0.19918256859E+02  0.44650975599E+01  0.12914306869E+02  0.24154779541E+02  0.51100000000E-03 0.  1.
        -12    1    3    3    0    0 -0.84685494479E+00  0.46364492346E+01 -0.18804354565E+01  0.50744322154E+01  0.00000000000E+00 0.  1.
</event>
<event>
 7    1  0.8440037E-011  0.4778727E+02  0.7816164E-02  0.1312668E+00
        -11   -1    0    0    0    0  0.00000000000E+00  0.00000000000E+00  0.45593999997E+02  0.45594000000E+02  0.51100000000E-03 0. -1.
         11   -1    0    0    0    0 -0.00000000000E+00 -0.00000000000E+00 -0.45593999997E+02  0.45594000000E+02  0.51100000000E-03 0.  1.
    9900012    2    1    2    0    0  0.10362389456E+01 -0.20762064751E+02  0.38098374730E+02  0.47787270963E+02  0.19999999629E+02 0.  0.
        -12    1    1    2    0    0 -0.10362389456E+01  0.20762064751E+02 -0.38098374730E+02  0.43400729037E+02  0.00000000000E+00 0.  1.
         11    1    3    3    0    0 -0.28660439844E+01 -0.13677847441E+02  0.16111258365E+02  0.21327690102E+02  0.51100000000E-03 0. -1.
        -11    1    3    3    0    0 -0.22958839518E+01 -0.47205066811E+01  0.17932494180E+02  0.18684983656E+02  0.51100000000E-03 0.  1.
         12    1    3    3    0    0  0.61981668818E+01 -0.23637106290E+01  0.40546221853E+01  0.77745972049E+01  0.00000000000E+00 0. -1.
</event>
<event>
 7    1  0.8440037E-011  0.4778728E+02  0.7816164E-02  0.1312668E+00
        -11   -1    0    0    0    0  0.00000000000E+00  0.00000000000E+00  0.45593999997E+02  0.45594000000E+02  0.51100000000E-03 0. -1.
         11   -1    0    0    0    0 -0.00000000000E+00 -0.00000000000E+00 -0.45593999997E+02  0.45594000000E+02  0.51100000000E-03 0.  1.
    9900012    2    1    2    0    0  0.14857117329E+02  0.17555926313E+02 -0.36805947397E+02  0.47787282865E+02  0.20000053894E+02 0.  0.
         12    1    1    2    0    0 -0.14857117329E+02 -0.17555926313E+02  0.36805947397E+02  0.43400717135E+02  0.00000000000E+00 0. -1.
         11    1    3    3    0    0  0.27331811362E+01  0.34176769698E+01  0.10189080798E+01  0.44932136528E+01  0.51100000000E-03 0. -1.
        -11    1    3    3    0    0  0.51988583090E+01  0.41497074165E+01 -0.50909723965E+01  0.83765267004E+01  0.51100000000E-03 0.  1.
        -12    1    3    3    0    0  0.69250778834E+01  0.99885419270E+01 -0.32733883081E+02  0.34917542512E+02  0.00000000000E+00 0.  1.
</event>
<event>
 7    1  0.8440037E-011  0.4778726E+02  0.7816164E-02  0.1312668E+00
        -11   -1    0    0    0    0  0.00000000000E+00  0.00000000000E+00  0.45593999997E+02  0.45594000000E+02  0.51100000000E-03 0. -1.
         11   -1    0    0    0    0 -0.00000000000E+00 -0.00000000000E+00 -0.45593999997E+02  0.45594000000E+02  0.51100000000E-03 0.  1.
    9900012    2    1    2    0    0  0.26346480755E+01 -0.39582814113E+02  0.17603508646E+02  0.47787261985E+02  0.19999958693E+02 0.  0.
        -12    1    1    2    0    0 -0.26346480755E+01  0.39582814113E+02 -0.17603508646E+02  0.43400738015E+02  0.00000000000E+00 0.  1.
         11    1    3    3    0    0 -0.33869747153E+01 -0.16773470282E+02  0.11844929639E+02  0.20811613619E+02  0.51100000000E-03 0. -1.
        -11    1    3    3    0    0 -0.35795313900E+01 -0.55709037658E+01  0.14019281417E+01  0.67685608895E+01  0.51100000000E-03 0.  1.
         12    1    3    3    0    0  0.96011541807E+01 -0.17238440066E+02  0.43566508652E+01  0.20207087476E+02  0.00000000000E+00 0. -1.
</event>
<event>
 7    1  0.8440037E-011  0.4778727E+02  0.7816164E-02  0.1312668E+00
        -11   -1    0    0    0    0  0.00000000000E+00  0.00000000000E+00  0.45593999997E+02  0.45594000000E+02  0.51100000000E-03 0. -1.
         11   -1    0    0    0    0 -0.00000000000E+00 -0.00000000000E+00 -0.45593999997E+02  0.45594000000E+02  0.51100000000E-03 0.  1.
    9900012    2    1    2    0    0  0.71012175477E+01  0.34025396733E+02  0.25989775663E+02  0.47787270139E+02  0.19999995871E+02 0.  0.
        -12    1    1    2    0    0 -0.71012175477E+01 -0.34025396733E+02 -0.25989775663E+02  0.43400729861E+02  0.00000000000E+00 0.  1.
         11    1    3    3    0    0  0.58185014516E+01  0.63609871941E+01  0.10822847634E+02  0.13836587311E+02  0.51100000000E-03 0. -1.
        -11    1    3    3    0    0  0.51975471944E+01  0.12835519691E+02  0.11924949415E+02  0.18274831912E+02  0.51100000000E-03 0.  1.
        -12    1    3    3    0    0 -0.39148310983E+01  0.14828889847E+02  0.32419786137E+01  0.15675850916E+02  0.00000000000E+00 0.  1.
</event>
<event>
 7    1  0.8440037E-011  0.4778727E+02  0.7816164E-02  0.1312668E+00
        -11   -1    0    0    0    0  0.00000000000E+00  0.00000000000E+00  0.45593999997E+02  0.45594000000E+02  0.51100000000E-03 0. -1.
         11   -1    0    0    0    0 -0.00000000000E+00 -0.00000000000E+00 -0.45593999997E+02  0.45594000000E+02  0.51100000000E-03 0.  1.
    9900012    2    1    2    0    0 -0.27526578470E+02 -0.25039022724E+02  0.22337367366E+02  0.47787272332E+02  0.20000005870E+02 0.  0.
        -12    1    1    2    0    0  0.27526578470E+02  0.25039022724E+02 -0.22337367366E+02  0.43400727668E+02  0.00000000000E+00 0.  1.
         11    1    3    3    0    0 -0.90950482157E+01 -0.13254458962E+02  0.42445923534E+01  0.16625797693E+02  0.51100000000E-03 0.  1.
        -11    1    3    3    0    0 -0.95750541017E+01 -0.37852134885E+01  0.10414470754E+01  0.10348628628E+02  0.51100000000E-03 0. -1.
         12    1    3    3    0    0 -0.88564761531E+01 -0.79993502739E+01  0.17051327938E+02  0.20812846011E+02  0.00000000000E+00 0. -1.
</event>
<event>
 7    1  0.8440037E-011  0.4778727E+02  0.7816164E-02  0.1312668E+00
        -11   -1    0    0    0    0  0.00000000000E+00  0.00000000000E+00  0.45593999997E+02  0.45594000000E+02  0.51100000000E-03 0. -1.
         11   -1    0    0    0    0 -0.00000000000E+00 -0.00000000000E+00 -0.45593999997E+02  0.45594000000E+02  0.51100000000E-03 0.  1.
    9900012    2    1    2    0    0 -0.35792546354E+01 -0.18316796614E+02  0.39182999084E+02  0.47787268219E+02  0.19999987118E+02 0.  0.
        -12    1    1    2    0    0  0.35792546354E+01  0.18316796614E+02 -0.39182999084E+02  0.43400731781E+02  0.00000000000E+00 0.  1.
         11    1    3    3    0    0 -0.12991969400E+00 -0.12938551933E+02  0.32992884734E+02  0.35439433526E+02  0.51100000000E-03 0. -1.
        -11    1    3    3    0    0  0.27067218529E+01 -0.90937954461E+00  0.28677140223E+01  0.40468627750E+01  0.51100000000E-03 0.  1.
        -12    1    3    3    0    0 -0.61560567942E+01 -0.44688651360E+01  0.33224003268E+01  0.83009719183E+01  0.00000000000E+00 0.  1.
</event>
<event>
 7    1  0.8440037E-011  0.4778721E+02  0.7816164E-02  0.1312668E+00
        -11   -1    0    0    0    0  0.00000000000E+00  0.00000000000E+00  0.45593999997E+02  0.45594000000E+02  0.51100000000E-03 0. -1.
         11   -1    0    0    0    0 -0.00000000000E+00 -0.00000000000E+00 -0.45593999997E+02  0.45594000000E+02  0.51100000000E-03 0.  1.
    9900012    2    1    2    0    0 -0.51929553131E+00  0.35447511415E+02 -0.25036623578E+02  0.47787213676E+02  0.19999738432E+02 0.  0.
         12    1    1    2    0    0  0.51929553131E+00 -0.35447511415E+02  0.25036623578E+02  0.43400786324E+02  0.00000000000E+00 0. -1.
         11    1    3    3    0    0 -0.11796222453E+01  0.45198445582E+01 -0.82575724429E+01  0.94872549446E+01  0.51100000000E-03 0. -1.
        -11    1    3    3    0    0  0.36497107311E+01  0.28567457926E+01 -0.70574066705E+01  0.84432442886E+01  0.51100000000E-03 0.  1.
        -12    1    3    3    0    0 -0.29893840171E+01  0.28070921065E+02 -0.97216444644E+01  0.29856714443E+02  0.00000000000E+00 0.  1.
</event>
<event>
 7    1  0.8440037E-011  0.4778726E+02  0.7816164E-02  0.1312668E+00
        -11   -1    0    0    0    0  0.00000000000E+00  0.00000000000E+00  0.45593999997E+02  0.45594000000E+02  0.51100000000E-03 0.  1.
         11   -1    0    0    0    0 -0.00000000000E+00 -0.00000000000E+00 -0.45593999997E+02  0.45594000000E+02  0.51100000000E-03 0. -1.
    9900012    2    1    2    0    0  0.24200049937E+02  0.32982185314E+02  0.14496790296E+02  0.47787263901E+02  0.19999967431E+02 0.  0.
        -12    1    1    2    0    0 -0.24200049937E+02 -0.32982185314E+02 -0.14496790296E+02  0.43400736099E+02  0.00000000000E+00 0.  1.
         11    1    3    3    0    0  0.91042312199E+01  0.11520187872E+02  0.98992996073E+01  0.17708695256E+02  0.51100000000E-03 0. -1.
        -11    1    3    3    0    0  0.55062688975E-01  0.11635967605E+02  0.31471171499E+01  0.12054174407E+02  0.51100000000E-03 0.  1.
         12    1    3    3    0    0  0.15040756028E+02  0.98260298365E+01  0.14503735391E+01  0.18024394238E+02  0.00000000000E+00 0. -1.
</event>
<event>
 7    1  0.8440037E-011  0.4778727E+02  0.7816164E-02  0.1312668E+00
        -11   -1    0    0    0    0  0.00000000000E+00  0.00000000000E+00  0.45593999997E+02  0.45594000000E+02  0.51100000000E-03 0. -1.
         11   -1    0    0    0    0 -0.00000000000E+00 -0.00000000000E+00 -0.45593999997E+02  0.45594000000E+02  0.51100000000E-03 0.  1.
    9900012    2    1    2    0    0  0.26106261977E+02  0.11950086909E+01  0.34650515428E+02  0.47787272130E+02  0.20000004950E+02 0.  0.
        -12    1    1    2    0    0 -0.26106261977E+02 -0.11950086909E+01 -0.34650515428E+02  0.43400727870E+02  0.00000000000E+00 0.  1.
         11    1    3    3    0    0  0.12887661518E+02  0.82310067491E+01  0.11625048508E+02  0.19208931376E+02  0.51100000000E-03 0. -1.
        -11    1    3    3    0    0 -0.55393251768E+00  0.54245212121E+00  0.10105481040E+00  0.78186179967E+00  0.51100000000E-03 0.  1.
        -12    1    3    3    0    0  0.13772532977E+02 -0.75784501794E+01  0.22924412110E+02  0.27796478955E+02  0.00000000000E+00 0.  1.
</event>
<event>
 7    1  0.8440037E-011  0.4778727E+02  0.7816164E-02  0.1312668E+00
        -11   -1    0    0    0    0  0.00000000000E+00  0.00000000000E+00  0.45593999997E+02  0.45594000000E+02  0.51100000000E-03 0. -1.
         11   -1    0    0    0    0 -0.00000000000E+00 -0.00000000000E+00 -0.45593999997E+02  0.45594000000E+02  0.51100000000E-03 0.  1.
    9900012    2    1    2    0    0  0.11712475525E+02 -0.10943124347E+01  0.41776114775E+02  0.47787269956E+02  0.19999995040E+02 0.  0.
        -12    1    1    2    0    0 -0.11712475525E+02  0.10943124347E+01 -0.41776114775E+02  0.43400730044E+02  0.00000000000E+00 0.  1.
         11    1    3    3    0    0  0.84982421284E+01  0.32776885221E+01  0.25325150116E+02  0.26913316221E+02  0.51100000000E-03 0. -1.
        -11    1    3    3    0    0  0.22983025682E+01 -0.58528492037E+01  0.17665359709E+02  0.18751079233E+02  0.51100000000E-03 0.  1.
        -12    1    3    3    0    0  0.91593082892E+00  0.14808482468E+01 -0.12143950509E+01  0.21228745024E+01  0.00000000000E+00 0.  1.
</event>
<event>
 7    1  0.8440037E-011  0.4778727E+02  0.7816164E-02  0.1312668E+00
        -11   -1    0    0    0    0  0.00000000000E+00  0.00000000000E+00  0.45593999997E+02  0.45594000000E+02  0.51100000000E-03 0. -1.
         11   -1    0    0    0    0 -0.00000000000E+00 -0.00000000000E+00 -0.45593999997E+02  0.45594000000E+02  0.51100000000E-03 0.  1.
    9900012    2    1    2    0    0 -0.33458938674E+02 -0.20238732424E+02  0.18828598401E+02  0.47787274372E+02  0.20000015170E+02 0.  0.
        -12    1    1    2    0    0  0.33458938674E+02  0.20238732424E+02 -0.18828598401E+02  0.43400725628E+02  0.00000000000E+00 0.  1.
         11    1    3    3    0    0 -0.89910012616E+01 -0.19182418829E+01  0.47416951793E+01  0.10344149508E+02  0.51100000000E-03 0. -1.
        -11    1    3    3    0    0 -0.67700108572E+01  0.36998066774E+00  0.88954489879E+01  0.11184763997E+02  0.51100000000E-03 0.  1.
         12    1    3    3    0    0 -0.17697926555E+02 -0.18690471209E+02  0.51914542333E+01  0.26258360867E+02  0.00000000000E+00 0. -1.
</event>
<event>
 7    1  0.8440037E-011  0.4778727E+02  0.7816164E-02  0.1312668E+00
        -11   -1    0    0    0    0  0.00000000000E+00  0.00000000000E+00  0.45593999997E+02  0.45594000000E+02  0.51100000000E-03 0. -1.
         11   -1    0    0    0    0 -0.00000000000E+00 -0.00000000000E+00 -0.45593999997E+02  0.45594000000E+02  0.51100000000E-03 0.  1.
    9900012    2    1    2    0    0 -0.24216460111E+02 -0.20261962512E+02 -0.29776482688E+02  0.47787274356E+02  0.20000015099E+02 0.  0.
         12    1    1    2    0    0  0.24216460111E+02  0.20261962512E+02  0.29776482688E+02  0.43400725644E+02  0.00000000000E+00 0. -1.
         11    1    3    3    0    0 -0.65010066885E+01  0.70180154403E+00 -0.67112067360E+01  0.93699471442E+01  0.51100000000E-03 0. -1.
        -11    1    3    3    0    0  0.90902026321E-01 -0.41596643044E+01 -0.96285226106E+01  0.10489018935E+02  0.51100000000E-03 0.  1.
        -12    1    3    3    0    0 -0.17806355448E+02 -0.16804099752E+02 -0.13436753342E+02  0.27928308277E+02  0.00000000000E+00 0.  1.
</event>
<event>
 7    1  0.8440037E-011  0.4778727E+02  0.7816164E-02  0.1312668E+00
        -11   -1    0    0    0    0  0.00000000000E+00  0.00000000000E+00  0.45593999997E+02  0.45594000000E+02  0.51100000000E-03 0. -1.
         11   -1    0    0    0    0 -0.00000000000E+00 -0.00000000000E+00 -0.45593999997E+02  0.45594000000E+02  0.51100000000E-03 0.  1.
    9900012    2    1    2    0    0 -0.56667861360E+01  0.99021356867E+01 -0.41874314908E+02  0.47787274139E+02  0.20000014109E+02 0.  0.
         12    1    1    2    0    0  0.56667861360E+01 -0.99021356867E+01  0.41874314908E+02  0.43400725861E+02  0.00000000000E+00 0. -1.
         11    1    3    3    0    0 -0.72397249267E+01  0.17617523272E+01 -0.89135578429E+01  0.11617611715E+02  0.51100000000E-03 0. -1.
        -11    1    3    3    0    0  0.49115386406E+01  0.29456803694E+01 -0.26951412236E+02  0.27553200657E+02  0.51100000000E-03 0.  1.
         12    1    3    3    0    0 -0.33385998498E+01  0.51947029901E+01 -0.60093448287E+01  0.86164617670E+01  0.00000000000E+00 0. -1.
</event>
<event>
 7    1  0.8440037E-011  0.4778726E+02  0.7816164E-02  0.1312668E+00
        -11   -1    0    0    0    0  0.00000000000E+00  0.00000000000E+00  0.45593999997E+02  0.45594000000E+02  0.51100000000E-03 0. -1.
         11   -1    0    0    0    0 -0.00000000000E+00 -0.00000000000E+00 -0.45593999997E+02  0.45594000000E+02  0.51100000000E-03 0.  1.
    9900012    2    1    2    0    0 -0.14296238768E+02  0.32836906799E+02  0.24514873872E+02  0.47787263462E+02  0.19999965431E+02 0.  0.
        -12    1    1    2    0    0  0.14296238768E+02 -0.32836906799E+02 -0.24514873872E+02  0.43400736538E+02  0.00000000000E+00 0.  1.
         11    1    3    3    0    0 -0.25147423849E+01  0.27882233824E+01  0.10639811243E+01  0.39025856796E+01  0.51100000000E-03 0. -1.
        -11    1    3    3    0    0 -0.71653824942E+01  0.24252240468E+02  0.25784612308E+02  0.36115925935E+02  0.51100000000E-03 0.  1.
        -12    1    3    3    0    0 -0.46161138894E+01  0.57964429483E+01 -0.23337195598E+01  0.77687518481E+01  0.00000000000E+00 0.  1.
</event>
<event>
 7    1  0.8440037E-011  0.4778727E+02  0.7816164E-02  0.1312668E+00
        -11   -1    0    0    0    0  0.00000000000E+00  0.00000000000E+00  0.45593999997E+02  0.45594000000E+02  0.51100000000E-03 0. -1.
         11   -1    0    0    0    0 -0.00000000000E+00 -0.00000000000E+00 -0.45593999997E+02  0.45594000000E+02  0.51100000000E-03 0.  1.
    9900012    2    1    2    0    0  0.12737321337E+02 -0.11312436579E+02 -0.39917573720E+02  0.47787271113E+02  0.20000000313E+02 0.  0.
         12    1    1    2    0    0 -0.12737321337E+02  0.11312436579E+02  0.39917573720E+02  0.43400728887E+02  0.00000000000E+00 0. -1.
         11    1    3    3    0    0 -0.14401708194E+00 -0.17260428425E+01 -0.29084231806E-01  0.17322848980E+01  0.51100000000E-03 0. -1.
        -11    1    3    3    0    0  0.12276568754E+02 -0.11610774494E+02 -0.20566195438E+02  0.26617524674E+02  0.51100000000E-03 0.  1.
         12    1    3    3    0    0  0.60476966526E+00  0.20243807570E+01 -0.19322294050E+02  0.19437461541E+02  0.00000000000E+00 0. -1.
</event>
<event>
 7    1  0.8440037E-011  0.4778728E+02  0.7816164E-02  0.1312668E+00
        -11   -1    0    0    0    0  0.00000000000E+00  0.00000000000E+00  0.45593999997E+02  0.45594000000E+02  0.51100000000E-03 0. -1.
         11   -1    0    0    0    0 -0.00000000000E+00 -0.00000000000E+00 -0.45593999997E+02  0.45594000000E+02  0.51100000000E-03 0.  1.
    9900012    2    1    2    0    0  0.34883950123E+01  0.26477725943E+02 -0.34210866905E+02  0.47787282434E+02  0.20000051930E+02 0.  0.
         12    1    1    2    0    0 -0.34883950123E+01 -0.26477725943E+02  0.34210866905E+02  0.43400717566E+02  0.00000000000E+00 0. -1.
         11    1    3    3    0    0 -0.36393147180E+01  0.63405297941E+01 -0.17213087875E+02  0.18701265308E+02  0.51100000000E-03 0. -1.
        -11    1    3    3    0    0 -0.21823078425E+01  0.57355013628E+01 -0.24862768501E+01  0.66211793691E+01  0.51100000000E-03 0.  1.
         12    1    3    3    0    0  0.93100175728E+01  0.14401694786E+02 -0.14511502180E+02  0.22464837757E+02  0.00000000000E+00 0. -1.
</event>
<event>
 7    1  0.8440037E-011  0.4778727E+02  0.7816164E-02  0.1312668E+00
        -11   -1    0    0    0    0  0.00000000000E+00  0.00000000000E+00  0.45593999997E+02  0.45594000000E+02  0.51100000000E-03 0.  1.
         11   -1    0    0    0    0 -0.00000000000E+00 -0.00000000000E+00 -0.45593999997E+02  0.45594000000E+02  0.51100000000E-03 0. -1.
    9900012    2    1    2    0    0  0.33591550051E+02  0.26236561369E+02 -0.81776427256E+01  0.47787271575E+02  0.20000002419E+02 0.  0.
         12    1    1    2    0    0 -0.33591550051E+02 -0.26236561369E+02  0.81776427256E+01  0.43400728425E+02  0.00000000000E+00 0. -1.
         11    1    3    3    0    0  0.25107056627E+02  0.25926217727E+02 -0.29840287253E+00  0.36091856458E+02  0.51100000000E-03 0.  1.
        -11    1    3    3    0    0  0.29862316004E+01  0.36994133699E+00 -0.38095456891E+01  0.48545931222E+01  0.51100000000E-03 0. -1.
        -12    1    3    3    0    0  0.54982618238E+01 -0.59597695061E-01 -0.40696941640E+01  0.68408219942E+01  0.00000000000E+00 0.  1.
</event>
<event>
 7    1  0.8440037E-011  0.4778727E+02  0.7816164E-02  0.1312668E+00
        -11   -1    0    0    0    0  0.00000000000E+00  0.00000000000E+00  0.45593999997E+02  0.45594000000E+02  0.51100000000E-03 0. -1.
         11   -1    0    0    0    0 -0.00000000000E+00 -0.00000000000E+00 -0.45593999997E+02  0.45594000000E+02  0.51100000000E-03 0.  1.
    9900012    2    1    2    0    0 -0.10075873587E+02 -0.14259096299E+02 -0.39733844836E+02  0.47787268655E+02  0.19999989108E+02 0.  0.
         12    1    1    2    0    0  0.10075873587E+02  0.14259096299E+02  0.39733844836E+02  0.43400731345E+02  0.00000000000E+00 0. -1.
         11    1    3    3    0    0 -0.37738770556E+01  0.14382514769E+01 -0.31720689253E+01  0.51354393064E+01  0.51100000000E-03 0. -1.
        -11    1    3    3    0    0 -0.10471322949E+02 -0.87762054865E+01 -0.25801012617E+02  0.29195250288E+02  0.51100000000E-03 0.  1.
        -12    1    3    3    0    0  0.41693264181E+01 -0.69211422891E+01 -0.10760763294E+02  0.13456579061E+02  0.00000000000E+00 0.  1.
</event>
<event>
 7    1  0.8440037E-011  0.4778727E+02  0.7816164E-02  0.1312668E+00
        -11   -1    0    0    0    0  0.00000000000E+00  0.00000000000E+00  0.45593999997E+02  0.45594000000E+02  0.51100000000E-03 0. -1.
         11   -1    0    0    0    0 -0.00000000000E+00 -0.00000000000E+00 -0.45593999997E+02  0.45594000000E+02  0.51100000000E-03 0.  1.
    9900012    2    1    2    0    0  0.32972345122E+02  0.18762520886E+01  0.28158963483E+02  0.47787273172E+02  0.20000009700E+02 0.  0.
        -12    1    1    2    0    0 -0.32972345122E+02 -0.18762520886E+01 -0.28158963483E+02  0.43400726828E+02  0.00000000000E+00 0.  1.
         11    1    3    3    0    0  0.22944821072E+02  0.44874762199E+01  0.23485348088E+02  0.33138555067E+02  0.51100000000E-03 0. -1.
        -11    1    3    3    0    0  0.15434435555E+01  0.50404207695E+00  0.53447059220E+01  0.55858891931E+01  0.51100000000E-03 0.  1.
        -12    1    3    3    0    0  0.84840804949E+01 -0.31152662082E+01 -0.67109052690E+00  0.90628289120E+01  0.00000000000E+00 0.  1.
</event>
<event>
 7    1  0.8440037E-011  0.4778728E+02  0.7816164E-02  0.1312668E+00
        -11   -1    0    0    0    0  0.00000000000E+00  0.00000000000E+00  0.45593999997E+02  0.45594000000E+02  0.51100000000E-03 0.  1.
         11   -1    0    0    0    0 -0.00000000000E+00 -0.00000000000E+00 -0.45593999997E+02  0.45594000000E+02  0.51100000000E-03 0. -1.
    9900012    2    1    2    0    0 -0.27001858962E+02  0.33541184445E+02  0.54324364514E+01  0.47787276421E+02  0.20000024514E+02 0.  0.
         12    1    1    2    0    0  0.27001858962E+02 -0.33541184445E+02 -0.54324364514E+01  0.43400723579E+02  0.00000000000E+00 0. -1.
         11    1    3    3    0    0 -0.84336547800E+01  0.27953232682E+01  0.25904129142E+01  0.92547611774E+01  0.51100000000E-03 0. -1.
        -11    1    3    3    0    0 -0.48057290348E+01  0.54169005638E+01 -0.48278113836E+01  0.87031951771E+01  0.51100000000E-03 0.  1.
         12    1    3    3    0    0 -0.13762475147E+02  0.25328960613E+02  0.76698349207E+01  0.29829320066E+02  0.00000000000E+00 0. -1.
</event>
<event>
 7    1  0.8828712E-011  0.4778727E+02  0.7816164E-02  0.1312668E+00
        -11   -1    0    0    0    0  0.00000000000E+00  0.00000000000E+00  0.45593999997E+02  0.45594000000E+02  0.51100000000E-03 0. -1.
         11   -1    0    0    0    0 -0.00000000000E+00 -0.00000000000E+00 -0.45593999997E+02  0.45594000000E+02  0.51100000000E-03 0.  1.
    9900012    2    1    2    0    0  0.15116817890E+02  0.24902288309E+02  0.32171120335E+02  0.47787272705E+02  0.20000007570E+02 0.  0.
        -12    1    1    2    0    0 -0.15116817890E+02 -0.24902288309E+02 -0.32171120335E+02  0.43400727295E+02  0.00000000000E+00 0.  1.
         11    1    3    3    0    0  0.96500595878E+01  0.14064389176E+02  0.17566266582E+02  0.24484779248E+02  0.51100000000E-03 0. -1.
        -11    1    3    3    0    0 -0.14267341970E+01  0.10800094438E+02  0.11161759886E+02  0.15596874506E+02  0.51100000000E-03 0.  1.
         12    1    3    3    0    0  0.68934924995E+01  0.37804694776E-01  0.34430938671E+01  0.77056189507E+01  0.00000000000E+00 0. -1.
</event>
<event>
 7    1  0.8440037E-011  0.4778727E+02  0.7816164E-02  0.1312668E+00
        -11   -1    0    0    0    0  0.00000000000E+00  0.00000000000E+00  0.45593999997E+02  0.45594000000E+02  0.51100000000E-03 0. -1.
         11   -1    0    0    0    0 -0.00000000000E+00 -0.00000000000E+00 -0.45593999997E+02  0.45594000000E+02  0.51100000000E-03 0.  1.
    9900012    2    1    2    0    0 -0.28934423748E+02  0.64709380506E+00  0.32341977500E+02  0.47787272856E+02  0.20000008260E+02 0.  0.
        -12    1    1    2    0    0  0.28934423748E+02 -0.64709380506E+00 -0.32341977500E+02  0.43400727144E+02  0.00000000000E+00 0.  1.
         11    1    3    3    0    0 -0.81674602225E+01 -0.41064061687E+01  0.12004981442E+02  0.15089385600E+02  0.51100000000E-03 0. -1.
        -11    1    3    3    0    0 -0.20772676052E+02  0.83685522203E+00  0.19862157045E+02  0.28752559534E+02  0.51100000000E-03 0.  1.
        -12    1    3    3    0    0  0.57125261271E-02  0.39166447517E+01  0.47483901268E+00  0.39453277218E+01  0.00000000000E+00 0.  1.
</event>
<event>
 7    1  0.8440037E-011  0.4778726E+02  0.7816164E-02  0.1312668E+00
        -11   -1    0    0    0    0  0.00000000000E+00  0.00000000000E+00  0.45593999997E+02  0.45594000000E+02  0.51100000000E-03 0. -1.
         11   -1    0    0    0    0 -0.00000000000E+00 -0.00000000000E+00 -0.45593999997E+02  0.45594000000E+02  0.51100000000E-03 0.  1.
    9900012    2    1    2    0    0 -0.21657237236E+02  0.78788603097E+01 -0.36776517182E+02  0.47787255991E+02  0.19999931367E+02 0.  0.
         12    1    1    2    0    0  0.21657237236E+02 -0.78788603097E+01  0.36776517182E+02  0.43400744009E+02  0.00000000000E+00 0. -1.
         11    1    3    3    0    0  0.15188639941E+01  0.15998133517E+01  0.30620634835E+00  0.22271311550E+01  0.51100000000E-03 0. -1.
        -11    1    3    3    0    0 -0.10145747433E+02  0.73756222664E+00 -0.71098253671E+01  0.12410874507E+02  0.51100000000E-03 0.  1.
        -12    1    3    3    0    0 -0.13030353797E+02  0.55414847313E+01 -0.29972898163E+02  0.33149250329E+02  0.00000000000E+00 0.  1.
</event>
<event>
 7    1  0.8440037E-011  0.4778727E+02  0.7816164E-02  0.1312668E+00
        -11   -1    0    0    0    0  0.00000000000E+00  0.00000000000E+00  0.45593999997E+02  0.45594000000E+02  0.51100000000E-03 0.  1.
         11   -1    0    0    0    0 -0.00000000000E+00 -0.00000000000E+00 -0.45593999997E+02  0.45594000000E+02  0.51100000000E-03 0. -1.
    9900012    2    1    2    0    0 -0.10653097289E+02 -0.36461663888E+02 -0.20992430392E+02  0.47787267873E+02  0.19999985541E+02 0.  0.
         12    1    1    2    0    0  0.10653097289E+02  0.36461663888E+02  0.20992430392E+02  0.43400732127E+02  0.00000000000E+00 0. -1.
         11    1    3    3    0    0  0.13847436270E+01 -0.72415693390E+01 -0.10866661391E+00  0.73735778357E+01  0.51100000000E-03 0. -1.
        -11    1    3    3    0    0 -0.83663466498E+01 -0.10615545489E+02 -0.20208154931E+01  0.13666354957E+02  0.51100000000E-03 0.  1.
        -12    1    3    3    0    0 -0.36714942666E+01 -0.18604549060E+02 -0.18862948285E+02  0.26747335080E+02  0.00000000000E+00 0.  1.
</event>
<event>
 7    1  0.8440037E-011  0.4778727E+02  0.7816164E-02  0.1312668E+00
        -11   -1    0    0    0    0  0.00000000000E+00  0.00000000000E+00  0.45593999997E+02  0.45594000000E+02  0.51100000000E-03 0. -1.
         11   -1    0    0    0    0 -0.00000000000E+00 -0.00000000000E+00 -0.45593999997E+02  0.45594000000E+02  0.51100000000E-03 0.  1.
    9900012    2    1    2    0    0 -0.23519970875E+01 -0.25590188783E+02  0.34974757830E+02  0.47787270311E+02  0.19999996657E+02 0.  0.
        -12    1    1    2    0    0  0.23519970875E+01  0.25590188783E+02 -0.34974757830E+02  0.43400729689E+02  0.00000000000E+00 0.  1.
         11    1    3    3    0    0 -0.38327572527E+01 -0.23734231016E+02  0.29208372266E+02  0.37830315367E+02  0.51100000000E-03 0. -1.
        -11    1    3    3    0    0 -0.30378232603E+01 -0.67753151981E+00  0.37422171945E+01  0.48674026866E+01  0.51100000000E-03 0.  1.
        -12    1    3    3    0    0  0.45185834255E+01 -0.11784262468E+01  0.20241683693E+01  0.50895522573E+01  0.00000000000E+00 0.  1.
</event>
<event>
 7    1  0.8440037E-011  0.4778727E+02  0.7816164E-02  0.1312668E+00
        -11   -1    0    0    0    0  0.00000000000E+00  0.00000000000E+00  0.45593999997E+02  0.45594000000E+02  0.51100000000E-03 0. -1.
         11   -1    0    0    0    0 -0.00000000000E+00 -0.00000000000E+00 -0.45593999997E+02  0.45594000000E+02  0.51100000000E-03 0.  1.
    9900012    2    1    2    0    0  0.16881214632E+02 -0.35459397896E+02 -0.18473745723E+02  0.47787267430E+02  0.19999983519E+02 0.  0.
         12    1    1    2    0    0 -0.16881214632E+02  0.35459397896E+02  0.18473745723E+02  0.43400732570E+02  0.00000000000E+00 0. -1.
         11    1    3    3    0    0  0.55212830035E+01 -0.53430989156E+01 -0.92728329830E+01  0.12042371188E+02  0.51100000000E-03 0. -1.
        -11    1    3    3    0    0  0.11634032246E+02 -0.17468603944E+02 -0.96188347789E+01  0.23087330136E+02  0.51100000000E-03 0.  1.
         12    1    3    3    0    0 -0.27410061791E+00 -0.12647695037E+02  0.41792203934E+00  0.12657566106E+02  0.00000000000E+00 0. -1.
</event>
<event>
 7    1  0.8440037E-011  0.4778727E+02  0.7816164E-02  0.1312668E+00
        -11   -1    0    0    0    0  0.00000000000E+00  0.00000000000E+00  0.45593999997E+02  0.45594000000E+02  0.51100000000E-03 0. -1.
         11   -1    0    0    0    0 -0.00000000000E+00 -0.00000000000E+00 -0.45593999997E+02  0.45594000000E+02  0.51100000000E-03 0.  1.
    9900012    2    1    2    0    0  0.23877205159E+02 -0.27450822977E+02 -0.23663363669E+02  0.47787269724E+02  0.19999993980E+02 0.  0.
         12    1    1    2    0    0 -0.23877205159E+02  0.27450822977E+02  0.23663363669E+02  0.43400730276E+02  0.00000000000E+00 0. -1.
         11    1    3    3    0    0  0.19489161816E+01 -0.87838581725E+01 -0.87508775477E-01  0.89978940161E+01  0.51100000000E-03 0. -1.
        -11    1    3    3    0    0  0.11955115077E+02 -0.73981016743E+01 -0.50881577628E+01  0.14951455935E+02  0.51100000000E-03 0.  1.
        -12    1    3    3    0    0  0.99731739003E+01 -0.11268863130E+02 -0.18487697131E+02  0.23837919773E+02  0.00000000000E+00 0.  1.
</event>
<event>
 7    1  0.8440037E-011  0.4778727E+02  0.7816164E-02  0.1312668E+00
        -11   -1    0    0    0    0  0.00000000000E+00  0.00000000000E+00  0.45593999997E+02  0.45594000000E+02  0.51100000000E-03 0. -1.
         11   -1    0    0    0    0 -0.00000000000E+00 -0.00000000000E+00 -0.45593999997E+02  0.45594000000E+02  0.51100000000E-03 0.  1.
    9900012    2    1    2    0    0 -0.67955494634E+01  0.30638260152E+00  0.42864319889E+02  0.47787270947E+02  0.19999999556E+02 0.  0.
        -12    1    1    2    0    0  0.67955494634E+01 -0.30638260152E+00 -0.42864319889E+02  0.43400729053E+02  0.00000000000E+00 0.  1.
         11    1    3    3    0    0 -0.28071241537E+01 -0.17056568741E+01  0.29268508566E+02  0.29452246185E+02  0.51100000000E-03 0. -1.
        -11    1    3    3    0    0  0.39837407668E+01  0.13091471177E+01  0.58474823207E+01  0.71956310651E+01  0.51100000000E-03 0.  1.
         12    1    3    3    0    0 -0.79721660766E+01  0.70289235784E+00  0.77483290015E+01  0.11139393697E+02  0.00000000000E+00 0. -1.
</event>
<event>
 7    1  0.8440037E-011  0.4778727E+02  0.7816164E-02  0.1312668E+00
        -11   -1    0    0    0    0  0.00000000000E+00  0.00000000000E+00  0.45593999997E+02  0.45594000000E+02  0.51100000000E-03 0. -1.
         11   -1    0    0    0    0 -0.00000000000E+00 -0.00000000000E+00 -0.45593999997E+02  0.45594000000E+02  0.51100000000E-03 0.  1.
    9900012    2    1    2    0    0  0.20401275862E+02  0.15630361799E+02 -0.34972889204E+02  0.47787271365E+02  0.20000001463E+02 0.  0.
         12    1    1    2    0    0 -0.20401275862E+02 -0.15630361799E+02  0.34972889204E+02  0.43400728635E+02  0.00000000000E+00 0. -1.
         11    1    3    3    0    0  0.46114927833E+01  0.10957307852E+02 -0.14901021564E+02  0.19062237669E+02  0.51100000000E-03 0. -1.
        -11    1    3    3    0    0  0.70113346254E+01  0.47001133709E+01 -0.20613021531E+01  0.86890071790E+01  0.51100000000E-03 0.  1.
        -12    1    3    3    0    0  0.87784484529E+01 -0.27059423156E-01 -0.18010565487E+02  0.20036026517E+02  0.00000000000E+00 0.  1.
</event>
<event>
 7    1  0.8440037E-011  0.4778726E+02  0.7816164E-02  0.1312668E+00
        -11   -1    0    0    0    0  0.00000000000E+00  0.00000000000E+00  0.45593999997E+02  0.45594000000E+02  0.51100000000E-03 0. -1.
         11   -1    0    0    0    0 -0.00000000000E+00 -0.00000000000E+00 -0.45593999997E+02  0.45594000000E+02  0.51100000000E-03 0.  1.
    9900012    2    1    2    0    0 -0.48313315795E+01  0.17237595498E+02 -0.39536666055E+02  0.47787257770E+02  0.19999939474E+02 0.  0.
         12    1    1    2    0    0  0.48313315795E+01 -0.17237595498E+02  0.39536666055E+02  0.43400742230E+02  0.00000000000E+00 0. -1.
         11    1    3    3    0    0 -0.18143749343E+01 -0.35690389567E+01 -0.12304613409E+02  0.12939609997E+02  0.51100000000E-03 0.  1.
        -11    1    3    3    0    0  0.84525467365E+00  0.52118344919E+00 -0.64826728824E+00  0.11858913901E+01  0.51100000000E-03 0. -1.
        -12    1    3    3    0    0 -0.38622113189E+01  0.20285451005E+02 -0.26583785358E+02  0.33661756382E+02  0.00000000000E+00 0.  1.
</event>
<event>
 7    1  0.8440037E-011  0.4778726E+02  0.7816164E-02  0.1312668E+00
        -11   -1    0    0    0    0  0.00000000000E+00  0.00000000000E+00  0.45593999997E+02  0.45594000000E+02  0.51100000000E-03 0. -1.
         11   -1    0    0    0    0 -0.00000000000E+00 -0.00000000000E+00 -0.45593999997E+02  0.45594000000E+02  0.51100000000E-03 0.  1.
    9900012    2    1    2    0    0 -0.14128277062E+02 -0.45235639326E+01 -0.40786684557E+02  0.47787257143E+02  0.19999936617E+02 0.  0.
         12    1    1    2    0    0  0.14128277062E+02  0.45235639326E+01  0.40786684557E+02  0.43400742857E+02  0.00000000000E+00 0. -1.
         11    1    3    3    0    0 -0.13265983859E+02  0.25846724340E+00 -0.35200015691E+02  0.37617738342E+02  0.51100000000E-03 0.  1.
        -11    1    3    3    0    0  0.18062193103E+01 -0.69039438591E+00 -0.48603748975E+01  0.52309002104E+01  0.51100000000E-03 0. -1.
        -12    1    3    3    0    0 -0.26685125127E+01 -0.40916367901E+01 -0.72629396862E+00  0.49386185904E+01  0.00000000000E+00 0.  1.
</event>
<event>
 7    1  0.8440037E-011  0.4778727E+02  0.7816164E-02  0.1312668E+00
        -11   -1    0    0    0    0  0.00000000000E+00  0.00000000000E+00  0.45593999997E+02  0.45594000000E+02  0.51100000000E-03 0. -1.
         11   -1    0    0    0    0 -0.00000000000E+00 -0.00000000000E+00 -0.45593999997E+02  0.45594000000E+02  0.51100000000E-03 0.  1.
    9900012    2    1    2    0    0  0.50741916285E+01 -0.43951980872E+01  0.42878413074E+02  0.47787268500E+02  0.19999988401E+02 0.  0.
        -12    1    1    2    0    0 -0.50741916285E+01  0.43951980872E+01 -0.42878413074E+02  0.43400731500E+02  0.00000000000E+00 0.  1.
         11    1    3    3    0    0  0.13602774224E+01  0.14260039483E+01  0.27459317791E+02  0.27529946889E+02  0.51100000000E-03 0. -1.
        -11    1    3    3    0    0 -0.32464445688E+01 -0.14619662825E+00  0.79079621516E+01  0.85496573876E+01  0.51100000000E-03 0.  1.
         12    1    3    3    0    0  0.69603587749E+01 -0.56750054073E+01  0.75111331322E+01  0.11707664224E+02  0.00000000000E+00 0. -1.
</event>
<event>
 7    1  0.8440037E-011  0.4778727E+02  0.7816164E-02  0.1312668E+00
        -11   -1    0    0    0    0  0.00000000000E+00  0.00000000000E+00  0.45593999997E+02  0.45594000000E+02  0.51100000000E-03 0. -1.
         11   -1    0    0    0    0 -0.00000000000E+00 -0.00000000000E+00 -0.45593999997E+02  0.45594000000E+02  0.51100000000E-03 0.  1.
    9900012    2    1    2    0    0 -0.15358233791E+02  0.89942793435E+01 -0.39583469599E+02  0.47787268767E+02  0.19999989616E+02 0.  0.
         12    1    1    2    0    0  0.15358233791E+02 -0.89942793435E+01  0.39583469599E+02  0.43400731233E+02  0.00000000000E+00 0. -1.
         11    1    3    3    0    0 -0.13299037806E+02  0.71218029519E+01 -0.26379315211E+02  0.30388365457E+02  0.51100000000E-03 0. -1.
        -11    1    3    3    0    0 -0.76680127614E-01  0.14045104637E+01 -0.14765506014E+02  0.14832353070E+02  0.51100000000E-03 0.  1.
        -12    1    3    3    0    0 -0.19825158577E+01  0.46796592791E+00  0.15613516263E+01  0.25665502404E+01  0.00000000000E+00 0.  1.
</event>
<event>
 7    1  0.8440037E-011  0.4778727E+02  0.7816164E-02  0.1312668E+00
        -11   -1    0    0    0    0  0.00000000000E+00  0.00000000000E+00  0.45593999997E+02  0.45594000000E+02  0.51100000000E-03 0. -1.
         11   -1    0    0    0    0 -0.00000000000E+00 -0.00000000000E+00 -0.45593999997E+02  0.45594000000E+02  0.51100000000E-03 0.  1.
    9900012    2    1    2    0    0 -0.41931724979E+02 -0.20973588864E+01 -0.10997944802E+02  0.47787271160E+02  0.20000000526E+02 0.  0.
         12    1    1    2    0    0  0.41931724979E+02  0.20973588864E+01  0.10997944802E+02  0.43400728840E+02  0.00000000000E+00 0. -1.
         11    1    3    3    0    0 -0.86408494419E+01  0.33745976333E+01 -0.95771903186E+01  0.13333220276E+02  0.51100000000E-03 0. -1.
        -11    1    3    3    0    0 -0.11434253545E+02  0.64616734349E+00 -0.25359225277E+01  0.11729901521E+02  0.51100000000E-03 0.  1.
        -12    1    3    3    0    0 -0.21856621992E+02 -0.61181238631E+01  0.11151680445E+01  0.22724149363E+02  0.00000000000E+00 0.  1.
</event>
<event>
 7    1  0.8440037E-011  0.4778727E+02  0.7816164E-02  0.1312668E+00
        -11   -1    0    0    0    0  0.00000000000E+00  0.00000000000E+00  0.45593999997E+02  0.45594000000E+02  0.51100000000E-03 0. -1.
         11   -1    0    0    0    0 -0.00000000000E+00 -0.00000000000E+00 -0.45593999997E+02  0.45594000000E+02  0.51100000000E-03 0.  1.
    9900012    2    1    2    0    0  0.17572968378E+02  0.13514763040E+02 -0.37311732113E+02  0.47787269696E+02  0.19999993852E+02 0.  0.
         12    1    1    2    0    0 -0.17572968378E+02 -0.13514763040E+02  0.37311732113E+02  0.43400730304E+02  0.00000000000E+00 0. -1.
         11    1    3    3    0    0  0.51285170065E+01  0.67475732503E+00 -0.62152966827E+01  0.80862164977E+01  0.51100000000E-03 0. -1.
        -11    1    3    3    0    0  0.12874838279E+02  0.82336354236E+01 -0.31545949761E+02  0.35052833831E+02  0.51100000000E-03 0.  1.
         12    1    3    3    0    0 -0.43038690778E+00  0.46063702913E+01  0.44951433055E+00  0.46482193671E+01  0.00000000000E+00 0. -1.
</event>
<event>
 7    1  0.8440037E-011  0.4778727E+02  0.7816164E-02  0.1312668E+00
        -11   -1    0    0    0    0  0.00000000000E+00  0.00000000000E+00  0.45593999997E+02  0.45594000000E+02  0.51100000000E-03 0. -1.
         11   -1    0    0    0    0 -0.00000000000E+00 -0.00000000000E+00 -0.45593999997E+02  0.45594000000E+02  0.51100000000E-03 0.  1.
    9900012    2    1    2    0    0 -0.28694600259E+02 -0.13281746533E+02 -0.29729418839E+02  0.47787271671E+02  0.20000002856E+02 0.  0.
         12    1    1    2    0    0  0.28694600259E+02  0.13281746533E+02  0.29729418839E+02  0.43400728329E+02  0.00000000000E+00 0. -1.
         11    1    3    3    0    0 -0.13853781220E+02 -0.44069510168E+01 -0.37136299428E+01  0.15004649912E+02  0.51100000000E-03 0. -1.
        -11    1    3    3    0    0 -0.12705407117E+02 -0.34672538872E+01 -0.12896578353E+02  0.18432876959E+02  0.51100000000E-03 0.  1.
        -12    1    3    3    0    0 -0.21354119224E+01 -0.54075416287E+01 -0.13119210543E+02  0.14349744800E+02  0.00000000000E+00 0.  1.
</event>
<event>
 7    1  0.8440037E-011  0.4778727E+02  0.7816164E-02  0.1312668E+00
        -11   -1    0    0    0    0  0.00000000000E+00  0.00000000000E+00  0.45593999997E+02  0.45594000000E+02  0.51100000000E-03 0.  1.
         11   -1    0    0    0    0 -0.00000000000E+00 -0.00000000000E+00 -0.45593999997E+02  0.45594000000E+02  0.51100000000E-03 0. -1.
    9900012    2    1    2    0    0 -0.11921399481E+02 -0.37227846226E+02  0.18857113959E+02  0.47787273658E+02  0.20000011916E+02 0.  0.
        -12    1    1    2    0    0  0.11921399481E+02  0.37227846226E+02 -0.18857113959E+02  0.43400726342E+02  0.00000000000E+00 0.  1.
         11    1    3    3    0    0 -0.11180031588E+02 -0.35814662689E+02  0.16071012439E+02  0.40816180748E+02  0.51100000000E-03 0. -1.
        -11    1    3    3    0    0 -0.29031299038E+00 -0.32538394014E+01  0.36413328207E+01  0.48919380060E+01  0.51100000000E-03 0.  1.
        -12    1    3    3    0    0 -0.45105490190E+00  0.18406558645E+01 -0.85523130031E+00  0.20791549036E+01  0.00000000000E+00 0.  1.
</event>
<event>
 7    1  0.8440037E-011  0.4778729E+02  0.7816164E-02  0.1312668E+00
        -11   -1    0    0    0    0  0.00000000000E+00  0.00000000000E+00  0.45593999997E+02  0.45594000000E+02  0.51100000000E-03 0. -1.
         11   -1    0    0    0    0 -0.00000000000E+00 -0.00000000000E+00 -0.45593999997E+02  0.45594000000E+02  0.51100000000E-03 0.  1.
    9900012    2    1    2    0    0 -0.12215474017E+02  0.92000768314E+01  0.40617266062E+02  0.47787291232E+02  0.20000092044E+02 0.  0.
        -12    1    1    2    0    0  0.12215474017E+02 -0.92000768314E+01 -0.40617266062E+02  0.43400708768E+02  0.00000000000E+00 0.  1.
         11    1    3    3    0    0  0.27253109969E+01 -0.14204984815E+01  0.34773623298E+01  0.46408172771E+01  0.51100000000E-03 0. -1.
        -11    1    3    3    0    0 -0.42302779829E+01 -0.24569922928E+01  0.62836505767E+01  0.79634369321E+01  0.51100000000E-03 0.  1.
        -12    1    3    3    0    0 -0.10710507031E+02  0.13077567606E+02  0.30856253156E+02  0.35183037023E+02  0.00000000000E+00 0.  1.
</event>
<event>
 7    1  0.8440037E-011  0.4778727E+02  0.7816164E-02  0.1312668E+00
        -11   -1    0    0    0    0  0.00000000000E+00  0.00000000000E+00  0.45593999997E+02  0.45594000000E+02  0.51100000000E-03 0. -1.
         11   -1    0    0    0    0 -0.00000000000E+00 -0.00000000000E+00 -0.45593999997E+02  0.45594000000E+02  0.51100000000E-03 0.  1.
    9900012    2    1    2    0    0 -0.11004274497E+02  0.16070380807E+02 -0.38784944648E+02  0.47787272726E+02  0.20000007669E+02 0.  0.
         12    1    1    2    0    0  0.11004274497E+02 -0.16070380807E+02  0.38784944648E+02  0.43400727274E+02  0.00000000000E+00 0. -1.
         11    1    3    3    0    0 -0.11217969887E+02  0.15114594941E+02 -0.26794705607E+02  0.32745229842E+02  0.51100000000E-03 0. -1.
        -11    1    3    3    0    0 -0.24449100833E+01  0.63568532573E+00 -0.12101073124E+02  0.12361943705E+02  0.51100000000E-03 0.  1.
         12    1    3    3    0    0  0.26586054729E+01  0.32010054030E+00  0.11083408230E+00  0.26800991792E+01  0.00000000000E+00 0. -1.
</event>
<event>
 7    1  0.8440037E-011  0.4778727E+02  0.7816164E-02  0.1312668E+00
        -11   -1    0    0    0    0  0.00000000000E+00  0.00000000000E+00  0.45593999997E+02  0.45594000000E+02  0.51100000000E-03 0. -1.
         11   -1    0    0    0    0 -0.00000000000E+00 -0.00000000000E+00 -0.45593999997E+02  0.45594000000E+02  0.51100000000E-03 0.  1.
    9900012    2    1    2    0    0 -0.17546159766E+02  0.17600156095E+02 -0.35580761323E+02  0.47787265059E+02  0.19999972711E+02 0.  0.
         12    1    1    2    0    0  0.17546159766E+02 -0.17600156095E+02  0.35580761323E+02  0.43400734941E+02  0.00000000000E+00 0. -1.
         11    1    3    3    0    0 -0.11070422756E+01 -0.19033978651E+01 -0.63921840701E+00  0.22928293582E+01  0.51100000000E-03 0. -1.
        -11    1    3    3    0    0 -0.26711782700E+01 -0.19745396547E+01 -0.64147874925E+01  0.72238147147E+01  0.51100000000E-03 0.  1.
        -12    1    3    3    0    0 -0.13767939220E+02  0.21478093615E+02 -0.28526755423E+02  0.38270620986E+02  0.00000000000E+00 0.  1.
</event>
<event>
 7    1  0.8440037E-011  0.4778727E+02  0.7816164E-02  0.1312668E+00
        -11   -1    0    0    0    0  0.00000000000E+00  0.00000000000E+00  0.45593999997E+02  0.45594000000E+02  0.51100000000E-03 0.  1.
         11   -1    0    0    0    0 -0.00000000000E+00 -0.00000000000E+00 -0.45593999997E+02  0.45594000000E+02  0.51100000000E-03 0. -1.
    9900012    2    1    2    0    0 -0.22947234286E+02  0.17363354937E+02 -0.32489406633E+02  0.47787271902E+02  0.20000003910E+02 0.  0.
         12    1    1    2    0    0  0.22947234286E+02 -0.17363354937E+02  0.32489406633E+02  0.43400728098E+02  0.00000000000E+00 0. -1.
         11    1    3    3    0    0 -0.22358497466E+01  0.81036656858E+00 -0.55378293539E+01  0.60268791492E+01  0.51100000000E-03 0. -1.
        -11    1    3    3    0    0 -0.18606338046E+02  0.96820316942E+01 -0.97739284369E+01  0.23140164878E+02  0.51100000000E-03 0.  1.
        -12    1    3    3    0    0 -0.21050464933E+01  0.68709566747E+01 -0.17177648843E+02  0.18620227875E+02  0.00000000000E+00 0.  1.
</event>
<event>
 7    1  0.8440037E-011  0.4778727E+02  0.7816164E-02  0.1312668E+00
        -11   -1    0    0    0    0  0.00000000000E+00  0.00000000000E+00  0.45593999997E+02  0.45594000000E+02  0.51100000000E-03 0. -1.
         11   -1    0    0    0    0 -0.00000000000E+00 -0.00000000000E+00 -0.45593999997E+02  0.45594000000E+02  0.51100000000E-03 0.  1.
    9900012    2    1    2    0    0  0.38990778211E+02  0.80262062057E+01  0.17289379959E+02  0.47787269235E+02  0.19999991751E+02 0.  0.
        -12    1    1    2    0    0 -0.38990778211E+02 -0.80262062057E+01 -0.17289379959E+02  0.43400730765E+02  0.00000000000E+00 0.  1.
         11    1    3    3    0    0  0.57284970195E+01 -0.18094531272E+01 -0.37435686488E+01  0.70784253342E+01  0.51100000000E-03 0.  1.
        -11    1    3    3    0    0  0.51669970948E+01  0.19888927755E+01  0.20416986007E+01  0.59010242235E+01  0.51100000000E-03 0. -1.
        -12    1    3    3    0    0  0.28095284097E+02  0.78467665574E+01  0.18991250007E+02  0.34807819678E+02  0.00000000000E+00 0.  1.
</event>
<event>
 7    1  0.8440037E-011  0.4778728E+02  0.7816164E-02  0.1312668E+00
        -11   -1    0    0    0    0  0.00000000000E+00  0.00000000000E+00  0.45593999997E+02  0.45594000000E+02  0.51100000000E-03 0. -1.
         11   -1    0    0    0    0 -0.00000000000E+00 -0.00000000000E+00 -0.45593999997E+02  0.45594000000E+02  0.51100000000E-03 0.  1.
    9900012    2    1    2    0    0  0.24732868172E+02 -0.92403071872E+01 -0.34445967437E+02  0.47787277453E+02  0.20000029219E+02 0.  0.
         12    1    1    2    0    0 -0.24732868172E+02  0.92403071872E+01  0.34445967437E+02  0.43400722547E+02  0.00000000000E+00 0. -1.
         11    1    3    3    0    0 -0.35672572675E+00  0.58748508128E+00 -0.37972946866E+01  0.38589945792E+01  0.51100000000E-03 0. -1.
        -11    1    3    3    0    0  0.75255267380E+01 -0.31648203433E+01 -0.21571662902E+02  0.23064827793E+02  0.51100000000E-03 0.  1.
         12    1    3    3    0    0  0.17564067161E+02 -0.66629719252E+01 -0.90770098479E+01  0.20863455081E+02  0.00000000000E+00 0. -1.
</event>
<event>
 7    1  0.8440037E-011  0.4778728E+02  0.7816164E-02  0.1312668E+00
        -11   -1    0    0    0    0  0.00000000000E+00  0.00000000000E+00  0.45593999997E+02  0.45594000000E+02  0.51100000000E-03 0. -1.
         11   -1    0    0    0    0 -0.00000000000E+00 -0.00000000000E+00 -0.45593999997E+02  0.45594000000E+02  0.51100000000E-03 0.  1.
    9900012    2    1    2    0    0  0.69615351391E+01 -0.12826989002E+01 -0.42819556259E+02  0.47787277815E+02  0.20000030872E+02 0.  0.
         12    1    1    2    0    0 -0.69615351391E+01  0.12826989002E+01  0.42819556259E+02  0.43400722185E+02  0.00000000000E+00 0. -1.
         11    1    3    3    0    0  0.42743293338E+01  0.20888936576E+01 -0.22661745293E+02  0.23155735098E+02  0.51100000000E-03 0. -1.
        -11    1    3    3    0    0  0.52713483755E+01 -0.33346947234E+01 -0.21005190313E+02  0.21911762206E+02  0.51100000000E-03 0.  1.
         12    1    3    3    0    0 -0.25841425702E+01 -0.36897834347E-01  0.84737934744E+00  0.27197805117E+01  0.00000000000E+00 0. -1.
</event>
<event>
 7    1  0.8440037E-011  0.4778727E+02  0.7816164E-02  0.1312668E+00
        -11   -1    0    0    0    0  0.00000000000E+00  0.00000000000E+00  0.45593999997E+02  0.45594000000E+02  0.51100000000E-03 0. -1.
         11   -1    0    0    0    0 -0.00000000000E+00 -0.00000000000E+00 -0.45593999997E+02  0.45594000000E+02  0.51100000000E-03 0.  1.
    9900012    2    1    2    0    0  0.15583681456E+02  0.12358674870E+02 -0.38575066070E+02  0.47787266198E+02  0.19999977904E+02 0.  0.
         12    1    1    2    0    0 -0.15583681456E+02 -0.12358674870E+02  0.38575066070E+02  0.43400733802E+02  0.00000000000E+00 0. -1.
         11    1    3    3    0    0 -0.79604778304E+00  0.49677801512E+01 -0.78678351859E+01  0.93389165580E+01  0.51100000000E-03 0. -1.
        -11    1    3    3    0    0  0.66016147234E+00  0.18622748353E+01 -0.16302656820E+02  0.16421951784E+02  0.51100000000E-03 0.  1.
         12    1    3    3    0    0  0.15719567767E+02  0.55286198832E+01 -0.14404574063E+02  0.22026397856E+02  0.00000000000E+00 0. -1.
</event>
<event>
 7    1  0.8440037E-011  0.4778727E+02  0.7816164E-02  0.1312668E+00
        -11   -1    0    0    0    0  0.00000000000E+00  0.00000000000E+00  0.45593999997E+02  0.45594000000E+02  0.51100000000E-03 0. -1.
         11   -1    0    0    0    0 -0.00000000000E+00 -0.00000000000E+00 -0.45593999997E+02  0.45594000000E+02  0.51100000000E-03 0.  1.
    9900012    2    1    2    0    0  0.43520668618E+01 -0.15372473305E+02  0.40353064383E+02  0.47787271589E+02  0.20000002482E+02 0.  0.
        -12    1    1    2    0    0 -0.43520668618E+01  0.15372473305E+02 -0.40353064383E+02  0.43400728411E+02  0.00000000000E+00 0.  1.
         11    1    3    3    0    0 -0.26166265952E+01 -0.11917590191E+02  0.18866632549E+02  0.22468322472E+02  0.51100000000E-03 0. -1.
        -11    1    3    3    0    0  0.35769566996E+01 -0.68613421411E+01  0.86180780220E+01  0.11582050952E+02  0.51100000000E-03 0.  1.
        -12    1    3    3    0    0  0.33917367574E+01  0.34064590275E+01  0.12868353812E+02  0.13736898164E+02  0.00000000000E+00 0.  1.
</event>
<event>
 7    1  0.8440037E-011  0.4778727E+02  0.7816164E-02  0.1312668E+00
        -11   -1    0    0    0    0  0.00000000000E+00  0.00000000000E+00  0.45593999997E+02  0.45594000000E+02  0.51100000000E-03 0. -1.
         11   -1    0    0    0    0 -0.00000000000E+00 -0.00000000000E+00 -0.45593999997E+02  0.45594000000E+02  0.51100000000E-03 0.  1.
    9900012    2    1    2    0    0 -0.64694980649E+01  0.22471372024E+01  0.42856958681E+02  0.47787274911E+02  0.20000017631E+02 0.  0.
        -12    1    1    2    0    0  0.64694980649E+01 -0.22471372024E+01 -0.42856958681E+02  0.43400725089E+02  0.00000000000E+00 0.  1.
         11    1    3    3    0    0  0.49150711260E+00  0.17495180279E+01  0.16760646464E+02  0.16858874895E+02  0.51100000000E-03 0. -1.
        -11    1    3    3    0    0  0.46785649899E+01 -0.30203239890E+00  0.52447163842E+01  0.70347170623E+01  0.51100000000E-03 0.  1.
        -12    1    3    3    0    0 -0.11639570167E+02  0.79965157339E+00  0.20851595833E+02  0.23893682954E+02  0.00000000000E+00 0.  1.
</event>
<event>
 7    1  0.8440037E-011  0.4778727E+02  0.7816164E-02  0.1312668E+00
        -11   -1    0    0    0    0  0.00000000000E+00  0.00000000000E+00  0.45593999997E+02  0.45594000000E+02  0.51100000000E-03 0.  1.
         11   -1    0    0    0    0 -0.00000000000E+00 -0.00000000000E+00 -0.45593999997E+02  0.45594000000E+02  0.51100000000E-03 0. -1.
    9900012    2    1    2    0    0  0.33660055004E+02  0.12315754938E+02 -0.24473375019E+02  0.47787271810E+02  0.20000003490E+02 0.  0.
         12    1    1    2    0    0 -0.33660055004E+02 -0.12315754938E+02  0.24473375019E+02  0.43400728190E+02  0.00000000000E+00 0. -1.
         11    1    3    3    0    0  0.66279048423E+01  0.65875923203E+01 -0.96507225927E+01  0.13433612396E+02  0.51100000000E-03 0. -1.
        -11    1    3    3    0    0  0.18734817819E+02  0.38241177820E+01 -0.23674334640E+01  0.19267122696E+02  0.51100000000E-03 0.  1.
         12    1    3    3    0    0  0.82973323431E+01  0.19040448362E+01 -0.12455218962E+02  0.15086536718E+02  0.00000000000E+00 0. -1.
</event>
<event>
 7    1  0.8440037E-011  0.4778726E+02  0.7816164E-02  0.1312668E+00
        -11   -1    0    0    0    0  0.00000000000E+00  0.00000000000E+00  0.45593999997E+02  0.45594000000E+02  0.51100000000E-03 0. -1.
         11   -1    0    0    0    0 -0.00000000000E+00 -0.00000000000E+00 -0.45593999997E+02  0.45594000000E+02  0.51100000000E-03 0.  1.
    9900012    2    1    2    0    0  0.31302225644E+02 -0.29793342231E+02  0.40188607478E+01  0.47787264831E+02  0.19999971668E+02 0.  0.
        -12    1    1    2    0    0 -0.31302225644E+02  0.29793342231E+02 -0.40188607478E+01  0.43400735169E+02  0.00000000000E+00 0.  1.
         11    1    3    3    0    0  0.50248621368E+00 -0.18686141070E+01  0.28062300996E+01  0.34086857744E+01  0.51100000000E-03 0. -1.
        -11    1    3    3    0    0  0.14627263816E+02 -0.19985898376E+02 -0.51042927608E+01  0.25287285055E+02  0.51100000000E-03 0.  1.
        -12    1    3    3    0    0  0.16172475615E+02 -0.79388297481E+01  0.63169234090E+01  0.19091294001E+02  0.00000000000E+00 0.  1.
</event>
<event>
 7    1  0.8440037E-011  0.4778727E+02  0.7816164E-02  0.1312668E+00
        -11   -1    0    0    0    0  0.00000000000E+00  0.00000000000E+00  0.45593999997E+02  0.45594000000E+02  0.51100000000E-03 0. -1.
         11   -1    0    0    0    0 -0.00000000000E+00 -0.00000000000E+00 -0.45593999997E+02  0.45594000000E+02  0.51100000000E-03 0.  1.
    9900012    2    1    2    0    0 -0.14119103927E+02 -0.13086265995E+01 -0.41019040543E+02  0.47787270900E+02  0.19999999343E+02 0.  0.
         12    1    1    2    0    0  0.14119103927E+02  0.13086265995E+01  0.41019040543E+02  0.43400729100E+02  0.00000000000E+00 0. -1.
         11    1    3    3    0    0  0.77616751673E+00 -0.13939219696E+01 -0.58346608149E+01  0.60488611786E+01  0.51100000000E-03 0. -1.
        -11    1    3    3    0    0 -0.13119158500E+02  0.73031430280E+01 -0.23104945189E+02  0.27555157599E+02  0.51100000000E-03 0.  1.
        -12    1    3    3    0    0 -0.17761129438E+01 -0.72178476578E+01 -0.12079434539E+02  0.14183252123E+02  0.00000000000E+00 0.  1.
</event>
<event>
 7    1  0.8440037E-011  0.4778728E+02  0.7816164E-02  0.1312668E+00
        -11   -1    0    0    0    0  0.00000000000E+00  0.00000000000E+00  0.45593999997E+02  0.45594000000E+02  0.51100000000E-03 0. -1.
         11   -1    0    0    0    0 -0.00000000000E+00 -0.00000000000E+00 -0.45593999997E+02  0.45594000000E+02  0.51100000000E-03 0.  1.
    9900012    2    1    2    0    0  0.87519460277E+01  0.29667339793E+02 -0.30444625309E+02  0.47787276275E+02  0.20000023846E+02 0.  0.
         12    1    1    2    0    0 -0.87519460277E+01 -0.29667339793E+02  0.30444625309E+02  0.43400723725E+02  0.00000000000E+00 0. -1.
         11    1    3    3    0    0  0.37872646930E+01  0.17835352169E+01 -0.21045399209E+01  0.46854519808E+01  0.51100000000E-03 0. -1.
        -11    1    3    3    0    0  0.28041206241E+01  0.26984032601E+02 -0.18136641162E+02  0.32633400999E+02  0.51100000000E-03 0.  1.
        -12    1    3    3    0    0  0.21605607105E+01  0.89977197540E+00 -0.10203444226E+02  0.10468423294E+02  0.00000000000E+00 0.  1.
</event>
<event>
 7    1  0.8440037E-011  0.4778727E+02  0.7816164E-02  0.1312668E+00
        -11   -1    0    0    0    0  0.00000000000E+00  0.00000000000E+00  0.45593999997E+02  0.45594000000E+02  0.51100000000E-03 0. -1.
         11   -1    0    0    0    0 -0.00000000000E+00 -0.00000000000E+00 -0.45593999997E+02  0.45594000000E+02  0.51100000000E-03 0.  1.
    9900012    2    1    2    0    0  0.12533008918E+02 -0.31811556283E+02 -0.26731474552E+02  0.47787272386E+02  0.20000006117E+02 0.  0.
         12    1    1    2    0    0 -0.12533008918E+02  0.31811556283E+02  0.26731474552E+02  0.43400727614E+02  0.00000000000E+00 0. -1.
         11    1    3    3    0    0 -0.10679951299E+01 -0.66907599328E+01 -0.70207463961E+01  0.97569340623E+01  0.51100000000E-03 0. -1.
        -11    1    3    3    0    0  0.64554388029E-01 -0.14427988586E+02 -0.13313347354E+02  0.19632020781E+02  0.51100000000E-03 0.  1.
        -12    1    3    3    0    0  0.13536449660E+02 -0.10692807765E+02 -0.63973808018E+01  0.18398317543E+02  0.00000000000E+00 0.  1.
</event>
<event>
 7    1  0.8440037E-011  0.4778727E+02  0.7816164E-02  0.1312668E+00
        -11   -1    0    0    0    0  0.00000000000E+00  0.00000000000E+00  0.45593999997E+02  0.45594000000E+02  0.51100000000E-03 0. -1.
         11   -1    0    0    0    0 -0.00000000000E+00 -0.00000000000E+00 -0.45593999997E+02  0.45594000000E+02  0.51100000000E-03 0.  1.
    9900012    2    1    2    0    0  0.23447622542E+02 -0.20251586103E+02  0.30392529631E+02  0.47787267289E+02  0.19999982876E+02 0.  0.
        -12    1    1    2    0    0 -0.23447622542E+02  0.20251586103E+02 -0.30392529631E+02  0.43400732711E+02  0.00000000000E+00 0.  1.
         11    1    3    3    0    0  0.16780248798E+02 -0.14739516602E+02  0.21204790501E+02  0.30797292736E+02  0.51100000000E-03 0. -1.
        -11    1    3    3    0    0  0.77131146040E+01 -0.30241532567E+01  0.10976573650E+02  0.13752192886E+02  0.51100000000E-03 0.  1.
         12    1    3    3    0    0 -0.10457408597E+01 -0.24879162434E+01 -0.17888345209E+01  0.32377816669E+01  0.00000000000E+00 0. -1.
</event>
<event>
 7    1  0.8440037E-011  0.4778728E+02  0.7816164E-02  0.1312668E+00
        -11   -1    0    0    0    0  0.00000000000E+00  0.00000000000E+00  0.45593999997E+02  0.45594000000E+02  0.51100000000E-03 0. -1.
         11   -1    0    0    0    0 -0.00000000000E+00 -0.00000000000E+00 -0.45593999997E+02  0.45594000000E+02  0.51100000000E-03 0.  1.
    9900012    2    1    2    0    0 -0.14499713072E+02  0.14101300645E+02  0.38399665430E+02  0.47787278068E+02  0.20000032024E+02 0.  0.
        -12    1    1    2    0    0  0.14499713072E+02 -0.14101300645E+02 -0.38399665430E+02  0.43400721932E+02  0.00000000000E+00 0.  1.
         11    1    3    3    0    0  0.11787513001E+01  0.31181589019E+00  0.65057721139E+01  0.66190448583E+01  0.51100000000E-03 0. -1.
        -11    1    3    3    0    0 -0.95343526556E+00  0.55783269696E+01  0.69031707314E+00  0.57011672935E+01  0.51100000000E-03 0.  1.
        -12    1    3    3    0    0 -0.14725029107E+02  0.82111577856E+01  0.31203576243E+02  0.35467065916E+02  0.00000000000E+00 0.  1.
</event>
<event>
 7    1  0.8440037E-011  0.4778727E+02  0.7816164E-02  0.1312668E+00
        -11   -1    0    0    0    0  0.00000000000E+00  0.00000000000E+00  0.45593999997E+02  0.45594000000E+02  0.51100000000E-03 0. -1.
         11   -1    0    0    0    0 -0.00000000000E+00 -0.00000000000E+00 -0.45593999997E+02  0.45594000000E+02  0.51100000000E-03 0.  1.
    9900012    2    1    2    0    0 -0.17088542292E+02  0.13244082723E+02 -0.37632425250E+02  0.47787269188E+02  0.19999991536E+02 0.  0.
         12    1    1    2    0    0  0.17088542292E+02 -0.13244082723E+02  0.37632425250E+02  0.43400730812E+02  0.00000000000E+00 0. -1.
         11    1    3    3    0    0 -0.19118594163E+00 -0.25507586918E+00 -0.89155721743E+01  0.89212691485E+01  0.51100000000E-03 0. -1.
        -11    1    3    3    0    0 -0.25605947944E+01  0.18280010174E+01  0.14665246414E+01  0.34711566092E+01  0.51100000000E-03 0.  1.
        -12    1    3    3    0    0 -0.14336761556E+02  0.11671157574E+02 -0.30183377717E+02  0.35394843430E+02  0.00000000000E+00 0.  1.
</event>
<event>
 7    1  0.8440037E-011  0.4778728E+02  0.7816164E-02  0.1312668E+00
        -11   -1    0    0    0    0  0.00000000000E+00  0.00000000000E+00  0.45593999997E+02  0.45594000000E+02  0.51100000000E-03 0. -1.
         11   -1    0    0    0    0 -0.00000000000E+00 -0.00000000000E+00 -0.45593999997E+02  0.45594000000E+02  0.51100000000E-03 0.  1.
    9900012    2    1    2    0    0  0.25024945751E+02  0.13215940463E+02 -0.32904606195E+02  0.47787284557E+02  0.20000061609E+02 0.  0.
         12    1    1    2    0    0 -0.25024945751E+02 -0.13215940463E+02  0.32904606195E+02  0.43400715443E+02  0.00000000000E+00 0. -1.
         11    1    3    3    0    0  0.29257550714E+01  0.46849156112E+01 -0.15030744258E+01  0.57243086930E+01  0.51100000000E-03 0. -1.
        -11    1    3    3    0    0  0.11133485591E+02 -0.11485601971E+00 -0.50195860257E+01  0.12213268909E+02  0.51100000000E-03 0.  1.
        -12    1    3    3    0    0  0.10965705088E+02  0.86458808716E+01 -0.26381945743E+02  0.29849706955E+02  0.00000000000E+00 0.  1.
</event>
<event>
 7    1  0.8440037E-011  0.4778727E+02  0.7816164E-02  0.1312668E+00
        -11   -1    0    0    0    0  0.00000000000E+00  0.00000000000E+00  0.45593999997E+02  0.45594000000E+02  0.51100000000E-03 0.  1.
         11   -1    0    0    0    0 -0.00000000000E+00 -0.00000000000E+00 -0.45593999997E+02  0.45594000000E+02  0.51100000000E-03 0. -1.
    9900012    2    1    2    0    0 -0.13374234883E+02  0.36840377041E+02  0.18642429052E+02  0.47787266133E+02  0.19999977608E+02 0.  0.
        -12    1    1    2    0    0  0.13374234883E+02 -0.36840377041E+02 -0.18642429052E+02  0.43400733867E+02  0.00000000000E+00 0.  1.
         11    1    3    3    0    0 -0.52450563711E+01  0.87614773912E+01  0.85792292650E+01  0.13337064049E+02  0.51100000000E-03 0. -1.
        -11    1    3    3    0    0 -0.12682735130E+02  0.20505610232E+02  0.73739858005E+01  0.25213240335E+02  0.51100000000E-03 0.  1.
         12    1    3    3    0    0  0.45535566181E+01  0.75732894182E+01  0.26892139863E+01  0.92369617489E+01  0.00000000000E+00 0. -1.
</event>
<event>
 7    1  0.8440037E-011  0.4778727E+02  0.7816164E-02  0.1312668E+00
        -11   -1    0    0    0    0  0.00000000000E+00  0.00000000000E+00  0.45593999997E+02  0.45594000000E+02  0.51100000000E-03 0. -1.
         11   -1    0    0    0    0 -0.00000000000E+00 -0.00000000000E+00 -0.45593999997E+02  0.45594000000E+02  0.51100000000E-03 0.  1.
    9900012    2    1    2    0    0  0.18569824763E+02 -0.21856099017E+02  0.32574463989E+02  0.47787272355E+02  0.20000005975E+02 0.  0.
        -12    1    1    2    0    0 -0.18569824763E+02  0.21856099017E+02 -0.32574463989E+02  0.43400727645E+02  0.00000000000E+00 0.  1.
         11    1    3    3    0    0  0.15349464468E+02 -0.20175849438E+02  0.17516322506E+02  0.30813836412E+02  0.51100000000E-03 0.  1.
        -11    1    3    3    0    0  0.25470414231E+01 -0.43709626746E+01  0.97111932814E+01  0.10949886297E+02  0.51100000000E-03 0. -1.
        -12    1    3    3    0    0  0.67331887126E+00  0.26907130959E+01  0.53469482014E+01  0.60235496457E+01  0.00000000000E+00 0.  1.
</event>
<event>
 7    1  0.8440037E-011  0.4778727E+02  0.7816164E-02  0.1312668E+00
        -11   -1    0    0    0    0  0.00000000000E+00  0.00000000000E+00  0.45593999997E+02  0.45594000000E+02  0.51100000000E-03 0. -1.
         11   -1    0    0    0    0 -0.00000000000E+00 -0.00000000000E+00 -0.45593999997E+02  0.45594000000E+02  0.51100000000E-03 0.  1.
    9900012    2    1    2    0    0 -0.29417202608E+02 -0.16479109202E+02  0.27325634437E+02  0.47787272509E+02  0.20000006678E+02 0.  0.
        -12    1    1    2    0    0  0.29417202608E+02  0.16479109202E+02 -0.27325634437E+02  0.43400727491E+02  0.00000000000E+00 0.  1.
         11    1    3    3    0    0 -0.18049142239E+01  0.57181791709E+00  0.82046272360E+01  0.84202493686E+01  0.51100000000E-03 0. -1.
        -11    1    3    3    0    0 -0.96586114898E+01 -0.11613867599E+00  0.65391314320E+01  0.11664583329E+02  0.51100000000E-03 0.  1.
        -12    1    3    3    0    0 -0.17953676894E+02 -0.16934788443E+02  0.12581875769E+02  0.27702439811E+02  0.00000000000E+00 0.  1.
</event>
<event>
 7    1  0.8440037E-011  0.4778727E+02  0.7816164E-02  0.1312668E+00
        -11   -1    0    0    0    0  0.00000000000E+00  0.00000000000E+00  0.45593999997E+02  0.45594000000E+02  0.51100000000E-03 0. -1.
         11   -1    0    0    0    0 -0.00000000000E+00 -0.00000000000E+00 -0.45593999997E+02  0.45594000000E+02  0.51100000000E-03 0.  1.
    9900012    2    1    2    0    0  0.19743561174E+02  0.31827832266E+02 -0.21927252274E+02  0.47787268360E+02  0.19999987761E+02 0.  0.
         12    1    1    2    0    0 -0.19743561174E+02 -0.31827832266E+02  0.21927252274E+02  0.43400731640E+02  0.00000000000E+00 0. -1.
         11    1    3    3    0    0  0.63514587638E+01  0.32763719509E+00 -0.28256129580E+01  0.69593436048E+01  0.51100000000E-03 0. -1.
        -11    1    3    3    0    0  0.65776191105E+01  0.82640930127E+01 -0.10285018663E+01  0.10612168621E+02  0.51100000000E-03 0.  1.
         12    1    3    3    0    0  0.68144833002E+01  0.23236102058E+02 -0.18073137449E+02  0.30215756134E+02  0.00000000000E+00 0. -1.
</event>
<event>
 7    1  0.1015472E-010  0.4778727E+02  0.7816164E-02  0.1312668E+00
        -11   -1    0    0    0    0  0.00000000000E+00  0.00000000000E+00  0.45593999997E+02  0.45594000000E+02  0.51100000000E-03 0. -1.
         11   -1    0    0    0    0 -0.00000000000E+00 -0.00000000000E+00 -0.45593999997E+02  0.45594000000E+02  0.51100000000E-03 0.  1.
    9900012    2    1    2    0    0  0.22104299981E+02 -0.15367770282E+02  0.34041954879E+02  0.47787272666E+02  0.20000007394E+02 0.  0.
        -12    1    1    2    0    0 -0.22104299981E+02  0.15367770282E+02 -0.34041954879E+02  0.43400727334E+02  0.00000000000E+00 0.  1.
         11    1    3    3    0    0  0.48642398783E+01 -0.20824196531E+01  0.14922465721E+02  0.15832791436E+02  0.51100000000E-03 0. -1.
        -11    1    3    3    0    0 -0.20158676536E+01 -0.29182049315E+01  0.14212553515E+01  0.38209435293E+01  0.51100000000E-03 0.  1.
         12    1    3    3    0    0  0.19255927757E+02 -0.10367145697E+02  0.17698233807E+02  0.28133537701E+02  0.00000000000E+00 0. -1.
</event>
<event>
 7    1  0.8440037E-011  0.4778727E+02  0.7816164E-02  0.1312668E+00
        -11   -1    0    0    0    0  0.00000000000E+00  0.00000000000E+00  0.45593999997E+02  0.45594000000E+02  0.51100000000E-03 0. -1.
         11   -1    0    0    0    0 -0.00000000000E+00 -0.00000000000E+00 -0.45593999997E+02  0.45594000000E+02  0.51100000000E-03 0.  1.
    9900012    2    1    2    0    0 -0.19309132230E+02  0.10815129029E+02 -0.37333813885E+02  0.47787271174E+02  0.20000000592E+02 0.  0.
         12    1    1    2    0    0  0.19309132230E+02 -0.10815129029E+02  0.37333813885E+02  0.43400728826E+02  0.00000000000E+00 0. -1.
         11    1    3    3    0    0 -0.73977712344E+01 -0.45765582726E+01 -0.75096872526E+01  0.11492054114E+02  0.51100000000E-03 0. -1.
        -11    1    3    3    0    0  0.88716575160E+00  0.50543105672E+00 -0.10747108277E+01  0.14824058986E+01  0.51100000000E-03 0.  1.
        -12    1    3    3    0    0 -0.12798526747E+02  0.14886256244E+02 -0.28749415805E+02  0.34812811162E+02  0.00000000000E+00 0.  1.
</event>
<event>
 7    1  0.8440037E-011  0.4778727E+02  0.7816164E-02  0.1312668E+00
        -11   -1    0    0    0    0  0.00000000000E+00  0.00000000000E+00  0.45593999997E+02  0.45594000000E+02  0.51100000000E-03 0.  1.
         11   -1    0    0    0    0 -0.00000000000E+00 -0.00000000000E+00 -0.45593999997E+02  0.45594000000E+02  0.51100000000E-03 0. -1.
    9900012    2    1    2    0    0 -0.32859528636E+02 -0.27340269834E+02 -0.75089679904E+01  0.47787267551E+02  0.19999984074E+02 0.  0.
         12    1    1    2    0    0  0.32859528636E+02  0.27340269834E+02  0.75089679904E+01  0.43400732449E+02  0.00000000000E+00 0. -1.
         11    1    3    3    0    0 -0.43849423207E+01 -0.48134933440E+01  0.39907989576E+01  0.76370094873E+01  0.51100000000E-03 0. -1.
        -11    1    3    3    0    0 -0.18720520156E+02 -0.85667264238E+01 -0.20898178006E+01  0.20693332628E+02  0.51100000000E-03 0.  1.
        -12    1    3    3    0    0 -0.97540661598E+01 -0.13960050066E+02 -0.94099491474E+01  0.19456925437E+02  0.00000000000E+00 0.  1.
</event>
<event>
 7    1  0.8440037E-011  0.4778727E+02  0.7816164E-02  0.1312668E+00
        -11   -1    0    0    0    0  0.00000000000E+00  0.00000000000E+00  0.45593999997E+02  0.45594000000E+02  0.51100000000E-03 0. -1.
         11   -1    0    0    0    0 -0.00000000000E+00 -0.00000000000E+00 -0.45593999997E+02  0.45594000000E+02  0.51100000000E-03 0.  1.
    9900012    2    1    2    0    0 -0.29227702280E+02 -0.20419698245E+02 -0.24746729834E+02  0.47787270807E+02  0.19999998919E+02 0.  0.
         12    1    1    2    0    0  0.29227702280E+02  0.20419698245E+02  0.24746729834E+02  0.43400729193E+02  0.00000000000E+00 0. -1.
         11    1    3    3    0    0 -0.43814130181E+01  0.10423756606E+01  0.17237059291E+00  0.45069988834E+01  0.51100000000E-03 0. -1.
        -11    1    3    3    0    0 -0.19882493834E+02 -0.19049096433E+02 -0.13651312216E+02  0.30733368860E+02  0.51100000000E-03 0.  1.
         12    1    3    3    0    0 -0.49637954270E+01 -0.24129774728E+01 -0.11267788212E+02  0.12546903064E+02  0.00000000000E+00 0. -1.
</event>
<event>
 7    1  0.8440037E-011  0.4778728E+02  0.7816164E-02  0.1312668E+00
        -11   -1    0    0    0    0  0.00000000000E+00  0.00000000000E+00  0.45593999997E+02  0.45594000000E+02  0.51100000000E-03 0. -1.
         11   -1    0    0    0    0 -0.00000000000E+00 -0.00000000000E+00 -0.45593999997E+02  0.45594000000E+02  0.51100000000E-03 0.  1.
    9900012    2    1    2    0    0 -0.39971088397E+01  0.11430347564E+02 -0.41677249723E+02  0.47787275709E+02  0.20000021268E+02 0.  0.
         12    1    1    2    0    0  0.39971088397E+01 -0.11430347564E+02  0.41677249723E+02  0.43400724291E+02  0.00000000000E+00 0. -1.
         11    1    3    3    0    0  0.27675910201E+01  0.33274249115E+01 -0.16756693737E+02  0.17306591283E+02  0.51100000000E-03 0. -1.
        -11    1    3    3    0    0  0.88103409800E+00 -0.31629239663E+01 -0.87254378413E+01  0.93227450293E+01  0.51100000000E-03 0.  1.
         12    1    3    3    0    0 -0.76457339578E+01  0.11265846618E+02 -0.16195118145E+02  0.21157939397E+02  0.00000000000E+00 0. -1.
</event>
<event>
 7    1  0.8440037E-011  0.4778727E+02  0.7816164E-02  0.1312668E+00
        -11   -1    0    0    0    0  0.00000000000E+00  0.00000000000E+00  0.45593999997E+02  0.45594000000E+02  0.51100000000E-03 0. -1.
         11   -1    0    0    0    0 -0.00000000000E+00 -0.00000000000E+00 -0.45593999997E+02  0.45594000000E+02  0.51100000000E-03 0.  1.
    9900012    2    1    2    0    0  0.14281646399E+02  0.88910982907E+01  0.40007577691E+02  0.47787270451E+02  0.19999997293E+02 0.  0.
        -12    1    1    2    0    0 -0.14281646399E+02 -0.88910982907E+01 -0.40007577691E+02  0.43400729549E+02  0.00000000000E+00 0.  1.
         11    1    3    3    0    0  0.81439368907E+01  0.54996294660E+01  0.34977545857E+02  0.36331781498E+02  0.51100000000E-03 0. -1.
        -11    1    3    3    0    0  0.34184522578E+01 -0.93625100854E+00  0.52559827180E+01  0.63393798106E+01  0.51100000000E-03 0.  1.
        -12    1    3    3    0    0  0.27192572510E+01  0.43277198333E+01 -0.22595088431E+00  0.51161091422E+01  0.00000000000E+00 0.  1.
</event>
<event>
 7    1  0.8440037E-011  0.4778727E+02  0.7816164E-02  0.1312668E+00
        -11   -1    0    0    0    0  0.00000000000E+00  0.00000000000E+00  0.45593999997E+02  0.45594000000E+02  0.51100000000E-03 0. -1.
         11   -1    0    0    0    0 -0.00000000000E+00 -0.00000000000E+00 -0.45593999997E+02  0.45594000000E+02  0.51100000000E-03 0.  1.
    9900012    2    1    2    0    0 -0.31353134253E+02  0.14893189416E+02 -0.26053742911E+02  0.47787266848E+02  0.19999980866E+02 0.  0.
         12    1    1    2    0    0  0.31353134253E+02 -0.14893189416E+02  0.26053742911E+02  0.43400733152E+02  0.00000000000E+00 0. -1.
         11    1    3    3    0    0  0.23735402304E+00 -0.48884402347E+00 -0.58053800799E+00  0.79519183307E+00  0.51100000000E-03 0. -1.
        -11    1    3    3    0    0 -0.89169958184E+01  0.11865964641E+02 -0.16913563362E+02  0.22502945522E+02  0.51100000000E-03 0.  1.
         12    1    3    3    0    0 -0.22673492458E+02  0.35160687985E+01 -0.85596415409E+01  0.24489129493E+02  0.00000000000E+00 0. -1.
</event>
<event>
 7    1  0.8440037E-011  0.4778727E+02  0.7816164E-02  0.1312668E+00
        -11   -1    0    0    0    0  0.00000000000E+00  0.00000000000E+00  0.45593999997E+02  0.45594000000E+02  0.51100000000E-03 0. -1.
         11   -1    0    0    0    0 -0.00000000000E+00 -0.00000000000E+00 -0.45593999997E+02  0.45594000000E+02  0.51100000000E-03 0.  1.
    9900012    2    1    2    0    0 -0.91176536828E+01 -0.83655770730E+01 -0.41599382542E+02  0.47787272860E+02  0.20000008277E+02 0.  0.
         12    1    1    2    0    0  0.91176536828E+01  0.83655770730E+01  0.41599382542E+02  0.43400727140E+02  0.00000000000E+00 0. -1.
         11    1    3    3    0    0  0.90102275917E+00  0.98856141284E+00 -0.35074947765E+01  0.37538800657E+01  0.51100000000E-03 0. -1.
        -11    1    3    3    0    0 -0.14516803151E+02 -0.93764318061E+01 -0.32909701155E+02  0.37171272207E+02  0.51100000000E-03 0.  1.
        -12    1    3    3    0    0  0.44981267092E+01  0.22293320263E-01 -0.51821866104E+01  0.68621205869E+01  0.00000000000E+00 0.  1.
</event>
<event>
 7    1  0.8440037E-011  0.4778724E+02  0.7816164E-02  0.1312668E+00
        -11   -1    0    0    0    0  0.00000000000E+00  0.00000000000E+00  0.45593999997E+02  0.45594000000E+02  0.51100000000E-03 0. -1.
         11   -1    0    0    0    0 -0.00000000000E+00 -0.00000000000E+00 -0.45593999997E+02  0.45594000000E+02  0.51100000000E-03 0.  1.
    9900012    2    1    2    0    0  0.32028737215E+02  0.17641921359E+02  0.23378374412E+02  0.47787242092E+02  0.19999867993E+02 0.  0.
        -12    1    1    2    0    0 -0.32028737215E+02 -0.17641921359E+02 -0.23378374412E+02  0.43400757908E+02  0.00000000000E+00 0.  1.
         11    1    3    3    0    0  0.12776015397E+02  0.21720497388E+01  0.84311072924E+01  0.15460528449E+02  0.51100000000E-03 0. -1.
        -11    1    3    3    0    0  0.97304662645E+00  0.31242515456E+00  0.73118000349E+01  0.73828754037E+01  0.51100000000E-03 0.  1.
        -12    1    3    3    0    0  0.18279675192E+02  0.15157446466E+02  0.76354670851E+01  0.24943838239E+02  0.00000000000E+00 0.  1.
</event>
<event>
 7    1  0.8440037E-011  0.4778727E+02  0.7816164E-02  0.1312668E+00
        -11   -1    0    0    0    0  0.00000000000E+00  0.00000000000E+00  0.45593999997E+02  0.45594000000E+02  0.51100000000E-03 0.  1.
         11   -1    0    0    0    0 -0.00000000000E+00 -0.00000000000E+00 -0.45593999997E+02  0.45594000000E+02  0.51100000000E-03 0. -1.
    9900012    2    1    2    0    0 -0.39397126789E+02 -0.75232582720E+01 -0.16579818878E+02  0.47787269496E+02  0.19999992941E+02 0.  0.
        -12    1    1    2    0    0  0.39397126789E+02  0.75232582720E+01  0.16579818878E+02  0.43400730504E+02  0.00000000000E+00 0.  1.
         11    1    3    3    0    0 -0.11218179813E+02  0.10888891265E+01 -0.12115958530E+01  0.11335837093E+02  0.51100000000E-03 0. -1.
        -11    1    3    3    0    0 -0.13206248895E+02  0.11773924154E+00  0.12035513711E+00  0.13207322137E+02  0.51100000000E-03 0.  1.
         12    1    3    3    0    0 -0.14972698081E+02 -0.87298866400E+01 -0.15488578162E+02  0.23244110266E+02  0.00000000000E+00 0. -1.
</event>
<event>
 7    1  0.8440037E-011  0.4778727E+02  0.7816164E-02  0.1312668E+00
        -11   -1    0    0    0    0  0.00000000000E+00  0.00000000000E+00  0.45593999997E+02  0.45594000000E+02  0.51100000000E-03 0. -1.
         11   -1    0    0    0    0 -0.00000000000E+00 -0.00000000000E+00 -0.45593999997E+02  0.45594000000E+02  0.51100000000E-03 0.  1.
    9900012    2    1    2    0    0 -0.22775052500E+02 -0.35587944514E+02  0.99206152016E+01  0.47787269395E+02  0.19999992478E+02 0.  0.
        -12    1    1    2    0    0  0.22775052500E+02  0.35587944514E+02 -0.99206152016E+01  0.43400730605E+02  0.00000000000E+00 0.  1.
         11    1    3    3    0    0 -0.12942435513E+02 -0.31739926905E+02  0.70920445918E+01  0.35003238331E+02  0.51100000000E-03 0. -1.
        -11    1    3    3    0    0 -0.61851487485E+01 -0.50458043315E+01  0.37751595916E+01  0.88299511095E+01  0.51100000000E-03 0.  1.
        -12    1    3    3    0    0 -0.36474682384E+01  0.11977867220E+01 -0.94658898175E+00  0.39540799539E+01  0.00000000000E+00 0.  1.
</event>
<event>
 7    1  0.8440037E-011  0.4778727E+02  0.7816164E-02  0.1312668E+00
        -11   -1    0    0    0    0  0.00000000000E+00  0.00000000000E+00  0.45593999997E+02  0.45594000000E+02  0.51100000000E-03 0. -1.
         11   -1    0    0    0    0 -0.00000000000E+00 -0.00000000000E+00 -0.45593999997E+02  0.45594000000E+02  0.51100000000E-03 0.  1.
    9900012    2    1    2    0    0 -0.10948542822E+02 -0.92505798244E+01  0.40965591538E+02  0.47787268358E+02  0.19999987752E+02 0.  0.
        -12    1    1    2    0    0  0.10948542822E+02  0.92505798244E+01 -0.40965591538E+02  0.43400731642E+02  0.00000000000E+00 0.  1.
         11    1    3    3    0    0 -0.95743226391E+01 -0.14772079265E+01  0.19768393562E+02  0.22014522061E+02  0.51100000000E-03 0.  1.
        -11    1    3    3    0    0 -0.51082737695E+01  0.81455909740E+00  0.91864830921E+01  0.10542743442E+02  0.51100000000E-03 0. -1.
         12    1    3    3    0    0  0.37340535863E+01 -0.85879309954E+01  0.12010714883E+02  0.15230002855E+02  0.00000000000E+00 0. -1.
</event>
<event>
 7    1  0.8440037E-011  0.4778727E+02  0.7816164E-02  0.1312668E+00
        -11   -1    0    0    0    0  0.00000000000E+00  0.00000000000E+00  0.45593999997E+02  0.45594000000E+02  0.51100000000E-03 0. -1.
         11   -1    0    0    0    0 -0.00000000000E+00 -0.00000000000E+00 -0.45593999997E+02  0.45594000000E+02  0.51100000000E-03 0.  1.
    9900012    2    1    2    0    0 -0.25125771667E+02 -0.25216889078E+02 -0.24827953003E+02  0.47787272506E+02  0.20000006665E+02 0.  0.
         12    1    1    2    0    0  0.25125771667E+02  0.25216889078E+02  0.24827953003E+02  0.43400727494E+02  0.00000000000E+00 0. -1.
         11    1    3    3    0    0 -0.74118038041E+01 -0.43687024174E+01 -0.11544526182E+02  0.14397794327E+02  0.51100000000E-03 0. -1.
        -11    1    3    3    0    0 -0.64582470946E+01 -0.13475432818E+02 -0.13193093504E+02  0.19933739279E+02  0.51100000000E-03 0.  1.
        -12    1    3    3    0    0 -0.11255720769E+02 -0.73727538428E+01 -0.90333316627E-01  0.13455738900E+02  0.00000000000E+00 0.  1.
</event>
<event>
 7    1  0.8440037E-011  0.4778727E+02  0.7816164E-02  0.1312668E+00
        -11   -1    0    0    0    0  0.00000000000E+00  0.00000000000E+00  0.45593999997E+02  0.45594000000E+02  0.51100000000E-03 0. -1.
         11   -1    0    0    0    0 -0.00000000000E+00 -0.00000000000E+00 -0.45593999997E+02  0.45594000000E+02  0.51100000000E-03 0.  1.
    9900012    2    1    2    0    0  0.27969177752E+02 -0.16529505459E+02  0.28777140325E+02  0.47787271204E+02  0.20000000725E+02 0.  0.
        -12    1    1    2    0    0 -0.27969177752E+02  0.16529505459E+02 -0.28777140325E+02  0.43400728796E+02  0.00000000000E+00 0.  1.
         11    1    3    3    0    0  0.16397711952E+02 -0.79467309554E+01  0.14321666190E+02  0.23176402069E+02  0.51100000000E-03 0. -1.
        -11    1    3    3    0    0  0.96822569982E+01 -0.11314231652E+02  0.70114807161E+01  0.16459611191E+02  0.51100000000E-03 0.  1.
         12    1    3    3    0    0  0.18892088015E+01  0.27314571490E+01  0.74439934187E+01  0.81512579440E+01  0.00000000000E+00 0. -1.
</event>
<event>
 7    1  0.8440037E-011  0.4778727E+02  0.7816164E-02  0.1312668E+00
        -11   -1    0    0    0    0  0.00000000000E+00  0.00000000000E+00  0.45593999997E+02  0.45594000000E+02  0.51100000000E-03 0. -1.
         11   -1    0    0    0    0 -0.00000000000E+00 -0.00000000000E+00 -0.45593999997E+02  0.45594000000E+02  0.51100000000E-03 0.  1.
    9900012    2    1    2    0    0  0.34658486260E+02  0.20936264831E+02  0.15623228483E+02  0.47787272781E+02  0.20000007919E+02 0.  0.
        -12    1    1    2    0    0 -0.34658486260E+02 -0.20936264831E+02 -0.15623228483E+02  0.43400727219E+02  0.00000000000E+00 0.  1.
         11    1    3    3    0    0  0.11308875002E+02  0.41617452216E+01  0.44926554216E+01  0.12860588248E+02  0.51100000000E-03 0. -1.
        -11    1    3    3    0    0  0.22465596350E+02  0.76816954702E+01  0.98373884690E+01  0.25699915891E+02  0.51100000000E-03 0.  1.
        -12    1    3    3    0    0  0.88401490798E+00  0.90928241387E+01  0.12931845919E+01  0.92267686415E+01  0.00000000000E+00 0.  1.
</event>
<event>
 7    1  0.8440037E-011  0.4778727E+02  0.7816164E-02  0.1312668E+00
        -11   -1    0    0    0    0  0.00000000000E+00  0.00000000000E+00  0.45593999997E+02  0.45594000000E+02  0.51100000000E-03 0. -1.
         11   -1    0    0    0    0 -0.00000000000E+00 -0.00000000000E+00 -0.45593999997E+02  0.45594000000E+02  0.51100000000E-03 0.  1.
    9900012    2    1    2    0    0  0.19597183751E+02  0.24612350877E+02 -0.29896584909E+02  0.47787271712E+02  0.20000003046E+02 0.  0.
         12    1    1    2    0    0 -0.19597183751E+02 -0.24612350877E+02  0.29896584909E+02  0.43400728288E+02  0.00000000000E+00 0. -1.
         11    1    3    3    0    0  0.78747316429E+01  0.48443504024E+01 -0.13290835739E+02  0.16190288576E+02  0.51100000000E-03 0. -1.
        -11    1    3    3    0    0  0.85531539559E+01  0.31575118059E+01 -0.21913789442E+01  0.93770179341E+01  0.51100000000E-03 0.  1.
         12    1    3    3    0    0  0.31692981525E+01  0.16610488668E+02 -0.14414370226E+02  0.22219965202E+02  0.00000000000E+00 0. -1.
</event>
<event>
 7    1  0.8440037E-011  0.4778727E+02  0.7816164E-02  0.1312668E+00
        -11   -1    0    0    0    0  0.00000000000E+00  0.00000000000E+00  0.45593999997E+02  0.45594000000E+02  0.51100000000E-03 0.  1.
         11   -1    0    0    0    0 -0.00000000000E+00 -0.00000000000E+00 -0.45593999997E+02  0.45594000000E+02  0.51100000000E-03 0. -1.
    9900012    2    1    2    0    0  0.30260260291E+02 -0.31075874069E+02  0.14932265317E+01  0.47787273883E+02  0.20000012942E+02 0.  0.
        -12    1    1    2    0    0 -0.30260260291E+02  0.31075874069E+02 -0.14932265317E+01  0.43400726117E+02  0.00000000000E+00 0.  1.
         11    1    3    3    0    0  0.14472360368E+02 -0.16247892205E+02  0.30838674334E+01  0.21976202000E+02  0.51100000000E-03 0. -1.
        -11    1    3    3    0    0  0.15462558446E+02 -0.62003956024E+01  0.12905030007E+01  0.16709309309E+02  0.51100000000E-03 0.  1.
         12    1    3    3    0    0  0.32534147685E+00 -0.86275862612E+01 -0.28811439024E+01  0.91017625742E+01  0.00000000000E+00 0. -1.
</event>
<event>
 7    1  0.8440037E-011  0.4778731E+02  0.7816164E-02  0.1312668E+00
        -11   -1    0    0    0    0  0.00000000000E+00  0.00000000000E+00  0.45593999997E+02  0.45594000000E+02  0.51100000000E-03 0. -1.
         11   -1    0    0    0    0 -0.00000000000E+00 -0.00000000000E+00 -0.45593999997E+02  0.45594000000E+02  0.51100000000E-03 0.  1.
    9900012    2    1    2    0    0  0.38650647248E+02 -0.12036883711E+02 -0.15648030160E+02  0.47787309337E+02  0.20000174590E+02 0.  0.
         12    1    1    2    0    0 -0.38650647248E+02  0.12036883711E+02  0.15648030160E+02  0.43400690663E+02  0.00000000000E+00 0. -1.
         11    1    3    3    0    0  0.20846041671E+00 -0.10439973415E+01 -0.56408342345E+00  0.12048139126E+01  0.51100000000E-03 0. -1.
        -11    1    3    3    0    0  0.24719126227E+02  0.21403843641E+01 -0.11065118154E+02  0.27167136152E+02  0.51100000000E-03 0.  1.
         12    1    3    3    0    0  0.13723060604E+02 -0.13133270734E+02 -0.40188285820E+01  0.19415359273E+02  0.00000000000E+00 0. -1.
</event>
<event>
 7    1  0.8440037E-011  0.4778726E+02  0.7816164E-02  0.1312668E+00
        -11   -1    0    0    0    0  0.00000000000E+00  0.00000000000E+00  0.45593999997E+02  0.45594000000E+02  0.51100000000E-03 0. -1.
         11   -1    0    0    0    0 -0.00000000000E+00 -0.00000000000E+00 -0.45593999997E+02  0.45594000000E+02  0.51100000000E-03 0.  1.
    9900012    2    1    2    0    0 -0.69015548720E+01  0.69394676431E+00  0.42842868846E+02  0.47787257694E+02  0.19999939132E+02 0.  0.
        -12    1    1    2    0    0  0.69015548720E+01 -0.69394676431E+00 -0.42842868846E+02  0.43400742306E+02  0.00000000000E+00 0.  1.
         11    1    3    3    0    0 -0.43112366514E+00 -0.20110679182E+01  0.22958315344E+02  0.23050260421E+02  0.51100000000E-03 0. -1.
        -11    1    3    3    0    0  0.19078694257E+01  0.40181050832E+01  0.13228532140E+02  0.13956331790E+02  0.51100000000E-03 0.  1.
        -12    1    3    3    0    0 -0.83783006325E+01 -0.13130904007E+01  0.66560213619E+01  0.10780665483E+02  0.00000000000E+00 0.  1.
</event>
<event>
 7    1  0.8440037E-011  0.4778728E+02  0.7816164E-02  0.1312668E+00
        -11   -1    0    0    0    0  0.00000000000E+00  0.00000000000E+00  0.45593999997E+02  0.45594000000E+02  0.51100000000E-03 0. -1.
         11   -1    0    0    0    0 -0.00000000000E+00 -0.00000000000E+00 -0.45593999997E+02  0.45594000000E+02  0.51100000000E-03 0.  1.
    9900012    2    1    2    0    0 -0.17601522797E+02 -0.12517429074E+02 -0.37644691485E+02  0.47787280739E+02  0.20000044200E+02 0.  0.
         12    1    1    2    0    0  0.17601522797E+02  0.12517429074E+02  0.37644691485E+02  0.43400719261E+02  0.00000000000E+00 0. -1.
         11    1    3    3    0    0 -0.13531744348E+01  0.84629032745E+00 -0.25322813059E+00  0.16159867315E+01  0.51100000000E-03 0. -1.
        -11    1    3    3    0    0 -0.41352382737E+01 -0.58689906611E+01 -0.28475751520E+02  0.29366880527E+02  0.51100000000E-03 0.  1.
        -12    1    3    3    0    0 -0.12113110089E+02 -0.74947287405E+01 -0.89157118338E+01  0.16804413481E+02  0.00000000000E+00 0.  1.
</event>
<event>
 7    1  0.8440037E-011  0.4778727E+02  0.7816164E-02  0.1312668E+00
        -11   -1    0    0    0    0  0.00000000000E+00  0.00000000000E+00  0.45593999997E+02  0.45594000000E+02  0.51100000000E-03 0. -1.
         11   -1    0    0    0    0 -0.00000000000E+00 -0.00000000000E+00 -0.45593999997E+02  0.45594000000E+02  0.51100000000E-03 0.  1.
    9900012    2    1    2    0    0 -0.25621724778E+02  0.15236198309E+02  0.31543763407E+02  0.47787268100E+02  0.19999986577E+02 0.  0.
        -12    1    1    2    0    0  0.25621724778E+02 -0.15236198309E+02 -0.31543763407E+02  0.43400731900E+02  0.00000000000E+00 0.  1.
         11    1    3    3    0    0 -0.53759896881E+01 -0.19645481448E+01  0.11101844141E+02  0.12490462687E+02  0.51100000000E-03 0.  1.
        -11    1    3    3    0    0 -0.60378430783E+01  0.72116622862E+01  0.13803719502E+02  0.16703481503E+02  0.51100000000E-03 0. -1.
         12    1    3    3    0    0 -0.14207892012E+02  0.99890841679E+01  0.66381997638E+01  0.18593323910E+02  0.00000000000E+00 0. -1.
</event>
<event>
 7    1  0.8440037E-011  0.4778727E+02  0.7816164E-02  0.1312668E+00
        -11   -1    0    0    0    0  0.00000000000E+00  0.00000000000E+00  0.45593999997E+02  0.45594000000E+02  0.51100000000E-03 0. -1.
         11   -1    0    0    0    0 -0.00000000000E+00 -0.00000000000E+00 -0.45593999997E+02  0.45594000000E+02  0.51100000000E-03 0.  1.
    9900012    2    1    2    0    0  0.30868543988E+02 -0.54178491060E+01  0.30023383459E+02  0.47787266697E+02  0.19999980180E+02 0.  0.
        -12    1    1    2    0    0 -0.30868543988E+02  0.54178491060E+01 -0.30023383459E+02  0.43400733303E+02  0.00000000000E+00 0.  1.
         11    1    3    3    0    0  0.27362150905E+01  0.25196454160E+01  0.46119744196E+01  0.59250142913E+01  0.51100000000E-03 0. -1.
        -11    1    3    3    0    0  0.41045500136E+01  0.45091175798E+01  0.60438571379E+01  0.85853177884E+01  0.51100000000E-03 0.  1.
         12    1    3    3    0    0  0.24027778884E+02 -0.12446612102E+02  0.19367551902E+02  0.33276934618E+02  0.00000000000E+00 0. -1.
</event>
<event>
 7    1  0.8440037E-011  0.4778727E+02  0.7816164E-02  0.1312668E+00
        -11   -1    0    0    0    0  0.00000000000E+00  0.00000000000E+00  0.45593999997E+02  0.45594000000E+02  0.51100000000E-03 0. -1.
         11   -1    0    0    0    0 -0.00000000000E+00 -0.00000000000E+00 -0.45593999997E+02  0.45594000000E+02  0.51100000000E-03 0.  1.
    9900012    2    1    2    0    0 -0.61223139401E+00  0.36971133771E+02  0.22724077685E+02  0.47787271132E+02  0.20000000400E+02 0.  0.
        -12    1    1    2    0    0  0.61223139401E+00 -0.36971133771E+02 -0.22724077685E+02  0.43400728868E+02  0.00000000000E+00 0.  1.
         11    1    3    3    0    0 -0.10569402037E+01  0.50236913571E+01  0.76300789942E+01  0.91963418360E+01  0.51100000000E-03 0.  1.
        -11    1    3    3    0    0 -0.55483536022E+01  0.38388067206E+01  0.34927136436E+01  0.75973491160E+01  0.51100000000E-03 0. -1.
         12    1    3    3    0    0  0.59930624119E+01  0.28108635694E+02  0.11601285047E+02  0.30993580180E+02  0.00000000000E+00 0. -1.
</event>
<event>
 7    1  0.8440037E-011  0.4778727E+02  0.7816164E-02  0.1312668E+00
        -11   -1    0    0    0    0  0.00000000000E+00  0.00000000000E+00  0.45593999997E+02  0.45594000000E+02  0.51100000000E-03 0. -1.
         11   -1    0    0    0    0 -0.00000000000E+00 -0.00000000000E+00 -0.45593999997E+02  0.45594000000E+02  0.51100000000E-03 0.  1.
    9900012    2    1    2    0    0  0.16712313841E+02 -0.92050536694E+01  0.38981905654E+02  0.47787269414E+02  0.19999992565E+02 0.  0.
        -12    1    1    2    0    0 -0.16712313841E+02  0.92050536694E+01 -0.38981905654E+02  0.43400730586E+02  0.00000000000E+00 0.  1.
         11    1    3    3    0    0  0.12452482944E+02 -0.10516574460E+00  0.16185778489E+02  0.20421920010E+02  0.51100000000E-03 0. -1.
        -11    1    3    3    0    0  0.71674124022E+01 -0.56076989897E+01  0.88364165375E+01  0.12684650014E+02  0.51100000000E-03 0.  1.
        -12    1    3    3    0    0 -0.29075815053E+01 -0.34921889351E+01  0.13959710628E+02  0.14680699390E+02  0.00000000000E+00 0.  1.
</event>
<event>
 7    1  0.8440037E-011  0.4778727E+02  0.7816164E-02  0.1312668E+00
        -11   -1    0    0    0    0  0.00000000000E+00  0.00000000000E+00  0.45593999997E+02  0.45594000000E+02  0.51100000000E-03 0.  1.
         11   -1    0    0    0    0 -0.00000000000E+00 -0.00000000000E+00 -0.45593999997E+02  0.45594000000E+02  0.51100000000E-03 0. -1.
    9900012    2    1    2    0    0 -0.23114570626E+02 -0.33964452234E+02 -0.13991277206E+02  0.47787271566E+02  0.20000002376E+02 0.  0.
         12    1    1    2    0    0  0.23114570626E+02  0.33964452234E+02  0.13991277206E+02  0.43400728434E+02  0.00000000000E+00 0. -1.
         11    1    3    3    0    0 -0.17167113656E+02 -0.19114999235E+02 -0.90801766236E+01  0.27249634764E+02  0.51100000000E-03 0. -1.
        -11    1    3    3    0    0 -0.70028417512E+01 -0.25236717936E+01 -0.29748838703E+01  0.80161490891E+01  0.51100000000E-03 0.  1.
         12    1    3    3    0    0  0.10553847810E+01 -0.12325781206E+02 -0.19362167117E+01  0.12521487712E+02  0.00000000000E+00 0. -1.
</event>
<event>
 7    1  0.8440037E-011  0.4778727E+02  0.7816164E-02  0.1312668E+00
        -11   -1    0    0    0    0  0.00000000000E+00  0.00000000000E+00  0.45593999997E+02  0.45594000000E+02  0.51100000000E-03 0. -1.
         11   -1    0    0    0    0 -0.00000000000E+00 -0.00000000000E+00 -0.45593999997E+02  0.45594000000E+02  0.51100000000E-03 0.  1.
    9900012    2    1    2    0    0 -0.22677480661E+02  0.21458587022E+02 -0.30147704437E+02  0.47787272254E+02  0.20000005515E+02 0.  0.
         12    1    1    2    0    0  0.22677480661E+02 -0.21458587022E+02  0.30147704437E+02  0.43400727746E+02  0.00000000000E+00 0. -1.
         11    1    3    3    0    0 -0.46500160146E+01  0.69799693493E+01 -0.18272343909E+01  0.85837874411E+01  0.51100000000E-03 0. -1.
        -11    1    3    3    0    0 -0.88920636388E+01  0.15283442482E+02 -0.21113887064E+02  0.27539946207E+02  0.51100000000E-03 0.  1.
        -12    1    3    3    0    0 -0.91354010076E+01 -0.80482480985E+00 -0.72065829815E+01  0.11663538606E+02  0.00000000000E+00 0.  1.
</event>
<event>
 7    1  0.8440037E-011  0.4778727E+02  0.7816164E-02  0.1312668E+00
        -11   -1    0    0    0    0  0.00000000000E+00  0.00000000000E+00  0.45593999997E+02  0.45594000000E+02  0.51100000000E-03 0. -1.
         11   -1    0    0    0    0 -0.00000000000E+00 -0.00000000000E+00 -0.45593999997E+02  0.45594000000E+02  0.51100000000E-03 0.  1.
    9900012    2    1    2    0    0  0.19100685275E+02  0.10297639446E+02 -0.37586508198E+02  0.47787272417E+02  0.20000006260E+02 0.  0.
         12    1    1    2    0    0 -0.19100685275E+02 -0.10297639446E+02  0.37586508198E+02  0.43400727583E+02  0.00000000000E+00 0. -1.
         11    1    3    3    0    0  0.18854355981E+01  0.66504583038E+00  0.63690147057E+00  0.20982843219E+01  0.51100000000E-03 0. -1.
        -11    1    3    3    0    0  0.17447932258E+01  0.91244757549E+01 -0.17620209362E+02  0.19919140027E+02  0.51100000000E-03 0.  1.
        -12    1    3    3    0    0  0.15470456452E+02  0.50811786119E+00 -0.20603200307E+02  0.25769848068E+02  0.00000000000E+00 0.  1.
</event>
<event>
 7    1  0.8440037E-011  0.4778727E+02  0.7816164E-02  0.1312668E+00
        -11   -1    0    0    0    0  0.00000000000E+00  0.00000000000E+00  0.45593999997E+02  0.45594000000E+02  0.51100000000E-03 0. -1.
         11   -1    0    0    0    0 -0.00000000000E+00 -0.00000000000E+00 -0.45593999997E+02  0.45594000000E+02  0.51100000000E-03 0.  1.
    9900012    2    1    2    0    0  0.17773337199E+01 -0.29621013198E+02 -0.31671126188E+02  0.47787267609E+02  0.19999984338E+02 0.  0.
         12    1    1    2    0    0 -0.17773337199E+01  0.29621013198E+02  0.31671126188E+02  0.43400732391E+02  0.00000000000E+00 0. -1.
         11    1    3    3    0    0  0.34090801540E+01 -0.87584248526E+01 -0.19581653411E+02  0.21720335724E+02  0.51100000000E-03 0. -1.
        -11    1    3    3    0    0  0.40945635472E+01 -0.72896104723E+01 -0.42298505182E+01  0.93699256746E+01  0.51100000000E-03 0.  1.
         12    1    3    3    0    0 -0.57263099812E+01 -0.13572977873E+02 -0.78596222585E+01  0.16697006210E+02  0.00000000000E+00 0. -1.
</event>
<event>
 7    1  0.8440037E-011  0.4778727E+02  0.7816164E-02  0.1312668E+00
        -11   -1    0    0    0    0  0.00000000000E+00  0.00000000000E+00  0.45593999997E+02  0.45594000000E+02  0.51100000000E-03 0. -1.
         11   -1    0    0    0    0 -0.00000000000E+00 -0.00000000000E+00 -0.45593999997E+02  0.45594000000E+02  0.51100000000E-03 0.  1.
    9900012    2    1    2    0    0  0.55458479483E+01 -0.24793096791E+02  0.35187630218E+02  0.47787269611E+02  0.19999993465E+02 0.  0.
        -12    1    1    2    0    0 -0.55458479483E+01  0.24793096791E+02 -0.35187630218E+02  0.43400730389E+02  0.00000000000E+00 0.  1.
         11    1    3    3    0    0  0.31494207383E+01 -0.51294140183E+01  0.70536874281E+01  0.92727690445E+01  0.51100000000E-03 0. -1.
        -11    1    3    3    0    0  0.28451187411E+01 -0.36979879110E+01 -0.14571524646E+01  0.48880577745E+01  0.51100000000E-03 0.  1.
         12    1    3    3    0    0 -0.44869153111E+00 -0.15965694861E+02  0.29591095254E+02  0.33626442792E+02  0.00000000000E+00 0. -1.
</event>
<event>
 7    1  0.8440037E-011  0.4778727E+02  0.7816164E-02  0.1312668E+00
        -11   -1    0    0    0    0  0.00000000000E+00  0.00000000000E+00  0.45593999997E+02  0.45594000000E+02  0.51100000000E-03 0. -1.
         11   -1    0    0    0    0 -0.00000000000E+00 -0.00000000000E+00 -0.45593999997E+02  0.45594000000E+02  0.51100000000E-03 0.  1.
    9900012    2    1    2    0    0  0.99463610731E+01  0.18953122146E+02 -0.37755427429E+02  0.47787271457E+02  0.20000001881E+02 0.  0.
         12    1    1    2    0    0 -0.99463610731E+01 -0.18953122146E+02  0.37755427429E+02  0.43400728543E+02  0.00000000000E+00 0. -1.
         11    1    3    3    0    0  0.82696255195E+01  0.36246222938E+01 -0.20447230999E+02  0.22352043504E+02  0.51100000000E-03 0. -1.
        -11    1    3    3    0    0  0.46067181730E+01  0.24217762142E+01 -0.32947549457E+01  0.61597291150E+01  0.51100000000E-03 0.  1.
         12    1    3    3    0    0 -0.29299826193E+01  0.12906723638E+02 -0.14013441484E+02  0.19275498838E+02  0.00000000000E+00 0. -1.
</event>
<event>
 7    1  0.8440037E-011  0.4778727E+02  0.7816164E-02  0.1312668E+00
        -11   -1    0    0    0    0  0.00000000000E+00  0.00000000000E+00  0.45593999997E+02  0.45594000000E+02  0.51100000000E-03 0. -1.
         11   -1    0    0    0    0 -0.00000000000E+00 -0.00000000000E+00 -0.45593999997E+02  0.45594000000E+02  0.51100000000E-03 0.  1.
    9900012    2    1    2    0    0  0.12223468658E+02  0.17637038568E+02  0.37724590489E+02  0.47787273704E+02  0.20000012127E+02 0.  0.
        -12    1    1    2    0    0 -0.12223468658E+02 -0.17637038568E+02 -0.37724590489E+02  0.43400726296E+02  0.00000000000E+00 0.  1.
         11    1    3    3    0    0  0.42847504715E+01  0.12159449815E+02  0.26320546905E+02  0.29308403164E+02  0.51100000000E-03 0.  1.
        -11    1    3    3    0    0 -0.29487667740E+00  0.36977786056E+01  0.89757587661E+01  0.97120937268E+01  0.51100000000E-03 0. -1.
        -12    1    3    3    0    0  0.82335948635E+01  0.17798101475E+01  0.24282848180E+01  0.87667768133E+01  0.00000000000E+00 0.  1.
</event>
<event>
 7    1  0.8440037E-011  0.4778727E+02  0.7816164E-02  0.1312668E+00
        -11   -1    0    0    0    0  0.00000000000E+00  0.00000000000E+00  0.45593999997E+02  0.45594000000E+02  0.51100000000E-03 0. -1.
         11   -1    0    0    0    0 -0.00000000000E+00 -0.00000000000E+00 -0.45593999997E+02  0.45594000000E+02  0.51100000000E-03 0.  1.
    9900012    2    1    2    0    0  0.86253948464E+01  0.22065666108E+02  0.36363884906E+02  0.47787272097E+02  0.20000004799E+02 0.  0.
        -12    1    1    2    0    0 -0.86253948464E+01 -0.22065666108E+02 -0.36363884906E+02  0.43400727903E+02  0.00000000000E+00 0.  1.
         11    1    3    3    0    0  0.68576088510E+01  0.11183781554E+02  0.20392807453E+02  0.24248100237E+02  0.51100000000E-03 0. -1.
        -11    1    3    3    0    0  0.45458528677E+01 -0.12844173798E+01  0.33573821371E+01  0.57953879400E+01  0.51100000000E-03 0.  1.
        -12    1    3    3    0    0 -0.27780668723E+01  0.12166301934E+02  0.12613695316E+02  0.17743783920E+02  0.00000000000E+00 0.  1.
</event>
<event>
 7    1  0.8440037E-011  0.4778728E+02  0.7816164E-02  0.1312668E+00
        -11   -1    0    0    0    0  0.00000000000E+00  0.00000000000E+00  0.45593999997E+02  0.45594000000E+02  0.51100000000E-03 0. -1.
         11   -1    0    0    0    0 -0.00000000000E+00 -0.00000000000E+00 -0.45593999997E+02  0.45594000000E+02  0.51100000000E-03 0.  1.
    9900012    2    1    2    0    0 -0.41776469941E+02 -0.77592029060E+01  0.88399226180E+01  0.47787275325E+02  0.20000019516E+02 0.  0.
        -12    1    1    2    0    0  0.41776469941E+02  0.77592029060E+01 -0.88399226180E+01  0.43400724675E+02  0.00000000000E+00 0.  1.
         11    1    3    3    0    0 -0.25074373777E+02  0.95671725276E+00  0.16777939596E+01  0.25148648493E+02  0.51100000000E-03 0. -1.
        -11    1    3    3    0    0 -0.73570883438E+00  0.20241869955E+01  0.13316119358E+01  0.25321514746E+01  0.51100000000E-03 0.  1.
         12    1    3    3    0    0 -0.15966387329E+02 -0.10740107154E+02  0.58305167227E+01  0.20106475357E+02  0.00000000000E+00 0. -1.
</event>
<event>
 7    1  0.8440037E-011  0.4778727E+02  0.7816164E-02  0.1312668E+00
        -11   -1    0    0    0    0  0.00000000000E+00  0.00000000000E+00  0.45593999997E+02  0.45594000000E+02  0.51100000000E-03 0. -1.
         11   -1    0    0    0    0 -0.00000000000E+00 -0.00000000000E+00 -0.45593999997E+02  0.45594000000E+02  0.51100000000E-03 0.  1.
    9900012    2    1    2    0    0 -0.55536131128E+01 -0.32471204123E+02 -0.28256002351E+02  0.47787269768E+02  0.19999994179E+02 0.  0.
         12    1    1    2    0    0  0.55536131128E+01  0.32471204123E+02  0.28256002351E+02  0.43400730232E+02  0.00000000000E+00 0. -1.
         11    1    3    3    0    0 -0.17164699685E+01  0.14201043080E+01  0.59215482377E+00  0.23051275441E+01  0.51100000000E-03 0. -1.
        -11    1    3    3    0    0 -0.88489622779E-01 -0.61581030085E+01 -0.99899541312E+01  0.11735810448E+02  0.51100000000E-03 0.  1.
        -12    1    3    3    0    0 -0.37486535215E+01 -0.27733205423E+02 -0.18858203043E+02  0.33746331775E+02  0.00000000000E+00 0.  1.
</event>
<event>
 7    1  0.8440037E-011  0.4778726E+02  0.7816164E-02  0.1312668E+00
        -11   -1    0    0    0    0  0.00000000000E+00  0.00000000000E+00  0.45593999997E+02  0.45594000000E+02  0.51100000000E-03 0. -1.
         11   -1    0    0    0    0 -0.00000000000E+00 -0.00000000000E+00 -0.45593999997E+02  0.45594000000E+02  0.51100000000E-03 0.  1.
    9900012    2    1    2    0    0 -0.71816620216E+01 -0.73483302334E+01  0.42166926917E+02  0.47787263229E+02  0.19999964368E+02 0.  0.
        -12    1    1    2    0    0  0.71816620216E+01  0.73483302334E+01 -0.42166926917E+02  0.43400736771E+02  0.00000000000E+00 0.  1.
         11    1    3    3    0    0 -0.23428387698E+01  0.66567494173E+00  0.22152739560E+01  0.32923328493E+01  0.51100000000E-03 0. -1.
        -11    1    3    3    0    0  0.57979079147E+01  0.29710112924E+00  0.87772648747E+01  0.10523515772E+02  0.51100000000E-03 0.  1.
         12    1    3    3    0    0 -0.10636731166E+02 -0.83111063043E+01  0.31174388086E+02  0.33971414608E+02  0.00000000000E+00 0. -1.
</event>
<event>
 7    1  0.8440037E-011  0.4778727E+02  0.7816164E-02  0.1312668E+00
        -11   -1    0    0    0    0  0.00000000000E+00  0.00000000000E+00  0.45593999997E+02  0.45594000000E+02  0.51100000000E-03 0. -1.
         11   -1    0    0    0    0 -0.00000000000E+00 -0.00000000000E+00 -0.45593999997E+02  0.45594000000E+02  0.51100000000E-03 0.  1.
    9900012    2    1    2    0    0 -0.10586095044E+01  0.10559773244E+02  0.42083175665E+02  0.47787272597E+02  0.20000007079E+02 0.  0.
        -12    1    1    2    0    0  0.10586095044E+01 -0.10559773244E+02 -0.42083175665E+02  0.43400727403E+02  0.00000000000E+00 0.  1.
         11    1    3    3    0    0 -0.38813759056E+01  0.69998352405E+01  0.10205582036E+02  0.12969837211E+02  0.51100000000E-03 0. -1.
        -11    1    3    3    0    0  0.21120706109E+01  0.36653806122E+01  0.15868621907E+01  0.45181842782E+01  0.51100000000E-03 0.  1.
        -12    1    3    3    0    0  0.71069579028E+00 -0.10544260899E+00  0.30290731438E+02  0.30299251108E+02  0.00000000000E+00 0.  1.
</event>
<event>
 7    1  0.8440037E-011  0.4778727E+02  0.7816164E-02  0.1312668E+00
        -11   -1    0    0    0    0  0.00000000000E+00  0.00000000000E+00  0.45593999997E+02  0.45594000000E+02  0.51100000000E-03 0. -1.
         11   -1    0    0    0    0 -0.00000000000E+00 -0.00000000000E+00 -0.45593999997E+02  0.45594000000E+02  0.51100000000E-03 0.  1.
    9900012    2    1    2    0    0  0.38230213374E+01 -0.94908077871E+00  0.43221604181E+02  0.47787270577E+02  0.19999997868E+02 0.  0.
        -12    1    1    2    0    0 -0.38230213374E+01  0.94908077871E+00 -0.43221604181E+02  0.43400729423E+02  0.00000000000E+00 0.  1.
         11    1    3    3    0    0  0.52973999223E+01  0.11483828213E+01  0.17513044052E+02  0.18332701418E+02  0.51100000000E-03 0. -1.
        -11    1    3    3    0    0  0.60225783348E+01 -0.13339036974E+00  0.71920301029E+01  0.93816064750E+01  0.51100000000E-03 0.  1.
         12    1    3    3    0    0 -0.74969569198E+01 -0.19640732303E+01  0.18516530026E+02  0.20072962684E+02  0.00000000000E+00 0. -1.
</event>
<event>
 7    1  0.8440037E-011  0.4778727E+02  0.7816164E-02  0.1312668E+00
        -11   -1    0    0    0    0  0.00000000000E+00  0.00000000000E+00  0.45593999997E+02  0.45594000000E+02  0.51100000000E-03 0. -1.
         11   -1    0    0    0    0 -0.00000000000E+00 -0.00000000000E+00 -0.45593999997E+02  0.45594000000E+02  0.51100000000E-03 0.  1.
    9900012    2    1    2    0    0  0.28384895368E+01  0.35036580613E+02 -0.25455927537E+02  0.47787271312E+02  0.20000001218E+02 0.  0.
         12    1    1    2    0    0 -0.28384895368E+01 -0.35036580613E+02  0.25455927537E+02  0.43400728688E+02  0.00000000000E+00 0. -1.
         11    1    3    3    0    0 -0.12530797750E+01  0.22443763194E+02 -0.10823855010E+02  0.24948918869E+02  0.51100000000E-03 0. -1.
        -11    1    3    3    0    0  0.57341935388E+01  0.10354376443E+02 -0.50610989971E+01  0.12872793418E+02  0.51100000000E-03 0.  1.
         12    1    3    3    0    0 -0.16426242270E+01  0.22384409772E+01 -0.95709735301E+01  0.99655590246E+01  0.00000000000E+00 0. -1.
</event>
<event>
 7    1  0.8440037E-011  0.4778727E+02  0.7816164E-02  0.1312668E+00
        -11   -1    0    0    0    0  0.00000000000E+00  0.00000000000E+00  0.45593999997E+02  0.45594000000E+02  0.51100000000E-03 0. -1.
         11   -1    0    0    0    0 -0.00000000000E+00 -0.00000000000E+00 -0.45593999997E+02  0.45594000000E+02  0.51100000000E-03 0.  1.
    9900012    2    1    2    0    0  0.79921054855E+01  0.64795948692E+00  0.42653597753E+02  0.47787274167E+02  0.20000014236E+02 0.  0.
        -12    1    1    2    0    0 -0.79921054855E+01 -0.64795948692E+00 -0.42653597753E+02  0.43400725833E+02  0.00000000000E+00 0.  1.
         11    1    3    3    0    0 -0.35862498844E+00 -0.12554917788E+01  0.34632688290E+01  0.37012298945E+01  0.51100000000E-03 0. -1.
        -11    1    3    3    0    0 -0.36760933906E+01  0.12848240771E+01  0.96971104421E+00  0.40130755407E+01  0.51100000000E-03 0.  1.
         12    1    3    3    0    0  0.12026823865E+02  0.61862718865E+00  0.38220617880E+02  0.40072968732E+02  0.00000000000E+00 0. -1.
</event>
<event>
 7    1  0.8440037E-011  0.4778727E+02  0.7816164E-02  0.1312668E+00
        -11   -1    0    0    0    0  0.00000000000E+00  0.00000000000E+00  0.45593999997E+02  0.45594000000E+02  0.51100000000E-03 0. -1.
         11   -1    0    0    0    0 -0.00000000000E+00 -0.00000000000E+00 -0.45593999997E+02  0.45594000000E+02  0.51100000000E-03 0.  1.
    9900012    2    1    2    0    0  0.54768859798E+01  0.32058543190E+02 -0.28738068225E+02  0.47787273776E+02  0.20000012454E+02 0.  0.
         12    1    1    2    0    0 -0.54768859798E+01 -0.32058543190E+02  0.28738068225E+02  0.43400726224E+02  0.00000000000E+00 0. -1.
         11    1    3    3    0    0  0.24303234009E-01  0.55402169422E+01 -0.10238052872E+02  0.11640975959E+02  0.51100000000E-03 0.  1.
        -11    1    3    3    0    0 -0.23280093159E+01  0.17025310278E+02 -0.16283776929E+02  0.23673660655E+02  0.51100000000E-03 0. -1.
         12    1    3    3    0    0  0.77805920616E+01  0.94930159692E+01 -0.22162384233E+01  0.12472637162E+02  0.00000000000E+00 0. -1.
</event>
<event>
 7    1  0.8440037E-011  0.4778727E+02  0.7816164E-02  0.1312668E+00
        -11   -1    0    0    0    0  0.00000000000E+00  0.00000000000E+00  0.45593999997E+02  0.45594000000E+02  0.51100000000E-03 0. -1.
         11   -1    0    0    0    0 -0.00000000000E+00 -0.00000000000E+00 -0.45593999997E+02  0.45594000000E+02  0.51100000000E-03 0.  1.
    9900012    2    1    2    0    0 -0.83019817847E+01 -0.39224912062E+02  0.16616455863E+02  0.47787271512E+02  0.20000002133E+02 0.  0.
        -12    1    1    2    0    0  0.83019817847E+01  0.39224912062E+02 -0.16616455863E+02  0.43400728488E+02  0.00000000000E+00 0.  1.
         11    1    3    3    0    0 -0.35255711574E+01 -0.20174363849E+02  0.28843900857E+01  0.20682222200E+02  0.51100000000E-03 0. -1.
        -11    1    3    3    0    0 -0.45493545029E+01 -0.20927566802E+02  0.12045369342E+02  0.24571336991E+02  0.51100000000E-03 0.  1.
        -12    1    3    3    0    0 -0.22705612438E+00  0.18770185891E+01  0.16866964350E+01  0.25337123221E+01  0.00000000000E+00 0.  1.
</event>
<event>
 7    1  0.1226483E-010  0.4778727E+02  0.7816164E-02  0.1312668E+00
        -11   -1    0    0    0    0  0.00000000000E+00  0.00000000000E+00  0.45593999997E+02  0.45594000000E+02  0.51100000000E-03 0. -1.
         11   -1    0    0    0    0 -0.00000000000E+00 -0.00000000000E+00 -0.45593999997E+02  0.45594000000E+02  0.51100000000E-03 0.  1.
    9900012    2    1    2    0    0  0.76424691579E+01  0.21494107881E+02  0.36921798576E+02  0.47787271683E+02  0.20000002910E+02 0.  0.
        -12    1    1    2    0    0 -0.76424691579E+01 -0.21494107881E+02 -0.36921798576E+02  0.43400728317E+02  0.00000000000E+00 0.  1.
         11    1    3    3    0    0 -0.32081778915E+01  0.85666632550E+00  0.49822503091E+01  0.59874118766E+01  0.51100000000E-03 0. -1.
        -11    1    3    3    0    0  0.38091691610E+01  0.91640271802E+00  0.39532796292E+00  0.39377465761E+01  0.51100000000E-03 0.  1.
         12    1    3    3    0    0  0.70414778884E+01  0.19721038837E+02  0.31544220304E+02  0.37862113230E+02  0.00000000000E+00 0. -1.
</event>
<event>
 7    1  0.8440037E-011  0.4778727E+02  0.7816164E-02  0.1312668E+00
        -11   -1    0    0    0    0  0.00000000000E+00  0.00000000000E+00  0.45593999997E+02  0.45594000000E+02  0.51100000000E-03 0. -1.
         11   -1    0    0    0    0 -0.00000000000E+00 -0.00000000000E+00 -0.45593999997E+02  0.45594000000E+02  0.51100000000E-03 0.  1.
    9900012    2    1    2    0    0  0.15674899070E+02 -0.37548976379E+02 -0.15099504862E+02  0.47787272644E+02  0.20000007293E+02 0.  0.
         12    1    1    2    0    0 -0.15674899070E+02  0.37548976379E+02  0.15099504862E+02  0.43400727356E+02  0.00000000000E+00 0. -1.
         11    1    3    3    0    0  0.10756123914E+01 -0.15032699107E+02 -0.12638918855E+02  0.19669297256E+02  0.51100000000E-03 0. -1.
        -11    1    3    3    0    0  0.13636230139E+01 -0.89158940458E+01 -0.11908363970E+01  0.90978418290E+01  0.51100000000E-03 0.  1.
        -12    1    3    3    0    0  0.13235663664E+02 -0.13600383226E+02 -0.12697496095E+01  0.19020133559E+02  0.00000000000E+00 0.  1.
</event>
<event>
 7    1  0.8440037E-011  0.4778727E+02  0.7816164E-02  0.1312668E+00
        -11   -1    0    0    0    0  0.00000000000E+00  0.00000000000E+00  0.45593999997E+02  0.45594000000E+02  0.51100000000E-03 0. -1.
         11   -1    0    0    0    0 -0.00000000000E+00 -0.00000000000E+00 -0.45593999997E+02  0.45594000000E+02  0.51100000000E-03 0.  1.
    9900012    2    1    2    0    0 -0.10384947852E+02 -0.30079436011E+02 -0.29512769526E+02  0.47787272152E+02  0.20000005049E+02 0.  0.
         12    1    1    2    0    0  0.10384947852E+02  0.30079436011E+02  0.29512769526E+02  0.43400727848E+02  0.00000000000E+00 0. -1.
         11    1    3    3    0    0  0.90317280046E+00 -0.58971417456E+01  0.14414388339E+01  0.61375685778E+01  0.51100000000E-03 0. -1.
        -11    1    3    3    0    0 -0.47406905365E+00  0.85526210582E-02  0.38418966129E+00  0.61025943002E+00  0.51100000000E-03 0.  1.
        -12    1    3    3    0    0 -0.10814051599E+02 -0.24190846887E+02 -0.31338398022E+02  0.41039444144E+02  0.00000000000E+00 0.  1.
</event>
<event>
 7    1  0.8440037E-011  0.4778727E+02  0.7816164E-02  0.1312668E+00
        -11   -1    0    0    0    0  0.00000000000E+00  0.00000000000E+00  0.45593999997E+02  0.45594000000E+02  0.51100000000E-03 0. -1.
         11   -1    0    0    0    0 -0.00000000000E+00 -0.00000000000E+00 -0.45593999997E+02  0.45594000000E+02  0.51100000000E-03 0.  1.
    9900012    2    1    2    0    0 -0.76827572294E+01  0.28332032024E+02  0.31967085011E+02  0.47787270497E+02  0.19999997505E+02 0.  0.
        -12    1    1    2    0    0  0.76827572294E+01 -0.28332032024E+02 -0.31967085011E+02  0.43400729503E+02  0.00000000000E+00 0.  1.
         11    1    3    3    0    0 -0.29272858928E+01  0.15059116910E+02  0.21412133398E+02  0.26340566846E+02  0.51100000000E-03 0. -1.
        -11    1    3    3    0    0  0.90777284563E+00  0.95530041654E+01  0.11071494588E+02  0.14651345767E+02  0.51100000000E-03 0.  1.
        -12    1    3    3    0    0 -0.56632441823E+01  0.37199109483E+01 -0.51654297516E+00  0.67953578844E+01  0.00000000000E+00 0.  1.
</event>
<event>
 7    1  0.8440037E-011  0.4778727E+02  0.7816164E-02  0.1312668E+00
        -11   -1    0    0    0    0  0.00000000000E+00  0.00000000000E+00  0.45593999997E+02  0.45594000000E+02  0.51100000000E-03 0. -1.
         11   -1    0    0    0    0 -0.00000000000E+00 -0.00000000000E+00 -0.45593999997E+02  0.45594000000E+02  0.51100000000E-03 0.  1.
    9900012    2    1    2    0    0 -0.10824695285E+02 -0.27343217767E+02  0.31918617041E+02  0.47787266139E+02  0.19999977633E+02 0.  0.
        -12    1    1    2    0    0  0.10824695285E+02  0.27343217767E+02 -0.31918617041E+02  0.43400733861E+02  0.00000000000E+00 0.  1.
         11    1    3    3    0    0 -0.14873118718E+01 -0.14800330920E+02  0.21795694349E+02  0.26387765808E+02  0.51100000000E-03 0. -1.
        -11    1    3    3    0    0 -0.24071069265E+01 -0.22236807340E-01  0.60640368563E+01  0.65243544881E+01  0.51100000000E-03 0.  1.
        -12    1    3    3    0    0 -0.69302764870E+01 -0.12520650040E+02  0.40588858362E+01  0.14875145842E+02  0.00000000000E+00 0.  1.
</event>
<event>
 7    1  0.8440037E-011  0.4778729E+02  0.7816164E-02  0.1312668E+00
        -11   -1    0    0    0    0  0.00000000000E+00  0.00000000000E+00  0.45593999997E+02  0.45594000000E+02  0.51100000000E-03 0. -1.
         11   -1    0    0    0    0 -0.00000000000E+00 -0.00000000000E+00 -0.45593999997E+02  0.45594000000E+02  0.51100000000E-03 0.  1.
    9900012    2    1    2    0    0 -0.12131536255E+02  0.25768483783E+02  0.32748024101E+02  0.47787285595E+02  0.20000066340E+02 0.  0.
        -12    1    1    2    0    0  0.12131536255E+02 -0.25768483783E+02 -0.32748024101E+02  0.43400714405E+02  0.00000000000E+00 0.  1.
         11    1    3    3    0    0 -0.14099663787E+02  0.12715283128E+02  0.17505823466E+02  0.25825042099E+02  0.51100000000E-03 0. -1.
        -11    1    3    3    0    0 -0.75665549882E+00 -0.36084839648E+00 -0.59615999599E+00  0.10286622920E+01  0.51100000000E-03 0.  1.
        -12    1    3    3    0    0  0.27247830314E+01  0.13414049051E+02  0.15838360631E+02  0.20933581203E+02  0.00000000000E+00 0.  1.
</event>
<event>
 7    1  0.8440037E-011  0.4778728E+02  0.7816164E-02  0.1312668E+00
        -11   -1    0    0    0    0  0.00000000000E+00  0.00000000000E+00  0.45593999997E+02  0.45594000000E+02  0.51100000000E-03 0. -1.
         11   -1    0    0    0    0 -0.00000000000E+00 -0.00000000000E+00 -0.45593999997E+02  0.45594000000E+02  0.51100000000E-03 0.  1.
    9900012    2    1    2    0    0 -0.39271058859E+02  0.13736781644E+02  0.12357481747E+02  0.47787278935E+02  0.20000035976E+02 0.  0.
        -12    1    1    2    0    0  0.39271058859E+02 -0.13736781644E+02 -0.12357481747E+02  0.43400721065E+02  0.00000000000E+00 0.  1.
         11    1    3    3    0    0 -0.89187773805E+01 -0.30924081820E+01  0.70171203442E+01  0.11762123810E+02  0.51100000000E-03 0. -1.
        -11    1    3    3    0    0 -0.57396441379E+01 -0.10501631515E+00  0.11905248869E+01  0.58627547300E+01  0.51100000000E-03 0.  1.
        -12    1    3    3    0    0 -0.24612637341E+02  0.16934206141E+02  0.41498365155E+01  0.30162400395E+02  0.00000000000E+00 0.  1.
</event>
<event>
 7    1  0.8440037E-011  0.4778727E+02  0.7816164E-02  0.1312668E+00
        -11   -1    0    0    0    0  0.00000000000E+00  0.00000000000E+00  0.45593999997E+02  0.45594000000E+02  0.51100000000E-03 0. -1.
         11   -1    0    0    0    0 -0.00000000000E+00 -0.00000000000E+00 -0.45593999997E+02  0.45594000000E+02  0.51100000000E-03 0.  1.
    9900012    2    1    2    0    0 -0.23175511043E+02  0.17711046779E+02 -0.32137795235E+02  0.47787269906E+02  0.19999994811E+02 0.  0.
         12    1    1    2    0    0  0.23175511043E+02 -0.17711046779E+02  0.32137795235E+02  0.43400730094E+02  0.00000000000E+00 0. -1.
         11    1    3    3    0    0 -0.11723756951E+01  0.68979631999E+01 -0.66483350697E+00  0.70283970385E+01  0.51100000000E-03 0. -1.
        -11    1    3    3    0    0  0.27407722743E+00 -0.69969668020E+00 -0.15140861295E+01  0.16903108707E+01  0.51100000000E-03 0.  1.
        -12    1    3    3    0    0 -0.22277212575E+02  0.11512780259E+02 -0.29958875598E+02  0.39068561997E+02  0.00000000000E+00 0.  1.
</event>
<event>
 7    1  0.8440037E-011  0.4778727E+02  0.7816164E-02  0.1312668E+00
        -11   -1    0    0    0    0  0.00000000000E+00  0.00000000000E+00  0.45593999997E+02  0.45594000000E+02  0.51100000000E-03 0. -1.
         11   -1    0    0    0    0 -0.00000000000E+00 -0.00000000000E+00 -0.45593999997E+02  0.45594000000E+02  0.51100000000E-03 0.  1.
    9900012    2    1    2    0    0 -0.27629133033E+02 -0.32605276945E+01  0.33311006943E+02  0.47787271705E+02  0.20000003011E+02 0.  0.
        -12    1    1    2    0    0  0.27629133033E+02  0.32605276945E+01 -0.33311006943E+02  0.43400728295E+02  0.00000000000E+00 0.  1.
         11    1    3    3    0    0  0.92179206270E-01  0.16948832790E+01 -0.39784135152E+00  0.17433887512E+01  0.51100000000E-03 0. -1.
        -11    1    3    3    0    0 -0.13072105373E+01 -0.59466107064E+00 -0.13236746866E+01  0.19530837449E+01  0.51100000000E-03 0.  1.
        -12    1    3    3    0    0 -0.26414101702E+02 -0.43607499028E+01  0.35032522981E+02  0.44090799209E+02  0.00000000000E+00 0.  1.
</event>
<event>
 7    1  0.8440037E-011  0.4778728E+02  0.7816164E-02  0.1312668E+00
        -11   -1    0    0    0    0  0.00000000000E+00  0.00000000000E+00  0.45593999997E+02  0.45594000000E+02  0.51100000000E-03 0. -1.
         11   -1    0    0    0    0 -0.00000000000E+00 -0.00000000000E+00 -0.45593999997E+02  0.45594000000E+02  0.51100000000E-03 0.  1.
    9900012    2    1    2    0    0  0.24644046098E+02  0.30575462986E+02  0.18477956466E+02  0.47787276273E+02  0.20000023839E+02 0.  0.
        -12    1    1    2    0    0 -0.24644046098E+02 -0.30575462986E+02 -0.18477956466E+02  0.43400723727E+02  0.00000000000E+00 0.  1.
         11    1    3    3    0    0  0.13603778019E+02  0.18285034561E+02  0.11623760100E+02  0.25583531117E+02  0.51100000000E-03 0. -1.
        -11    1    3    3    0    0  0.38251871323E-01  0.97994732906E+01  0.25118725471E+01  0.10116355269E+02  0.51100000000E-03 0.  1.
        -12    1    3    3    0    0  0.11002016208E+02  0.24909551335E+01  0.43423238189E+01  0.12087389887E+02  0.00000000000E+00 0.  1.
</event>
<event>
 7    1  0.8440037E-011  0.4778727E+02  0.7816164E-02  0.1312668E+00
        -11   -1    0    0    0    0  0.00000000000E+00  0.00000000000E+00  0.45593999997E+02  0.45594000000E+02  0.51100000000E-03 0. -1.
         11   -1    0    0    0    0 -0.00000000000E+00 -0.00000000000E+00 -0.45593999997E+02  0.45594000000E+02  0.51100000000E-03 0.  1.
    9900012    2    1    2    0    0  0.55877656812E+01  0.31696363143E+02 -0.29115983089E+02  0.47787273819E+02  0.20000012650E+02 0.  0.
         12    1    1    2    0    0 -0.55877656812E+01 -0.31696363143E+02  0.29115983089E+02  0.43400726181E+02  0.00000000000E+00 0. -1.
         11    1    3    3    0    0  0.10178678897E+02  0.12810716062E+02 -0.94488273293E+01  0.18894451256E+02  0.51100000000E-03 0. -1.
        -11    1    3    3    0    0 -0.86509387143E-03  0.11466696614E+02 -0.67510875948E+01  0.13306476467E+02  0.51100000000E-03 0.  1.
        -12    1    3    3    0    0 -0.45900481214E+01  0.74189504673E+01 -0.12916068165E+02  0.15586346096E+02  0.00000000000E+00 0.  1.
</event>
<event>
 7    1  0.8440037E-011  0.4778727E+02  0.7816164E-02  0.1312668E+00
        -11   -1    0    0    0    0  0.00000000000E+00  0.00000000000E+00  0.45593999997E+02  0.45594000000E+02  0.51100000000E-03 0. -1.
         11   -1    0    0    0    0 -0.00000000000E+00 -0.00000000000E+00 -0.45593999997E+02  0.45594000000E+02  0.51100000000E-03 0.  1.
    9900012    2    1    2    0    0  0.35423439893E+02 -0.24574170074E+02 -0.49913500761E+01  0.47787268390E+02  0.19999987900E+02 0.  0.
        -12    1    1    2    0    0 -0.35423439893E+02  0.24574170074E+02  0.49913500761E+01  0.43400731610E+02  0.00000000000E+00 0.  1.
         11    1    3    3    0    0  0.97327290825E+01 -0.73010944597E+01 -0.57747573435E+01  0.13467732487E+02  0.51100000000E-03 0. -1.
        -11    1    3    3    0    0  0.20245544573E+02 -0.50436623387E+01  0.14618032660E+01  0.20915484071E+02  0.51100000000E-03 0.  1.
        -12    1    3    3    0    0  0.54451662370E+01 -0.12229413275E+02 -0.67839599862E+00  0.13404051833E+02  0.00000000000E+00 0.  1.
</event>
<event>
 7    1  0.8440037E-011  0.4778727E+02  0.7816164E-02  0.1312668E+00
        -11   -1    0    0    0    0  0.00000000000E+00  0.00000000000E+00  0.45593999997E+02  0.45594000000E+02  0.51100000000E-03 0. -1.
         11   -1    0    0    0    0 -0.00000000000E+00 -0.00000000000E+00 -0.45593999997E+02  0.45594000000E+02  0.51100000000E-03 0.  1.
    9900012    2    1    2    0    0  0.70655345846E+01  0.29386040490E+02  0.31147427765E+02  0.47787269464E+02  0.19999992795E+02 0.  0.
        -12    1    1    2    0    0 -0.70655345846E+01 -0.29386040490E+02 -0.31147427765E+02  0.43400730536E+02  0.00000000000E+00 0.  1.
         11    1    3    3    0    0  0.66372108522E+01  0.60103618597E+01  0.78748105771E+01  0.11924330567E+02  0.51100000000E-03 0. -1.
        -11    1    3    3    0    0  0.19945601933E+01  0.10156077920E+02  0.19417810749E+02  0.22003989721E+02  0.51100000000E-03 0.  1.
        -12    1    3    3    0    0 -0.15662364609E+01  0.13219600710E+02  0.38548064387E+01  0.13858949176E+02  0.00000000000E+00 0.  1.
</event>
<event>
 7    1  0.8440037E-011  0.4778721E+02  0.7816164E-02  0.1312668E+00
        -11   -1    0    0    0    0  0.00000000000E+00  0.00000000000E+00  0.45593999997E+02  0.45594000000E+02  0.51100000000E-03 0. -1.
         11   -1    0    0    0    0 -0.00000000000E+00 -0.00000000000E+00 -0.45593999997E+02  0.45594000000E+02  0.51100000000E-03 0.  1.
    9900012    2    1    2    0    0  0.30030830964E+02  0.70405555737E+01  0.30532087333E+02  0.47787209822E+02  0.19999720859E+02 0.  0.
        -12    1    1    2    0    0 -0.30030830964E+02 -0.70405555737E+01 -0.30532087333E+02  0.43400790178E+02  0.00000000000E+00 0.  1.
         11    1    3    3    0    0  0.10505142153E-01  0.18492174067E+01  0.35422933417E+00  0.18828685715E+01  0.51100000000E-03 0. -1.
        -11    1    3    3    0    0 -0.18647318356E+01 -0.72544548552E+00  0.29266043668E+01  0.35452093524E+01  0.51100000000E-03 0.  1.
         12    1    3    3    0    0  0.31885057658E+02  0.59167836525E+01  0.27251253632E+02  0.42359131898E+02  0.00000000000E+00 0. -1.
</event>
<event>
 7    1  0.8440037E-011  0.4778728E+02  0.7816164E-02  0.1312668E+00
        -11   -1    0    0    0    0  0.00000000000E+00  0.00000000000E+00  0.45593999997E+02  0.45594000000E+02  0.51100000000E-03 0. -1.
         11   -1    0    0    0    0 -0.00000000000E+00 -0.00000000000E+00 -0.45593999997E+02  0.45594000000E+02  0.51100000000E-03 0.  1.
    9900012    2    1    2    0    0  0.60586847233E+01 -0.38193012313E+02 -0.19703019278E+02  0.47787276287E+02  0.20000023904E+02 0.  0.
         12    1    1    2    0    0 -0.60586847233E+01  0.38193012313E+02  0.19703019278E+02  0.43400723713E+02  0.00000000000E+00 0. -1.
         11    1    3    3    0    0  0.11181329007E+01 -0.20944606328E+02 -0.71312358110E+01  0.22153583906E+02  0.51100000000E-03 0. -1.
        -11    1    3    3    0    0  0.34797011302E-01 -0.13516050818E+02 -0.13834962695E+02  0.19341433079E+02  0.51100000000E-03 0.  1.
         12    1    3    3    0    0  0.49057548112E+01 -0.37323551669E+01  0.12631792275E+01  0.62922593018E+01  0.00000000000E+00 0. -1.
</event>
<event>
 7    1  0.8440037E-011  0.4778727E+02  0.7816164E-02  0.1312668E+00
        -11   -1    0    0    0    0  0.00000000000E+00  0.00000000000E+00  0.45593999997E+02  0.45594000000E+02  0.51100000000E-03 0.  1.
         11   -1    0    0    0    0 -0.00000000000E+00 -0.00000000000E+00 -0.45593999997E+02  0.45594000000E+02  0.51100000000E-03 0. -1.
    9900012    2    1    2    0    0 -0.21810634653E+02 -0.33411383657E+02 -0.17076265979E+02  0.47787271877E+02  0.20000003794E+02 0.  0.
         12    1    1    2    0    0  0.21810634653E+02  0.33411383657E+02  0.17076265979E+02  0.43400728123E+02  0.00000000000E+00 0. -1.
         11    1    3    3    0    0 -0.19818576149E+01 -0.36782460293E+01 -0.45706468736E+01  0.61925815750E+01  0.51100000000E-03 0.  1.
        -11    1    3    3    0    0 -0.22824378235E+02 -0.28238769865E+02 -0.11149394876E+02  0.37982750975E+02  0.51100000000E-03 0. -1.
         12    1    3    3    0    0  0.29956011962E+01 -0.14943677628E+01 -0.13562242301E+01  0.36119393266E+01  0.00000000000E+00 0. -1.
</event>
<event>
 7    1  0.8440037E-011  0.4778727E+02  0.7816164E-02  0.1312668E+00
        -11   -1    0    0    0    0  0.00000000000E+00  0.00000000000E+00  0.45593999997E+02  0.45594000000E+02  0.51100000000E-03 0. -1.
         11   -1    0    0    0    0 -0.00000000000E+00 -0.00000000000E+00 -0.45593999997E+02  0.45594000000E+02  0.51100000000E-03 0.  1.
    9900012    2    1    2    0    0 -0.12923557786E+02  0.20988613714E+02  0.35722300268E+02  0.47787274338E+02  0.20000015019E+02 0.  0.
        -12    1    1    2    0    0  0.12923557786E+02 -0.20988613714E+02 -0.35722300268E+02  0.43400725662E+02  0.00000000000E+00 0.  1.
         11    1    3    3    0    0 -0.52207890455E+00 -0.13214541091E+01  0.39296491248E+01  0.41786301404E+01  0.51100000000E-03 0. -1.
        -11    1    3    3    0    0 -0.35813191361E+01  0.74926544053E+01  0.10642120361E+01  0.83724706216E+01  0.51100000000E-03 0.  1.
         12    1    3    3    0    0 -0.88201597453E+01  0.14817413418E+02  0.30728439107E+02  0.35236173576E+02  0.00000000000E+00 0. -1.
</event>
<event>
 7    1  0.8440037E-011  0.4778727E+02  0.7816164E-02  0.1312668E+00
        -11   -1    0    0    0    0  0.00000000000E+00  0.00000000000E+00  0.45593999997E+02  0.45594000000E+02  0.51100000000E-03 0. -1.
         11   -1    0    0    0    0 -0.00000000000E+00 -0.00000000000E+00 -0.45593999997E+02  0.45594000000E+02  0.51100000000E-03 0.  1.
    9900012    2    1    2    0    0  0.36587549374E+02  0.62178453986E+01 -0.22501398383E+02  0.47787270746E+02  0.19999998639E+02 0.  0.
         12    1    1    2    0    0 -0.36587549374E+02 -0.62178453986E+01  0.22501398383E+02  0.43400729254E+02  0.00000000000E+00 0. -1.
         11    1    3    3    0    0 -0.17961541737E+01 -0.68224804053E+00 -0.16105178819E+01  0.25070700656E+01  0.51100000000E-03 0. -1.
        -11    1    3    3    0    0  0.85652171295E+01  0.57755704155E+01 -0.56045038582E+01  0.11752898445E+02  0.51100000000E-03 0.  1.
        -12    1    3    3    0    0  0.29818486418E+02  0.11245230236E+01 -0.15286376643E+02  0.33527302235E+02  0.00000000000E+00 0.  1.
</event>
<event>
 7    1  0.8440037E-011  0.4778727E+02  0.7816164E-02  0.1312668E+00
        -11   -1    0    0    0    0  0.00000000000E+00  0.00000000000E+00  0.45593999997E+02  0.45594000000E+02  0.51100000000E-03 0. -1.
         11   -1    0    0    0    0 -0.00000000000E+00 -0.00000000000E+00 -0.45593999997E+02  0.45594000000E+02  0.51100000000E-03 0.  1.
    9900012    2    1    2    0    0  0.14756195032E+02  0.36261377655E+02  0.18734732321E+02  0.47787274242E+02  0.20000014577E+02 0.  0.
        -12    1    1    2    0    0 -0.14756195032E+02 -0.36261377655E+02 -0.18734732321E+02  0.43400725758E+02  0.00000000000E+00 0.  1.
         11    1    3    3    0    0  0.16312155356E+01  0.20056778288E+02  0.90830054608E+01  0.22077957511E+02  0.51100000000E-03 0. -1.
        -11    1    3    3    0    0  0.38033242789E+01  0.76496895403E+01 -0.17006103723E+01  0.87106315232E+01  0.51100000000E-03 0.  1.
        -12    1    3    3    0    0  0.93216552176E+01  0.85549098265E+01  0.11352337232E+02  0.16998685207E+02  0.00000000000E+00 0.  1.
</event>
<event>
 7    1  0.8440037E-011  0.4778727E+02  0.7816164E-02  0.1312668E+00
        -11   -1    0    0    0    0  0.00000000000E+00  0.00000000000E+00  0.45593999997E+02  0.45594000000E+02  0.51100000000E-03 0. -1.
         11   -1    0    0    0    0 -0.00000000000E+00 -0.00000000000E+00 -0.45593999997E+02  0.45594000000E+02  0.51100000000E-03 0.  1.
    9900012    2    1    2    0    0  0.21634993533E+02  0.31324171174E+02  0.20840976473E+02  0.47787274830E+02  0.20000017261E+02 0.  0.
        -12    1    1    2    0    0 -0.21634993533E+02 -0.31324171174E+02 -0.20840976473E+02  0.43400725170E+02  0.00000000000E+00 0.  1.
         11    1    3    3    0    0  0.80022617907E+00  0.77936430508E+01  0.49022412473E+01  0.92419263927E+01  0.51100000000E-03 0. -1.
        -11    1    3    3    0    0  0.14102832315E+01  0.11225035256E+02  0.15467741284E+01  0.11418529930E+02  0.51100000000E-03 0.  1.
        -12    1    3    3    0    0  0.19424484122E+02  0.12305492867E+02  0.14391961097E+02  0.27126818508E+02  0.00000000000E+00 0.  1.
</event>
<event>
 7    1  0.8440037E-011  0.4778727E+02  0.7816164E-02  0.1312668E+00
        -11   -1    0    0    0    0  0.00000000000E+00  0.00000000000E+00  0.45593999997E+02  0.45594000000E+02  0.51100000000E-03 0. -1.
         11   -1    0    0    0    0 -0.00000000000E+00 -0.00000000000E+00 -0.45593999997E+02  0.45594000000E+02  0.51100000000E-03 0.  1.
    9900012    2    1    2    0    0 -0.17953264996E+02 -0.18262010847E+02 -0.35040012996E+02  0.47787271032E+02  0.19999999944E+02 0.  0.
         12    1    1    2    0    0  0.17953264996E+02  0.18262010847E+02  0.35040012996E+02  0.43400728968E+02  0.00000000000E+00 0. -1.
         11    1    3    3    0    0 -0.34436173268E+01  0.31888894312E+00 -0.83404875941E+00  0.35575030633E+01  0.51100000000E-03 0. -1.
        -11    1    3    3    0    0 -0.97654808058E+01 -0.61544289049E+01 -0.26385167928E+02  0.28799630161E+02  0.51100000000E-03 0.  1.
        -12    1    3    3    0    0 -0.47441668630E+01 -0.12426470885E+02 -0.78207963082E+01  0.15430137808E+02  0.00000000000E+00 0.  1.
</event>
<event>
 7    1  0.8440037E-011  0.4778729E+02  0.7816164E-02  0.1312668E+00
        -11   -1    0    0    0    0  0.00000000000E+00  0.00000000000E+00  0.45593999997E+02  0.45594000000E+02  0.51100000000E-03 0. -1.
         11   -1    0    0    0    0 -0.00000000000E+00 -0.00000000000E+00 -0.45593999997E+02  0.45594000000E+02  0.51100000000E-03 0.  1.
    9900012    2    1    2    0    0 -0.22915825854E+01 -0.54826815358E+01  0.42991985058E+02  0.47787286564E+02  0.20000070758E+02 0.  0.
        -12    1    1    2    0    0  0.22915825854E+01  0.54826815358E+01 -0.42991985058E+02  0.43400713436E+02  0.00000000000E+00 0.  1.
         11    1    3    3    0    0  0.55431259806E+00 -0.25366342009E+01  0.10483729801E+02  0.10800479912E+02  0.51100000000E-03 0. -1.
        -11    1    3    3    0    0 -0.48005958483E+01 -0.17314113112E+01  0.76507657104E+00  0.51603147238E+01  0.51100000000E-03 0.  1.
        -12    1    3    3    0    0  0.19547006649E+01 -0.12146360237E+01  0.31743178686E+02  0.31826491928E+02  0.00000000000E+00 0.  1.
</event>
<event>
 7    1  0.8440037E-011  0.4778727E+02  0.7816164E-02  0.1312668E+00
        -11   -1    0    0    0    0  0.00000000000E+00  0.00000000000E+00  0.45593999997E+02  0.45594000000E+02  0.51100000000E-03 0.  1.
         11   -1    0    0    0    0 -0.00000000000E+00 -0.00000000000E+00 -0.45593999997E+02  0.45594000000E+02  0.51100000000E-03 0. -1.
    9900012    2    1    2    0    0  0.33972499296E+01 -0.23244125429E+02  0.36493733934E+02  0.47787270853E+02  0.19999999129E+02 0.  0.
        -12    1    1    2    0    0 -0.33972499296E+01  0.23244125429E+02 -0.36493733934E+02  0.43400729147E+02  0.00000000000E+00 0.  1.
         11    1    3    3    0    0 -0.45208301405E+01 -0.82193929835E+01  0.12004841789E+02  0.15235240491E+02  0.51100000000E-03 0. -1.
        -11    1    3    3    0    0 -0.23006499376E+01 -0.37662467864E+01  0.92597624606E+00  0.45094386857E+01  0.51100000000E-03 0.  1.
         12    1    3    3    0    0  0.10218730008E+02 -0.11258485659E+02  0.23562915898E+02  0.28042591676E+02  0.00000000000E+00 0. -1.
</event>
<event>
 7    1  0.8440037E-011  0.4778728E+02  0.7816164E-02  0.1312668E+00
        -11   -1    0    0    0    0  0.00000000000E+00  0.00000000000E+00  0.45593999997E+02  0.45594000000E+02  0.51100000000E-03 0. -1.
         11   -1    0    0    0    0 -0.00000000000E+00 -0.00000000000E+00 -0.45593999997E+02  0.45594000000E+02  0.51100000000E-03 0.  1.
    9900012    2    1    2    0    0  0.15636702531E+02  0.28129847865E+02 -0.29117480369E+02  0.47787280306E+02  0.20000042227E+02 0.  0.
         12    1    1    2    0    0 -0.15636702531E+02 -0.28129847865E+02  0.29117480369E+02  0.43400719694E+02  0.00000000000E+00 0. -1.
         11    1    3    3    0    0  0.83573907635E+01  0.16146280709E+01 -0.68156311967E+01  0.10904395125E+02  0.51100000000E-03 0. -1.
        -11    1    3    3    0    0  0.64826323111E+01  0.12462120548E+02 -0.58113508279E+01  0.15201998847E+02  0.51100000000E-03 0.  1.
        -12    1    3    3    0    0  0.79667945595E+00  0.14053099246E+02 -0.16490498344E+02  0.21680886334E+02  0.00000000000E+00 0.  1.
</event>
<event>
 7    1  0.8440037E-011  0.4778727E+02  0.7816164E-02  0.1312668E+00
        -11   -1    0    0    0    0  0.00000000000E+00  0.00000000000E+00  0.45593999997E+02  0.45594000000E+02  0.51100000000E-03 0.  1.
         11   -1    0    0    0    0 -0.00000000000E+00 -0.00000000000E+00 -0.45593999997E+02  0.45594000000E+02  0.51100000000E-03 0. -1.
    9900012    2    1    2    0    0 -0.13940869165E+02 -0.41003263574E+02 -0.28298579310E+01  0.47787267832E+02  0.19999985355E+02 0.  0.
        -12    1    1    2    0    0  0.13940869165E+02  0.41003263574E+02  0.28298579310E+01  0.43400732168E+02  0.00000000000E+00 0.  1.
         11    1    3    3    0    0 -0.12924437151E+02 -0.15268890563E+02 -0.16920875145E+01  0.20075937217E+02  0.51100000000E-03 0.  1.
        -11    1    3    3    0    0  0.15983516306E+01 -0.13689570104E+01 -0.23769634722E+01  0.31747010631E+01  0.51100000000E-03 0. -1.
         12    1    3    3    0    0 -0.26147836445E+01 -0.24365416000E+02  0.12391930557E+01  0.24536629552E+02  0.00000000000E+00 0. -1.
</event>
<event>
 7    1  0.8440037E-011  0.4778727E+02  0.7816164E-02  0.1312668E+00
        -11   -1    0    0    0    0  0.00000000000E+00  0.00000000000E+00  0.45593999997E+02  0.45594000000E+02  0.51100000000E-03 0.  1.
         11   -1    0    0    0    0 -0.00000000000E+00 -0.00000000000E+00 -0.45593999997E+02  0.45594000000E+02  0.51100000000E-03 0. -1.
    9900012    2    1    2    0    0 -0.40510156674E+02  0.12848567129E+02  0.88014107595E+01  0.47787270716E+02  0.19999998504E+02 0.  0.
        -12    1    1    2    0    0  0.40510156674E+02 -0.12848567129E+02 -0.88014107595E+01  0.43400729284E+02  0.00000000000E+00 0.  1.
         11    1    3    3    0    0 -0.12208599870E+02  0.53535333994E+01  0.72849484849E+01  0.15191468176E+02  0.51100000000E-03 0. -1.
        -11    1    3    3    0    0 -0.10313343052E+02  0.91173810339E+01  0.40706780163E+01  0.14354863343E+02  0.51100000000E-03 0.  1.
         12    1    3    3    0    0 -0.17988213752E+02 -0.16223473042E+01 -0.25542157417E+01  0.18240939198E+02  0.00000000000E+00 0. -1.
</event>
<event>
 7    1  0.8440037E-011  0.4778727E+02  0.7816164E-02  0.1312668E+00
        -11   -1    0    0    0    0  0.00000000000E+00  0.00000000000E+00  0.45593999997E+02  0.45594000000E+02  0.51100000000E-03 0. -1.
         11   -1    0    0    0    0 -0.00000000000E+00 -0.00000000000E+00 -0.45593999997E+02  0.45594000000E+02  0.51100000000E-03 0.  1.
    9900012    2    1    2    0    0 -0.10076228510E+02  0.33589807386E+02 -0.25569867650E+02  0.47787266447E+02  0.19999979041E+02 0.  0.
         12    1    1    2    0    0  0.10076228510E+02 -0.33589807386E+02  0.25569867650E+02  0.43400733553E+02  0.00000000000E+00 0. -1.
         11    1    3    3    0    0 -0.40066817019E+01  0.15890776755E+01 -0.34890965639E+01  0.55454901689E+01  0.51100000000E-03 0. -1.
        -11    1    3    3    0    0 -0.15924757732E+00  0.13684662763E+02 -0.17924986322E+02  0.22552172615E+02  0.51100000000E-03 0.  1.
         12    1    3    3    0    0 -0.59102992307E+01  0.18316066948E+02 -0.41557847642E+01  0.19689603664E+02  0.00000000000E+00 0. -1.
</event>
<event>
 7    1  0.8440037E-011  0.4778727E+02  0.7816164E-02  0.1312668E+00
        -11   -1    0    0    0    0  0.00000000000E+00  0.00000000000E+00  0.45593999997E+02  0.45594000000E+02  0.51100000000E-03 0. -1.
         11   -1    0    0    0    0 -0.00000000000E+00 -0.00000000000E+00 -0.45593999997E+02  0.45594000000E+02  0.51100000000E-03 0.  1.
    9900012    2    1    2    0    0  0.27448623424E+01  0.18976285163E+02 -0.38935713891E+02  0.47787268623E+02  0.19999988959E+02 0.  0.
         12    1    1    2    0    0 -0.27448623424E+01 -0.18976285163E+02  0.38935713891E+02  0.43400731377E+02  0.00000000000E+00 0. -1.
         11    1    3    3    0    0 -0.42065970780E+00  0.86966922306E+00 -0.21536477809E+01  0.23603978844E+01  0.51100000000E-03 0. -1.
        -11    1    3    3    0    0 -0.15737331043E+01  0.93838814765E+01 -0.26450359453E+01  0.98757320165E+01  0.51100000000E-03 0.  1.
        -12    1    3    3    0    0  0.47392551545E+01  0.87227344633E+01 -0.34137030165E+02  0.35551138722E+02  0.00000000000E+00 0.  1.
</event>
<event>
 7    1  0.8440037E-011  0.4778727E+02  0.7816164E-02  0.1312668E+00
        -11   -1    0    0    0    0  0.00000000000E+00  0.00000000000E+00  0.45593999997E+02  0.45594000000E+02  0.51100000000E-03 0. -1.
         11   -1    0    0    0    0 -0.00000000000E+00 -0.00000000000E+00 -0.45593999997E+02  0.45594000000E+02  0.51100000000E-03 0.  1.
    9900012    2    1    2    0    0 -0.27431765880E+02 -0.43060645166E+01  0.33355345365E+02  0.47787273792E+02  0.20000012529E+02 0.  0.
        -12    1    1    2    0    0  0.27431765880E+02  0.43060645166E+01 -0.33355345365E+02  0.43400726208E+02  0.00000000000E+00 0.  1.
         11    1    3    3    0    0 -0.14010565247E+02  0.90969643285E+00  0.13252985717E+02  0.19307126063E+02  0.51100000000E-03 0. -1.
        -11    1    3    3    0    0 -0.59253187244E+01  0.25173814515E+01  0.15470352511E+02  0.16756444087E+02  0.51100000000E-03 0.  1.
         12    1    3    3    0    0 -0.74958819094E+01 -0.77331424010E+01  0.46320071369E+01  0.11723703643E+02  0.00000000000E+00 0. -1.
</event>
<event>
 7    1  0.8440037E-011  0.4778727E+02  0.7816164E-02  0.1312668E+00
        -11   -1    0    0    0    0  0.00000000000E+00  0.00000000000E+00  0.45593999997E+02  0.45594000000E+02  0.51100000000E-03 0. -1.
         11   -1    0    0    0    0 -0.00000000000E+00 -0.00000000000E+00 -0.45593999997E+02  0.45594000000E+02  0.51100000000E-03 0.  1.
    9900012    2    1    2    0    0 -0.33178801283E+02 -0.74641376054E+01 -0.26964365263E+02  0.47787271909E+02  0.20000003943E+02 0.  0.
         12    1    1    2    0    0  0.33178801283E+02  0.74641376054E+01  0.26964365263E+02  0.43400728091E+02  0.00000000000E+00 0. -1.
         11    1    3    3    0    0 -0.67840961563E+01 -0.66307015258E+01 -0.15984121397E+01  0.96200356034E+01  0.51100000000E-03 0.  1.
        -11    1    3    3    0    0 -0.66309909708E+01  0.34728979409E+01 -0.31467815278E+01  0.81199319953E+01  0.51100000000E-03 0. -1.
        -12    1    3    3    0    0 -0.19763714155E+02 -0.43063340206E+01 -0.22219171596E+02  0.30047304310E+02  0.00000000000E+00 0.  1.
</event>
<event>
 7    1  0.8440037E-011  0.4778727E+02  0.7816164E-02  0.1312668E+00
        -11   -1    0    0    0    0  0.00000000000E+00  0.00000000000E+00  0.45593999997E+02  0.45594000000E+02  0.51100000000E-03 0. -1.
         11   -1    0    0    0    0 -0.00000000000E+00 -0.00000000000E+00 -0.45593999997E+02  0.45594000000E+02  0.51100000000E-03 0.  1.
    9900012    2    1    2    0    0  0.27782645547E+02 -0.14266901581E+02 -0.30136412859E+02  0.47787271270E+02  0.20000001028E+02 0.  0.
         12    1    1    2    0    0 -0.27782645547E+02  0.14266901581E+02  0.30136412859E+02  0.43400728730E+02  0.00000000000E+00 0. -1.
         11    1    3    3    0    0  0.15514096922E+02 -0.37178911164E+01 -0.10778794888E+02  0.19253372098E+02  0.51100000000E-03 0. -1.
        -11    1    3    3    0    0  0.13049449716E+02 -0.12982679200E+02 -0.16991577445E+02  0.25050984041E+02  0.51100000000E-03 0.  1.
         12    1    3    3    0    0 -0.78090109170E+00  0.24336687362E+01 -0.23660405264E+01  0.34829151303E+01  0.00000000000E+00 0. -1.
</event>
<event>
 7    1  0.8440037E-011  0.4778727E+02  0.7816164E-02  0.1312668E+00
        -11   -1    0    0    0    0  0.00000000000E+00  0.00000000000E+00  0.45593999997E+02  0.45594000000E+02  0.51100000000E-03 0. -1.
         11   -1    0    0    0    0 -0.00000000000E+00 -0.00000000000E+00 -0.45593999997E+02  0.45594000000E+02  0.51100000000E-03 0.  1.
    9900012    2    1    2    0    0  0.69319485471E+01  0.18069259084E+01 -0.42805446515E+02  0.47787272549E+02  0.20000006862E+02 0.  0.
         12    1    1    2    0    0 -0.69319485471E+01 -0.18069259084E+01  0.42805446515E+02  0.43400727451E+02  0.00000000000E+00 0. -1.
         11    1    3    3    0    0  0.84898988794E+01  0.18787625222E+01 -0.20300360208E+02  0.22084219625E+02  0.51100000000E-03 0. -1.
        -11    1    3    3    0    0  0.31534825154E+01  0.41383778960E+01 -0.15085875363E+02  0.15957890190E+02  0.51100000000E-03 0.  1.
         12    1    3    3    0    0 -0.47114328477E+01 -0.42102145098E+01 -0.74192109441E+01  0.97451627349E+01  0.00000000000E+00 0. -1.
</event>
<event>
 7    1  0.8440037E-011  0.4778728E+02  0.7816164E-02  0.1312668E+00
        -11   -1    0    0    0    0  0.00000000000E+00  0.00000000000E+00  0.45593999997E+02  0.45594000000E+02  0.51100000000E-03 0. -1.
         11   -1    0    0    0    0 -0.00000000000E+00 -0.00000000000E+00 -0.45593999997E+02  0.45594000000E+02  0.51100000000E-03 0.  1.
    9900012    2    1    2    0    0 -0.13917932678E+02  0.88881953230E+01 -0.40136191048E+02  0.47787277680E+02  0.20000030252E+02 0.  0.
         12    1    1    2    0    0  0.13917932678E+02 -0.88881953230E+01  0.40136191048E+02  0.43400722320E+02  0.00000000000E+00 0. -1.
         11    1    3    3    0    0 -0.41021878340E+01 -0.36859298916E+00 -0.44380650813E+01  0.60547690083E+01  0.51100000000E-03 0. -1.
        -11    1    3    3    0    0 -0.12207691734E+02  0.15944653955E+00 -0.20317093824E+02  0.23703110816E+02  0.51100000000E-03 0.  1.
        -12    1    3    3    0    0  0.23919468896E+01  0.90973417726E+01 -0.15381032142E+02  0.18029397855E+02  0.00000000000E+00 0.  1.
</event>
<event>
 7    1  0.8440037E-011  0.4778727E+02  0.7816164E-02  0.1312668E+00
        -11   -1    0    0    0    0  0.00000000000E+00  0.00000000000E+00  0.45593999997E+02  0.45594000000E+02  0.51100000000E-03 0. -1.
         11   -1    0    0    0    0 -0.00000000000E+00 -0.00000000000E+00 -0.45593999997E+02  0.45594000000E+02  0.51100000000E-03 0.  1.
    9900012    2    1    2    0    0 -0.13731809518E+02 -0.36528253911E+02 -0.18993349706E+02  0.47787271210E+02  0.20000000755E+02 0.  0.
         12    1    1    2    0    0  0.13731809518E+02  0.36528253911E+02  0.18993349706E+02  0.43400728790E+02  0.00000000000E+00 0. -1.
         11    1    3    3    0    0  0.46410977868E+01 -0.58237535888E+01 -0.59996679952E+01  0.95630492440E+01  0.51100000000E-03 0. -1.
        -11    1    3    3    0    0 -0.31916146304E+01 -0.60497318072E+01 -0.11239444581E+01  0.69317321280E+01  0.51100000000E-03 0.  1.
         12    1    3    3    0    0 -0.15181292674E+02 -0.24654768515E+02 -0.11869737253E+02  0.31292489838E+02  0.00000000000E+00 0. -1.
</event>
<event>
 7    1  0.8440037E-011  0.4778727E+02  0.7816164E-02  0.1312668E+00
        -11   -1    0    0    0    0  0.00000000000E+00  0.00000000000E+00  0.45593999997E+02  0.45594000000E+02  0.51100000000E-03 0. -1.
         11   -1    0    0    0    0 -0.00000000000E+00 -0.00000000000E+00 -0.45593999997E+02  0.45594000000E+02  0.51100000000E-03 0.  1.
    9900012    2    1    2    0    0  0.26636941819E+02 -0.27507690230E+02 -0.20430946717E+02  0.47787271032E+02  0.19999999942E+02 0.  0.
         12    1    1    2    0    0 -0.26636941819E+02  0.27507690230E+02  0.20430946717E+02  0.43400728968E+02  0.00000000000E+00 0. -1.
         11    1    3    3    0    0  0.10460748605E+02 -0.28698386070E+01 -0.12722887834E+02  0.16719303517E+02  0.51100000000E-03 0. -1.
        -11    1    3    3    0    0  0.27665447150E+01 -0.59972076246E+01 -0.42304641873E+01  0.78432835250E+01  0.51100000000E-03 0.  1.
         12    1    3    3    0    0  0.13409648499E+02 -0.18640643998E+02 -0.34775946954E+01  0.23224683989E+02  0.00000000000E+00 0. -1.
</event>
<event>
 7    1  0.8440037E-011  0.4778727E+02  0.7816164E-02  0.1312668E+00
        -11   -1    0    0    0    0  0.00000000000E+00  0.00000000000E+00  0.45593999997E+02  0.45594000000E+02  0.51100000000E-03 0. -1.
         11   -1    0    0    0    0 -0.00000000000E+00 -0.00000000000E+00 -0.45593999997E+02  0.45594000000E+02  0.51100000000E-03 0.  1.
    9900012    2    1    2    0    0 -0.16908147441E+02  0.13824196662E+02  0.37505053993E+02  0.47787274911E+02  0.20000017631E+02 0.  0.
        -12    1    1    2    0    0  0.16908147441E+02 -0.13824196662E+02 -0.37505053993E+02  0.43400725089E+02  0.00000000000E+00 0.  1.
         11    1    3    3    0    0 -0.13004195015E+02  0.12794827270E+02  0.13482663401E+02  0.22684772547E+02  0.51100000000E-03 0. -1.
        -11    1    3    3    0    0 -0.24670858219E+01  0.10601716018E+01  0.29810007691E+01  0.40120870036E+01  0.51100000000E-03 0.  1.
        -12    1    3    3    0    0 -0.14368666036E+01 -0.30802210320E-01  0.21041389823E+02  0.21090415361E+02  0.00000000000E+00 0.  1.
</event>
<event>
 7    1  0.8440037E-011  0.4778726E+02  0.7816164E-02  0.1312668E+00
        -11   -1    0    0    0    0  0.00000000000E+00  0.00000000000E+00  0.45593999997E+02  0.45594000000E+02  0.51100000000E-03 0. -1.
         11   -1    0    0    0    0 -0.00000000000E+00 -0.00000000000E+00 -0.45593999997E+02  0.45594000000E+02  0.51100000000E-03 0.  1.
    9900012    2    1    2    0    0 -0.71628030129E+01  0.22356175189E+02 -0.36503702829E+02  0.47787255349E+02  0.19999928436E+02 0.  0.
         12    1    1    2    0    0  0.71628030129E+01 -0.22356175189E+02  0.36503702829E+02  0.43400744651E+02  0.00000000000E+00 0. -1.
         11    1    3    3    0    0 -0.20104525717E+01  0.13930289673E+02 -0.76868356568E+01  0.16036905331E+02  0.51100000000E-03 0.  1.
        -11    1    3    3    0    0  0.21927072221E+01  0.41417158117E+01 -0.81280844898E+01  0.93822988954E+01  0.51100000000E-03 0. -1.
        -12    1    3    3    0    0 -0.73450576633E+01  0.42841697044E+01 -0.20688782682E+02  0.22368051122E+02  0.00000000000E+00 0.  1.
</event>
<event>
 7    1  0.8440037E-011  0.4778728E+02  0.7816164E-02  0.1312668E+00
        -11   -1    0    0    0    0  0.00000000000E+00  0.00000000000E+00  0.45593999997E+02  0.45594000000E+02  0.51100000000E-03 0. -1.
         11   -1    0    0    0    0 -0.00000000000E+00 -0.00000000000E+00 -0.45593999997E+02  0.45594000000E+02  0.51100000000E-03 0.  1.
    9900012    2    1    2    0    0 -0.27738741455E+01 -0.34556444358E+02 -0.26110926527E+02  0.47787277557E+02  0.20000029692E+02 0.  0.
         12    1    1    2    0    0  0.27738741455E+01  0.34556444358E+02  0.26110926527E+02  0.43400722443E+02  0.00000000000E+00 0. -1.
         11    1    3    3    0    0 -0.55081378101E+01 -0.21611822564E+02 -0.15630406530E+02  0.27234538095E+02  0.51100000000E-03 0. -1.
        -11    1    3    3    0    0 -0.28952520873E+01 -0.11468777099E+02 -0.75940298146E+01  0.14056479712E+02  0.51100000000E-03 0.  1.
         12    1    3    3    0    0  0.56295157518E+01 -0.14758446948E+01 -0.28864901827E+01  0.64962597499E+01  0.00000000000E+00 0. -1.
</event>
<event>
 7    1  0.8440037E-011  0.4778724E+02  0.7816164E-02  0.1312668E+00
        -11   -1    0    0    0    0  0.00000000000E+00  0.00000000000E+00  0.45593999997E+02  0.45594000000E+02  0.51100000000E-03 0. -1.
         11   -1    0    0    0    0 -0.00000000000E+00 -0.00000000000E+00 -0.45593999997E+02  0.45594000000E+02  0.51100000000E-03 0.  1.
    9900012    2    1    2    0    0  0.12875033482E+02 -0.65001008929E+01  0.40934191456E+02  0.47787241608E+02  0.19999865789E+02 0.  0.
        -12    1    1    2    0    0 -0.12875033482E+02  0.65001008929E+01 -0.40934191456E+02  0.43400758392E+02  0.00000000000E+00 0.  1.
         11    1    3    3    0    0  0.64393428303E+01 -0.50069439116E+01  0.35397680123E+02  0.36325340766E+02  0.51100000000E-03 0. -1.
        -11    1    3    3    0    0  0.26088296714E+01 -0.42643943901E+01  0.42589831201E+01  0.65673426321E+01  0.51100000000E-03 0.  1.
        -12    1    3    3    0    0  0.38268609803E+01  0.27712374088E+01  0.12775282132E+01  0.48945582103E+01  0.00000000000E+00 0.  1.
</event>
<event>
 7    1  0.8440037E-011  0.4778727E+02  0.7816164E-02  0.1312668E+00
        -11   -1    0    0    0    0  0.00000000000E+00  0.00000000000E+00  0.45593999997E+02  0.45594000000E+02  0.51100000000E-03 0. -1.
         11   -1    0    0    0    0 -0.00000000000E+00 -0.00000000000E+00 -0.45593999997E+02  0.45594000000E+02  0.51100000000E-03 0.  1.
    9900012    2    1    2    0    0  0.28720819376E+02  0.13286778536E+02  0.29701841713E+02  0.47787270160E+02  0.19999995967E+02 0.  0.
        -12    1    1    2    0    0 -0.28720819376E+02 -0.13286778536E+02 -0.29701841713E+02  0.43400729840E+02  0.00000000000E+00 0.  1.
         11    1    3    3    0    0  0.72620246190E+01  0.50011953020E+01  0.17355792567E+02  0.19467215823E+02  0.51100000000E-03 0. -1.
        -11    1    3    3    0    0  0.10402839966E+02  0.75202077815E+01  0.11450774271E+02  0.17201535865E+02  0.51100000000E-03 0.  1.
        -12    1    3    3    0    0  0.11055954791E+02  0.76537545236E+00  0.89527487581E+00  0.11118518472E+02  0.00000000000E+00 0.  1.
</event>
<event>
 7    1  0.8440037E-011  0.4778727E+02  0.7816164E-02  0.1312668E+00
        -11   -1    0    0    0    0  0.00000000000E+00  0.00000000000E+00  0.45593999997E+02  0.45594000000E+02  0.51100000000E-03 0. -1.
         11   -1    0    0    0    0 -0.00000000000E+00 -0.00000000000E+00 -0.45593999997E+02  0.45594000000E+02  0.51100000000E-03 0.  1.
    9900012    2    1    2    0    0 -0.16967261386E+02  0.72793327822E+01  0.39277812566E+02  0.47787271842E+02  0.20000003636E+02 0.  0.
        -12    1    1    2    0    0  0.16967261386E+02 -0.72793327822E+01 -0.39277812566E+02  0.43400728158E+02  0.00000000000E+00 0.  1.
         11    1    3    3    0    0 -0.28630726017E+00  0.38141324770E+01  0.65059441362E+01  0.75469787176E+01  0.51100000000E-03 0. -1.
        -11    1    3    3    0    0 -0.33836577684E+01  0.82260025892E+01  0.94702336972E+01  0.12992366414E+02  0.51100000000E-03 0.  1.
        -12    1    3    3    0    0 -0.13297296357E+02 -0.47608022841E+01  0.23301634733E+02  0.27247926710E+02  0.00000000000E+00 0.  1.
</event>
<event>
 7    1  0.8440037E-011  0.4778726E+02  0.7816164E-02  0.1312668E+00
        -11   -1    0    0    0    0  0.00000000000E+00  0.00000000000E+00  0.45593999997E+02  0.45594000000E+02  0.51100000000E-03 0. -1.
         11   -1    0    0    0    0 -0.00000000000E+00 -0.00000000000E+00 -0.45593999997E+02  0.45594000000E+02  0.51100000000E-03 0.  1.
    9900012    2    1    2    0    0  0.18497435777E+02 -0.13052188841E+02 -0.37028492428E+02  0.47787262502E+02  0.19999961053E+02 0.  0.
         12    1    1    2    0    0 -0.18497435777E+02  0.13052188841E+02  0.37028492428E+02  0.43400737498E+02  0.00000000000E+00 0. -1.
         11    1    3    3    0    0  0.16138461371E+02 -0.55908141889E+01 -0.13650280561E+02  0.21864064087E+02  0.51100000000E-03 0. -1.
        -11    1    3    3    0    0  0.25671001943E+00 -0.44062900520E+01 -0.33147091101E+01  0.55198359398E+01  0.51100000000E-03 0.  1.
         12    1    3    3    0    0  0.21022643863E+01 -0.30550845996E+01 -0.20063502757E+02  0.20403362476E+02  0.00000000000E+00 0. -1.
</event>
<event>
 7    1  0.8440037E-011  0.4778727E+02  0.7816164E-02  0.1312668E+00
        -11   -1    0    0    0    0  0.00000000000E+00  0.00000000000E+00  0.45593999997E+02  0.45594000000E+02  0.51100000000E-03 0. -1.
         11   -1    0    0    0    0 -0.00000000000E+00 -0.00000000000E+00 -0.45593999997E+02  0.45594000000E+02  0.51100000000E-03 0.  1.
    9900012    2    1    2    0    0  0.39715816417E+01  0.37026199353E+01 -0.43059736499E+02  0.47787265415E+02  0.19999974334E+02 0.  0.
         12    1    1    2    0    0 -0.39715816417E+01 -0.37026199353E+01  0.43059736499E+02  0.43400734585E+02  0.00000000000E+00 0. -1.
         11    1    3    3    0    0 -0.47973103677E+01  0.22194522122E+01 -0.18662747811E+02  0.19396863432E+02  0.51100000000E-03 0. -1.
        -11    1    3    3    0    0 -0.27902337431E+00  0.31270459876E+01 -0.14679401996E+02  0.15011366157E+02  0.51100000000E-03 0.  1.
         12    1    3    3    0    0  0.90479153836E+01 -0.16438782645E+01 -0.97175866916E+01  0.13379035826E+02  0.00000000000E+00 0. -1.
</event>
<event>
 7    1  0.1050387E-010  0.4778727E+02  0.7816164E-02  0.1312668E+00
        -11   -1    0    0    0    0  0.00000000000E+00  0.00000000000E+00  0.45593999997E+02  0.45594000000E+02  0.51100000000E-03 0. -1.
         11   -1    0    0    0    0 -0.00000000000E+00 -0.00000000000E+00 -0.45593999997E+02  0.45594000000E+02  0.51100000000E-03 0.  1.
    9900012    2    1    2    0    0  0.12456181358E+02  0.90607732190E+00  0.41564963788E+02  0.47787266771E+02  0.19999980515E+02 0.  0.
        -12    1    1    2    0    0 -0.12456181358E+02 -0.90607732190E+00 -0.41564963788E+02  0.43400733229E+02  0.00000000000E+00 0.  1.
         11    1    3    3    0    0  0.78876753780E+01  0.15116535975E+01  0.12092414728E+02  0.14516439428E+02  0.51100000000E-03 0. -1.
        -11    1    3    3    0    0  0.21729193853E-01 -0.21231033218E+00 -0.17265577759E+01  0.17396982065E+01  0.51100000000E-03 0.  1.
         12    1    3    3    0    0  0.45467767863E+01 -0.39326594340E+00  0.31199106836E+02  0.31531129136E+02  0.00000000000E+00 0. -1.
</event>
<event>
 7    1  0.8440037E-011  0.4778727E+02  0.7816164E-02  0.1312668E+00
        -11   -1    0    0    0    0  0.00000000000E+00  0.00000000000E+00  0.45593999997E+02  0.45594000000E+02  0.51100000000E-03 0.  1.
         11   -1    0    0    0    0 -0.00000000000E+00 -0.00000000000E+00 -0.45593999997E+02  0.45594000000E+02  0.51100000000E-03 0. -1.
    9900012    2    1    2    0    0 -0.39324178642E+02 -0.16063056979E+02  0.89000144884E+01  0.47787273240E+02  0.20000010012E+02 0.  0.
        -12    1    1    2    0    0  0.39324178642E+02  0.16063056979E+02 -0.89000144884E+01  0.43400726760E+02  0.00000000000E+00 0.  1.
         11    1    3    3    0    0 -0.29645474402E+01  0.13311025990E+01 -0.27819728019E+01  0.42778205416E+01  0.51100000000E-03 0. -1.
        -11    1    3    3    0    0 -0.13732311877E+01  0.11602923106E+01 -0.82696187146E+00  0.19788654170E+01  0.51100000000E-03 0.  1.
         12    1    3    3    0    0 -0.34986400014E+02 -0.18554451888E+02  0.12508949162E+02  0.41530587282E+02  0.00000000000E+00 0. -1.
</event>
<event>
 7    1  0.8440037E-011  0.4778727E+02  0.7816164E-02  0.1312668E+00
        -11   -1    0    0    0    0  0.00000000000E+00  0.00000000000E+00  0.45593999997E+02  0.45594000000E+02  0.51100000000E-03 0. -1.
         11   -1    0    0    0    0 -0.00000000000E+00 -0.00000000000E+00 -0.45593999997E+02  0.45594000000E+02  0.51100000000E-03 0.  1.
    9900012    2    1    2    0    0  0.12740633033E+02 -0.15005314145E+01 -0.41461401311E+02  0.47787272779E+02  0.20000007910E+02 0.  0.
         12    1    1    2    0    0 -0.12740633033E+02  0.15005314145E+01  0.41461401311E+02  0.43400727221E+02  0.00000000000E+00 0. -1.
         11    1    3    3    0    0  0.47056848746E+01  0.50790122901E+01 -0.77434168671E+01  0.10387508894E+02  0.51100000000E-03 0. -1.
        -11    1    3    3    0    0 -0.27415663067E+00  0.25149473933E+01 -0.15824114064E+01  0.29839819653E+01  0.51100000000E-03 0.  1.
        -12    1    3    3    0    0  0.83091047894E+01 -0.90944910978E+01 -0.32135573037E+02  0.34415781920E+02  0.00000000000E+00 0.  1.
</event>
<event>
 7    1  0.8440037E-011  0.4778724E+02  0.7816164E-02  0.1312668E+00
        -11   -1    0    0    0    0  0.00000000000E+00  0.00000000000E+00  0.45593999997E+02  0.45594000000E+02  0.51100000000E-03 0. -1.
         11   -1    0    0    0    0 -0.00000000000E+00 -0.00000000000E+00 -0.45593999997E+02  0.45594000000E+02  0.51100000000E-03 0.  1.
    9900012    2    1    2    0    0  0.38778337895E-01  0.20148338306E+02 -0.38440464613E+02  0.47787235491E+02  0.19999837899E+02 0.  0.
         12    1    1    2    0    0 -0.38778337895E-01 -0.20148338306E+02  0.38440464613E+02  0.43400764509E+02  0.00000000000E+00 0. -1.
         11    1    3    3    0    0  0.54180045522E+01  0.55969456206E+01 -0.17519530693E+02  0.19173276444E+02  0.51100000000E-03 0. -1.
        -11    1    3    3    0    0 -0.30679402131E+01 -0.36504565995E+00 -0.85716906939E+01  0.91114980710E+01  0.51100000000E-03 0.  1.
         12    1    3    3    0    0 -0.23112860012E+01  0.14916438346E+02 -0.12349243226E+02  0.19502460977E+02  0.00000000000E+00 0. -1.
</event>
<event>
 7    1  0.8440037E-011  0.4778730E+02  0.7816164E-02  0.1312668E+00
        -11   -1    0    0    0    0  0.00000000000E+00  0.00000000000E+00  0.45593999997E+02  0.45594000000E+02  0.51100000000E-03 0. -1.
         11   -1    0    0    0    0 -0.00000000000E+00 -0.00000000000E+00 -0.45593999997E+02  0.45594000000E+02  0.51100000000E-03 0.  1.
    9900012    2    1    2    0    0 -0.27916457833E+02 -0.19221746870E+02  0.27107508491E+02  0.47787295083E+02  0.20000109601E+02 0.  0.
        -12    1    1    2    0    0  0.27916457833E+02  0.19221746870E+02 -0.27107508491E+02  0.43400704917E+02  0.00000000000E+00 0.  1.
         11    1    3    3    0    0 -0.14293998088E+02 -0.93270414292E+01  0.89205787474E+01  0.19258473684E+02  0.51100000000E-03 0. -1.
        -11    1    3    3    0    0 -0.11042356330E+02 -0.83391500138E+01  0.45549064324E+01  0.14567849160E+02  0.51100000000E-03 0.  1.
        -12    1    3    3    0    0 -0.25801034148E+01 -0.15555554273E+01  0.13632023311E+02  0.13960972240E+02  0.00000000000E+00 0.  1.
</event>
<event>
 7    1  0.8440037E-011  0.4778726E+02  0.7816164E-02  0.1312668E+00
        -11   -1    0    0    0    0  0.00000000000E+00  0.00000000000E+00  0.45593999997E+02  0.45594000000E+02  0.51100000000E-03 0.  1.
         11   -1    0    0    0    0 -0.00000000000E+00 -0.00000000000E+00 -0.45593999997E+02  0.45594000000E+02  0.51100000000E-03 0. -1.
    9900012    2    1    2    0    0 -0.42749262789E+01 -0.38792964209E+02 -0.18985647913E+02  0.47787263906E+02  0.19999967454E+02 0.  0.
         12    1    1    2    0    0  0.42749262789E+01  0.38792964209E+02  0.18985647913E+02  0.43400736094E+02  0.00000000000E+00 0. -1.
         11    1    3    3    0    0  0.29616890438E+01 -0.99891542864E+01 -0.36368589077E+01  0.11035467744E+02  0.51100000000E-03 0. -1.
        -11    1    3    3    0    0 -0.38217491328E+01 -0.29628817571E+02 -0.13942936550E+02  0.32967833974E+02  0.51100000000E-03 0.  1.
         12    1    3    3    0    0 -0.34148661899E+01  0.82500764823E+00 -0.14058524553E+01  0.37839621880E+01  0.00000000000E+00 0. -1.
</event>
<event>
 7    1  0.8440037E-011  0.4778727E+02  0.7816164E-02  0.1312668E+00
        -11   -1    0    0    0    0  0.00000000000E+00  0.00000000000E+00  0.45593999997E+02  0.45594000000E+02  0.51100000000E-03 0. -1.
         11   -1    0    0    0    0 -0.00000000000E+00 -0.00000000000E+00 -0.45593999997E+02  0.45594000000E+02  0.51100000000E-03 0.  1.
    9900012    2    1    2    0    0  0.38045903156E+01  0.23062892229E+02  0.36568454651E+02  0.47787265202E+02  0.19999973361E+02 0.  0.
        -12    1    1    2    0    0 -0.38045903156E+01 -0.23062892229E+02 -0.36568454651E+02  0.43400734798E+02  0.00000000000E+00 0.  1.
         11    1    3    3    0    0 -0.32885988714E+01  0.11086463959E+02  0.75954793787E+01  0.13835312534E+02  0.51100000000E-03 0.  1.
        -11    1    3    3    0    0  0.36034413612E+01  0.60078950171E+01  0.25031767232E+02  0.25993633128E+02  0.51100000000E-03 0. -1.
         12    1    3    3    0    0  0.34897478259E+01  0.59685332534E+01  0.39412080404E+01  0.79583195401E+01  0.00000000000E+00 0. -1.
</event>
<event>
 7    1  0.8440037E-011  0.4778727E+02  0.7816164E-02  0.1312668E+00
        -11   -1    0    0    0    0  0.00000000000E+00  0.00000000000E+00  0.45593999997E+02  0.45594000000E+02  0.51100000000E-03 0. -1.
         11   -1    0    0    0    0 -0.00000000000E+00 -0.00000000000E+00 -0.45593999997E+02  0.45594000000E+02  0.51100000000E-03 0.  1.
    9900012    2    1    2    0    0 -0.23755099267E+02  0.83463739981E+01  0.35350483736E+02  0.47787269586E+02  0.19999993352E+02 0.  0.
        -12    1    1    2    0    0  0.23755099267E+02 -0.83463739981E+01 -0.35350483736E+02  0.43400730414E+02  0.00000000000E+00 0.  1.
         11    1    3    3    0    0 -0.14287492573E+02  0.17100016644E+01  0.12212833787E+02  0.18873522699E+02  0.51100000000E-03 0. -1.
        -11    1    3    3    0    0 -0.20822545917E+01 -0.15882205858E+01 -0.63686465794E+00  0.26951485427E+01  0.51100000000E-03 0.  1.
        -12    1    3    3    0    0 -0.73853521021E+01  0.82245929195E+01  0.23774514606E+02  0.26218598344E+02  0.00000000000E+00 0.  1.
</event>
<event>
 7    1  0.8440037E-011  0.4778727E+02  0.7816164E-02  0.1312668E+00
        -11   -1    0    0    0    0  0.00000000000E+00  0.00000000000E+00  0.45593999997E+02  0.45594000000E+02  0.51100000000E-03 0. -1.
         11   -1    0    0    0    0 -0.00000000000E+00 -0.00000000000E+00 -0.45593999997E+02  0.45594000000E+02  0.51100000000E-03 0.  1.
    9900012    2    1    2    0    0 -0.15936419057E+02  0.11539341061E+02 -0.38684593612E+02  0.47787266971E+02  0.19999981429E+02 0.  0.
         12    1    1    2    0    0  0.15936419057E+02 -0.11539341061E+02  0.38684593612E+02  0.43400733029E+02  0.00000000000E+00 0. -1.
         11    1    3    3    0    0 -0.27036922030E+01 -0.18580260441E+01 -0.30562098626E+00  0.32947862992E+01  0.51100000000E-03 0. -1.
        -11    1    3    3    0    0 -0.87674159374E+01  0.12384787753E+01 -0.10386857791E+02  0.13648744518E+02  0.51100000000E-03 0.  1.
         12    1    3    3    0    0 -0.44653109165E+01  0.12158888330E+02 -0.27992114835E+02  0.30843736154E+02  0.00000000000E+00 0. -1.
</event>
<event>
 7    1  0.8440037E-011  0.4778728E+02  0.7816164E-02  0.1312668E+00
        -11   -1    0    0    0    0  0.00000000000E+00  0.00000000000E+00  0.45593999997E+02  0.45594000000E+02  0.51100000000E-03 0. -1.
         11   -1    0    0    0    0 -0.00000000000E+00 -0.00000000000E+00 -0.45593999997E+02  0.45594000000E+02  0.51100000000E-03 0.  1.
    9900012    2    1    2    0    0  0.63904368995E+01  0.34339254259E+02 -0.25760449472E+02  0.47787276229E+02  0.20000023639E+02 0.  0.
         12    1    1    2    0    0 -0.63904368995E+01 -0.34339254259E+02  0.25760449472E+02  0.43400723771E+02  0.00000000000E+00 0. -1.
         11    1    3    3    0    0  0.16845869714E+01  0.23888706348E+02 -0.18719238149E+02  0.30396019499E+02  0.51100000000E-03 0. -1.
        -11    1    3    3    0    0  0.41798891684E+01  0.12580381971E+02 -0.73784816556E+01  0.15171666876E+02  0.51100000000E-03 0.  1.
         12    1    3    3    0    0  0.52596075971E+00 -0.21298340594E+01  0.33727033335E+00  0.22195898538E+01  0.00000000000E+00 0. -1.
</event>
<event>
 7    1  0.8440037E-011  0.4778727E+02  0.7816164E-02  0.1312668E+00
        -11   -1    0    0    0    0  0.00000000000E+00  0.00000000000E+00  0.45593999997E+02  0.45594000000E+02  0.51100000000E-03 0. -1.
         11   -1    0    0    0    0 -0.00000000000E+00 -0.00000000000E+00 -0.45593999997E+02  0.45594000000E+02  0.51100000000E-03 0.  1.
    9900012    2    1    2    0    0  0.23190998583E+01 -0.74627302584E+01 -0.42691365479E+02  0.47787271279E+02  0.20000001068E+02 0.  0.
         12    1    1    2    0    0 -0.23190998583E+01  0.74627302584E+01  0.42691365479E+02  0.43400728721E+02  0.00000000000E+00 0. -1.
         11    1    3    3    0    0  0.40611501078E+01 -0.16621846352E+01 -0.93898500080E+01  0.10364607151E+02  0.51100000000E-03 0. -1.
        -11    1    3    3    0    0 -0.44764238639E+01 -0.88948592173E+01 -0.31276682660E+02  0.32823585568E+02  0.51100000000E-03 0.  1.
         12    1    3    3    0    0  0.27343736144E+01  0.30943135940E+01 -0.20248328114E+01  0.45990785594E+01  0.00000000000E+00 0. -1.
</event>
<event>
 7    1  0.8440037E-011  0.4778728E+02  0.7816164E-02  0.1312668E+00
        -11   -1    0    0    0    0  0.00000000000E+00  0.00000000000E+00  0.45593999997E+02  0.45594000000E+02  0.51100000000E-03 0. -1.
         11   -1    0    0    0    0 -0.00000000000E+00 -0.00000000000E+00 -0.45593999997E+02  0.45594000000E+02  0.51100000000E-03 0.  1.
    9900012    2    1    2    0    0 -0.16303219989E+02 -0.25612341786E+02  0.31013478232E+02  0.47787275745E+02  0.20000021433E+02 0.  0.
        -12    1    1    2    0    0  0.16303219989E+02  0.25612341786E+02 -0.31013478232E+02  0.43400724255E+02  0.00000000000E+00 0.  1.
         11    1    3    3    0    0 -0.33844819882E+01 -0.30129602543E+01  0.14754644147E+02  0.15434771524E+02  0.51100000000E-03 0. -1.
        -11    1    3    3    0    0 -0.80908931317E+00 -0.89563181198E+00 -0.14118403004E+01  0.18574377928E+01  0.51100000000E-03 0.  1.
        -12    1    3    3    0    0 -0.12109648687E+02 -0.21703749720E+02  0.17670674385E+02  0.30495066428E+02  0.00000000000E+00 0.  1.
</event>
<event>
 7    1  0.8440037E-011  0.4778728E+02  0.7816164E-02  0.1312668E+00
        -11   -1    0    0    0    0  0.00000000000E+00  0.00000000000E+00  0.45593999997E+02  0.45594000000E+02  0.51100000000E-03 0. -1.
         11   -1    0    0    0    0 -0.00000000000E+00 -0.00000000000E+00 -0.45593999997E+02  0.45594000000E+02  0.51100000000E-03 0.  1.
    9900012    2    1    2    0    0 -0.14195103908E+02 -0.67048797866E+01  0.40461914097E+02  0.47787275578E+02  0.20000020672E+02 0.  0.
        -12    1    1    2    0    0  0.14195103908E+02  0.67048797866E+01 -0.40461914097E+02  0.43400724422E+02  0.00000000000E+00 0.  1.
         11    1    3    3    0    0 -0.11044324043E+01 -0.55946334027E+01  0.15179002901E+02  0.16214864266E+02  0.51100000000E-03 0. -1.
        -11    1    3    3    0    0 -0.85917188558E+01  0.19027375232E+01  0.24585608172E+02  0.26113026872E+02  0.51100000000E-03 0.  1.
        -12    1    3    3    0    0 -0.44989526481E+01 -0.30129839072E+01  0.69730302410E+00  0.54593844398E+01  0.00000000000E+00 0.  1.
</event>
<event>
 7    1  0.8440037E-011  0.4778727E+02  0.7816164E-02  0.1312668E+00
        -11   -1    0    0    0    0  0.00000000000E+00  0.00000000000E+00  0.45593999997E+02  0.45594000000E+02  0.51100000000E-03 0. -1.
         11   -1    0    0    0    0 -0.00000000000E+00 -0.00000000000E+00 -0.45593999997E+02  0.45594000000E+02  0.51100000000E-03 0.  1.
    9900012    2    1    2    0    0  0.34854008098E+02  0.23719071107E+02  0.10306652252E+02  0.47787270797E+02  0.19999998874E+02 0.  0.
        -12    1    1    2    0    0 -0.34854008098E+02 -0.23719071107E+02 -0.10306652252E+02  0.43400729203E+02  0.00000000000E+00 0.  1.
         11    1    3    3    0    0  0.94834920213E+01  0.11648511118E+02  0.75501521157E+01  0.16811580218E+02  0.51100000000E-03 0. -1.
        -11    1    3    3    0    0  0.33414314604E+00  0.46853755108E+01 -0.22756892999E+00  0.47027846217E+01  0.51100000000E-03 0.  1.
        -12    1    3    3    0    0  0.25036372931E+02  0.73851844783E+01  0.29840690665E+01  0.26272905958E+02  0.00000000000E+00 0.  1.
</event>
<event>
 7    1  0.8440037E-011  0.4778727E+02  0.7816164E-02  0.1312668E+00
        -11   -1    0    0    0    0  0.00000000000E+00  0.00000000000E+00  0.45593999997E+02  0.45594000000E+02  0.51100000000E-03 0. -1.
         11   -1    0    0    0    0 -0.00000000000E+00 -0.00000000000E+00 -0.45593999997E+02  0.45594000000E+02  0.51100000000E-03 0.  1.
    9900012    2    1    2    0    0  0.73766850000E+01 -0.14910520517E+02  0.40085961550E+02  0.47787269394E+02  0.19999992476E+02 0.  0.
        -12    1    1    2    0    0 -0.73766850000E+01  0.14910520517E+02 -0.40085961550E+02  0.43400730606E+02  0.00000000000E+00 0.  1.
         11    1    3    3    0    0  0.25593382323E+01 -0.41967144276E+00  0.10766776793E+02  0.11074737879E+02  0.51100000000E-03 0. -1.
        -11    1    3    3    0    0  0.63280437480E+01 -0.32464561857E+01  0.24100670142E+01  0.75094632775E+01  0.51100000000E-03 0.  1.
        -12    1    3    3    0    0 -0.15106969803E+01 -0.11244392889E+02  0.26909117743E+02  0.29203068238E+02  0.00000000000E+00 0.  1.
</event>
<event>
 7    1  0.8440037E-011  0.4778730E+02  0.7816164E-02  0.1312668E+00
        -11   -1    0    0    0    0  0.00000000000E+00  0.00000000000E+00  0.45593999997E+02  0.45594000000E+02  0.51100000000E-03 0. -1.
         11   -1    0    0    0    0 -0.00000000000E+00 -0.00000000000E+00 -0.45593999997E+02  0.45594000000E+02  0.51100000000E-03 0.  1.
    9900012    2    1    2    0    0 -0.28519163297E+01 -0.44563566267E+01  0.43077007585E+02  0.47787295816E+02  0.20000112945E+02 0.  0.
        -12    1    1    2    0    0  0.28519163297E+01  0.44563566267E+01 -0.43077007585E+02  0.43400704184E+02  0.00000000000E+00 0.  1.
         11    1    3    3    0    0  0.31753328189E+01  0.10379668695E+01  0.20031684896E+02  0.20308336066E+02  0.51100000000E-03 0. -1.
        -11    1    3    3    0    0 -0.58972680119E+00 -0.50645504495E+01  0.21069467145E+02  0.21677635826E+02  0.51100000000E-03 0.  1.
         12    1    3    3    0    0 -0.54375223474E+01 -0.42977304678E+00  0.19758555443E+01  0.58013239250E+01  0.00000000000E+00 0. -1.
</event>
<event>
 7    1  0.8440037E-011  0.4778726E+02  0.7816164E-02  0.1312668E+00
        -11   -1    0    0    0    0  0.00000000000E+00  0.00000000000E+00  0.45593999997E+02  0.45594000000E+02  0.51100000000E-03 0. -1.
         11   -1    0    0    0    0 -0.00000000000E+00 -0.00000000000E+00 -0.45593999997E+02  0.45594000000E+02  0.51100000000E-03 0.  1.
    9900012    2    1    2    0    0  0.20070893022E+02  0.17930696945E+02  0.34048104565E+02  0.47787261941E+02  0.19999958492E+02 0.  0.
        -12    1    1    2    0    0 -0.20070893022E+02 -0.17930696945E+02 -0.34048104565E+02  0.43400738059E+02  0.00000000000E+00 0.  1.
         11    1    3    3    0    0 -0.97951776115E+00  0.83121521409E+01  0.79421620822E+01  0.11538165671E+02  0.51100000000E-03 0. -1.
        -11    1    3    3    0    0  0.19434289135E+01 -0.19778229681E+01  0.23890847498E+01  0.36601128177E+01  0.51100000000E-03 0.  1.
        -12    1    3    3    0    0  0.19106981870E+02  0.11596367773E+02  0.23716857733E+02  0.32588983452E+02  0.00000000000E+00 0.  1.
</event>
<event>
 7    1  0.8440037E-011  0.4778727E+02  0.7816164E-02  0.1312668E+00
        -11   -1    0    0    0    0  0.00000000000E+00  0.00000000000E+00  0.45593999997E+02  0.45594000000E+02  0.51100000000E-03 0. -1.
         11   -1    0    0    0    0 -0.00000000000E+00 -0.00000000000E+00 -0.45593999997E+02  0.45594000000E+02  0.51100000000E-03 0.  1.
    9900012    2    1    2    0    0  0.39919159273E+02 -0.46883312199E+01  0.16373863848E+02  0.47787272541E+02  0.20000006822E+02 0.  0.
        -12    1    1    2    0    0 -0.39919159273E+02  0.46883312199E+01 -0.16373863848E+02  0.43400727459E+02  0.00000000000E+00 0.  1.
         11    1    3    3    0    0  0.20757260805E+02 -0.61576108181E+01  0.92630873002E+01  0.23549624917E+02  0.51100000000E-03 0. -1.
        -11    1    3    3    0    0  0.18630803648E+02 -0.16387655158E+01  0.28218687247E+01  0.18914421492E+02  0.51100000000E-03 0.  1.
         12    1    3    3    0    0  0.53109481908E+00  0.31080451140E+01  0.42889078234E+01  0.53232261322E+01  0.00000000000E+00 0. -1.
</event>
<event>
 7    1  0.8440037E-011  0.4778727E+02  0.7816164E-02  0.1312668E+00
        -11   -1    0    0    0    0  0.00000000000E+00  0.00000000000E+00  0.45593999997E+02  0.45594000000E+02  0.51100000000E-03 0. -1.
         11   -1    0    0    0    0 -0.00000000000E+00 -0.00000000000E+00 -0.45593999997E+02  0.45594000000E+02  0.51100000000E-03 0.  1.
    9900012    2    1    2    0    0  0.40562750651E+02  0.17039861572E+01  0.15342188020E+02  0.47787273710E+02  0.20000012156E+02 0.  0.
        -12    1    1    2    0    0 -0.40562750651E+02 -0.17039861572E+01 -0.15342188020E+02  0.43400726290E+02  0.00000000000E+00 0.  1.
         11    1    3    3    0    0  0.84598775544E+01 -0.68837832014E+01  0.28966440238E+01  0.11284792699E+02  0.51100000000E-03 0. -1.
        -11    1    3    3    0    0  0.39425855209E+01 -0.17459658717E+01  0.18095196292E+01  0.46761885082E+01  0.51100000000E-03 0.  1.
        -12    1    3    3    0    0  0.28160287576E+02  0.10333735230E+02  0.10636024367E+02  0.31826292503E+02  0.00000000000E+00 0.  1.
</event>
<event>
 7    1  0.1137347E-010  0.4778727E+02  0.7816164E-02  0.1312668E+00
        -11   -1    0    0    0    0  0.00000000000E+00  0.00000000000E+00  0.45593999997E+02  0.45594000000E+02  0.51100000000E-03 0. -1.
         11   -1    0    0    0    0 -0.00000000000E+00 -0.00000000000E+00 -0.45593999997E+02  0.45594000000E+02  0.51100000000E-03 0.  1.
    9900012    2    1    2    0    0 -0.95397889053E+01  0.27137997588E+02  0.32498378622E+02  0.47787273065E+02  0.20000009211E+02 0.  0.
        -12    1    1    2    0    0  0.95397889053E+01 -0.27137997588E+02 -0.32498378622E+02  0.43400726935E+02  0.00000000000E+00 0.  1.
         11    1    3    3    0    0  0.22308006296E+01  0.27516298722E+01  0.11433608588E+01  0.37222590878E+01  0.51100000000E-03 0. -1.
        -11    1    3    3    0    0  0.28919384282E+01  0.41999889063E+01  0.99963630355E+01  0.11221875462E+02  0.51100000000E-03 0.  1.
         12    1    3    3    0    0 -0.14662527963E+02  0.20186378810E+02  0.21358654728E+02  0.32843138515E+02  0.00000000000E+00 0. -1.
</event>
<event>
 7    1  0.8440037E-011  0.4778727E+02  0.7816164E-02  0.1312668E+00
        -11   -1    0    0    0    0  0.00000000000E+00  0.00000000000E+00  0.45593999997E+02  0.45594000000E+02  0.51100000000E-03 0. -1.
         11   -1    0    0    0    0 -0.00000000000E+00 -0.00000000000E+00 -0.45593999997E+02  0.45594000000E+02  0.51100000000E-03 0.  1.
    9900012    2    1    2    0    0  0.21938126209E+02 -0.18615745714E+01  0.37401559986E+02  0.47787268084E+02  0.19999986503E+02 0.  0.
        -12    1    1    2    0    0 -0.21938126209E+02  0.18615745714E+01 -0.37401559986E+02  0.43400731916E+02  0.00000000000E+00 0.  1.
         11    1    3    3    0    0  0.14899044689E+02 -0.50652284823E+01  0.92594684428E+01  0.18258582320E+02  0.51100000000E-03 0. -1.
        -11    1    3    3    0    0  0.56419356835E+00  0.23385221402E+01  0.79877141742E+01  0.83420967492E+01  0.51100000000E-03 0.  1.
         12    1    3    3    0    0  0.64748879512E+01  0.86513177071E+00  0.20154377369E+02  0.21186589015E+02  0.00000000000E+00 0. -1.
</event>
<event>
 7    1  0.8440037E-011  0.4778731E+02  0.7816164E-02  0.1312668E+00
        -11   -1    0    0    0    0  0.00000000000E+00  0.00000000000E+00  0.45593999997E+02  0.45594000000E+02  0.51100000000E-03 0. -1.
         11   -1    0    0    0    0 -0.00000000000E+00 -0.00000000000E+00 -0.45593999997E+02  0.45594000000E+02  0.51100000000E-03 0.  1.
    9900012    2    1    2    0    0  0.16381419930E+02  0.94174310610E+01  0.39071481738E+02  0.47787313232E+02  0.20000192349E+02 0.  0.
        -12    1    1    2    0    0 -0.16381419930E+02 -0.94174310610E+01 -0.39071481738E+02  0.43400686768E+02  0.00000000000E+00 0.  1.
         11    1    3    3    0    0  0.12393525373E+01 -0.40386511027E+00  0.12043898826E+02  0.12114231339E+02  0.51100000000E-03 0. -1.
        -11    1    3    3    0    0 -0.26123851609E+01  0.63103829066E+00  0.64282641491E+01  0.69674490156E+01  0.51100000000E-03 0.  1.
        -12    1    3    3    0    0  0.17754452554E+02  0.91902578806E+01  0.20599318763E+02  0.28705632877E+02  0.00000000000E+00 0.  1.
</event>
<event>
 7    1  0.8440037E-011  0.4778727E+02  0.7816164E-02  0.1312668E+00
        -11   -1    0    0    0    0  0.00000000000E+00  0.00000000000E+00  0.45593999997E+02  0.45594000000E+02  0.51100000000E-03 0. -1.
         11   -1    0    0    0    0 -0.00000000000E+00 -0.00000000000E+00 -0.45593999997E+02  0.45594000000E+02  0.51100000000E-03 0.  1.
    9900012    2    1    2    0    0 -0.12639558127E+02 -0.32505993588E+01 -0.41392011302E+02  0.47787269298E+02  0.19999992037E+02 0.  0.
         12    1    1    2    0    0  0.12639558127E+02  0.32505993588E+01  0.41392011302E+02  0.43400730702E+02  0.00000000000E+00 0. -1.
         11    1    3    3    0    0 -0.24925764514E+01 -0.41898967589E+01 -0.34196166322E+01  0.59549937354E+01  0.51100000000E-03 0. -1.
        -11    1    3    3    0    0 -0.67559948385E+01 -0.41566037660E+01 -0.80922068759E+01  0.11331576832E+02  0.51100000000E-03 0.  1.
        -12    1    3    3    0    0 -0.33909868375E+01  0.50959011660E+01 -0.29880187794E+02  0.30500698730E+02  0.00000000000E+00 0.  1.
</event>
<event>
 7    1  0.8440037E-011  0.4778727E+02  0.7816164E-02  0.1312668E+00
        -11   -1    0    0    0    0  0.00000000000E+00  0.00000000000E+00  0.45593999997E+02  0.45594000000E+02  0.51100000000E-03 0. -1.
         11   -1    0    0    0    0 -0.00000000000E+00 -0.00000000000E+00 -0.45593999997E+02  0.45594000000E+02  0.51100000000E-03 0.  1.
    9900012    2    1    2    0    0 -0.14760258747E+02  0.18108733087E+02  0.36576383652E+02  0.47787270820E+02  0.19999998978E+02 0.  0.
        -12    1    1    2    0    0  0.14760258747E+02 -0.18108733087E+02 -0.36576383652E+02  0.43400729180E+02  0.00000000000E+00 0.  1.
         11    1    3    3    0    0 -0.46410709179E+01  0.69461365021E+01  0.75398858283E+01  0.11253365280E+02  0.51100000000E-03 0. -1.
        -11    1    3    3    0    0  0.27304688490E+01  0.44960624268E+01  0.15756970613E+01  0.54911618963E+01  0.51100000000E-03 0.  1.
         12    1    3    3    0    0 -0.12849656678E+02  0.66665341578E+01  0.27460800762E+02  0.31042743644E+02  0.00000000000E+00 0. -1.
</event>
<event>
 7    1  0.8440037E-011  0.4778727E+02  0.7816164E-02  0.1312668E+00
        -11   -1    0    0    0    0  0.00000000000E+00  0.00000000000E+00  0.45593999997E+02  0.45594000000E+02  0.51100000000E-03 0. -1.
         11   -1    0    0    0    0 -0.00000000000E+00 -0.00000000000E+00 -0.45593999997E+02  0.45594000000E+02  0.51100000000E-03 0.  1.
    9900012    2    1    2    0    0 -0.34959159133E+02  0.15788678282E+02 -0.20302666271E+02  0.47787269281E+02  0.19999991962E+02 0.  0.
         12    1    1    2    0    0  0.34959159133E+02 -0.15788678282E+02  0.20302666271E+02  0.43400730719E+02  0.00000000000E+00 0. -1.
         11    1    3    3    0    0 -0.93815084655E+01  0.40174271574E+01 -0.58985767678E+01  0.11787520104E+02  0.51100000000E-03 0. -1.
        -11    1    3    3    0    0 -0.18368954904E+02  0.45845899130E+01 -0.72158605568E+00  0.18946177863E+02  0.51100000000E-03 0.  1.
         12    1    3    3    0    0 -0.72086957639E+01  0.71866612120E+01 -0.13682503447E+02  0.17053571314E+02  0.00000000000E+00 0. -1.
</event>
<event>
 7    1  0.8440037E-011  0.4778727E+02  0.7816164E-02  0.1312668E+00
        -11   -1    0    0    0    0  0.00000000000E+00  0.00000000000E+00  0.45593999997E+02  0.45594000000E+02  0.51100000000E-03 0. -1.
         11   -1    0    0    0    0 -0.00000000000E+00 -0.00000000000E+00 -0.45593999997E+02  0.45594000000E+02  0.51100000000E-03 0.  1.
    9900012    2    1    2    0    0  0.22792760282E+01 -0.81354804667E+01 -0.42570438875E+02  0.47787269503E+02  0.19999992974E+02 0.  0.
         12    1    1    2    0    0 -0.22792760282E+01  0.81354804667E+01  0.42570438875E+02  0.43400730497E+02  0.00000000000E+00 0. -1.
         11    1    3    3    0    0  0.35769409398E+00 -0.13402204917E+01 -0.72936716721E+01  0.74244045386E+01  0.51100000000E-03 0. -1.
        -11    1    3    3    0    0  0.65359758195E+01 -0.56803612718E+01 -0.34478188078E+02  0.35548993481E+02  0.51100000000E-03 0.  1.
         12    1    3    3    0    0 -0.46143938853E+01 -0.11148987032E+01 -0.79857912480E+00  0.48138714841E+01  0.00000000000E+00 0. -1.
</event>
<event>
 7    1  0.8440037E-011  0.4778726E+02  0.7816164E-02  0.1312668E+00
        -11   -1    0    0    0    0  0.00000000000E+00  0.00000000000E+00  0.45593999997E+02  0.45594000000E+02  0.51100000000E-03 0. -1.
         11   -1    0    0    0    0 -0.00000000000E+00 -0.00000000000E+00 -0.45593999997E+02  0.45594000000E+02  0.51100000000E-03 0.  1.
    9900012    2    1    2    0    0  0.80795913980E+01 -0.29001574163E+02  0.31261053184E+02  0.47787256374E+02  0.19999933112E+02 0.  0.
        -12    1    1    2    0    0 -0.80795913980E+01  0.29001574163E+02 -0.31261053184E+02  0.43400743626E+02  0.00000000000E+00 0.  1.
         11    1    3    3    0    0 -0.41035172603E+01 -0.40979019272E+01  0.12998973382E+01  0.59431799116E+01  0.51100000000E-03 0. -1.
        -11    1    3    3    0    0  0.34332358628E+01 -0.82297067213E+00  0.28050469060E+01  0.45091770450E+01  0.51100000000E-03 0.  1.
        -12    1    3    3    0    0  0.87498727955E+01 -0.24080701564E+02  0.27156108940E+02  0.37334899417E+02  0.00000000000E+00 0.  1.
</event>
<event>
 7    1  0.8440037E-011  0.4778727E+02  0.7816164E-02  0.1312668E+00
        -11   -1    0    0    0    0  0.00000000000E+00  0.00000000000E+00  0.45593999997E+02  0.45594000000E+02  0.51100000000E-03 0.  1.
         11   -1    0    0    0    0 -0.00000000000E+00 -0.00000000000E+00 -0.45593999997E+02  0.45594000000E+02  0.51100000000E-03 0. -1.
    9900012    2    1    2    0    0 -0.12912779983E+02 -0.41222083690E+02 -0.41980083080E+01  0.47787270232E+02  0.19999996297E+02 0.  0.
         12    1    1    2    0    0  0.12912779983E+02  0.41222083690E+02  0.41980083080E+01  0.43400729768E+02  0.00000000000E+00 0. -1.
         11    1    3    3    0    0 -0.38966759180E+01 -0.17373680828E+02 -0.64044175161E+01  0.18922088487E+02  0.51100000000E-03 0. -1.
        -11    1    3    3    0    0  0.25005631488E+01 -0.11951397179E+02  0.51800981625E+00  0.12221171998E+02  0.51100000000E-03 0.  1.
        -12    1    3    3    0    0 -0.11516667214E+02 -0.11897005683E+02  0.16883993918E+01  0.16644009747E+02  0.00000000000E+00 0.  1.
</event>
<event>
 7    1  0.8440037E-011  0.4778727E+02  0.7816164E-02  0.1312668E+00
        -11   -1    0    0    0    0  0.00000000000E+00  0.00000000000E+00  0.45593999997E+02  0.45594000000E+02  0.51100000000E-03 0.  1.
         11   -1    0    0    0    0 -0.00000000000E+00 -0.00000000000E+00 -0.45593999997E+02  0.45594000000E+02  0.51100000000E-03 0. -1.
    9900012    2    1    2    0    0  0.32980462064E+02 -0.16308992429E+02 -0.23020194626E+02  0.47787268755E+02  0.19999989561E+02 0.  0.
         12    1    1    2    0    0 -0.32980462064E+02  0.16308992429E+02  0.23020194626E+02  0.43400731245E+02  0.00000000000E+00 0. -1.
         11    1    3    3    0    0  0.13490938394E+02 -0.87823813586E+00 -0.61135323478E+01  0.14837519975E+02  0.51100000000E-03 0. -1.
        -11    1    3    3    0    0  0.17072070650E+02 -0.56888861361E+01 -0.87162963097E+01  0.19994820413E+02  0.51100000000E-03 0.  1.
        -12    1    3    3    0    0  0.24174530201E+01 -0.97418681575E+01 -0.81903659684E+01  0.12954928367E+02  0.00000000000E+00 0.  1.
</event>
<event>
 7    1  0.8440037E-011  0.4778727E+02  0.7816164E-02  0.1312668E+00
        -11   -1    0    0    0    0  0.00000000000E+00  0.00000000000E+00  0.45593999997E+02  0.45594000000E+02  0.51100000000E-03 0. -1.
         11   -1    0    0    0    0 -0.00000000000E+00 -0.00000000000E+00 -0.45593999997E+02  0.45594000000E+02  0.51100000000E-03 0.  1.
    9900012    2    1    2    0    0 -0.26676248154E+02 -0.29334150958E+02 -0.17649606878E+02  0.47787271309E+02  0.20000001206E+02 0.  0.
         12    1    1    2    0    0  0.26676248154E+02  0.29334150958E+02  0.17649606878E+02  0.43400728691E+02  0.00000000000E+00 0. -1.
         11    1    3    3    0    0  0.19080025116E+00 -0.24638803207E+00 -0.47715737488E+01  0.47817390246E+01  0.51100000000E-03 0. -1.
        -11    1    3    3    0    0 -0.35079678363E+01 -0.99406278466E+01 -0.11466964673E+01  0.10603623596E+02  0.51100000000E-03 0.  1.
        -12    1    3    3    0    0 -0.23359080569E+02 -0.19147135079E+02 -0.11731336662E+02  0.32401908688E+02  0.00000000000E+00 0.  1.
</event>
<event>
 7    1  0.1341099E-010  0.4778728E+02  0.7816164E-02  0.1312668E+00
        -11   -1    0    0    0    0  0.00000000000E+00  0.00000000000E+00  0.45593999997E+02  0.45594000000E+02  0.51100000000E-03 0. -1.
         11   -1    0    0    0    0 -0.00000000000E+00 -0.00000000000E+00 -0.45593999997E+02  0.45594000000E+02  0.51100000000E-03 0.  1.
    9900012    2    1    2    0    0 -0.29723104972E+02 -0.12787350002E+02  0.28924788072E+02  0.47787278183E+02  0.20000032546E+02 0.  0.
        -12    1    1    2    0    0  0.29723104972E+02  0.12787350002E+02 -0.28924788072E+02  0.43400721817E+02  0.00000000000E+00 0.  1.
         11    1    3    3    0    0 -0.43424811569E+00 -0.21858622084E+01  0.56220393501E+01  0.60476352184E+01  0.51100000000E-03 0. -1.
        -11    1    3    3    0    0  0.19565174176E+00  0.15356246746E+01 -0.82552995777E+00  0.17544009569E+01  0.51100000000E-03 0.  1.
         12    1    3    3    0    0 -0.29484508598E+02 -0.12137112468E+02  0.24128278680E+02  0.39985242007E+02  0.00000000000E+00 0. -1.
</event>
<event>
 7    1  0.8440037E-011  0.4778727E+02  0.7816164E-02  0.1312668E+00
        -11   -1    0    0    0    0  0.00000000000E+00  0.00000000000E+00  0.45593999997E+02  0.45594000000E+02  0.51100000000E-03 0. -1.
         11   -1    0    0    0    0 -0.00000000000E+00 -0.00000000000E+00 -0.45593999997E+02  0.45594000000E+02  0.51100000000E-03 0.  1.
    9900012    2    1    2    0    0  0.18896145727E+02 -0.12777599975E+02 -0.36922783960E+02  0.47787270054E+02  0.19999995486E+02 0.  0.
         12    1    1    2    0    0 -0.18896145727E+02  0.12777599975E+02  0.36922783960E+02  0.43400729946E+02  0.00000000000E+00 0. -1.
         11    1    3    3    0    0  0.18892743616E+01  0.29739215041E+00 -0.91609049982E+01  0.93584176200E+01  0.51100000000E-03 0. -1.
        -11    1    3    3    0    0  0.18455119171E+02 -0.86383151988E+01 -0.26794805512E+02  0.33662642733E+02  0.51100000000E-03 0.  1.
         12    1    3    3    0    0 -0.14482478061E+01 -0.44366769261E+01 -0.96707344989E+00  0.47662097008E+01  0.00000000000E+00 0. -1.
</event>
<event>
 7    1  0.8440037E-011  0.4778726E+02  0.7816164E-02  0.1312668E+00
        -11   -1    0    0    0    0  0.00000000000E+00  0.00000000000E+00  0.45593999997E+02  0.45594000000E+02  0.51100000000E-03 0. -1.
         11   -1    0    0    0    0 -0.00000000000E+00 -0.00000000000E+00 -0.45593999997E+02  0.45594000000E+02  0.51100000000E-03 0.  1.
    9900012    2    1    2    0    0  0.15206628142E+01 -0.19000598074E+02 -0.38990884586E+02  0.47787260106E+02  0.19999950128E+02 0.  0.
         12    1    1    2    0    0 -0.15206628142E+01  0.19000598074E+02  0.38990884586E+02  0.43400739894E+02  0.00000000000E+00 0. -1.
         11    1    3    3    0    0  0.89752613106E+00 -0.65573034226E+01 -0.20390303282E+02  0.21437542991E+02  0.51100000000E-03 0. -1.
        -11    1    3    3    0    0  0.13698123688E+01 -0.14827443921E+02 -0.18631946197E+02  0.23851182329E+02  0.51100000000E-03 0.  1.
         12    1    3    3    0    0 -0.74667568559E+00  0.23841492695E+01  0.31364892640E-01  0.24985347857E+01  0.00000000000E+00 0. -1.
</event>
<event>
 7    1  0.8440037E-011  0.4778727E+02  0.7816164E-02  0.1312668E+00
        -11   -1    0    0    0    0  0.00000000000E+00  0.00000000000E+00  0.45593999997E+02  0.45594000000E+02  0.51100000000E-03 0. -1.
         11   -1    0    0    0    0 -0.00000000000E+00 -0.00000000000E+00 -0.45593999997E+02  0.45594000000E+02  0.51100000000E-03 0.  1.
    9900012    2    1    2    0    0  0.21683819750E+01 -0.11562530275E+02  0.41775939832E+02  0.47787272638E+02  0.20000007265E+02 0.  0.
        -12    1    1    2    0    0 -0.21683819750E+01  0.11562530275E+02 -0.41775939832E+02  0.43400727362E+02  0.00000000000E+00 0.  1.
         11    1    3    3    0    0  0.10409233355E+01  0.33346387152E+01  0.12611634668E+02  0.13086507021E+02  0.51100000000E-03 0. -1.
        -11    1    3    3    0    0  0.71816388533E+00  0.22023530393E-01  0.11724674312E+02  0.11746668991E+02  0.51100000000E-03 0.  1.
        -12    1    3    3    0    0  0.40929475417E+00 -0.14919192520E+02  0.17439630851E+02  0.22954096625E+02  0.00000000000E+00 0.  1.
</event>
<event>
 7    1  0.8440037E-011  0.4778727E+02  0.7816164E-02  0.1312668E+00
        -11   -1    0    0    0    0  0.00000000000E+00  0.00000000000E+00  0.45593999997E+02  0.45594000000E+02  0.51100000000E-03 0. -1.
         11   -1    0    0    0    0 -0.00000000000E+00 -0.00000000000E+00 -0.45593999997E+02  0.45594000000E+02  0.51100000000E-03 0.  1.
    9900012    2    1    2    0    0  0.11593925337E+02  0.93197440030E+01 -0.40771883723E+02  0.47787271488E+02  0.20000002024E+02 0.  0.
         12    1    1    2    0    0 -0.11593925337E+02 -0.93197440030E+01  0.40771883723E+02  0.43400728512E+02  0.00000000000E+00 0. -1.
         11    1    3    3    0    0  0.54639152346E+01  0.31516818486E+01 -0.86062977003E+01  0.10670324669E+02  0.51100000000E-03 0.  1.
        -11    1    3    3    0    0  0.10125089759E+01  0.62187643720E+01 -0.31298341877E+02  0.31926233872E+02  0.51100000000E-03 0. -1.
         12    1    3    3    0    0  0.51175011269E+01 -0.50702217591E-01 -0.86724414619E+00  0.51907129480E+01  0.00000000000E+00 0. -1.
</event>
<event>
 7    1  0.8440037E-011  0.4778727E+02  0.7816164E-02  0.1312668E+00
        -11   -1    0    0    0    0  0.00000000000E+00  0.00000000000E+00  0.45593999997E+02  0.45594000000E+02  0.51100000000E-03 0. -1.
         11   -1    0    0    0    0 -0.00000000000E+00 -0.00000000000E+00 -0.45593999997E+02  0.45594000000E+02  0.51100000000E-03 0.  1.
    9900012    2    1    2    0    0 -0.49073578484E+01 -0.21029327108E+02  0.37647157222E+02  0.47787271820E+02  0.20000003537E+02 0.  0.
        -12    1    1    2    0    0  0.49073578484E+01  0.21029327108E+02 -0.37647157222E+02  0.43400728180E+02  0.00000000000E+00 0.  1.
         11    1    3    3    0    0  0.20232374918E+01 -0.80917205266E+01  0.25772184990E+02  0.27088280684E+02  0.51100000000E-03 0. -1.
        -11    1    3    3    0    0 -0.80115196053E+00 -0.56922475364E+01  0.33528719016E+00  0.57581198530E+01  0.51100000000E-03 0.  1.
        -12    1    3    3    0    0 -0.61294433797E+01 -0.72453590446E+01  0.11539685042E+02  0.14940871283E+02  0.00000000000E+00 0.  1.
</event>
<event>
 7    1  0.8440037E-011  0.4778728E+02  0.7816164E-02  0.1312668E+00
        -11   -1    0    0    0    0  0.00000000000E+00  0.00000000000E+00  0.45593999997E+02  0.45594000000E+02  0.51100000000E-03 0.  1.
         11   -1    0    0    0    0 -0.00000000000E+00 -0.00000000000E+00 -0.45593999997E+02  0.45594000000E+02  0.51100000000E-03 0. -1.
    9900012    2    1    2    0    0 -0.28319072323E+02  0.24836167114E+02  0.21559618837E+02  0.47787283202E+02  0.20000055431E+02 0.  0.
        -12    1    1    2    0    0  0.28319072323E+02 -0.24836167114E+02 -0.21559618837E+02  0.43400716798E+02  0.00000000000E+00 0.  1.
         11    1    3    3    0    0 -0.15479310019E+02  0.92830443418E+01  0.12946838384E+02  0.22212712021E+02  0.51100000000E-03 0. -1.
        -11    1    3    3    0    0 -0.10674043331E+02  0.12459592153E+02  0.12138048750E+02  0.20408548831E+02  0.51100000000E-03 0.  1.
        -12    1    3    3    0    0 -0.21657189731E+01  0.30935306193E+01 -0.35252682965E+01  0.51660223505E+01  0.00000000000E+00 0.  1.
</event>
<event>
 7    1  0.8440037E-011  0.4778727E+02  0.7816164E-02  0.1312668E+00
        -11   -1    0    0    0    0  0.00000000000E+00  0.00000000000E+00  0.45593999997E+02  0.45594000000E+02  0.51100000000E-03 0. -1.
         11   -1    0    0    0    0 -0.00000000000E+00 -0.00000000000E+00 -0.45593999997E+02  0.45594000000E+02  0.51100000000E-03 0.  1.
    9900012    2    1    2    0    0  0.15077101494E+02  0.29559649659E+02  0.27973764444E+02  0.47787269884E+02  0.19999994710E+02 0.  0.
        -12    1    1    2    0    0 -0.15077101494E+02 -0.29559649659E+02 -0.27973764444E+02  0.43400730116E+02  0.00000000000E+00 0.  1.
         11    1    3    3    0    0  0.61349580016E+01  0.90444956413E+01  0.13892256776E+02  0.17675842545E+02  0.51100000000E-03 0. -1.
        -11    1    3    3    0    0  0.71063393752E+01  0.18913011367E+02  0.16932422803E+02  0.26361126693E+02  0.51100000000E-03 0.  1.
        -12    1    3    3    0    0  0.18358041174E+01  0.16021426502E+01 -0.28509151349E+01  0.37503006461E+01  0.00000000000E+00 0.  1.
</event>
<event>
 7    1  0.8440037E-011  0.4778727E+02  0.7816164E-02  0.1312668E+00
        -11   -1    0    0    0    0  0.00000000000E+00  0.00000000000E+00  0.45593999997E+02  0.45594000000E+02  0.51100000000E-03 0. -1.
         11   -1    0    0    0    0 -0.00000000000E+00 -0.00000000000E+00 -0.45593999997E+02  0.45594000000E+02  0.51100000000E-03 0.  1.
    9900012    2    1    2    0    0  0.10534457460E+02  0.15090518323E+02 -0.39305536343E+02  0.47787265853E+02  0.19999976332E+02 0.  0.
         12    1    1    2    0    0 -0.10534457460E+02 -0.15090518323E+02  0.39305536343E+02  0.43400734147E+02  0.00000000000E+00 0. -1.
         11    1    3    3    0    0  0.67040441162E+00 -0.29017342026E+01 -0.12551094600E+02  0.12899592217E+02  0.51100000000E-03 0. -1.
        -11    1    3    3    0    0 -0.15912359570E+01  0.40151384363E+01 -0.52279504904E+01  0.67812119216E+01  0.51100000000E-03 0.  1.
        -12    1    3    3    0    0  0.11455289005E+02  0.13977114089E+02 -0.21526491253E+02  0.28106461715E+02  0.00000000000E+00 0.  1.
</event>
<event>
 7    1  0.8440037E-011  0.4778728E+02  0.7816164E-02  0.1312668E+00
        -11   -1    0    0    0    0  0.00000000000E+00  0.00000000000E+00  0.45593999997E+02  0.45594000000E+02  0.51100000000E-03 0. -1.
         11   -1    0    0    0    0 -0.00000000000E+00 -0.00000000000E+00 -0.45593999997E+02  0.45594000000E+02  0.51100000000E-03 0.  1.
    9900012    2    1    2    0    0 -0.17736228121E+02  0.35037565165E+01 -0.39455950317E+02  0.47787284417E+02  0.20000060970E+02 0.  0.
         12    1    1    2    0    0  0.17736228121E+02 -0.35037565165E+01  0.39455950317E+02  0.43400715583E+02  0.00000000000E+00 0. -1.
         11    1    3    3    0    0 -0.13173271641E+02  0.75128210120E+01 -0.38507646602E+02  0.41386186250E+02  0.51100000000E-03 0.  1.
        -11    1    3    3    0    0 -0.90780116172E+00 -0.61029169573E-01  0.11402588412E+00  0.91696765053E+00  0.51100000000E-03 0. -1.
        -12    1    3    3    0    0 -0.36551553187E+01 -0.39480353259E+01 -0.10623295997E+01  0.54841305160E+01  0.00000000000E+00 0.  1.
</event>
<event>
 7    1  0.8440037E-011  0.4778726E+02  0.7816164E-02  0.1312668E+00
        -11   -1    0    0    0    0  0.00000000000E+00  0.00000000000E+00  0.45593999997E+02  0.45594000000E+02  0.51100000000E-03 0. -1.
         11   -1    0    0    0    0 -0.00000000000E+00 -0.00000000000E+00 -0.45593999997E+02  0.45594000000E+02  0.51100000000E-03 0.  1.
    9900012    2    1    2    0    0 -0.41475109106E+02 -0.35767814143E+01 -0.12273788341E+02  0.47787263590E+02  0.19999966014E+02 0.  0.
         12    1    1    2    0    0  0.41475109106E+02  0.35767814143E+01  0.12273788341E+02  0.43400736410E+02  0.00000000000E+00 0. -1.
         11    1    3    3    0    0 -0.52275412918E+01 -0.41624675799E+01 -0.32269167010E+01  0.74206681618E+01  0.51100000000E-03 0. -1.
        -11    1    3    3    0    0 -0.35918591816E+02 -0.22358707844E+01 -0.10031570205E+02  0.37360095787E+02  0.51100000000E-03 0.  1.
         12    1    3    3    0    0 -0.32897599886E+00  0.28215569500E+01  0.98469856529E+00  0.30064996415E+01  0.00000000000E+00 0. -1.
</event>
<event>
 7    1  0.8440037E-011  0.4778726E+02  0.7816164E-02  0.1312668E+00
        -11   -1    0    0    0    0  0.00000000000E+00  0.00000000000E+00  0.45593999997E+02  0.45594000000E+02  0.51100000000E-03 0. -1.
         11   -1    0    0    0    0 -0.00000000000E+00 -0.00000000000E+00 -0.45593999997E+02  0.45594000000E+02  0.51100000000E-03 0.  1.
    9900012    2    1    2    0    0  0.12356396348E+02 -0.27510654295E+01  0.41513554900E+02  0.47787261156E+02  0.19999954916E+02 0.  0.
        -12    1    1    2    0    0 -0.12356396348E+02  0.27510654295E+01 -0.41513554900E+02  0.43400738844E+02  0.00000000000E+00 0.  1.
         11    1    3    3    0    0 -0.21567887666E+01 -0.57934502167E+00  0.40188773832E+00  0.22691171087E+01  0.51100000000E-03 0. -1.
        -11    1    3    3    0    0  0.12483208265E+01 -0.20074496790E+01  0.47553791203E-01  0.23644070555E+01  0.51100000000E-03 0.  1.
         12    1    3    3    0    0  0.13264864288E+02 -0.16427072885E+00  0.41064113371E+02  0.43153736992E+02  0.00000000000E+00 0. -1.
</event>
<event>
 7    1  0.8440037E-011  0.4778727E+02  0.7816164E-02  0.1312668E+00
        -11   -1    0    0    0    0  0.00000000000E+00  0.00000000000E+00  0.45593999997E+02  0.45594000000E+02  0.51100000000E-03 0. -1.
         11   -1    0    0    0    0 -0.00000000000E+00 -0.00000000000E+00 -0.45593999997E+02  0.45594000000E+02  0.51100000000E-03 0.  1.
    9900012    2    1    2    0    0  0.33099793404E+02  0.25647917731E+02 -0.11411014713E+02  0.47787271157E+02  0.20000000512E+02 0.  0.
         12    1    1    2    0    0 -0.33099793404E+02 -0.25647917731E+02  0.11411014713E+02  0.43400728843E+02  0.00000000000E+00 0. -1.
         11    1    3    3    0    0  0.13745409954E+01  0.24055789303E+01 -0.27098626105E+01  0.38755036533E+01  0.51100000000E-03 0. -1.
        -11    1    3    3    0    0  0.32433693224E+02  0.20047736813E+02 -0.11260593308E+02  0.39757479414E+02  0.51100000000E-03 0.  1.
        -12    1    3    3    0    0 -0.70844081495E+00  0.31946019873E+01  0.25594412050E+01  0.41542880891E+01  0.00000000000E+00 0.  1.
</event>
<event>
 7    1  0.1076937E-010  0.4778727E+02  0.7816164E-02  0.1312668E+00
        -11   -1    0    0    0    0  0.00000000000E+00  0.00000000000E+00  0.45593999997E+02  0.45594000000E+02  0.51100000000E-03 0. -1.
         11   -1    0    0    0    0 -0.00000000000E+00 -0.00000000000E+00 -0.45593999997E+02  0.45594000000E+02  0.51100000000E-03 0.  1.
    9900012    2    1    2    0    0  0.11374378189E+02  0.22358329176E+02  0.35416829417E+02  0.47787272257E+02  0.20000005526E+02 0.  0.
        -12    1    1    2    0    0 -0.11374378189E+02 -0.22358329176E+02 -0.35416829417E+02  0.43400727743E+02  0.00000000000E+00 0.  1.
         11    1    3    3    0    0 -0.19709362176E+01  0.63414944150E+01  0.46357147095E+01  0.80987031133E+01  0.51100000000E-03 0. -1.
        -11    1    3    3    0    0  0.45218285655E+01 -0.32865080375E+00  0.10852762441E+01  0.46618418800E+01  0.51100000000E-03 0.  1.
         12    1    3    3    0    0  0.88234858408E+01  0.16345485565E+02  0.29695838463E+02  0.35026727263E+02  0.00000000000E+00 0. -1.
</event>
<event>
 7    1  0.8440037E-011  0.4778727E+02  0.7816164E-02  0.1312668E+00
        -11   -1    0    0    0    0  0.00000000000E+00  0.00000000000E+00  0.45593999997E+02  0.45594000000E+02  0.51100000000E-03 0. -1.
         11   -1    0    0    0    0 -0.00000000000E+00 -0.00000000000E+00 -0.45593999997E+02  0.45594000000E+02  0.51100000000E-03 0.  1.
    9900012    2    1    2    0    0 -0.16351042308E+02  0.29741027081E+02 -0.27050657266E+02  0.47787270341E+02  0.19999996793E+02 0.  0.
         12    1    1    2    0    0  0.16351042308E+02 -0.29741027081E+02  0.27050657266E+02  0.43400729659E+02  0.00000000000E+00 0. -1.
         11    1    3    3    0    0 -0.50593901834E+01  0.71317659174E+01 -0.31486571470E+01  0.92937374731E+01  0.51100000000E-03 0.  1.
        -11    1    3    3    0    0 -0.93964338467E+01  0.24190439657E+01 -0.98179563570E+01  0.13803514409E+02  0.51100000000E-03 0. -1.
         12    1    3    3    0    0 -0.18952182784E+01  0.20190217198E+02 -0.14084043762E+02  0.24690018459E+02  0.00000000000E+00 0. -1.
</event>
<event>
 7    1  0.8440037E-011  0.4778728E+02  0.7816164E-02  0.1312668E+00
        -11   -1    0    0    0    0  0.00000000000E+00  0.00000000000E+00  0.45593999997E+02  0.45594000000E+02  0.51100000000E-03 0.  1.
         11   -1    0    0    0    0 -0.00000000000E+00 -0.00000000000E+00 -0.45593999997E+02  0.45594000000E+02  0.51100000000E-03 0. -1.
    9900012    2    1    2    0    0  0.39707044249E+02  0.17185882045E+02 -0.34086219125E+01  0.47787278716E+02  0.20000034977E+02 0.  0.
         12    1    1    2    0    0 -0.39707044249E+02 -0.17185882045E+02  0.34086219125E+01  0.43400721284E+02  0.00000000000E+00 0. -1.
         11    1    3    3    0    0  0.26822682673E+01  0.34323300594E+01 -0.12644575803E+01  0.45358908638E+01  0.51100000000E-03 0.  1.
        -11    1    3    3    0    0  0.50533663454E+01  0.42772543507E+01  0.59891994214E+01  0.89275935263E+01  0.51100000000E-03 0. -1.
         12    1    3    3    0    0  0.31971409636E+02  0.94762976353E+01 -0.81333637536E+01  0.34323794326E+02  0.00000000000E+00 0. -1.
</event>
<event>
 7    1  0.1188821E-010  0.4778725E+02  0.7816164E-02  0.1312668E+00
        -11   -1    0    0    0    0  0.00000000000E+00  0.00000000000E+00  0.45593999997E+02  0.45594000000E+02  0.51100000000E-03 0. -1.
         11   -1    0    0    0    0 -0.00000000000E+00 -0.00000000000E+00 -0.45593999997E+02  0.45594000000E+02  0.51100000000E-03 0.  1.
    9900012    2    1    2    0    0 -0.39008502267E+01  0.25216649202E+02  0.35107387460E+02  0.47787254802E+02  0.19999925946E+02 0.  0.
        -12    1    1    2    0    0  0.39008502267E+01 -0.25216649202E+02 -0.35107387460E+02  0.43400745198E+02  0.00000000000E+00 0.  1.
         11    1    3    3    0    0 -0.33458700038E+00  0.66552683663E+01  0.11894813746E+01  0.67690037443E+01  0.51100000000E-03 0. -1.
        -11    1    3    3    0    0  0.36911228439E+00 -0.17784683533E+01  0.87083877505E+00  0.20143371106E+01  0.51100000000E-03 0.  1.
         12    1    3    3    0    0 -0.39353755107E+01  0.20339849189E+02  0.33047067310E+02  0.39003913948E+02  0.00000000000E+00 0. -1.
</event>
<event>
 7    1  0.8440037E-011  0.4778727E+02  0.7816164E-02  0.1312668E+00
        -11   -1    0    0    0    0  0.00000000000E+00  0.00000000000E+00  0.45593999997E+02  0.45594000000E+02  0.51100000000E-03 0. -1.
         11   -1    0    0    0    0 -0.00000000000E+00 -0.00000000000E+00 -0.45593999997E+02  0.45594000000E+02  0.51100000000E-03 0.  1.
    9900012    2    1    2    0    0  0.46367645339E+01  0.25097223096E+02  0.35103459193E+02  0.47787273742E+02  0.20000012297E+02 0.  0.
        -12    1    1    2    0    0 -0.46367645339E+01 -0.25097223096E+02 -0.35103459193E+02  0.43400726258E+02  0.00000000000E+00 0.  1.
         11    1    3    3    0    0 -0.13724813466E+00  0.69024345415E+00  0.44529804239E-01  0.70516398168E+00  0.51100000000E-03 0. -1.
        -11    1    3    3    0    0  0.49422172838E+01  0.75464963497E+00  0.26075281835E+00  0.50062960405E+01  0.51100000000E-03 0.  1.
         12    1    3    3    0    0 -0.16820461528E+00  0.23652330007E+02  0.34798176570E+02  0.42075813719E+02  0.00000000000E+00 0. -1.
</event>
<event>
 7    1  0.8440037E-011  0.4778727E+02  0.7816164E-02  0.1312668E+00
        -11   -1    0    0    0    0  0.00000000000E+00  0.00000000000E+00  0.45593999997E+02  0.45594000000E+02  0.51100000000E-03 0. -1.
         11   -1    0    0    0    0 -0.00000000000E+00 -0.00000000000E+00 -0.45593999997E+02  0.45594000000E+02  0.51100000000E-03 0.  1.
    9900012    2    1    2    0    0  0.32085395922E+01 -0.21717846780E+01  0.43227443687E+02  0.47787271173E+02  0.20000000587E+02 0.  0.
        -12    1    1    2    0    0 -0.32085395922E+01  0.21717846780E+01 -0.43227443687E+02  0.43400728827E+02  0.00000000000E+00 0.  1.
         11    1    3    3    0    0  0.69977525261E+01 -0.35652075559E+01  0.20979537544E+02  0.22401344628E+02  0.51100000000E-03 0. -1.
        -11    1    3    3    0    0  0.22945375581E+01  0.14946767284E+01  0.47563619910E+00  0.27794228147E+01  0.51100000000E-03 0.  1.
        -12    1    3    3    0    0 -0.60837504921E+01 -0.10125385053E+00  0.21772269944E+02  0.22606503730E+02  0.00000000000E+00 0.  1.
</event>
<event>
 7    1  0.8440037E-011  0.4778727E+02  0.7816164E-02  0.1312668E+00
        -11   -1    0    0    0    0  0.00000000000E+00  0.00000000000E+00  0.45593999997E+02  0.45594000000E+02  0.51100000000E-03 0. -1.
         11   -1    0    0    0    0 -0.00000000000E+00 -0.00000000000E+00 -0.45593999997E+02  0.45594000000E+02  0.51100000000E-03 0.  1.
    9900012    2    1    2    0    0 -0.23392178276E+02  0.21244453599E+02  0.29750667929E+02  0.47787273561E+02  0.20000011474E+02 0.  0.
        -12    1    1    2    0    0  0.23392178276E+02 -0.21244453599E+02 -0.29750667929E+02  0.43400726439E+02  0.00000000000E+00 0.  1.
         11    1    3    3    0    0 -0.12352359421E+02  0.14692899512E+02  0.11069757294E+02  0.22158556048E+02  0.51100000000E-03 0. -1.
        -11    1    3    3    0    0 -0.15553757062E+01  0.62793197011E+01  0.26304152916E+01  0.69834185299E+01  0.51100000000E-03 0.  1.
        -12    1    3    3    0    0 -0.94844431490E+01  0.27223438670E+00  0.16050495343E+02  0.18645298983E+02  0.00000000000E+00 0.  1.
</event>
<event>
 7    1  0.8440037E-011  0.4778727E+02  0.7816164E-02  0.1312668E+00
        -11   -1    0    0    0    0  0.00000000000E+00  0.00000000000E+00  0.45593999997E+02  0.45594000000E+02  0.51100000000E-03 0. -1.
         11   -1    0    0    0    0 -0.00000000000E+00 -0.00000000000E+00 -0.45593999997E+02  0.45594000000E+02  0.51100000000E-03 0.  1.
    9900012    2    1    2    0    0 -0.18450650118E+02 -0.29779520056E+02 -0.25619855215E+02  0.47787270907E+02  0.19999999375E+02 0.  0.
         12    1    1    2    0    0  0.18450650118E+02  0.29779520056E+02  0.25619855215E+02  0.43400729093E+02  0.00000000000E+00 0. -1.
         11    1    3    3    0    0 -0.95866971820E+01 -0.54457540003E+01 -0.14440844705E+02  0.18168626683E+02  0.51100000000E-03 0. -1.
        -11    1    3    3    0    0  0.10960715762E+01 -0.88477747508E+00 -0.21876998147E+01  0.26019674903E+01  0.51100000000E-03 0.  1.
        -12    1    3    3    0    0 -0.99600245124E+01 -0.23448988580E+02 -0.89913106951E+01  0.27016676734E+02  0.00000000000E+00 0.  1.
</event>
<event>
 7    1  0.8440037E-011  0.4778727E+02  0.7816164E-02  0.1312668E+00
        -11   -1    0    0    0    0  0.00000000000E+00  0.00000000000E+00  0.45593999997E+02  0.45594000000E+02  0.51100000000E-03 0. -1.
         11   -1    0    0    0    0 -0.00000000000E+00 -0.00000000000E+00 -0.45593999997E+02  0.45594000000E+02  0.51100000000E-03 0.  1.
    9900012    2    1    2    0    0 -0.24263280075E+02 -0.26958912225E+02  0.23835553063E+02  0.47787270765E+02  0.19999998725E+02 0.  0.
        -12    1    1    2    0    0  0.24263280075E+02  0.26958912225E+02 -0.23835553063E+02  0.43400729235E+02  0.00000000000E+00 0.  1.
         11    1    3    3    0    0 -0.11405031500E+02 -0.48563582520E+01  0.71792400865E+01  0.14324819282E+02  0.51100000000E-03 0. -1.
        -11    1    3    3    0    0 -0.10064685366E+02 -0.70827106552E+01  0.23440552877E+01  0.12528259145E+02  0.51100000000E-03 0.  1.
         12    1    3    3    0    0 -0.27935632085E+01 -0.15019843317E+02  0.14312257689E+02  0.20934192338E+02  0.00000000000E+00 0. -1.
</event>
<event>
 7    1  0.8440037E-011  0.4778726E+02  0.7816164E-02  0.1312668E+00
        -11   -1    0    0    0    0  0.00000000000E+00  0.00000000000E+00  0.45593999997E+02  0.45594000000E+02  0.51100000000E-03 0. -1.
         11   -1    0    0    0    0 -0.00000000000E+00 -0.00000000000E+00 -0.45593999997E+02  0.45594000000E+02  0.51100000000E-03 0.  1.
    9900012    2    1    2    0    0  0.38761013427E+02 -0.15273280142E+01 -0.19464709805E+02  0.47787264746E+02  0.19999971284E+02 0.  0.
         12    1    1    2    0    0 -0.38761013427E+02  0.15273280142E+01  0.19464709805E+02  0.43400735254E+02  0.00000000000E+00 0. -1.
         11    1    3    3    0    0  0.81572184718E+01 -0.11248463602E+01  0.27838899905E+01  0.86922687643E+01  0.51100000000E-03 0. -1.
        -11    1    3    3    0    0  0.46207544839E+01 -0.33070074501E+01 -0.62346709277E+01  0.84355670890E+01  0.51100000000E-03 0.  1.
        -12    1    3    3    0    0  0.25983040472E+02  0.29045257961E+01 -0.16013928868E+02  0.30659428893E+02  0.00000000000E+00 0.  1.
</event>
<event>
 7    1  0.8440037E-011  0.4778727E+02  0.7816164E-02  0.1312668E+00
        -11   -1    0    0    0    0  0.00000000000E+00  0.00000000000E+00  0.45593999997E+02  0.45594000000E+02  0.51100000000E-03 0. -1.
         11   -1    0    0    0    0 -0.00000000000E+00 -0.00000000000E+00 -0.45593999997E+02  0.45594000000E+02  0.51100000000E-03 0.  1.
    9900012    2    1    2    0    0 -0.13025910085E+02  0.28556621747E+01 -0.41301258456E+02  0.47787273162E+02  0.20000009654E+02 0.  0.
         12    1    1    2    0    0  0.13025910085E+02 -0.28556621747E+01  0.41301258456E+02  0.43400726838E+02  0.00000000000E+00 0. -1.
         11    1    3    3    0    0 -0.20385923757E+01  0.21665177459E+00  0.20698482837E+00  0.20604950488E+01  0.51100000000E-03 0. -1.
        -11    1    3    3    0    0 -0.14913716295E+02  0.18820940265E+01 -0.30240343196E+02  0.33770394853E+02  0.51100000000E-03 0.  1.
        -12    1    3    3    0    0  0.39263985859E+01  0.75691637358E+00 -0.11267900089E+02  0.11956383260E+02  0.00000000000E+00 0.  1.
</event>
<event>
 7    1  0.8440037E-011  0.4778727E+02  0.7816164E-02  0.1312668E+00
        -11   -1    0    0    0    0  0.00000000000E+00  0.00000000000E+00  0.45593999997E+02  0.45594000000E+02  0.51100000000E-03 0. -1.
         11   -1    0    0    0    0 -0.00000000000E+00 -0.00000000000E+00 -0.45593999997E+02  0.45594000000E+02  0.51100000000E-03 0.  1.
    9900012    2    1    2    0    0 -0.25733288091E+01  0.56801740270E+01  0.42950401250E+02  0.47787269987E+02  0.19999995180E+02 0.  0.
        -12    1    1    2    0    0  0.25733288091E+01 -0.56801740270E+01 -0.42950401250E+02  0.43400730013E+02  0.00000000000E+00 0.  1.
         11    1    3    3    0    0  0.37169315787E+00  0.22016975989E+01  0.17147015965E+02  0.17291783739E+02  0.51100000000E-03 0. -1.
        -11    1    3    3    0    0 -0.22540322304E+01  0.31269714640E+01  0.27949281710E+02  0.28213843414E+02  0.51100000000E-03 0.  1.
        -12    1    3    3    0    0 -0.69098973657E+00  0.35150496414E+00 -0.21458964251E+01  0.22816428343E+01  0.00000000000E+00 0.  1.
</event>
<event>
 7    1  0.8440037E-011  0.4778727E+02  0.7816164E-02  0.1312668E+00
        -11   -1    0    0    0    0  0.00000000000E+00  0.00000000000E+00  0.45593999997E+02  0.45594000000E+02  0.51100000000E-03 0. -1.
         11   -1    0    0    0    0 -0.00000000000E+00 -0.00000000000E+00 -0.45593999997E+02  0.45594000000E+02  0.51100000000E-03 0.  1.
    9900012    2    1    2    0    0 -0.15683637213E+02 -0.16919060466E+02 -0.36761286242E+02  0.47787271326E+02  0.20000001282E+02 0.  0.
         12    1    1    2    0    0  0.15683637213E+02  0.16919060466E+02  0.36761286242E+02  0.43400728674E+02  0.00000000000E+00 0. -1.
         11    1    3    3    0    0  0.20647584028E+01 -0.75109001088E+01 -0.98349259813E+01  0.12546019968E+02  0.51100000000E-03 0. -1.
        -11    1    3    3    0    0 -0.75217605086E+01 -0.84207419985E+01 -0.84585966776E+01  0.14107928089E+02  0.51100000000E-03 0.  1.
        -12    1    3    3    0    0 -0.10226635107E+02 -0.98741835908E+00 -0.18467763583E+02  0.21133323269E+02  0.00000000000E+00 0.  1.
</event>
<event>
 7    1  0.8440037E-011  0.4778726E+02  0.7816164E-02  0.1312668E+00
        -11   -1    0    0    0    0  0.00000000000E+00  0.00000000000E+00  0.45593999997E+02  0.45594000000E+02  0.51100000000E-03 0. -1.
         11   -1    0    0    0    0 -0.00000000000E+00 -0.00000000000E+00 -0.45593999997E+02  0.45594000000E+02  0.51100000000E-03 0.  1.
    9900012    2    1    2    0    0  0.12689946134E+02  0.26160697462E+02 -0.32221231931E+02  0.47787255631E+02  0.19999929725E+02 0.  0.
         12    1    1    2    0    0 -0.12689946134E+02 -0.26160697462E+02  0.32221231931E+02  0.43400744369E+02  0.00000000000E+00 0. -1.
         11    1    3    3    0    0  0.45200432817E+01  0.36815517434E+01 -0.11052995772E+00  0.58306802040E+01  0.51100000000E-03 0. -1.
        -11    1    3    3    0    0  0.10302061044E+02  0.17649520380E+02 -0.19335894750E+02  0.28133873843E+02  0.51100000000E-03 0.  1.
        -12    1    3    3    0    0 -0.21321581922E+01  0.48296253388E+01 -0.12774807224E+02  0.13822701584E+02  0.00000000000E+00 0.  1.
</event>
<event>
 7    1  0.8440037E-011  0.4778727E+02  0.7816164E-02  0.1312668E+00
        -11   -1    0    0    0    0  0.00000000000E+00  0.00000000000E+00  0.45593999997E+02  0.45594000000E+02  0.51100000000E-03 0. -1.
         11   -1    0    0    0    0 -0.00000000000E+00 -0.00000000000E+00 -0.45593999997E+02  0.45594000000E+02  0.51100000000E-03 0.  1.
    9900012    2    1    2    0    0 -0.19712942511E+02  0.30440087581E+01 -0.38545520343E+02  0.47787271547E+02  0.20000002289E+02 0.  0.
         12    1    1    2    0    0  0.19712942511E+02 -0.30440087581E+01  0.38545520343E+02  0.43400728453E+02  0.00000000000E+00 0. -1.
         11    1    3    3    0    0 -0.34122044402E+01 -0.25334066566E+01 -0.16209397639E+02  0.16757262919E+02  0.51100000000E-03 0. -1.
        -11    1    3    3    0    0  0.53592534068E+00 -0.23614385005E+01 -0.76886905240E+00  0.25406234753E+01  0.51100000000E-03 0.  1.
         12    1    3    3    0    0 -0.16836663411E+02  0.79388539152E+01 -0.21567253652E+02  0.28489385153E+02  0.00000000000E+00 0. -1.
</event>
<event>
 7    1  0.8440037E-011  0.4778725E+02  0.7816164E-02  0.1312668E+00
        -11   -1    0    0    0    0  0.00000000000E+00  0.00000000000E+00  0.45593999997E+02  0.45594000000E+02  0.51100000000E-03 0. -1.
         11   -1    0    0    0    0 -0.00000000000E+00 -0.00000000000E+00 -0.45593999997E+02  0.45594000000E+02  0.51100000000E-03 0.  1.
    9900012    2    1    2    0    0 -0.30146337298E+02  0.24224243851E+02 -0.19697944913E+02  0.47787254886E+02  0.19999926327E+02 0.  0.
         12    1    1    2    0    0  0.30146337298E+02 -0.24224243851E+02  0.19697944913E+02  0.43400745114E+02  0.00000000000E+00 0. -1.
         11    1    3    3    0    0 -0.10456958649E+01  0.86074156159E+01 -0.38913077076E+01  0.95038602348E+01  0.51100000000E-03 0.  1.
        -11    1    3    3    0    0 -0.11905724973E+02  0.10122701922E+02 -0.12317039882E+02  0.19897860514E+02  0.51100000000E-03 0. -1.
        -12    1    3    3    0    0 -0.17194916460E+02  0.54941263127E+01 -0.34895973239E+01  0.18385534137E+02  0.00000000000E+00 0.  1.
</event>
<event>
 7    1  0.8440037E-011  0.4778727E+02  0.7816164E-02  0.1312668E+00
        -11   -1    0    0    0    0  0.00000000000E+00  0.00000000000E+00  0.45593999997E+02  0.45594000000E+02  0.51100000000E-03 0.  1.
         11   -1    0    0    0    0 -0.00000000000E+00 -0.00000000000E+00 -0.45593999997E+02  0.45594000000E+02  0.51100000000E-03 0. -1.
    9900012    2    1    2    0    0 -0.21143556057E+02  0.34778486490E+02  0.15067523346E+02  0.47787270224E+02  0.19999996261E+02 0.  0.
        -12    1    1    2    0    0  0.21143556057E+02 -0.34778486490E+02 -0.15067523346E+02  0.43400729776E+02  0.00000000000E+00 0.  1.
         11    1    3    3    0    0 -0.36647572658E+01  0.17610811284E+02  0.84144924769E+01  0.19858872168E+02  0.51100000000E-03 0. -1.
        -11    1    3    3    0    0 -0.11303727170E+02  0.16666056207E+02  0.21146274291E+01  0.20248538882E+02  0.51100000000E-03 0.  1.
        -12    1    3    3    0    0 -0.61750716214E+01  0.50161899922E+00  0.45384034396E+01  0.76798591739E+01  0.00000000000E+00 0.  1.
</event>
<event>
 7    1  0.8440037E-011  0.4778727E+02  0.7816164E-02  0.1312668E+00
        -11   -1    0    0    0    0  0.00000000000E+00  0.00000000000E+00  0.45593999997E+02  0.45594000000E+02  0.51100000000E-03 0. -1.
         11   -1    0    0    0    0 -0.00000000000E+00 -0.00000000000E+00 -0.45593999997E+02  0.45594000000E+02  0.51100000000E-03 0.  1.
    9900012    2    1    2    0    0  0.13061370414E+02  0.28017366470E+02 -0.30463929930E+02  0.47787271345E+02  0.20000001369E+02 0.  0.
         12    1    1    2    0    0 -0.13061370414E+02 -0.28017366470E+02  0.30463929930E+02  0.43400728655E+02  0.00000000000E+00 0. -1.
         11    1    3    3    0    0 -0.30940365593E+01  0.89565953128E+01 -0.71936251839E+01  0.11897138537E+02  0.51100000000E-03 0. -1.
        -11    1    3    3    0    0  0.86262696108E+01  0.83664198506E+01 -0.18311975601E+02  0.21902921248E+02  0.51100000000E-03 0.  1.
         12    1    3    3    0    0  0.75291373624E+01  0.10694351307E+02 -0.49583291454E+01  0.13987211560E+02  0.00000000000E+00 0. -1.
</event>
<event>
 7    1  0.8440037E-011  0.4778727E+02  0.7816164E-02  0.1312668E+00
        -11   -1    0    0    0    0  0.00000000000E+00  0.00000000000E+00  0.45593999997E+02  0.45594000000E+02  0.51100000000E-03 0. -1.
         11   -1    0    0    0    0 -0.00000000000E+00 -0.00000000000E+00 -0.45593999997E+02  0.45594000000E+02  0.51100000000E-03 0.  1.
    9900012    2    1    2    0    0  0.84826162737E+01  0.27735554889E+01  0.42473239583E+02  0.47787268790E+02  0.19999989720E+02 0.  0.
        -12    1    1    2    0    0 -0.84826162737E+01 -0.27735554889E+01 -0.42473239583E+02  0.43400731210E+02  0.00000000000E+00 0.  1.
         11    1    3    3    0    0  0.95881697368E+01 -0.57386312683E+00  0.38154909887E+02  0.39345386852E+02  0.51100000000E-03 0. -1.
        -11    1    3    3    0    0  0.25801894729E+01  0.10333079559E+01  0.94522995826E+00  0.29357389160E+01  0.51100000000E-03 0.  1.
         12    1    3    3    0    0 -0.36857429359E+01  0.23141106599E+01  0.33730997381E+01  0.55061430220E+01  0.00000000000E+00 0. -1.
</event>
<event>
 7    1  0.8440037E-011  0.4778727E+02  0.7816164E-02  0.1312668E+00
        -11   -1    0    0    0    0  0.00000000000E+00  0.00000000000E+00  0.45593999997E+02  0.45594000000E+02  0.51100000000E-03 0.  1.
         11   -1    0    0    0    0 -0.00000000000E+00 -0.00000000000E+00 -0.45593999997E+02  0.45594000000E+02  0.51100000000E-03 0. -1.
    9900012    2    1    2    0    0 -0.20778453851E+02  0.17927726579E+02  0.33622546788E+02  0.47787272158E+02  0.20000005075E+02 0.  0.
        -12    1    1    2    0    0  0.20778453851E+02 -0.17927726579E+02 -0.33622546788E+02  0.43400727842E+02  0.00000000000E+00 0.  1.
         11    1    3    3    0    0 -0.37151022937E+01  0.96108513974E+01  0.20822426131E+02  0.23232388596E+02  0.51100000000E-03 0. -1.
        -11    1    3    3    0    0 -0.53887926054E-01  0.15882573173E+01 -0.78259508382E+00  0.17714176642E+01  0.51100000000E-03 0.  1.
         12    1    3    3    0    0 -0.17009463631E+02  0.67286178646E+01  0.13582715741E+02  0.22783465897E+02  0.00000000000E+00 0. -1.
</event>
<event>
 7    1  0.8440037E-011  0.4778727E+02  0.7816164E-02  0.1312668E+00
        -11   -1    0    0    0    0  0.00000000000E+00  0.00000000000E+00  0.45593999997E+02  0.45594000000E+02  0.51100000000E-03 0. -1.
         11   -1    0    0    0    0 -0.00000000000E+00 -0.00000000000E+00 -0.45593999997E+02  0.45594000000E+02  0.51100000000E-03 0.  1.
    9900012    2    1    2    0    0 -0.19392492417E+02 -0.37257800652E+02  0.10927517902E+02  0.47787272828E+02  0.20000008132E+02 0.  0.
        -12    1    1    2    0    0  0.19392492417E+02  0.37257800652E+02 -0.10927517902E+02  0.43400727172E+02  0.00000000000E+00 0.  1.
         11    1    3    3    0    0 -0.15130787660E+01 -0.85924622231E+00 -0.26154161827E+01  0.31413553592E+01  0.51100000000E-03 0. -1.
        -11    1    3    3    0    0  0.80525846865E-01 -0.20048062453E+00  0.28341227639E+01  0.28423456853E+01  0.51100000000E-03 0.  1.
         12    1    3    3    0    0 -0.17959939498E+02 -0.36198073805E+02  0.10708811321E+02  0.41803571784E+02  0.00000000000E+00 0. -1.
</event>
<event>
 7    1  0.8440037E-011  0.4778727E+02  0.7816164E-02  0.1312668E+00
        -11   -1    0    0    0    0  0.00000000000E+00  0.00000000000E+00  0.45593999997E+02  0.45594000000E+02  0.51100000000E-03 0.  1.
         11   -1    0    0    0    0 -0.00000000000E+00 -0.00000000000E+00 -0.45593999997E+02  0.45594000000E+02  0.51100000000E-03 0. -1.
    9900012    2    1    2    0    0 -0.16959050780E+02  0.29135281505E+02  0.27334031586E+02  0.47787270577E+02  0.19999997867E+02 0.  0.
        -12    1    1    2    0    0  0.16959050780E+02 -0.29135281505E+02 -0.27334031586E+02  0.43400729423E+02  0.00000000000E+00 0.  1.
         11    1    3    3    0    0 -0.19098621352E+00  0.44249315855E+01  0.16661740943E+01  0.47320853377E+01  0.51100000000E-03 0. -1.
        -11    1    3    3    0    0  0.34500579430E+01  0.37553174776E+01  0.62023414010E+01  0.80295920371E+01  0.51100000000E-03 0.  1.
         12    1    3    3    0    0 -0.20218122510E+02  0.20955032442E+02  0.19465516091E+02  0.35025593202E+02  0.00000000000E+00 0. -1.
</event>
<event>
 7    1  0.8451154E-011  0.4778727E+02  0.7816164E-02  0.1312668E+00
        -11   -1    0    0    0    0  0.00000000000E+00  0.00000000000E+00  0.45593999997E+02  0.45594000000E+02  0.51100000000E-03 0. -1.
         11   -1    0    0    0    0 -0.00000000000E+00 -0.00000000000E+00 -0.45593999997E+02  0.45594000000E+02  0.51100000000E-03 0.  1.
    9900012    2    1    2    0    0 -0.22579191228E+02 -0.18066649040E+02  0.32363549431E+02  0.47787274018E+02  0.20000013556E+02 0.  0.
        -12    1    1    2    0    0  0.22579191228E+02  0.18066649040E+02 -0.32363549431E+02  0.43400725982E+02  0.00000000000E+00 0.  1.
         11    1    3    3    0    0 -0.39957362352E+00  0.36216048483E+01  0.28730711297E+01  0.46400666736E+01  0.51100000000E-03 0. -1.
        -11    1    3    3    0    0 -0.54618632172E+01 -0.68032205898E+01  0.53894403007E+01  0.10254844085E+02  0.51100000000E-03 0.  1.
         12    1    3    3    0    0 -0.16717754387E+02 -0.14885033298E+02  0.24101038001E+02  0.32892363259E+02  0.00000000000E+00 0. -1.
</event>
<event>
 7    1  0.8440037E-011  0.4778727E+02  0.7816164E-02  0.1312668E+00
        -11   -1    0    0    0    0  0.00000000000E+00  0.00000000000E+00  0.45593999997E+02  0.45594000000E+02  0.51100000000E-03 0.  1.
         11   -1    0    0    0    0 -0.00000000000E+00 -0.00000000000E+00 -0.45593999997E+02  0.45594000000E+02  0.51100000000E-03 0. -1.
    9900012    2    1    2    0    0 -0.15420938452E+02 -0.32900958167E+02  0.23734888033E+02  0.47787270732E+02  0.19999998574E+02 0.  0.
        -12    1    1    2    0    0  0.15420938452E+02  0.32900958167E+02 -0.23734888033E+02  0.43400729268E+02  0.00000000000E+00 0.  1.
         11    1    3    3    0    0 -0.91020657955E+01 -0.62430186908E+01  0.91846577510E+01  0.14358997959E+02  0.51100000000E-03 0. -1.
        -11    1    3    3    0    0  0.12633287641E+01  0.72945720035E+00  0.17006283350E+01  0.22405901831E+01  0.51100000000E-03 0.  1.
         12    1    3    3    0    0 -0.75822014206E+01 -0.27387396677E+02  0.12849601947E+02  0.31187682590E+02  0.00000000000E+00 0. -1.
</event>
<event>
 7    1  0.8440037E-011  0.4778727E+02  0.7816164E-02  0.1312668E+00
        -11   -1    0    0    0    0  0.00000000000E+00  0.00000000000E+00  0.45593999997E+02  0.45594000000E+02  0.51100000000E-03 0. -1.
         11   -1    0    0    0    0 -0.00000000000E+00 -0.00000000000E+00 -0.45593999997E+02  0.45594000000E+02  0.51100000000E-03 0.  1.
    9900012    2    1    2    0    0 -0.39585955544E+01  0.33480830639E+02 -0.27331060916E+02  0.47787269708E+02  0.19999993908E+02 0.  0.
         12    1    1    2    0    0  0.39585955544E+01 -0.33480830639E+02  0.27331060916E+02  0.43400730292E+02  0.00000000000E+00 0. -1.
         11    1    3    3    0    0  0.30190146991E+01  0.78529854228E+01 -0.67910820544E+01  0.10812151753E+02  0.51100000000E-03 0. -1.
        -11    1    3    3    0    0 -0.59324899866E+01  0.25618043617E+02 -0.12946858322E+02  0.29310403219E+02  0.51100000000E-03 0.  1.
        -12    1    3    3    0    0 -0.10451202669E+01  0.98015991619E-02 -0.75931205400E+01  0.76647147356E+01  0.00000000000E+00 0.  1.
</event>
<event>
 7    1  0.8440037E-011  0.4778726E+02  0.7816164E-02  0.1312668E+00
        -11   -1    0    0    0    0  0.00000000000E+00  0.00000000000E+00  0.45593999997E+02  0.45594000000E+02  0.51100000000E-03 0. -1.
         11   -1    0    0    0    0 -0.00000000000E+00 -0.00000000000E+00 -0.45593999997E+02  0.45594000000E+02  0.51100000000E-03 0.  1.
    9900012    2    1    2    0    0 -0.12931651332E+02 -0.28484115419E+01  0.41331378914E+02  0.47787263400E+02  0.19999965147E+02 0.  0.
        -12    1    1    2    0    0  0.12931651332E+02  0.28484115419E+01 -0.41331378914E+02  0.43400736600E+02  0.00000000000E+00 0.  1.
         11    1    3    3    0    0 -0.44113125330E+01  0.45458237010E+00  0.14796718932E+02  0.15446980767E+02  0.51100000000E-03 0. -1.
        -11    1    3    3    0    0  0.72589033906E+00  0.23190285644E+01  0.18998830328E+02  0.19153599254E+02  0.51100000000E-03 0.  1.
         12    1    3    3    0    0 -0.92462291376E+01 -0.56220224764E+01  0.75358296540E+01  0.13186683380E+02  0.00000000000E+00 0. -1.
</event>
<event>
 7    1  0.8440037E-011  0.4778728E+02  0.7816164E-02  0.1312668E+00
        -11   -1    0    0    0    0  0.00000000000E+00  0.00000000000E+00  0.45593999997E+02  0.45594000000E+02  0.51100000000E-03 0. -1.
         11   -1    0    0    0    0 -0.00000000000E+00 -0.00000000000E+00 -0.45593999997E+02  0.45594000000E+02  0.51100000000E-03 0.  1.
    9900012    2    1    2    0    0  0.11391722305E+02  0.85279439601E+01  0.41001529927E+02  0.47787278558E+02  0.20000034259E+02 0.  0.
        -12    1    1    2    0    0 -0.11391722305E+02 -0.85279439601E+01 -0.41001529927E+02  0.43400721442E+02  0.00000000000E+00 0.  1.
         11    1    3    3    0    0 -0.22798939706E+01 -0.68329814498E+00  0.39148066153E+01  0.45815416585E+01  0.51100000000E-03 0. -1.
        -11    1    3    3    0    0  0.54535054165E+01  0.11782571340E+02  0.17330540578E+02  0.21654499433E+02  0.51100000000E-03 0.  1.
         12    1    3    3    0    0  0.82181108592E+01 -0.25713292349E+01  0.19756182734E+02  0.21551237467E+02  0.00000000000E+00 0. -1.
</event>
<event>
 7    1  0.8440037E-011  0.4778728E+02  0.7816164E-02  0.1312668E+00
        -11   -1    0    0    0    0  0.00000000000E+00  0.00000000000E+00  0.45593999997E+02  0.45594000000E+02  0.51100000000E-03 0.  1.
         11   -1    0    0    0    0 -0.00000000000E+00 -0.00000000000E+00 -0.45593999997E+02  0.45594000000E+02  0.51100000000E-03 0. -1.
    9900012    2    1    2    0    0 -0.25958453068E+01  0.41219937655E+02  0.13334211990E+02  0.47787275553E+02  0.20000020557E+02 0.  0.
         12    1    1    2    0    0  0.25958453068E+01 -0.41219937655E+02 -0.13334211990E+02  0.43400724447E+02  0.00000000000E+00 0. -1.
         11    1    3    3    0    0  0.14268061430E+00  0.17633159471E+01  0.30977957121E+01  0.35673490749E+01  0.51100000000E-03 0. -1.
        -11    1    3    3    0    0  0.35989893255E+01  0.24922241213E+02 -0.29968939882E+00  0.25182546440E+02  0.51100000000E-03 0.  1.
        -12    1    3    3    0    0 -0.63375152466E+01  0.14534380495E+02  0.10536105677E+02  0.19037380038E+02  0.00000000000E+00 0.  1.
</event>
<event>
 7    1  0.8440037E-011  0.4778727E+02  0.7816164E-02  0.1312668E+00
        -11   -1    0    0    0    0  0.00000000000E+00  0.00000000000E+00  0.45593999997E+02  0.45594000000E+02  0.51100000000E-03 0. -1.
         11   -1    0    0    0    0 -0.00000000000E+00 -0.00000000000E+00 -0.45593999997E+02  0.45594000000E+02  0.51100000000E-03 0.  1.
    9900012    2    1    2    0    0  0.40864958194E+01 -0.36999613454E+01 -0.43049202157E+02  0.47787274564E+02  0.20000016046E+02 0.  0.
         12    1    1    2    0    0 -0.40864958194E+01  0.36999613454E+01  0.43049202157E+02  0.43400725436E+02  0.00000000000E+00 0. -1.
         11    1    3    3    0    0  0.12903889110E+01 -0.77158766779E-01 -0.11609761866E+02  0.11681507945E+02  0.51100000000E-03 0. -1.
        -11    1    3    3    0    0  0.75907223937E+01 -0.79022449420E+01 -0.23190496619E+02  0.25648853294E+02  0.51100000000E-03 0.  1.
         12    1    3    3    0    0 -0.47946154853E+01  0.42794423634E+01 -0.82489436716E+01  0.10456913325E+02  0.00000000000E+00 0. -1.
</event>
<event>
 7    1  0.8440037E-011  0.4778726E+02  0.7816164E-02  0.1312668E+00
        -11   -1    0    0    0    0  0.00000000000E+00  0.00000000000E+00  0.45593999997E+02  0.45594000000E+02  0.51100000000E-03 0. -1.
         11   -1    0    0    0    0 -0.00000000000E+00 -0.00000000000E+00 -0.45593999997E+02  0.45594000000E+02  0.51100000000E-03 0.  1.
    9900012    2    1    2    0    0  0.94488512223E+01 -0.33172064327E+02 -0.26343067662E+02  0.47787264350E+02  0.19999969476E+02 0.  0.
         12    1    1    2    0    0 -0.94488512223E+01  0.33172064327E+02  0.26343067662E+02  0.43400735650E+02  0.00000000000E+00 0. -1.
         11    1    3    3    0    0 -0.74745590889E+00 -0.11206879339E+01  0.18318619199E+00  0.13594812330E+01  0.51100000000E-03 0. -1.
        -11    1    3    3    0    0  0.14328522184E+02 -0.21423102787E+02 -0.22857547382E+02  0.34448851267E+02  0.51100000000E-03 0.  1.
        -12    1    3    3    0    0 -0.41322150530E+01 -0.10628273606E+02 -0.36687064721E+01  0.11978931850E+02  0.00000000000E+00 0.  1.
</event>
<event>
 7    1  0.8440037E-011  0.4778727E+02  0.7816164E-02  0.1312668E+00
        -11   -1    0    0    0    0  0.00000000000E+00  0.00000000000E+00  0.45593999997E+02  0.45594000000E+02  0.51100000000E-03 0. -1.
         11   -1    0    0    0    0 -0.00000000000E+00 -0.00000000000E+00 -0.45593999997E+02  0.45594000000E+02  0.51100000000E-03 0.  1.
    9900012    2    1    2    0    0  0.22293846536E+02 -0.25318607708E+02 -0.27305228875E+02  0.47787274043E+02  0.20000013673E+02 0.  0.
         12    1    1    2    0    0 -0.22293846536E+02  0.25318607708E+02  0.27305228875E+02  0.43400725957E+02  0.00000000000E+00 0. -1.
         11    1    3    3    0    0 -0.39524962060E+00  0.10587697253E+01  0.25107088944E-01  0.11304186043E+01  0.51100000000E-03 0. -1.
        -11    1    3    3    0    0  0.43309330726E+01 -0.10541697174E+02 -0.16619897037E+02  0.20152055438E+02  0.51100000000E-03 0.  1.
        -12    1    3    3    0    0  0.18358163084E+02 -0.15835680259E+02 -0.10710438927E+02  0.26504800001E+02  0.00000000000E+00 0.  1.
</event>
<event>
 7    1  0.8440037E-011  0.4778727E+02  0.7816164E-02  0.1312668E+00
        -11   -1    0    0    0    0  0.00000000000E+00  0.00000000000E+00  0.45593999997E+02  0.45594000000E+02  0.51100000000E-03 0. -1.
         11   -1    0    0    0    0 -0.00000000000E+00 -0.00000000000E+00 -0.45593999997E+02  0.45594000000E+02  0.51100000000E-03 0.  1.
    9900012    2    1    2    0    0  0.13303938355E+02  0.21430620919E+02 -0.35317941307E+02  0.47787271125E+02  0.20000000366E+02 0.  0.
         12    1    1    2    0    0 -0.13303938355E+02 -0.21430620919E+02  0.35317941307E+02  0.43400728875E+02  0.00000000000E+00 0. -1.
         11    1    3    3    0    0  0.63487832475E+01  0.42320235632E+01 -0.14854841250E+02  0.16699801825E+02  0.51100000000E-03 0. -1.
        -11    1    3    3    0    0  0.76307410992E+01  0.18154967652E+01 -0.86751970443E+01  0.11695438523E+02  0.51100000000E-03 0.  1.
         12    1    3    3    0    0 -0.67558599155E+00  0.15383100590E+02 -0.11787903013E+02  0.19392030777E+02  0.00000000000E+00 0. -1.
</event>
<event>
 7    1  0.8440037E-011  0.4778727E+02  0.7816164E-02  0.1312668E+00
        -11   -1    0    0    0    0  0.00000000000E+00  0.00000000000E+00  0.45593999997E+02  0.45594000000E+02  0.51100000000E-03 0. -1.
         11   -1    0    0    0    0 -0.00000000000E+00 -0.00000000000E+00 -0.45593999997E+02  0.45594000000E+02  0.51100000000E-03 0.  1.
    9900012    2    1    2    0    0  0.13239163959E+02  0.92387945124E+01 -0.40286378648E+02  0.47787273152E+02  0.20000009610E+02 0.  0.
         12    1    1    2    0    0 -0.13239163959E+02 -0.92387945124E+01  0.40286378648E+02  0.43400726848E+02  0.00000000000E+00 0. -1.
         11    1    3    3    0    0 -0.25617388255E+01  0.27504843669E+00 -0.46167849912E+01  0.52870465639E+01  0.51100000000E-03 0. -1.
        -11    1    3    3    0    0  0.17609282133E+01  0.88943313637E+01 -0.13904862937E+02  0.16599855787E+02  0.51100000000E-03 0.  1.
         12    1    3    3    0    0  0.14039974572E+02  0.69414712028E-01 -0.21764730719E+02  0.25900370801E+02  0.00000000000E+00 0. -1.
</event>
<event>
 7    1  0.8440037E-011  0.4778727E+02  0.7816164E-02  0.1312668E+00
        -11   -1    0    0    0    0  0.00000000000E+00  0.00000000000E+00  0.45593999997E+02  0.45594000000E+02  0.51100000000E-03 0. -1.
         11   -1    0    0    0    0 -0.00000000000E+00 -0.00000000000E+00 -0.45593999997E+02  0.45594000000E+02  0.51100000000E-03 0.  1.
    9900012    2    1    2    0    0  0.22386596067E+02  0.13407423668E+02  0.34680033242E+02  0.47787269608E+02  0.19999993451E+02 0.  0.
        -12    1    1    2    0    0 -0.22386596067E+02 -0.13407423668E+02 -0.34680033242E+02  0.43400730392E+02  0.00000000000E+00 0.  1.
         11    1    3    3    0    0  0.21171373997E+02  0.37390076810E+01  0.25242006828E+02  0.33156691094E+02  0.51100000000E-03 0. -1.
        -11    1    3    3    0    0 -0.91953163727E+00  0.33334985210E+00  0.28342571797E+01  0.29982786024E+01  0.51100000000E-03 0.  1.
         12    1    3    3    0    0  0.21347537076E+01  0.93350661345E+01  0.66037692347E+01  0.11632299912E+02  0.00000000000E+00 0. -1.
</event>
<event>
 7    1  0.8440037E-011  0.4778727E+02  0.7816164E-02  0.1312668E+00
        -11   -1    0    0    0    0  0.00000000000E+00  0.00000000000E+00  0.45593999997E+02  0.45594000000E+02  0.51100000000E-03 0. -1.
         11   -1    0    0    0    0 -0.00000000000E+00 -0.00000000000E+00 -0.45593999997E+02  0.45594000000E+02  0.51100000000E-03 0.  1.
    9900012    2    1    2    0    0  0.11093861879E+02  0.18655680763E+02  0.37583441015E+02  0.47787271496E+02  0.20000002060E+02 0.  0.
        -12    1    1    2    0    0 -0.11093861879E+02 -0.18655680763E+02 -0.37583441015E+02  0.43400728504E+02  0.00000000000E+00 0.  1.
         11    1    3    3    0    0  0.10288385802E+02  0.13087964663E+02  0.14558460112E+02  0.22115480156E+02  0.51100000000E-03 0. -1.
        -11    1    3    3    0    0 -0.16088589995E+01  0.31110419871E+01  0.13962074396E+01  0.37704648256E+01  0.51100000000E-03 0.  1.
        -12    1    3    3    0    0  0.24143350765E+01  0.24566741129E+01  0.21628773464E+02  0.21901326515E+02  0.00000000000E+00 0.  1.
</event>
<event>
 7    1  0.8440037E-011  0.4778727E+02  0.7816164E-02  0.1312668E+00
        -11   -1    0    0    0    0  0.00000000000E+00  0.00000000000E+00  0.45593999997E+02  0.45594000000E+02  0.51100000000E-03 0.  1.
         11   -1    0    0    0    0 -0.00000000000E+00 -0.00000000000E+00 -0.45593999997E+02  0.45594000000E+02  0.51100000000E-03 0. -1.
    9900012    2    1    2    0    0  0.15992425897E+02 -0.28456874992E+02 -0.28601954926E+02  0.47787271365E+02  0.20000001463E+02 0.  0.
         12    1    1    2    0    0 -0.15992425897E+02  0.28456874992E+02  0.28601954926E+02  0.43400728635E+02  0.00000000000E+00 0. -1.
         11    1    3    3    0    0  0.12325259146E+01  0.13267045224E+01 -0.41979675112E+01  0.45718920051E+01  0.51100000000E-03 0. -1.
        -11    1    3    3    0    0 -0.15775548985E+01 -0.11686441382E+00 -0.21488932701E+00  0.15964067254E+01  0.51100000000E-03 0.  1.
        -12    1    3    3    0    0  0.16337454881E+02 -0.29666715101E+02 -0.24189098088E+02  0.41618972635E+02  0.00000000000E+00 0.  1.
</event>
<event>
 7    1  0.8440037E-011  0.4778727E+02  0.7816164E-02  0.1312668E+00
        -11   -1    0    0    0    0  0.00000000000E+00  0.00000000000E+00  0.45593999997E+02  0.45594000000E+02  0.51100000000E-03 0. -1.
         11   -1    0    0    0    0 -0.00000000000E+00 -0.00000000000E+00 -0.45593999997E+02  0.45594000000E+02  0.51100000000E-03 0.  1.
    9900012    2    1    2    0    0  0.16807780919E+02  0.17685630186E+02 -0.35893454124E+02  0.47787273469E+02  0.20000011054E+02 0.  0.
         12    1    1    2    0    0 -0.16807780919E+02 -0.17685630186E+02  0.35893454124E+02  0.43400726531E+02  0.00000000000E+00 0. -1.
         11    1    3    3    0    0 -0.31290900478E+01  0.41461672814E+01 -0.12392130297E+02  0.13436770490E+02  0.51100000000E-03 0. -1.
        -11    1    3    3    0    0  0.23540706456E+01 -0.31960028528E+00 -0.40373870072E+01  0.46844729750E+01  0.51100000000E-03 0.  1.
        -12    1    3    3    0    0  0.17582800321E+02  0.13859063190E+02 -0.19463936819E+02  0.29666030003E+02  0.00000000000E+00 0.  1.
</event>
<event>
 7    1  0.8440037E-011  0.4778727E+02  0.7816164E-02  0.1312668E+00
        -11   -1    0    0    0    0  0.00000000000E+00  0.00000000000E+00  0.45593999997E+02  0.45594000000E+02  0.51100000000E-03 0. -1.
         11   -1    0    0    0    0 -0.00000000000E+00 -0.00000000000E+00 -0.45593999997E+02  0.45594000000E+02  0.51100000000E-03 0.  1.
    9900012    2    1    2    0    0  0.63529963789E+01 -0.10696960194E+02  0.41579296464E+02  0.47787269421E+02  0.19999992596E+02 0.  0.
        -12    1    1    2    0    0 -0.63529963789E+01  0.10696960194E+02 -0.41579296464E+02  0.43400730579E+02  0.00000000000E+00 0.  1.
         11    1    3    3    0    0  0.44786315798E+01 -0.49826748319E+01  0.24450360448E+02  0.25351633391E+02  0.51100000000E-03 0. -1.
        -11    1    3    3    0    0 -0.26013614327E+01  0.16261357395E+01  0.12084187178E+02  0.12467516945E+02  0.51100000000E-03 0.  1.
         12    1    3    3    0    0  0.44757262318E+01 -0.73404211015E+01  0.50447488382E+01  0.99681190849E+01  0.00000000000E+00 0. -1.
</event>
<event>
 7    1  0.8440037E-011  0.4778727E+02  0.7816164E-02  0.1312668E+00
        -11   -1    0    0    0    0  0.00000000000E+00  0.00000000000E+00  0.45593999997E+02  0.45594000000E+02  0.51100000000E-03 0. -1.
         11   -1    0    0    0    0 -0.00000000000E+00 -0.00000000000E+00 -0.45593999997E+02  0.45594000000E+02  0.51100000000E-03 0.  1.
    9900012    2    1    2    0    0 -0.13673036718E+02  0.18789693436E+02  0.36655408682E+02  0.47787268460E+02  0.19999988218E+02 0.  0.
        -12    1    1    2    0    0  0.13673036718E+02 -0.18789693436E+02 -0.36655408682E+02  0.43400731540E+02  0.00000000000E+00 0.  1.
         11    1    3    3    0    0 -0.17580166707E+01  0.23483333905E+01  0.16378713554E+02  0.16639337435E+02  0.51100000000E-03 0. -1.
        -11    1    3    3    0    0 -0.10091163401E+02  0.60739165411E+01  0.15804770177E+02  0.19710778816E+02  0.51100000000E-03 0.  1.
        -12    1    3    3    0    0 -0.18238566458E+01  0.10367443504E+02  0.44719249514E+01  0.11437152209E+02  0.00000000000E+00 0.  1.
</event>
<event>
 7    1  0.8440037E-011  0.4778727E+02  0.7816164E-02  0.1312668E+00
        -11   -1    0    0    0    0  0.00000000000E+00  0.00000000000E+00  0.45593999997E+02  0.45594000000E+02  0.51100000000E-03 0. -1.
         11   -1    0    0    0    0 -0.00000000000E+00 -0.00000000000E+00 -0.45593999997E+02  0.45594000000E+02  0.51100000000E-03 0.  1.
    9900012    2    1    2    0    0  0.40183580453E+02 -0.91255522323E+01 -0.13624509882E+02  0.47787272920E+02  0.20000008552E+02 0.  0.
         12    1    1    2    0    0 -0.40183580453E+02  0.91255522323E+01  0.13624509882E+02  0.43400727080E+02  0.00000000000E+00 0. -1.
         11    1    3    3    0    0  0.13700544374E+02 -0.65711708926E+01 -0.11284505561E+02  0.18926839912E+02  0.51100000000E-03 0. -1.
        -11    1    3    3    0    0  0.97155411452E+01  0.28213641799E+01 -0.45893374216E+01  0.11109178809E+02  0.51100000000E-03 0.  1.
         12    1    3    3    0    0  0.16767494934E+02 -0.53757455196E+01  0.22493331008E+01  0.17751254199E+02  0.00000000000E+00 0. -1.
</event>
<event>
 7    1  0.8440037E-011  0.4778727E+02  0.7816164E-02  0.1312668E+00
        -11   -1    0    0    0    0  0.00000000000E+00  0.00000000000E+00  0.45593999997E+02  0.45594000000E+02  0.51100000000E-03 0. -1.
         11   -1    0    0    0    0 -0.00000000000E+00 -0.00000000000E+00 -0.45593999997E+02  0.45594000000E+02  0.51100000000E-03 0.  1.
    9900012    2    1    2    0    0  0.67033512311E+01  0.27332078101E+02  0.33040064075E+02  0.47787271376E+02  0.20000001512E+02 0.  0.
        -12    1    1    2    0    0 -0.67033512311E+01 -0.27332078101E+02 -0.33040064075E+02  0.43400728624E+02  0.00000000000E+00 0.  1.
         11    1    3    3    0    0 -0.18154875518E+01  0.15211824735E+02  0.26825599329E+02  0.30891882209E+02  0.51100000000E-03 0.  1.
        -11    1    3    3    0    0  0.14368606183E+01 -0.62414092617E-01  0.13919123667E+01  0.20014705227E+01  0.51100000000E-03 0. -1.
         12    1    3    3    0    0  0.70819781646E+01  0.12182667458E+02  0.48225523791E+01  0.14893918644E+02  0.00000000000E+00 0. -1.
</event>
<event>
 7    1  0.8440037E-011  0.4778727E+02  0.7816164E-02  0.1312668E+00
        -11   -1    0    0    0    0  0.00000000000E+00  0.00000000000E+00  0.45593999997E+02  0.45594000000E+02  0.51100000000E-03 0. -1.
         11   -1    0    0    0    0 -0.00000000000E+00 -0.00000000000E+00 -0.45593999997E+02  0.45594000000E+02  0.51100000000E-03 0.  1.
    9900012    2    1    2    0    0  0.44937965721E+01 -0.34436101174E+02 -0.26030446017E+02  0.47787269689E+02  0.19999993819E+02 0.  0.
         12    1    1    2    0    0 -0.44937965721E+01  0.34436101174E+02  0.26030446017E+02  0.43400730311E+02  0.00000000000E+00 0. -1.
         11    1    3    3    0    0 -0.22583429510E+01 -0.13233046147E+01  0.84281178856E+00  0.27498327148E+01  0.51100000000E-03 0. -1.
        -11    1    3    3    0    0 -0.15287948360E+01 -0.44788799929E+00 -0.40110188072E+01  0.43157953431E+01  0.51100000000E-03 0.  1.
         12    1    3    3    0    0  0.82809343591E+01 -0.32664908560E+02 -0.22862238998E+02  0.40721641631E+02  0.00000000000E+00 0. -1.
</event>
<event>
 7    1  0.8440037E-011  0.4778728E+02  0.7816164E-02  0.1312668E+00
        -11   -1    0    0    0    0  0.00000000000E+00  0.00000000000E+00  0.45593999997E+02  0.45594000000E+02  0.51100000000E-03 0. -1.
         11   -1    0    0    0    0 -0.00000000000E+00 -0.00000000000E+00 -0.45593999997E+02  0.45594000000E+02  0.51100000000E-03 0.  1.
    9900012    2    1    2    0    0  0.26691106503E+02 -0.65360086651E+01 -0.33592977744E+02  0.47787277317E+02  0.20000028601E+02 0.  0.
         12    1    1    2    0    0 -0.26691106503E+02  0.65360086651E+01  0.33592977744E+02  0.43400722683E+02  0.00000000000E+00 0. -1.
         11    1    3    3    0    0  0.54441424666E+01 -0.39103327489E+01 -0.62416378993E+00  0.67319365788E+01  0.51100000000E-03 0. -1.
        -11    1    3    3    0    0  0.91497909606E+01 -0.69699553049E+01 -0.17524354946E+02  0.20961917091E+02  0.51100000000E-03 0.  1.
         12    1    3    3    0    0  0.12097173076E+02  0.43442793886E+01 -0.15444459008E+02  0.20093423648E+02  0.00000000000E+00 0. -1.
</event>
<event>
 7    1  0.9484420E-011  0.4778727E+02  0.7816164E-02  0.1312668E+00
        -11   -1    0    0    0    0  0.00000000000E+00  0.00000000000E+00  0.45593999997E+02  0.45594000000E+02  0.51100000000E-03 0. -1.
         11   -1    0    0    0    0 -0.00000000000E+00 -0.00000000000E+00 -0.45593999997E+02  0.45594000000E+02  0.51100000000E-03 0.  1.
    9900012    2    1    2    0    0  0.30055895729E+02 -0.64218418427E+01  0.30643536156E+02  0.47787271563E+02  0.20000002365E+02 0.  0.
        -12    1    1    2    0    0 -0.30055895729E+02  0.64218418427E+01 -0.30643536156E+02  0.43400728437E+02  0.00000000000E+00 0.  1.
         11    1    3    3    0    0  0.42586658217E+01 -0.17642311701E+01 -0.26718522305E+00  0.46173731067E+01  0.51100000000E-03 0. -1.
        -11    1    3    3    0    0  0.42386087752E+00 -0.18584908665E+01 -0.11202852445E+01  0.22110372304E+01  0.51100000000E-03 0.  1.
         12    1    3    3    0    0  0.25373369029E+02 -0.27991198061E+01  0.32031006624E+02  0.40958861226E+02  0.00000000000E+00 0. -1.
</event>
<event>
 7    1  0.8440037E-011  0.4778727E+02  0.7816164E-02  0.1312668E+00
        -11   -1    0    0    0    0  0.00000000000E+00  0.00000000000E+00  0.45593999997E+02  0.45594000000E+02  0.51100000000E-03 0. -1.
         11   -1    0    0    0    0 -0.00000000000E+00 -0.00000000000E+00 -0.45593999997E+02  0.45594000000E+02  0.51100000000E-03 0.  1.
    9900012    2    1    2    0    0  0.22478392055E+02 -0.34414339036E+02  0.13928347764E+02  0.47787265995E+02  0.19999976979E+02 0.  0.
        -12    1    1    2    0    0 -0.22478392055E+02  0.34414339036E+02 -0.13928347764E+02  0.43400734005E+02  0.00000000000E+00 0.  1.
         11    1    3    3    0    0  0.77409287252E+01 -0.81502288886E+01  0.78052652746E+01  0.13684676640E+02  0.51100000000E-03 0.  1.
        -11    1    3    3    0    0  0.13813618055E+02 -0.25171695230E+02  0.96543414640E+01  0.30292517127E+02  0.51100000000E-03 0. -1.
         12    1    3    3    0    0  0.92384527515E+00 -0.10924149181E+01 -0.35312589743E+01  0.38100722289E+01  0.00000000000E+00 0. -1.
</event>
<event>
 7    1  0.8440037E-011  0.4778727E+02  0.7816164E-02  0.1312668E+00
        -11   -1    0    0    0    0  0.00000000000E+00  0.00000000000E+00  0.45593999997E+02  0.45594000000E+02  0.51100000000E-03 0. -1.
         11   -1    0    0    0    0 -0.00000000000E+00 -0.00000000000E+00 -0.45593999997E+02  0.45594000000E+02  0.51100000000E-03 0.  1.
    9900012    2    1    2    0    0 -0.30701648502E+02  0.20065540023E+02 -0.23203575393E+02  0.47787273875E+02  0.20000012904E+02 0.  0.
         12    1    1    2    0    0  0.30701648502E+02 -0.20065540023E+02  0.23203575393E+02  0.43400726125E+02  0.00000000000E+00 0. -1.
         11    1    3    3    0    0 -0.19941911987E+02  0.36593180322E+01 -0.67836892279E+01  0.21379637554E+02  0.51100000000E-03 0. -1.
        -11    1    3    3    0    0 -0.24538239731E+01  0.77690762464E+00 -0.54246991635E+00  0.26304203884E+01  0.51100000000E-03 0.  1.
        -12    1    3    3    0    0 -0.83059125420E+01  0.15629314367E+02 -0.15877416249E+02  0.23777215932E+02  0.00000000000E+00 0.  1.
</event>
<event>
 7    1  0.8440037E-011  0.4778727E+02  0.7816164E-02  0.1312668E+00
        -11   -1    0    0    0    0  0.00000000000E+00  0.00000000000E+00  0.45593999997E+02  0.45594000000E+02  0.51100000000E-03 0. -1.
         11   -1    0    0    0    0 -0.00000000000E+00 -0.00000000000E+00 -0.45593999997E+02  0.45594000000E+02  0.51100000000E-03 0.  1.
    9900012    2    1    2    0    0 -0.22061569446E+02 -0.22046672999E+02 -0.30180368517E+02  0.47787270968E+02  0.19999999650E+02 0.  0.
         12    1    1    2    0    0  0.22061569446E+02  0.22046672999E+02  0.30180368517E+02  0.43400729032E+02  0.00000000000E+00 0. -1.
         11    1    3    3    0    0  0.13835394620E+01 -0.97965584073E+00 -0.49370453387E+01  0.52199927152E+01  0.51100000000E-03 0. -1.
        -11    1    3    3    0    0 -0.60799820922E+01 -0.80015622187E+01 -0.16125487163E+02  0.19000592535E+02  0.51100000000E-03 0.  1.
         12    1    3    3    0    0 -0.17365126816E+02 -0.13065454939E+02 -0.91178360145E+01  0.23566685717E+02  0.00000000000E+00 0. -1.
</event>
<event>
 7    1  0.8440037E-011  0.4778727E+02  0.7816164E-02  0.1312668E+00
        -11   -1    0    0    0    0  0.00000000000E+00  0.00000000000E+00  0.45593999997E+02  0.45594000000E+02  0.51100000000E-03 0. -1.
         11   -1    0    0    0    0 -0.00000000000E+00 -0.00000000000E+00 -0.45593999997E+02  0.45594000000E+02  0.51100000000E-03 0.  1.
    9900012    2    1    2    0    0 -0.23494365868E+02 -0.90896356970E+01 -0.35341431608E+02  0.47787268523E+02  0.19999988504E+02 0.  0.
         12    1    1    2    0    0  0.23494365868E+02  0.90896356970E+01  0.35341431608E+02  0.43400731477E+02  0.00000000000E+00 0. -1.
         11    1    3    3    0    0 -0.27041453152E+01 -0.14772943009E+01 -0.14359262457E+02  0.14686157390E+02  0.51100000000E-03 0. -1.
        -11    1    3    3    0    0 -0.16332310617E+02 -0.23958975132E+01 -0.20360303834E+02  0.26211193553E+02  0.51100000000E-03 0.  1.
         12    1    3    3    0    0 -0.44579099365E+01 -0.52164438829E+01 -0.62186531677E+00  0.68899175799E+01  0.00000000000E+00 0. -1.
</event>
<event>
 7    1  0.8440037E-011  0.4778727E+02  0.7816164E-02  0.1312668E+00
        -11   -1    0    0    0    0  0.00000000000E+00  0.00000000000E+00  0.45593999997E+02  0.45594000000E+02  0.51100000000E-03 0. -1.
         11   -1    0    0    0    0 -0.00000000000E+00 -0.00000000000E+00 -0.45593999997E+02  0.45594000000E+02  0.51100000000E-03 0.  1.
    9900012    2    1    2    0    0  0.16777397831E+02 -0.34333178229E+02 -0.20576076355E+02  0.47787272778E+02  0.20000007904E+02 0.  0.
         12    1    1    2    0    0 -0.16777397831E+02  0.34333178229E+02  0.20576076355E+02  0.43400727222E+02  0.00000000000E+00 0. -1.
         11    1    3    3    0    0 -0.23421617718E+01 -0.64316398624E+00 -0.64803364959E+00  0.25138276693E+01  0.51100000000E-03 0. -1.
        -11    1    3    3    0    0  0.83415064444E+00 -0.86093169264E+01 -0.86953448447E+01  0.12264793821E+02  0.51100000000E-03 0.  1.
         12    1    3    3    0    0  0.18285408958E+02 -0.25080697316E+02 -0.11232697860E+02  0.33008651288E+02  0.00000000000E+00 0. -1.
</event>
<event>
 7    1  0.8440037E-011  0.4778727E+02  0.7816164E-02  0.1312668E+00
        -11   -1    0    0    0    0  0.00000000000E+00  0.00000000000E+00  0.45593999997E+02  0.45594000000E+02  0.51100000000E-03 0. -1.
         11   -1    0    0    0    0 -0.00000000000E+00 -0.00000000000E+00 -0.45593999997E+02  0.45594000000E+02  0.51100000000E-03 0.  1.
    9900012    2    1    2    0    0  0.39020610981E+02  0.13914040784E+02 -0.12938881815E+02  0.47787271033E+02  0.19999999946E+02 0.  0.
         12    1    1    2    0    0 -0.39020610981E+02 -0.13914040784E+02  0.12938881815E+02  0.43400728967E+02  0.00000000000E+00 0. -1.
         11    1    3    3    0    0  0.16369115212E+02 -0.88725977710E+00 -0.50924325075E+00  0.16401051542E+02  0.51100000000E-03 0. -1.
        -11    1    3    3    0    0  0.89684062881E+00  0.91071516841E+00  0.15687344522E+01  0.20235249626E+01  0.51100000000E-03 0.  1.
        -12    1    3    3    0    0  0.21754655140E+02  0.13890585393E+02 -0.13998373016E+02  0.29362694528E+02  0.00000000000E+00 0.  1.
</event>
<event>
 7    1  0.8440037E-011  0.4778727E+02  0.7816164E-02  0.1312668E+00
        -11   -1    0    0    0    0  0.00000000000E+00  0.00000000000E+00  0.45593999997E+02  0.45594000000E+02  0.51100000000E-03 0. -1.
         11   -1    0    0    0    0 -0.00000000000E+00 -0.00000000000E+00 -0.45593999997E+02  0.45594000000E+02  0.51100000000E-03 0.  1.
    9900012    2    1    2    0    0 -0.13084546367E+02  0.20914408733E+02 -0.35707220971E+02  0.47787268719E+02  0.19999989396E+02 0.  0.
         12    1    1    2    0    0  0.13084546367E+02 -0.20914408733E+02  0.35707220971E+02  0.43400731281E+02  0.00000000000E+00 0. -1.
         11    1    3    3    0    0 -0.40325600374E+01  0.93038445339E+01 -0.55136953876E+01  0.11542265837E+02  0.51100000000E-03 0. -1.
        -11    1    3    3    0    0 -0.11292799335E+02  0.52966883652E+01 -0.14173301340E+02  0.18880272657E+02  0.51100000000E-03 0.  1.
         12    1    3    3    0    0  0.22408130056E+01  0.63138758339E+01 -0.16020224243E+02  0.17364730225E+02  0.00000000000E+00 0. -1.
</event>
<event>
 7    1  0.8440037E-011  0.4778727E+02  0.7816164E-02  0.1312668E+00
        -11   -1    0    0    0    0  0.00000000000E+00  0.00000000000E+00  0.45593999997E+02  0.45594000000E+02  0.51100000000E-03 0. -1.
         11   -1    0    0    0    0 -0.00000000000E+00 -0.00000000000E+00 -0.45593999997E+02  0.45594000000E+02  0.51100000000E-03 0.  1.
    9900012    2    1    2    0    0  0.25518337202E+01  0.27738074547E+02 -0.33282287831E+02  0.47787270534E+02  0.19999997674E+02 0.  0.
         12    1    1    2    0    0 -0.25518337202E+01 -0.27738074547E+02  0.33282287831E+02  0.43400729466E+02  0.00000000000E+00 0. -1.
         11    1    3    3    0    0  0.71371932117E+00  0.96935796423E+01 -0.19879464138E+02  0.22128442697E+02  0.51100000000E-03 0. -1.
        -11    1    3    3    0    0  0.17364303592E+01  0.50873453090E+01 -0.11324619713E+02  0.12535680460E+02  0.51100000000E-03 0.  1.
         12    1    3    3    0    0  0.10168403986E+00  0.12957149596E+02 -0.20782039794E+01  0.13123147377E+02  0.00000000000E+00 0. -1.
</event>
<event>
 7    1  0.8440037E-011  0.4778727E+02  0.7816164E-02  0.1312668E+00
        -11   -1    0    0    0    0  0.00000000000E+00  0.00000000000E+00  0.45593999997E+02  0.45594000000E+02  0.51100000000E-03 0. -1.
         11   -1    0    0    0    0 -0.00000000000E+00 -0.00000000000E+00 -0.45593999997E+02  0.45594000000E+02  0.51100000000E-03 0.  1.
    9900012    2    1    2    0    0  0.37599147006E+01 -0.27934591314E+02  0.33002190875E+02  0.47787274741E+02  0.20000016852E+02 0.  0.
        -12    1    1    2    0    0 -0.37599147006E+01  0.27934591314E+02 -0.33002190875E+02  0.43400725259E+02  0.00000000000E+00 0.  1.
         11    1    3    3    0    0 -0.20315291870E+01 -0.93933417322E+01  0.15972340688E+02  0.18640752320E+02  0.51100000000E-03 0. -1.
        -11    1    3    3    0    0 -0.34120063633E+01 -0.69377552814E+01  0.18727525226E+01  0.79549631074E+01  0.51100000000E-03 0.  1.
        -12    1    3    3    0    0  0.92034502509E+01 -0.11603494301E+02  0.15157097665E+02  0.21191559313E+02  0.00000000000E+00 0.  1.
</event>
<event>
 7    1  0.8440037E-011  0.4778727E+02  0.7816164E-02  0.1312668E+00
        -11   -1    0    0    0    0  0.00000000000E+00  0.00000000000E+00  0.45593999997E+02  0.45594000000E+02  0.51100000000E-03 0. -1.
         11   -1    0    0    0    0 -0.00000000000E+00 -0.00000000000E+00 -0.45593999997E+02  0.45594000000E+02  0.51100000000E-03 0.  1.
    9900012    2    1    2    0    0 -0.16886592806E+02  0.53349768875E+01  0.39623275842E+02  0.47787274391E+02  0.20000015257E+02 0.  0.
        -12    1    1    2    0    0  0.16886592806E+02 -0.53349768875E+01 -0.39623275842E+02  0.43400725609E+02  0.00000000000E+00 0.  1.
         11    1    3    3    0    0 -0.84615203780E+01 -0.42307635042E+01  0.17984056791E+02  0.20320506536E+02  0.51100000000E-03 0. -1.
        -11    1    3    3    0    0 -0.45109688609E+01  0.22176969189E+01  0.17424821837E+02  0.18135364236E+02  0.51100000000E-03 0.  1.
         12    1    3    3    0    0 -0.39141035673E+01  0.73480434729E+01  0.42143972136E+01  0.93314036184E+01  0.00000000000E+00 0. -1.
</event>
<event>
 7    1  0.8440037E-011  0.4778727E+02  0.7816164E-02  0.1312668E+00
        -11   -1    0    0    0    0  0.00000000000E+00  0.00000000000E+00  0.45593999997E+02  0.45594000000E+02  0.51100000000E-03 0.  1.
         11   -1    0    0    0    0 -0.00000000000E+00 -0.00000000000E+00 -0.45593999997E+02  0.45594000000E+02  0.51100000000E-03 0. -1.
    9900012    2    1    2    0    0 -0.13006384157E+02 -0.41341088351E+02 -0.23177374225E+01  0.47787268190E+02  0.19999986984E+02 0.  0.
        -12    1    1    2    0    0  0.13006384157E+02  0.41341088351E+02  0.23177374225E+01  0.43400731810E+02  0.00000000000E+00 0.  1.
         11    1    3    3    0    0 -0.27776341630E+01 -0.11026744222E+02 -0.22503261474E+01  0.11591734457E+02  0.51100000000E-03 0. -1.
        -11    1    3    3    0    0  0.26143346503E+01 -0.78565523470E+01  0.52224292744E+01  0.97894804884E+01  0.51100000000E-03 0.  1.
        -12    1    3    3    0    0 -0.12843084644E+02 -0.22457791782E+02 -0.52898405495E+01  0.26406053245E+02  0.00000000000E+00 0.  1.
</event>
<event>
 7    1  0.8440037E-011  0.4778727E+02  0.7816164E-02  0.1312668E+00
        -11   -1    0    0    0    0  0.00000000000E+00  0.00000000000E+00  0.45593999997E+02  0.45594000000E+02  0.51100000000E-03 0. -1.
         11   -1    0    0    0    0 -0.00000000000E+00 -0.00000000000E+00 -0.45593999997E+02  0.45594000000E+02  0.51100000000E-03 0.  1.
    9900012    2    1    2    0    0  0.37244951679E+01 -0.10935066541E+02 -0.41835101481E+02  0.47787271199E+02  0.20000000704E+02 0.  0.
         12    1    1    2    0    0 -0.37244951679E+01  0.10935066541E+02  0.41835101481E+02  0.43400728801E+02  0.00000000000E+00 0. -1.
         11    1    3    3    0    0  0.29076039780E+01  0.18907765782E+01 -0.25193582674E+01  0.42867660657E+01  0.51100000000E-03 0.  1.
        -11    1    3    3    0    0  0.44145587113E+01 -0.12474607020E+01 -0.37506065255E+01  0.59254988304E+01  0.51100000000E-03 0. -1.
        -12    1    3    3    0    0 -0.35976675214E+01 -0.11578382418E+02 -0.35565136688E+02  0.37575006303E+02  0.00000000000E+00 0.  1.
</event>
<event>
 7    1  0.8440037E-011  0.4778727E+02  0.7816164E-02  0.1312668E+00
        -11   -1    0    0    0    0  0.00000000000E+00  0.00000000000E+00  0.45593999997E+02  0.45594000000E+02  0.51100000000E-03 0. -1.
         11   -1    0    0    0    0 -0.00000000000E+00 -0.00000000000E+00 -0.45593999997E+02  0.45594000000E+02  0.51100000000E-03 0.  1.
    9900012    2    1    2    0    0  0.15689439920E+02  0.72886179126E+01 -0.39803781562E+02  0.47787268408E+02  0.19999987980E+02 0.  0.
         12    1    1    2    0    0 -0.15689439920E+02 -0.72886179126E+01  0.39803781562E+02  0.43400731592E+02  0.00000000000E+00 0. -1.
         11    1    3    3    0    0 -0.22264312158E+01 -0.26204545590E+01 -0.42790970625E+01  0.54894854027E+01  0.51100000000E-03 0. -1.
        -11    1    3    3    0    0  0.32557188487E+01  0.19905092725E+01 -0.16822680114E+02  0.17250055039E+02  0.51100000000E-03 0.  1.
        -12    1    3    3    0    0  0.14660152287E+02  0.79185631991E+01 -0.18702004386E+02  0.25047727966E+02  0.00000000000E+00 0.  1.
</event>
<event>
 7    1  0.8440037E-011  0.4778727E+02  0.7816164E-02  0.1312668E+00
        -11   -1    0    0    0    0  0.00000000000E+00  0.00000000000E+00  0.45593999997E+02  0.45594000000E+02  0.51100000000E-03 0. -1.
         11   -1    0    0    0    0 -0.00000000000E+00 -0.00000000000E+00 -0.45593999997E+02  0.45594000000E+02  0.51100000000E-03 0.  1.
    9900012    2    1    2    0    0 -0.33948812954E+02 -0.16990995675E+02 -0.21033480243E+02  0.47787272747E+02  0.20000007761E+02 0.  0.
         12    1    1    2    0    0  0.33948812954E+02  0.16990995675E+02  0.21033480243E+02  0.43400727253E+02  0.00000000000E+00 0. -1.
         11    1    3    3    0    0  0.22945171531E+00 -0.20155001976E+01  0.34283221089E+00  0.20572854256E+01  0.51100000000E-03 0. -1.
        -11    1    3    3    0    0 -0.17609208986E+02  0.68494353656E+00 -0.96770533331E+01  0.20104694731E+02  0.51100000000E-03 0.  1.
        -12    1    3    3    0    0 -0.16569055683E+02 -0.15660439014E+02 -0.11699259121E+02  0.25625292590E+02  0.00000000000E+00 0.  1.
</event>
<event>
 7    1  0.8440037E-011  0.4778727E+02  0.7816164E-02  0.1312668E+00
        -11   -1    0    0    0    0  0.00000000000E+00  0.00000000000E+00  0.45593999997E+02  0.45594000000E+02  0.51100000000E-03 0. -1.
         11   -1    0    0    0    0 -0.00000000000E+00 -0.00000000000E+00 -0.45593999997E+02  0.45594000000E+02  0.51100000000E-03 0.  1.
    9900012    2    1    2    0    0 -0.31003372887E+02 -0.21631401261E+02  0.21318920525E+02  0.47787273932E+02  0.20000013166E+02 0.  0.
        -12    1    1    2    0    0  0.31003372887E+02  0.21631401261E+02 -0.21318920525E+02  0.43400726068E+02  0.00000000000E+00 0.  1.
         11    1    3    3    0    0 -0.35242479850E+01 -0.85164481455E+01  0.24395153698E+01  0.95342251062E+01  0.51100000000E-03 0. -1.
        -11    1    3    3    0    0 -0.48080489705E+01 -0.37946226926E+01  0.10849648986E+02  0.12459188564E+02  0.51100000000E-03 0.  1.
         12    1    3    3    0    0 -0.22671075931E+02 -0.93203304232E+01  0.80297561686E+01  0.25793860262E+02  0.00000000000E+00 0. -1.
</event>
<event>
 7    1  0.8440037E-011  0.4778727E+02  0.7816164E-02  0.1312668E+00
        -11   -1    0    0    0    0  0.00000000000E+00  0.00000000000E+00  0.45593999997E+02  0.45594000000E+02  0.51100000000E-03 0. -1.
         11   -1    0    0    0    0 -0.00000000000E+00 -0.00000000000E+00 -0.45593999997E+02  0.45594000000E+02  0.51100000000E-03 0.  1.
    9900012    2    1    2    0    0 -0.17063450643E+02  0.30983442587E+02  0.25149324771E+02  0.47787267301E+02  0.19999982932E+02 0.  0.
        -12    1    1    2    0    0  0.17063450643E+02 -0.30983442587E+02 -0.25149324771E+02  0.43400732699E+02  0.00000000000E+00 0.  1.
         11    1    3    3    0    0 -0.77293591932E+01  0.16345815597E+02  0.12975540620E+02  0.22255186714E+02  0.51100000000E-03 0. -1.
        -11    1    3    3    0    0 -0.10698385654E+02  0.13481335855E+02  0.46907385120E+01  0.17838298688E+02  0.51100000000E-03 0.  1.
        -12    1    3    3    0    0  0.13642942045E+01  0.11562911353E+01  0.74830456389E+01  0.76937818983E+01  0.00000000000E+00 0.  1.
</event>
<event>
 7    1  0.8440037E-011  0.4778727E+02  0.7816164E-02  0.1312668E+00
        -11   -1    0    0    0    0  0.00000000000E+00  0.00000000000E+00  0.45593999997E+02  0.45594000000E+02  0.51100000000E-03 0. -1.
         11   -1    0    0    0    0 -0.00000000000E+00 -0.00000000000E+00 -0.45593999997E+02  0.45594000000E+02  0.51100000000E-03 0.  1.
    9900012    2    1    2    0    0  0.15283308419E+02  0.37026262312E+02  0.16706267030E+02  0.47787274486E+02  0.20000015692E+02 0.  0.
        -12    1    1    2    0    0 -0.15283308419E+02 -0.37026262312E+02 -0.16706267030E+02  0.43400725514E+02  0.00000000000E+00 0.  1.
         11    1    3    3    0    0  0.78683661916E+01  0.13323552042E+02  0.92871537585E+01  0.18046591111E+02  0.51100000000E-03 0. -1.
        -11    1    3    3    0    0  0.31835624242E+01  0.18537143019E+02  0.11373781448E+02  0.21980073833E+02  0.51100000000E-03 0.  1.
         12    1    3    3    0    0  0.42313798037E+01  0.51655672512E+01 -0.39546681769E+01  0.77606095417E+01  0.00000000000E+00 0. -1.
</event>
<event>
 7    1  0.8440037E-011  0.4778727E+02  0.7816164E-02  0.1312668E+00
        -11   -1    0    0    0    0  0.00000000000E+00  0.00000000000E+00  0.45593999997E+02  0.45594000000E+02  0.51100000000E-03 0. -1.
         11   -1    0    0    0    0 -0.00000000000E+00 -0.00000000000E+00 -0.45593999997E+02  0.45594000000E+02  0.51100000000E-03 0.  1.
    9900012    2    1    2    0    0 -0.19275768397E+02  0.93010223079E+01  0.37756573775E+02  0.47787272742E+02  0.20000007740E+02 0.  0.
        -12    1    1    2    0    0  0.19275768397E+02 -0.93010223079E+01 -0.37756573775E+02  0.43400727258E+02  0.00000000000E+00 0.  1.
         11    1    3    3    0    0 -0.53034244712E+01 -0.37273462791E+01  0.62472619804E+01  0.90026498276E+01  0.51100000000E-03 0. -1.
        -11    1    3    3    0    0 -0.17013734444E+01 -0.19478428859E-01  0.12691882758E+02  0.12805426163E+02  0.51100000000E-03 0.  1.
         12    1    3    3    0    0 -0.12270970482E+02  0.13047847016E+02  0.18817429037E+02  0.25979196752E+02  0.00000000000E+00 0. -1.
</event>
<event>
 7    1  0.8440037E-011  0.4778727E+02  0.7816164E-02  0.1312668E+00
        -11   -1    0    0    0    0  0.00000000000E+00  0.00000000000E+00  0.45593999997E+02  0.45594000000E+02  0.51100000000E-03 0. -1.
         11   -1    0    0    0    0 -0.00000000000E+00 -0.00000000000E+00 -0.45593999997E+02  0.45594000000E+02  0.51100000000E-03 0.  1.
    9900012    2    1    2    0    0  0.17207532935E+02  0.34976110122E+02 -0.19083917222E+02  0.47787269989E+02  0.19999995186E+02 0.  0.
         12    1    1    2    0    0 -0.17207532935E+02 -0.34976110122E+02  0.19083917222E+02  0.43400730011E+02  0.00000000000E+00 0. -1.
         11    1    3    3    0    0  0.66352226787E+01  0.26661759376E+01 -0.10789981005E+01  0.72317986205E+01  0.51100000000E-03 0. -1.
        -11    1    3    3    0    0  0.99498086205E+01  0.11535783283E+02 -0.10302607747E+02  0.18390669215E+02  0.51100000000E-03 0.  1.
        -12    1    3    3    0    0  0.62250163612E+00  0.20774150901E+02 -0.77023113744E+01  0.22164802153E+02  0.00000000000E+00 0.  1.
</event>
<event>
 7    1  0.8440037E-011  0.4778726E+02  0.7816164E-02  0.1312668E+00
        -11   -1    0    0    0    0  0.00000000000E+00  0.00000000000E+00  0.45593999997E+02  0.45594000000E+02  0.51100000000E-03 0. -1.
         11   -1    0    0    0    0 -0.00000000000E+00 -0.00000000000E+00 -0.45593999997E+02  0.45594000000E+02  0.51100000000E-03 0.  1.
    9900012    2    1    2    0    0  0.21427865623E+01 -0.37227013206E+02  0.22207712466E+02  0.47787256465E+02  0.19999933525E+02 0.  0.
        -12    1    1    2    0    0 -0.21427865623E+01  0.37227013206E+02 -0.22207712466E+02  0.43400743535E+02  0.00000000000E+00 0.  1.
         11    1    3    3    0    0 -0.71305872541E+00 -0.46482630632E+01  0.18699337189E+01  0.50607760892E+01  0.51100000000E-03 0. -1.
        -11    1    3    3    0    0  0.87507645832E+01 -0.27981086157E+02  0.19485251849E+02  0.35202160490E+02  0.51100000000E-03 0.  1.
        -12    1    3    3    0    0 -0.58949192955E+01 -0.45976639853E+01  0.85252689802E+00  0.75243198851E+01  0.00000000000E+00 0.  1.
</event>
<event>
 7    1  0.8440037E-011  0.4778728E+02  0.7816164E-02  0.1312668E+00
        -11   -1    0    0    0    0  0.00000000000E+00  0.00000000000E+00  0.45593999997E+02  0.45594000000E+02  0.51100000000E-03 0. -1.
         11   -1    0    0    0    0 -0.00000000000E+00 -0.00000000000E+00 -0.45593999997E+02  0.45594000000E+02  0.51100000000E-03 0.  1.
    9900012    2    1    2    0    0  0.65664824304E+01 -0.67141000199E+01 -0.42372448672E+02  0.47787282989E+02  0.20000054459E+02 0.  0.
         12    1    1    2    0    0 -0.65664824304E+01  0.67141000199E+01  0.42372448672E+02  0.43400717011E+02  0.00000000000E+00 0. -1.
         11    1    3    3    0    0 -0.20678162114E+01 -0.96807363630E+01 -0.15320399655E+02  0.18240262231E+02  0.51100000000E-03 0. -1.
        -11    1    3    3    0    0 -0.69804571878E+00  0.24259464335E+01 -0.52474344407E+01  0.58230621149E+01  0.51100000000E-03 0.  1.
        -12    1    3    3    0    0  0.93323443606E+01  0.54068990963E+00 -0.21804614577E+02  0.23723958643E+02  0.00000000000E+00 0.  1.
</event>
<event>
 7    1  0.8440037E-011  0.4778727E+02  0.7816164E-02  0.1312668E+00
        -11   -1    0    0    0    0  0.00000000000E+00  0.00000000000E+00  0.45593999997E+02  0.45594000000E+02  0.51100000000E-03 0. -1.
         11   -1    0    0    0    0 -0.00000000000E+00 -0.00000000000E+00 -0.45593999997E+02  0.45594000000E+02  0.51100000000E-03 0.  1.
    9900012    2    1    2    0    0 -0.41610169482E+02 -0.43922878025E+01 -0.11529297968E+02  0.47787272954E+02  0.20000008706E+02 0.  0.
         12    1    1    2    0    0  0.41610169482E+02  0.43922878025E+01  0.11529297968E+02  0.43400727046E+02  0.00000000000E+00 0. -1.
         11    1    3    3    0    0 -0.13551458948E+02 -0.37585615323E+01 -0.32632717185E+00  0.14066816061E+02  0.51100000000E-03 0. -1.
        -11    1    3    3    0    0 -0.12989908715E+02 -0.37879023852E+01  0.16944462328E+01  0.13636608127E+02  0.51100000000E-03 0.  1.
        -12    1    3    3    0    0 -0.15068801819E+02  0.31541761150E+01 -0.12897417029E+02  0.20083848766E+02  0.00000000000E+00 0.  1.
</event>
<event>
 7    1  0.8440037E-011  0.4778727E+02  0.7816164E-02  0.1312668E+00
        -11   -1    0    0    0    0  0.00000000000E+00  0.00000000000E+00  0.45593999997E+02  0.45594000000E+02  0.51100000000E-03 0. -1.
         11   -1    0    0    0    0 -0.00000000000E+00 -0.00000000000E+00 -0.45593999997E+02  0.45594000000E+02  0.51100000000E-03 0.  1.
    9900012    2    1    2    0    0 -0.13473508412E+02  0.87841716891E+01  0.40310371715E+02  0.47787272252E+02  0.20000005507E+02 0.  0.
        -12    1    1    2    0    0  0.13473508412E+02 -0.87841716891E+01 -0.40310371715E+02  0.43400727748E+02  0.00000000000E+00 0.  1.
         11    1    3    3    0    0 -0.61499920014E+01  0.88768540133E+01  0.34777585894E+02  0.36415675467E+02  0.51100000000E-03 0. -1.
        -11    1    3    3    0    0  0.26525938574E+00  0.18779286145E+01  0.23959453284E+00  0.19116443771E+01  0.51100000000E-03 0.  1.
         12    1    3    3    0    0 -0.75887757963E+01 -0.19706109387E+01  0.52931912882E+01  0.94599524085E+01  0.00000000000E+00 0. -1.
</event>
<event>
 7    1  0.8440037E-011  0.4778728E+02  0.7816164E-02  0.1312668E+00
        -11   -1    0    0    0    0  0.00000000000E+00  0.00000000000E+00  0.45593999997E+02  0.45594000000E+02  0.51100000000E-03 0. -1.
         11   -1    0    0    0    0 -0.00000000000E+00 -0.00000000000E+00 -0.45593999997E+02  0.45594000000E+02  0.51100000000E-03 0.  1.
    9900012    2    1    2    0    0  0.19475550909E+02  0.22810809556E+02 -0.31368649274E+02  0.47787282574E+02  0.20000052570E+02 0.  0.
         12    1    1    2    0    0 -0.19475550909E+02 -0.22810809556E+02  0.31368649274E+02  0.43400717426E+02  0.00000000000E+00 0. -1.
         11    1    3    3    0    0  0.12638335289E+02  0.85665115198E+01 -0.21093328386E+02  0.26039223129E+02  0.51100000000E-03 0. -1.
        -11    1    3    3    0    0  0.74795354262E+01  0.10297895073E+02 -0.11907659458E+02  0.17429355902E+02  0.51100000000E-03 0.  1.
         12    1    3    3    0    0 -0.64231980630E+00  0.39464029634E+01  0.16323385711E+01  0.43187035432E+01  0.00000000000E+00 0. -1.
</event>
<event>
 7    1  0.8440037E-011  0.4778726E+02  0.7816164E-02  0.1312668E+00
        -11   -1    0    0    0    0  0.00000000000E+00  0.00000000000E+00  0.45593999997E+02  0.45594000000E+02  0.51100000000E-03 0. -1.
         11   -1    0    0    0    0 -0.00000000000E+00 -0.00000000000E+00 -0.45593999997E+02  0.45594000000E+02  0.51100000000E-03 0.  1.
    9900012    2    1    2    0    0  0.14219405818E+02  0.16639699262E+02 -0.37477369474E+02  0.47787259038E+02  0.19999945260E+02 0.  0.
         12    1    1    2    0    0 -0.14219405818E+02 -0.16639699262E+02  0.37477369474E+02  0.43400740962E+02  0.00000000000E+00 0. -1.
         11    1    3    3    0    0  0.86846476377E+01  0.26336452943E+01 -0.77324352226E+01  0.11922656871E+02  0.51100000000E-03 0. -1.
        -11    1    3    3    0    0  0.54174537076E+01 -0.33737247833E+00 -0.10949782779E+02  0.12221307951E+02  0.51100000000E-03 0.  1.
         12    1    3    3    0    0  0.11730447267E+00  0.14343426446E+02 -0.18795151472E+02  0.23643294216E+02  0.00000000000E+00 0. -1.
</event>
<event>
 7    1  0.8440037E-011  0.4778727E+02  0.7816164E-02  0.1312668E+00
        -11   -1    0    0    0    0  0.00000000000E+00  0.00000000000E+00  0.45593999997E+02  0.45594000000E+02  0.51100000000E-03 0. -1.
         11   -1    0    0    0    0 -0.00000000000E+00 -0.00000000000E+00 -0.45593999997E+02  0.45594000000E+02  0.51100000000E-03 0.  1.
    9900012    2    1    2    0    0 -0.54942144435E+01  0.98439160276E+01 -0.41911027676E+02  0.47787270559E+02  0.19999997788E+02 0.  0.
         12    1    1    2    0    0  0.54942144435E+01 -0.98439160276E+01  0.41911027676E+02  0.43400729441E+02  0.00000000000E+00 0. -1.
         11    1    3    3    0    0 -0.24797792051E+01 -0.31063574836E+01 -0.14953750462E+01  0.42467527020E+01  0.51100000000E-03 0. -1.
        -11    1    3    3    0    0 -0.36171663175E+01  0.93601797382E+00 -0.58489031894E+01  0.69404387899E+01  0.51100000000E-03 0.  1.
        -12    1    3    3    0    0  0.60273107904E+00  0.12014255537E+02 -0.34566749440E+02  0.36600079068E+02  0.00000000000E+00 0.  1.
</event>
<event>
 7    1  0.8440037E-011  0.4778727E+02  0.7816164E-02  0.1312668E+00
        -11   -1    0    0    0    0  0.00000000000E+00  0.00000000000E+00  0.45593999997E+02  0.45594000000E+02  0.51100000000E-03 0. -1.
         11   -1    0    0    0    0 -0.00000000000E+00 -0.00000000000E+00 -0.45593999997E+02  0.45594000000E+02  0.51100000000E-03 0.  1.
    9900012    2    1    2    0    0  0.91382902393E+01  0.22246329914E+01 -0.42369399112E+02  0.47787270495E+02  0.19999997496E+02 0.  0.
         12    1    1    2    0    0 -0.91382902393E+01 -0.22246329914E+01  0.42369399112E+02  0.43400729505E+02  0.00000000000E+00 0. -1.
         11    1    3    3    0    0  0.47456524519E+00  0.10443721743E+01  0.52439635137E+00  0.12613156643E+01  0.51100000000E-03 0. -1.
        -11    1    3    3    0    0  0.12036987072E+02 -0.16232588395E+01 -0.21559353843E+02  0.24745297845E+02  0.51100000000E-03 0.  1.
         12    1    3    3    0    0 -0.33732620776E+01  0.28035196566E+01 -0.21334441620E+02  0.21780656986E+02  0.00000000000E+00 0. -1.
</event>
<event>
 7    1  0.8440037E-011  0.4778728E+02  0.7816164E-02  0.1312668E+00
        -11   -1    0    0    0    0  0.00000000000E+00  0.00000000000E+00  0.45593999997E+02  0.45594000000E+02  0.51100000000E-03 0. -1.
         11   -1    0    0    0    0 -0.00000000000E+00 -0.00000000000E+00 -0.45593999997E+02  0.45594000000E+02  0.51100000000E-03 0.  1.
    9900012    2    1    2    0    0 -0.26990228800E+02 -0.20382104631E+02  0.27197799360E+02  0.47787275007E+02  0.20000018068E+02 0.  0.
        -12    1    1    2    0    0  0.26990228800E+02  0.20382104631E+02 -0.27197799360E+02  0.43400724993E+02  0.00000000000E+00 0.  1.
         11    1    3    3    0    0 -0.10513358347E+02 -0.44813052792E+01  0.33202975751E+01  0.11901141835E+02  0.51100000000E-03 0. -1.
        -11    1    3    3    0    0 -0.94133201501E+01 -0.12151435992E+01  0.43176233749E+01  0.10427321904E+02  0.51100000000E-03 0.  1.
         12    1    3    3    0    0 -0.70635503031E+01 -0.14685655753E+02  0.19559878410E+02  0.25458811268E+02  0.00000000000E+00 0. -1.
</event>
<event>
 7    1  0.8440037E-011  0.4778726E+02  0.7816164E-02  0.1312668E+00
        -11   -1    0    0    0    0  0.00000000000E+00  0.00000000000E+00  0.45593999997E+02  0.45594000000E+02  0.51100000000E-03 0. -1.
         11   -1    0    0    0    0 -0.00000000000E+00 -0.00000000000E+00 -0.45593999997E+02  0.45594000000E+02  0.51100000000E-03 0.  1.
    9900012    2    1    2    0    0  0.21775234302E+02 -0.26461639369E+02 -0.26631661771E+02  0.47787255817E+02  0.19999930571E+02 0.  0.
         12    1    1    2    0    0 -0.21775234302E+02  0.26461639369E+02  0.26631661771E+02  0.43400744183E+02  0.00000000000E+00 0. -1.
         11    1    3    3    0    0  0.11045607407E+02 -0.77740417672E+01 -0.11173729653E+02  0.17529786166E+02  0.51100000000E-03 0. -1.
        -11    1    3    3    0    0  0.70179472245E+01 -0.13398845443E+02 -0.17823843994E+02  0.23376699028E+02  0.51100000000E-03 0.  1.
         12    1    3    3    0    0  0.37116796701E+01 -0.52887521586E+01  0.23659118761E+01  0.68807706235E+01  0.00000000000E+00 0. -1.
</event>
<event>
 7    1  0.8440037E-011  0.4778727E+02  0.7816164E-02  0.1312668E+00
        -11   -1    0    0    0    0  0.00000000000E+00  0.00000000000E+00  0.45593999997E+02  0.45594000000E+02  0.51100000000E-03 0. -1.
         11   -1    0    0    0    0 -0.00000000000E+00 -0.00000000000E+00 -0.45593999997E+02  0.45594000000E+02  0.51100000000E-03 0.  1.
    9900012    2    1    2    0    0  0.22989703377E+02  0.27796198965E+02  0.24134380898E+02  0.47787268675E+02  0.19999989195E+02 0.  0.
        -12    1    1    2    0    0 -0.22989703377E+02 -0.27796198965E+02 -0.24134380898E+02  0.43400731325E+02  0.00000000000E+00 0.  1.
         11    1    3    3    0    0  0.66841819713E+01  0.63258529545E+01  0.34917436664E+01  0.98431183230E+01  0.51100000000E-03 0. -1.
        -11    1    3    3    0    0  0.23992938652E+01 -0.25520444086E+01  0.27031355014E+00  0.35132052874E+01  0.51100000000E-03 0.  1.
         12    1    3    3    0    0  0.13906227541E+02  0.24022390419E+02  0.20372323681E+02  0.34430945064E+02  0.00000000000E+00 0. -1.
</event>
<event>
 7    1  0.8440037E-011  0.4778727E+02  0.7816164E-02  0.1312668E+00
        -11   -1    0    0    0    0  0.00000000000E+00  0.00000000000E+00  0.45593999997E+02  0.45594000000E+02  0.51100000000E-03 0.  1.
         11   -1    0    0    0    0 -0.00000000000E+00 -0.00000000000E+00 -0.45593999997E+02  0.45594000000E+02  0.51100000000E-03 0. -1.
    9900012    2    1    2    0    0  0.36470892584E+02  0.22103783018E+02 -0.80572965378E+01  0.47787271238E+02  0.20000000884E+02 0.  0.
         12    1    1    2    0    0 -0.36470892584E+02 -0.22103783018E+02  0.80572965378E+01  0.43400728762E+02  0.00000000000E+00 0. -1.
         11    1    3    3    0    0  0.13963668386E+02  0.72261945131E+01 -0.17848542670E+01  0.15823641394E+02  0.51100000000E-03 0. -1.
        -11    1    3    3    0    0  0.20128929359E+02  0.17801989022E+02 -0.31245866253E+01  0.27052682901E+02  0.51100000000E-03 0.  1.
        -12    1    3    3    0    0  0.23782948380E+01 -0.29244005170E+01 -0.31478556455E+01  0.49109469438E+01  0.00000000000E+00 0.  1.
</event>
<event>
 7    1  0.8440037E-011  0.4778727E+02  0.7816164E-02  0.1312668E+00
        -11   -1    0    0    0    0  0.00000000000E+00  0.00000000000E+00  0.45593999997E+02  0.45594000000E+02  0.51100000000E-03 0. -1.
         11   -1    0    0    0    0 -0.00000000000E+00 -0.00000000000E+00 -0.45593999997E+02  0.45594000000E+02  0.51100000000E-03 0.  1.
    9900012    2    1    2    0    0 -0.15053539537E+02  0.28839396291E+01  0.40604149658E+02  0.47787272704E+02  0.20000007565E+02 0.  0.
        -12    1    1    2    0    0  0.15053539537E+02 -0.28839396291E+01 -0.40604149658E+02  0.43400727296E+02  0.00000000000E+00 0.  1.
         11    1    3    3    0    0 -0.99708355300E+01 -0.20909154973E+01  0.29910792356E+02  0.31598180144E+02  0.51100000000E-03 0. -1.
        -11    1    3    3    0    0 -0.61843328421E+01 -0.55937222722E+00  0.73821893625E+01  0.96465325395E+01  0.51100000000E-03 0.  1.
        -12    1    3    3    0    0  0.11016288354E+01  0.55342273536E+01  0.33111679396E+01  0.65425600201E+01  0.00000000000E+00 0.  1.
</event>
<event>
 7    1  0.8440037E-011  0.4778728E+02  0.7816164E-02  0.1312668E+00
        -11   -1    0    0    0    0  0.00000000000E+00  0.00000000000E+00  0.45593999997E+02  0.45594000000E+02  0.51100000000E-03 0. -1.
         11   -1    0    0    0    0 -0.00000000000E+00 -0.00000000000E+00 -0.45593999997E+02  0.45594000000E+02  0.51100000000E-03 0.  1.
    9900012    2    1    2    0    0  0.40597505694E+02  0.13439524223E+02  0.74057166252E+01  0.47787275137E+02  0.20000018659E+02 0.  0.
        -12    1    1    2    0    0 -0.40597505694E+02 -0.13439524223E+02 -0.74057166252E+01  0.43400724863E+02  0.00000000000E+00 0.  1.
         11    1    3    3    0    0  0.38950655551E+00 -0.90627689046E+00  0.37285602430E+00  0.10545496835E+01  0.51100000000E-03 0. -1.
        -11    1    3    3    0    0  0.79722593281E-01 -0.17111001929E+01 -0.19416710728E+01  0.25892675370E+01  0.51100000000E-03 0.  1.
         12    1    3    3    0    0  0.40128276545E+02  0.16056901306E+02  0.89745316737E+01  0.44143457916E+02  0.00000000000E+00 0. -1.
</event>
<event>
 7    1  0.8440037E-011  0.4778728E+02  0.7816164E-02  0.1312668E+00
        -11   -1    0    0    0    0  0.00000000000E+00  0.00000000000E+00  0.45593999997E+02  0.45594000000E+02  0.51100000000E-03 0. -1.
         11   -1    0    0    0    0 -0.00000000000E+00 -0.00000000000E+00 -0.45593999997E+02  0.45594000000E+02  0.51100000000E-03 0.  1.
    9900012    2    1    2    0    0 -0.75572208058E+01  0.24648446867E+02 -0.34913684863E+02  0.47787275236E+02  0.20000019113E+02 0.  0.
         12    1    1    2    0    0  0.75572208058E+01 -0.24648446867E+02  0.34913684863E+02  0.43400724764E+02  0.00000000000E+00 0. -1.
         11    1    3    3    0    0 -0.61561113254E+00  0.41602879412E+01 -0.16911517751E+02  0.17426600521E+02  0.51100000000E-03 0. -1.
        -11    1    3    3    0    0 -0.36840210141E+01  0.29438809284E+01 -0.94752049189E+01  0.10583853470E+02  0.51100000000E-03 0.  1.
         12    1    3    3    0    0 -0.32575886592E+01  0.17544277998E+02 -0.85269621934E+01  0.19776821246E+02  0.00000000000E+00 0. -1.
</event>
<event>
 7    1  0.8440037E-011  0.4778727E+02  0.7816164E-02  0.1312668E+00
        -11   -1    0    0    0    0  0.00000000000E+00  0.00000000000E+00  0.45593999997E+02  0.45594000000E+02  0.51100000000E-03 0. -1.
         11   -1    0    0    0    0 -0.00000000000E+00 -0.00000000000E+00 -0.45593999997E+02  0.45594000000E+02  0.51100000000E-03 0.  1.
    9900012    2    1    2    0    0  0.16815286503E+02  0.15452738197E+02 -0.36906399606E+02  0.47787270630E+02  0.19999998110E+02 0.  0.
         12    1    1    2    0    0 -0.16815286503E+02 -0.15452738197E+02  0.36906399606E+02  0.43400729370E+02  0.00000000000E+00 0. -1.
         11    1    3    3    0    0  0.14602445335E+01 -0.35405815298E+01 -0.97232949140E+01  0.10450382573E+02  0.51100000000E-03 0. -1.
        -11    1    3    3    0    0  0.53995288872E+01  0.32845886608E+01 -0.10988408032E+02  0.12676298601E+02  0.51100000000E-03 0.  1.
        -12    1    3    3    0    0  0.99555130820E+01  0.15708731066E+02 -0.16194696660E+02  0.24660589456E+02  0.00000000000E+00 0.  1.
</event>
<event>
 7    1  0.8440037E-011  0.4778727E+02  0.7816164E-02  0.1312668E+00
        -11   -1    0    0    0    0  0.00000000000E+00  0.00000000000E+00  0.45593999997E+02  0.45594000000E+02  0.51100000000E-03 0. -1.
         11   -1    0    0    0    0 -0.00000000000E+00 -0.00000000000E+00 -0.45593999997E+02  0.45594000000E+02  0.51100000000E-03 0.  1.
    9900012    2    1    2    0    0 -0.26476103841E+02 -0.32743223243E+02 -0.10512864101E+02  0.47787273571E+02  0.20000011520E+02 0.  0.
         12    1    1    2    0    0  0.26476103841E+02  0.32743223243E+02  0.10512864101E+02  0.43400726429E+02  0.00000000000E+00 0. -1.
         11    1    3    3    0    0 -0.98659073585E+01 -0.37893868389E+01 -0.29540311137E+01  0.10973690387E+02  0.51100000000E-03 0. -1.
        -11    1    3    3    0    0 -0.17045181484E+02 -0.22103997459E+02 -0.98157481116E+01  0.29588406965E+02  0.51100000000E-03 0.  1.
        -12    1    3    3    0    0  0.43498500111E+00 -0.68498389448E+01  0.22569151243E+01  0.72251762193E+01  0.00000000000E+00 0.  1.
</event>
<event>
 7    1  0.8440037E-011  0.4778727E+02  0.7816164E-02  0.1312668E+00
        -11   -1    0    0    0    0  0.00000000000E+00  0.00000000000E+00  0.45593999997E+02  0.45594000000E+02  0.51100000000E-03 0. -1.
         11   -1    0    0    0    0 -0.00000000000E+00 -0.00000000000E+00 -0.45593999997E+02  0.45594000000E+02  0.51100000000E-03 0.  1.
    9900012    2    1    2    0    0  0.35078745539E+02  0.14683496437E+01 -0.25513699038E+02  0.47787270998E+02  0.19999999789E+02 0.  0.
         12    1    1    2    0    0 -0.35078745539E+02 -0.14683496437E+01  0.25513699038E+02  0.43400729002E+02  0.00000000000E+00 0. -1.
         11    1    3    3    0    0  0.22551741651E+01  0.63416653643E+00  0.92383133061E+00  0.25182220512E+01  0.51100000000E-03 0. -1.
        -11    1    3    3    0    0  0.25476810819E+02  0.67228176426E+01 -0.23761714833E+02  0.35480744899E+02  0.51100000000E-03 0.  1.
        -12    1    3    3    0    0  0.73467605554E+01 -0.58886345354E+01 -0.26758155364E+01  0.97883040479E+01  0.00000000000E+00 0.  1.
</event>
<event>
 7    1  0.8440037E-011  0.4778727E+02  0.7816164E-02  0.1312668E+00
        -11   -1    0    0    0    0  0.00000000000E+00  0.00000000000E+00  0.45593999997E+02  0.45594000000E+02  0.51100000000E-03 0. -1.
         11   -1    0    0    0    0 -0.00000000000E+00 -0.00000000000E+00 -0.45593999997E+02  0.45594000000E+02  0.51100000000E-03 0.  1.
    9900012    2    1    2    0    0 -0.28098433641E+02 -0.10261553086E+02  0.31445219733E+02  0.47787270872E+02  0.19999999215E+02 0.  0.
        -12    1    1    2    0    0  0.28098433641E+02  0.10261553086E+02 -0.31445219733E+02  0.43400729128E+02  0.00000000000E+00 0.  1.
         11    1    3    3    0    0 -0.11646327147E+02 -0.47039463970E+01  0.12533289898E+01  0.12622792145E+02  0.51100000000E-03 0.  1.
        -11    1    3    3    0    0 -0.50756931413E+01 -0.24430173628E+01  0.58821921616E+01  0.81443955937E+01  0.51100000000E-03 0. -1.
        -12    1    3    3    0    0 -0.11376413352E+02 -0.31145893261E+01  0.24309698581E+02  0.27020083134E+02  0.00000000000E+00 0.  1.
</event>
<event>
 7    1  0.8440037E-011  0.4778727E+02  0.7816164E-02  0.1312668E+00
        -11   -1    0    0    0    0  0.00000000000E+00  0.00000000000E+00  0.45593999997E+02  0.45594000000E+02  0.51100000000E-03 0. -1.
         11   -1    0    0    0    0 -0.00000000000E+00 -0.00000000000E+00 -0.45593999997E+02  0.45594000000E+02  0.51100000000E-03 0.  1.
    9900012    2    1    2    0    0  0.34748623825E+02  0.16319905968E+01  0.25951744952E+02  0.47787270547E+02  0.19999997732E+02 0.  0.
        -12    1    1    2    0    0 -0.34748623825E+02 -0.16319905968E+01 -0.25951744952E+02  0.43400729453E+02  0.00000000000E+00 0.  1.
         11    1    3    3    0    0  0.40308142070E+01  0.11502293631E+01  0.81939905246E-01  0.41925177601E+01  0.51100000000E-03 0.  1.
        -11    1    3    3    0    0  0.29439134889E+02  0.53476949974E+01  0.20716666462E+02  0.36392867081E+02  0.51100000000E-03 0. -1.
         12    1    3    3    0    0  0.12786747287E+01 -0.48659337638E+01  0.51531385843E+01  0.72018857061E+01  0.00000000000E+00 0. -1.
</event>
<event>
 7    1  0.8440037E-011  0.4778727E+02  0.7816164E-02  0.1312668E+00
        -11   -1    0    0    0    0  0.00000000000E+00  0.00000000000E+00  0.45593999997E+02  0.45594000000E+02  0.51100000000E-03 0.  1.
         11   -1    0    0    0    0 -0.00000000000E+00 -0.00000000000E+00 -0.45593999997E+02  0.45594000000E+02  0.51100000000E-03 0. -1.
    9900012    2    1    2    0    0 -0.34595853213E+02 -0.26075963713E+02  0.26065663890E+01  0.47787272686E+02  0.20000007483E+02 0.  0.
         12    1    1    2    0    0  0.34595853213E+02  0.26075963713E+02 -0.26065663890E+01  0.43400727314E+02  0.00000000000E+00 0. -1.
         11    1    3    3    0    0 -0.49487761797E+01 -0.10689699583E+02  0.14864127032E+01  0.11873057139E+02  0.51100000000E-03 0. -1.
        -11    1    3    3    0    0 -0.19733884518E+02 -0.16385808344E+02  0.28281785432E+01  0.25805416241E+02  0.51100000000E-03 0.  1.
         12    1    3    3    0    0 -0.99131925154E+01  0.99954421400E+00 -0.17080248574E+01  0.10108799305E+02  0.00000000000E+00 0. -1.
</event>
<event>
 7    1  0.8440037E-011  0.4778726E+02  0.7816164E-02  0.1312668E+00
        -11   -1    0    0    0    0  0.00000000000E+00  0.00000000000E+00  0.45593999997E+02  0.45594000000E+02  0.51100000000E-03 0. -1.
         11   -1    0    0    0    0 -0.00000000000E+00 -0.00000000000E+00 -0.45593999997E+02  0.45594000000E+02  0.51100000000E-03 0.  1.
    9900012    2    1    2    0    0 -0.16219773573E+02  0.32140891969E+02  0.24238519831E+02  0.47787264581E+02  0.19999970529E+02 0.  0.
        -12    1    1    2    0    0  0.16219773573E+02 -0.32140891969E+02 -0.24238519831E+02  0.43400735419E+02  0.00000000000E+00 0.  1.
         11    1    3    3    0    0 -0.48869751211E+00  0.63015611546E+01  0.82418479019E+01  0.10386363913E+02  0.51100000000E-03 0. -1.
        -11    1    3    3    0    0  0.10999859744E+01  0.77555862393E+01 -0.24277976638E+00  0.78369655694E+01  0.51100000000E-03 0.  1.
        -12    1    3    3    0    0 -0.16831062035E+02  0.18083744575E+02  0.16239451696E+02  0.29563935098E+02  0.00000000000E+00 0.  1.
</event>
<event>
 7    1  0.8440037E-011  0.4778726E+02  0.7816164E-02  0.1312668E+00
        -11   -1    0    0    0    0  0.00000000000E+00  0.00000000000E+00  0.45593999997E+02  0.45594000000E+02  0.51100000000E-03 0. -1.
         11   -1    0    0    0    0 -0.00000000000E+00 -0.00000000000E+00 -0.45593999997E+02  0.45594000000E+02  0.51100000000E-03 0.  1.
    9900012    2    1    2    0    0 -0.12788085653E+02 -0.70022413838E+01 -0.40878569449E+02  0.47787263149E+02  0.19999964001E+02 0.  0.
         12    1    1    2    0    0  0.12788085653E+02  0.70022413838E+01  0.40878569449E+02  0.43400736851E+02  0.00000000000E+00 0. -1.
         11    1    3    3    0    0 -0.80536388128E+00 -0.71540356211E+01 -0.85191309728E+01  0.11153673361E+02  0.51100000000E-03 0. -1.
        -11    1    3    3    0    0 -0.79591314840E+01 -0.54087995590E+01 -0.13618475884E+02  0.16675304265E+02  0.51100000000E-03 0.  1.
        -12    1    3    3    0    0 -0.40235902876E+01  0.55605937963E+01 -0.18740962592E+02  0.19958285523E+02  0.00000000000E+00 0.  1.
</event>
<event>
 7    1  0.8440037E-011  0.4778727E+02  0.7816164E-02  0.1312668E+00
        -11   -1    0    0    0    0  0.00000000000E+00  0.00000000000E+00  0.45593999997E+02  0.45594000000E+02  0.51100000000E-03 0. -1.
         11   -1    0    0    0    0 -0.00000000000E+00 -0.00000000000E+00 -0.45593999997E+02  0.45594000000E+02  0.51100000000E-03 0.  1.
    9900012    2    1    2    0    0 -0.18289030076E+02  0.30483255328E+02 -0.24897903893E+02  0.47787273108E+02  0.20000009409E+02 0.  0.
         12    1    1    2    0    0  0.18289030076E+02 -0.30483255328E+02  0.24897903893E+02  0.43400726892E+02  0.00000000000E+00 0. -1.
         11    1    3    3    0    0 -0.37934784397E+00  0.11194418054E+02 -0.65644866760E+00  0.11220063523E+02  0.51100000000E-03 0. -1.
        -11    1    3    3    0    0 -0.52793479276E+00 -0.25260293568E+00  0.33855641225E+00  0.67612431839E+00  0.51100000000E-03 0.  1.
        -12    1    3    3    0    0 -0.17381747439E+02  0.19541440210E+02 -0.24580011637E+02  0.35891085266E+02  0.00000000000E+00 0.  1.
</event>
<event>
 7    1  0.8440037E-011  0.4778727E+02  0.7816164E-02  0.1312668E+00
        -11   -1    0    0    0    0  0.00000000000E+00  0.00000000000E+00  0.45593999997E+02  0.45594000000E+02  0.51100000000E-03 0. -1.
         11   -1    0    0    0    0 -0.00000000000E+00 -0.00000000000E+00 -0.45593999997E+02  0.45594000000E+02  0.51100000000E-03 0.  1.
    9900012    2    1    2    0    0 -0.94273745845E+01 -0.16822504887E+01  0.42331055501E+02  0.47787267079E+02  0.19999981918E+02 0.  0.
        -12    1    1    2    0    0  0.94273745845E+01  0.16822504887E+01 -0.42331055501E+02  0.43400732921E+02  0.00000000000E+00 0.  1.
         11    1    3    3    0    0 -0.17598525514E+01 -0.30558752159E+01  0.63595949729E+01  0.72718569030E+01  0.51100000000E-03 0. -1.
        -11    1    3    3    0    0  0.50613795682E+00  0.44984326415E+01  0.28934145990E+02  0.29286120882E+02  0.51100000000E-03 0.  1.
         12    1    3    3    0    0 -0.81736599899E+01 -0.31248079143E+01  0.70373145381E+01  0.11229289294E+02  0.00000000000E+00 0. -1.
</event>
<event>
 7    1  0.8440037E-011  0.4778728E+02  0.7816164E-02  0.1312668E+00
        -11   -1    0    0    0    0  0.00000000000E+00  0.00000000000E+00  0.45593999997E+02  0.45594000000E+02  0.51100000000E-03 0. -1.
         11   -1    0    0    0    0 -0.00000000000E+00 -0.00000000000E+00 -0.45593999997E+02  0.45594000000E+02  0.51100000000E-03 0.  1.
    9900012    2    1    2    0    0  0.38431018231E+02  0.13864721242E+02  0.14644077232E+02  0.47787278170E+02  0.20000032489E+02 0.  0.
        -12    1    1    2    0    0 -0.38431018231E+02 -0.13864721242E+02 -0.14644077232E+02  0.43400721830E+02  0.00000000000E+00 0.  1.
         11    1    3    3    0    0  0.69103173624E+01  0.79419005206E+01 -0.20379656769E+01  0.10722852899E+02  0.51100000000E-03 0. -1.
        -11    1    3    3    0    0  0.38519365167E+01  0.17264354058E+01  0.54877247350E+01  0.69233746950E+01  0.51100000000E-03 0.  1.
        -12    1    3    3    0    0  0.27668764352E+02  0.41963853154E+01  0.11194318174E+02  0.30141050576E+02  0.00000000000E+00 0.  1.
</event>
<event>
 7    1  0.8440037E-011  0.4778727E+02  0.7816164E-02  0.1312668E+00
        -11   -1    0    0    0    0  0.00000000000E+00  0.00000000000E+00  0.45593999997E+02  0.45594000000E+02  0.51100000000E-03 0. -1.
         11   -1    0    0    0    0 -0.00000000000E+00 -0.00000000000E+00 -0.45593999997E+02  0.45594000000E+02  0.51100000000E-03 0.  1.
    9900012    2    1    2    0    0  0.54026751468E+00  0.34609901730E+01 -0.43259138065E+02  0.47787269959E+02  0.19999995051E+02 0.  0.
         12    1    1    2    0    0 -0.54026751468E+00 -0.34609901730E+01  0.43259138065E+02  0.43400730041E+02  0.00000000000E+00 0. -1.
         11    1    3    3    0    0  0.49842327689E+00 -0.32145224029E+01 -0.44160056477E+00  0.32827719021E+01  0.51100000000E-03 0. -1.
        -11    1    3    3    0    0 -0.46954767885E+00 -0.23480992935E+01 -0.16622288549E+02  0.16793883475E+02  0.51100000000E-03 0.  1.
         12    1    3    3    0    0  0.51139191664E+00  0.90236118694E+01 -0.26195248952E+02  0.27710614582E+02  0.00000000000E+00 0. -1.
</event>
<event>
 7    1  0.8440037E-011  0.4778727E+02  0.7816164E-02  0.1312668E+00
        -11   -1    0    0    0    0  0.00000000000E+00  0.00000000000E+00  0.45593999997E+02  0.45594000000E+02  0.51100000000E-03 0. -1.
         11   -1    0    0    0    0 -0.00000000000E+00 -0.00000000000E+00 -0.45593999997E+02  0.45594000000E+02  0.51100000000E-03 0.  1.
    9900012    2    1    2    0    0 -0.37827004431E+02 -0.15382705617E+01  0.21222030583E+02  0.47787272787E+02  0.20000007946E+02 0.  0.
        -12    1    1    2    0    0  0.37827004431E+02  0.15382705617E+01 -0.21222030583E+02  0.43400727213E+02  0.00000000000E+00 0.  1.
         11    1    3    3    0    0 -0.11747108441E+02 -0.44247312784E+01  0.11361860589E+02  0.16931174794E+02  0.51100000000E-03 0. -1.
        -11    1    3    3    0    0 -0.11659191169E+02 -0.51255665308E+01  0.45849855083E+01  0.13536257361E+02  0.51100000000E-03 0.  1.
         12    1    3    3    0    0 -0.14420704821E+02  0.80120272475E+01  0.52751844858E+01  0.17319840632E+02  0.00000000000E+00 0. -1.
</event>
<event>
 7    1  0.8440037E-011  0.4778727E+02  0.7816164E-02  0.1312668E+00
        -11   -1    0    0    0    0  0.00000000000E+00  0.00000000000E+00  0.45593999997E+02  0.45594000000E+02  0.51100000000E-03 0. -1.
         11   -1    0    0    0    0 -0.00000000000E+00 -0.00000000000E+00 -0.45593999997E+02  0.45594000000E+02  0.51100000000E-03 0.  1.
    9900012    2    1    2    0    0  0.13794624009E+02 -0.12465737256E+02  0.39216536599E+02  0.47787274204E+02  0.20000014404E+02 0.  0.
        -12    1    1    2    0    0 -0.13794624009E+02  0.12465737256E+02 -0.39216536599E+02  0.43400725796E+02  0.00000000000E+00 0.  1.
         11    1    3    3    0    0  0.18224859780E+01 -0.49220150753E+01  0.10462628084E+01  0.53518551613E+01  0.51100000000E-03 0.  1.
        -11    1    3    3    0    0  0.59985936225E+00 -0.69789979433E+01  0.17234917334E+02  0.18603994714E+02  0.51100000000E-03 0. -1.
         12    1    3    3    0    0  0.11372278668E+02 -0.56472423718E+00  0.20935356456E+02  0.23831424328E+02  0.00000000000E+00 0. -1.
</event>
<event>
 7    1  0.8440037E-011  0.4778727E+02  0.7816164E-02  0.1312668E+00
        -11   -1    0    0    0    0  0.00000000000E+00  0.00000000000E+00  0.45593999997E+02  0.45594000000E+02  0.51100000000E-03 0. -1.
         11   -1    0    0    0    0 -0.00000000000E+00 -0.00000000000E+00 -0.45593999997E+02  0.45594000000E+02  0.51100000000E-03 0.  1.
    9900012    2    1    2    0    0 -0.13321558124E+02  0.29061845662E+02  0.29352486182E+02  0.47787271559E+02  0.20000002348E+02 0.  0.
        -12    1    1    2    0    0  0.13321558124E+02 -0.29061845662E+02 -0.29352486182E+02  0.43400728441E+02  0.00000000000E+00 0.  1.
         11    1    3    3    0    0 -0.24263799870E+01  0.11589127903E+02  0.16066499428E+02  0.19958146445E+02  0.51100000000E-03 0. -1.
        -11    1    3    3    0    0 -0.30093307141E+01  0.14629322006E+02  0.12376378689E+02  0.19397110182E+02  0.51100000000E-03 0.  1.
        -12    1    3    3    0    0 -0.78858474230E+01  0.28433957535E+01  0.90960806485E+00  0.84320149324E+01  0.00000000000E+00 0.  1.
</event>
<event>
 7    1  0.8440037E-011  0.4778727E+02  0.7816164E-02  0.1312668E+00
        -11   -1    0    0    0    0  0.00000000000E+00  0.00000000000E+00  0.45593999997E+02  0.45594000000E+02  0.51100000000E-03 0. -1.
         11   -1    0    0    0    0 -0.00000000000E+00 -0.00000000000E+00 -0.45593999997E+02  0.45594000000E+02  0.51100000000E-03 0.  1.
    9900012    2    1    2    0    0 -0.23548931503E+02 -0.32457782824E+02  0.16600110321E+02  0.47787268399E+02  0.19999987941E+02 0.  0.
        -12    1    1    2    0    0  0.23548931503E+02  0.32457782824E+02 -0.16600110321E+02  0.43400731601E+02  0.00000000000E+00 0.  1.
         11    1    3    3    0    0 -0.10190875075E+01 -0.98506175228E+01  0.38661135556E+01  0.10631088336E+02  0.51100000000E-03 0. -1.
        -11    1    3    3    0    0  0.70934635421E+00 -0.60912413821E+01  0.56803014971E+00  0.61586566991E+01  0.51100000000E-03 0.  1.
        -12    1    3    3    0    0 -0.23239190350E+02 -0.16515923919E+02  0.12165966615E+02  0.30997523364E+02  0.00000000000E+00 0.  1.
</event>
<event>
 7    1  0.8440037E-011  0.4778728E+02  0.7816164E-02  0.1312668E+00
        -11   -1    0    0    0    0  0.00000000000E+00  0.00000000000E+00  0.45593999997E+02  0.45594000000E+02  0.51100000000E-03 0. -1.
         11   -1    0    0    0    0 -0.00000000000E+00 -0.00000000000E+00 -0.45593999997E+02  0.45594000000E+02  0.51100000000E-03 0.  1.
    9900012    2    1    2    0    0 -0.24729461665E+01  0.13259866987E+02  0.41251463691E+02  0.47787276597E+02  0.20000025314E+02 0.  0.
        -12    1    1    2    0    0  0.24729461665E+01 -0.13259866987E+02 -0.41251463691E+02  0.43400723403E+02  0.00000000000E+00 0.  1.
         11    1    3    3    0    0 -0.34697213735E+01  0.91425181863E+01  0.25369841598E+02  0.27189216027E+02  0.51100000000E-03 0. -1.
        -11    1    3    3    0    0  0.45759984782E+01  0.44267724924E+01  0.15766673657E+02  0.17003648880E+02  0.51100000000E-03 0.  1.
         12    1    3    3    0    0 -0.35792232712E+01 -0.30942369178E+00  0.11494843593E+00  0.35944116888E+01  0.00000000000E+00 0. -1.
</event>
<event>
 7    1  0.8440037E-011  0.4778727E+02  0.7816164E-02  0.1312668E+00
        -11   -1    0    0    0    0  0.00000000000E+00  0.00000000000E+00  0.45593999997E+02  0.45594000000E+02  0.51100000000E-03 0. -1.
         11   -1    0    0    0    0 -0.00000000000E+00 -0.00000000000E+00 -0.45593999997E+02  0.45594000000E+02  0.51100000000E-03 0.  1.
    9900012    2    1    2    0    0  0.19052059052E+02 -0.32314433872E+02 -0.21827036977E+02  0.47787272659E+02  0.20000007360E+02 0.  0.
         12    1    1    2    0    0 -0.19052059052E+02  0.32314433872E+02  0.21827036977E+02  0.43400727341E+02  0.00000000000E+00 0. -1.
         11    1    3    3    0    0  0.12130316974E+02 -0.11254017446E+02 -0.68204299071E+01  0.17897367487E+02  0.51100000000E-03 0. -1.
        -11    1    3    3    0    0  0.80753389647E+01 -0.48162375218E+01 -0.71288934919E+01  0.11799507021E+02  0.51100000000E-03 0.  1.
         12    1    3    3    0    0 -0.11535968871E+01 -0.16244178904E+02 -0.78777135778E+01  0.18090398151E+02  0.00000000000E+00 0. -1.
</event>
<event>
 7    1  0.8440037E-011  0.4778727E+02  0.7816164E-02  0.1312668E+00
        -11   -1    0    0    0    0  0.00000000000E+00  0.00000000000E+00  0.45593999997E+02  0.45594000000E+02  0.51100000000E-03 0. -1.
         11   -1    0    0    0    0 -0.00000000000E+00 -0.00000000000E+00 -0.45593999997E+02  0.45594000000E+02  0.51100000000E-03 0.  1.
    9900012    2    1    2    0    0 -0.31683622830E+02 -0.21140408704E+02  0.20805149845E+02  0.47787273095E+02  0.20000009349E+02 0.  0.
        -12    1    1    2    0    0  0.31683622830E+02  0.21140408704E+02 -0.20805149845E+02  0.43400726905E+02  0.00000000000E+00 0.  1.
         11    1    3    3    0    0 -0.43049258116E+01 -0.22821125403E+01 -0.35280927812E+01  0.60156348645E+01  0.51100000000E-03 0. -1.
        -11    1    3    3    0    0 -0.24178974481E+01 -0.30300396635E+01  0.54862715562E+01  0.67176293647E+01  0.51100000000E-03 0.  1.
         12    1    3    3    0    0 -0.24960799570E+02 -0.15828256500E+02  0.18846971070E+02  0.35054008866E+02  0.00000000000E+00 0. -1.
</event>
<event>
 7    1  0.8440037E-011  0.4778728E+02  0.7816164E-02  0.1312668E+00
        -11   -1    0    0    0    0  0.00000000000E+00  0.00000000000E+00  0.45593999997E+02  0.45594000000E+02  0.51100000000E-03 0. -1.
         11   -1    0    0    0    0 -0.00000000000E+00 -0.00000000000E+00 -0.45593999997E+02  0.45594000000E+02  0.51100000000E-03 0.  1.
    9900012    2    1    2    0    0  0.28584776382E+01  0.44369188206E+01 -0.43078599017E+02  0.47787276086E+02  0.20000022987E+02 0.  0.
         12    1    1    2    0    0 -0.28584776382E+01 -0.44369188206E+01  0.43078599017E+02  0.43400723914E+02  0.00000000000E+00 0. -1.
         11    1    3    3    0    0  0.61756540244E+01 -0.16554948445E+01 -0.85136792504E+01  0.10647163963E+02  0.51100000000E-03 0. -1.
        -11    1    3    3    0    0  0.30889209008E+01 -0.15438600268E+01 -0.11654841039E+02  0.12155667650E+02  0.51100000000E-03 0.  1.
         12    1    3    3    0    0 -0.64060972870E+01  0.76362736919E+01 -0.22910078728E+02  0.24984444474E+02  0.00000000000E+00 0. -1.
</event>
<event>
 7    1  0.8440037E-011  0.4778727E+02  0.7816164E-02  0.1312668E+00
        -11   -1    0    0    0    0  0.00000000000E+00  0.00000000000E+00  0.45593999997E+02  0.45594000000E+02  0.51100000000E-03 0.  1.
         11   -1    0    0    0    0 -0.00000000000E+00 -0.00000000000E+00 -0.45593999997E+02  0.45594000000E+02  0.51100000000E-03 0. -1.
    9900012    2    1    2    0    0  0.41237600115E+01  0.43204356789E+02 -0.39714104124E-01  0.47787269367E+02  0.19999992354E+02 0.  0.
         12    1    1    2    0    0 -0.41237600115E+01 -0.43204356789E+02  0.39714104124E-01  0.43400730633E+02  0.00000000000E+00 0. -1.
         11    1    3    3    0    0  0.49076433904E+01  0.36324816278E+01 -0.19266303251E+01  0.64024831975E+01  0.51100000000E-03 0. -1.
        -11    1    3    3    0    0 -0.24213912883E+01  0.26345087618E+02  0.65673545458E+01  0.27259070479E+02  0.51100000000E-03 0.  1.
         12    1    3    3    0    0  0.16375079094E+01  0.13226787544E+02 -0.46804383248E+01  0.14125715691E+02  0.00000000000E+00 0. -1.
</event>
<event>
 7    1  0.8440037E-011  0.4778728E+02  0.7816164E-02  0.1312668E+00
        -11   -1    0    0    0    0  0.00000000000E+00  0.00000000000E+00  0.45593999997E+02  0.45594000000E+02  0.51100000000E-03 0. -1.
         11   -1    0    0    0    0 -0.00000000000E+00 -0.00000000000E+00 -0.45593999997E+02  0.45594000000E+02  0.51100000000E-03 0.  1.
    9900012    2    1    2    0    0  0.11222277243E+02  0.97700665141E+00 -0.41913348438E+02  0.47787276206E+02  0.20000023534E+02 0.  0.
         12    1    1    2    0    0 -0.11222277243E+02 -0.97700665141E+00  0.41913348438E+02  0.43400723794E+02  0.00000000000E+00 0. -1.
         11    1    3    3    0    0  0.24920773751E+01  0.38844822473E+01 -0.22353002611E+01  0.51279839597E+01  0.51100000000E-03 0. -1.
        -11    1    3    3    0    0 -0.60968263760E+00  0.26339593025E+01 -0.20012758533E+02  0.20194552703E+02  0.51100000000E-03 0.  1.
         12    1    3    3    0    0  0.93398825050E+01 -0.55414348983E+01 -0.19665289644E+02  0.22464739543E+02  0.00000000000E+00 0. -1.
</event>
<event>
 7    1  0.8440037E-011  0.4778727E+02  0.7816164E-02  0.1312668E+00
        -11   -1    0    0    0    0  0.00000000000E+00  0.00000000000E+00  0.45593999997E+02  0.45594000000E+02  0.51100000000E-03 0. -1.
         11   -1    0    0    0    0 -0.00000000000E+00 -0.00000000000E+00 -0.45593999997E+02  0.45594000000E+02  0.51100000000E-03 0.  1.
    9900012    2    1    2    0    0 -0.18251567636E+02 -0.37742305701E+02  0.11225952891E+02  0.47787269832E+02  0.19999994472E+02 0.  0.
        -12    1    1    2    0    0  0.18251567636E+02  0.37742305701E+02 -0.11225952891E+02  0.43400730168E+02  0.00000000000E+00 0.  1.
         11    1    3    3    0    0  0.44681838927E+00 -0.93398962986E+01  0.49102017243E+01  0.10561410454E+02  0.51100000000E-03 0. -1.
        -11    1    3    3    0    0 -0.12164272529E+01 -0.25612222115E+01  0.52993055644E+01  0.60101742242E+01  0.51100000000E-03 0.  1.
        -12    1    3    3    0    0 -0.17481958772E+02 -0.25841187191E+02  0.10164456020E+01  0.31215685154E+02  0.00000000000E+00 0.  1.
</event>
<event>
 7    1  0.8440037E-011  0.4778727E+02  0.7816164E-02  0.1312668E+00
        -11   -1    0    0    0    0  0.00000000000E+00  0.00000000000E+00  0.45593999997E+02  0.45594000000E+02  0.51100000000E-03 0. -1.
         11   -1    0    0    0    0 -0.00000000000E+00 -0.00000000000E+00 -0.45593999997E+02  0.45594000000E+02  0.51100000000E-03 0.  1.
    9900012    2    1    2    0    0 -0.34859107434E+02 -0.12801523556E+02  0.22463014593E+02  0.47787269580E+02  0.19999993321E+02 0.  0.
        -12    1    1    2    0    0  0.34859107434E+02  0.12801523556E+02 -0.22463014593E+02  0.43400730420E+02  0.00000000000E+00 0.  1.
         11    1    3    3    0    0 -0.18338169105E+02 -0.48217124009E+01  0.13783850386E+02  0.23442096501E+02  0.51100000000E-03 0. -1.
        -11    1    3    3    0    0 -0.15892426777E+02 -0.11058967566E+02  0.61612331184E+01  0.20318237775E+02  0.51100000000E-03 0.  1.
         12    1    3    3    0    0 -0.62851155188E+00  0.30791564115E+01  0.25179310881E+01  0.40269353039E+01  0.00000000000E+00 0. -1.
</event>
<event>
 7    1  0.8440037E-011  0.4778727E+02  0.7816164E-02  0.1312668E+00
        -11   -1    0    0    0    0  0.00000000000E+00  0.00000000000E+00  0.45593999997E+02  0.45594000000E+02  0.51100000000E-03 0. -1.
         11   -1    0    0    0    0 -0.00000000000E+00 -0.00000000000E+00 -0.45593999997E+02  0.45594000000E+02  0.51100000000E-03 0.  1.
    9900012    2    1    2    0    0  0.14076238720E+01  0.35725708087E+02  0.24603162733E+02  0.47787271438E+02  0.20000001794E+02 0.  0.
        -12    1    1    2    0    0 -0.14076238720E+01 -0.35725708087E+02 -0.24603162733E+02  0.43400728562E+02  0.00000000000E+00 0.  1.
         11    1    3    3    0    0  0.18713765776E+01  0.25582049584E+01  0.96694240944E+01  0.10175668306E+02  0.51100000000E-03 0. -1.
        -11    1    3    3    0    0 -0.58719436051E+00  0.20243365631E+01 -0.13148683079E+01  0.24842734685E+01  0.51100000000E-03 0.  1.
        -12    1    3    3    0    0  0.12344165499E+00  0.31143166565E+02  0.16248606946E+02  0.35127329663E+02  0.00000000000E+00 0.  1.
</event>
<event>
 7    1  0.8440037E-011  0.4778727E+02  0.7816164E-02  0.1312668E+00
        -11   -1    0    0    0    0  0.00000000000E+00  0.00000000000E+00  0.45593999997E+02  0.45594000000E+02  0.51100000000E-03 0. -1.
         11   -1    0    0    0    0 -0.00000000000E+00 -0.00000000000E+00 -0.45593999997E+02  0.45594000000E+02  0.51100000000E-03 0.  1.
    9900012    2    1    2    0    0 -0.28933429449E+01 -0.10310053686E+02 -0.42058939435E+02  0.47787273891E+02  0.20000012978E+02 0.  0.
         12    1    1    2    0    0  0.28933429449E+01  0.10310053686E+02  0.42058939435E+02  0.43400726109E+02  0.00000000000E+00 0. -1.
         11    1    3    3    0    0 -0.35570075282E+00  0.45122868737E-01 -0.23868320188E+01  0.24136127374E+01  0.51100000000E-03 0. -1.
        -11    1    3    3    0    0 -0.80157512843E+01  0.17582917651E+01 -0.20126341655E+02  0.21735075046E+02  0.51100000000E-03 0.  1.
         12    1    3    3    0    0  0.54781090922E+01 -0.12113468320E+02 -0.19545765761E+02  0.23638586108E+02  0.00000000000E+00 0. -1.
</event>
<event>
 7    1  0.8440037E-011  0.4778726E+02  0.7816164E-02  0.1312668E+00
        -11   -1    0    0    0    0  0.00000000000E+00  0.00000000000E+00  0.45593999997E+02  0.45594000000E+02  0.51100000000E-03 0. -1.
         11   -1    0    0    0    0 -0.00000000000E+00 -0.00000000000E+00 -0.45593999997E+02  0.45594000000E+02  0.51100000000E-03 0.  1.
    9900012    2    1    2    0    0 -0.21864765841E+02 -0.13655461046E+02 -0.34915386264E+02  0.47787264987E+02  0.19999972382E+02 0.  0.
         12    1    1    2    0    0  0.21864765841E+02  0.13655461046E+02  0.34915386264E+02  0.43400735013E+02  0.00000000000E+00 0. -1.
         11    1    3    3    0    0 -0.40680954946E+01  0.31003336635E+01 -0.14711470778E+02  0.15575263802E+02  0.51100000000E-03 0. -1.
        -11    1    3    3    0    0 -0.10530889565E+02 -0.71842651429E+01 -0.78168485267E+01  0.14953809609E+02  0.51100000000E-03 0.  1.
         12    1    3    3    0    0 -0.72657807810E+01 -0.95715295670E+01 -0.12387066960E+02  0.17258191576E+02  0.00000000000E+00 0. -1.
</event>
<event>
 7    1  0.1577191E-010  0.4778725E+02  0.7816164E-02  0.1312668E+00
        -11   -1    0    0    0    0  0.00000000000E+00  0.00000000000E+00  0.45593999997E+02  0.45594000000E+02  0.51100000000E-03 0. -1.
         11   -1    0    0    0    0 -0.00000000000E+00 -0.00000000000E+00 -0.45593999997E+02  0.45594000000E+02  0.51100000000E-03 0.  1.
    9900012    2    1    2    0    0 -0.25697738045E+02  0.13847384445E+02  0.32116989039E+02  0.47787253676E+02  0.19999920810E+02 0.  0.
        -12    1    1    2    0    0  0.25697738045E+02 -0.13847384445E+02 -0.32116989039E+02  0.43400746324E+02  0.00000000000E+00 0.  1.
         11    1    3    3    0    0 -0.15214419455E+02  0.45059138738E+01  0.27444265953E+02  0.31701254757E+02  0.51100000000E-03 0. -1.
        -11    1    3    3    0    0  0.57954570370E+00  0.20012332373E+01  0.99893461875E+00  0.23105580119E+01  0.51100000000E-03 0.  1.
         12    1    3    3    0    0 -0.11062864293E+02  0.73402373340E+01  0.36737884671E+01  0.13775440907E+02  0.00000000000E+00 0. -1.
</event>
<event>
 7    1  0.8440037E-011  0.4778727E+02  0.7816164E-02  0.1312668E+00
        -11   -1    0    0    0    0  0.00000000000E+00  0.00000000000E+00  0.45593999997E+02  0.45594000000E+02  0.51100000000E-03 0. -1.
         11   -1    0    0    0    0 -0.00000000000E+00 -0.00000000000E+00 -0.45593999997E+02  0.45594000000E+02  0.51100000000E-03 0.  1.
    9900012    2    1    2    0    0  0.39664005305E+02 -0.50265207376E+01  0.16885618243E+02  0.47787270386E+02  0.19999996998E+02 0.  0.
        -12    1    1    2    0    0 -0.39664005305E+02  0.50265207376E+01 -0.16885618243E+02  0.43400729614E+02  0.00000000000E+00 0.  1.
         11    1    3    3    0    0  0.10373782669E+02  0.27983260179E+01 -0.80837203155E+00  0.10774945984E+02  0.51100000000E-03 0. -1.
        -11    1    3    3    0    0  0.99279227212E+00 -0.29461935001E+01 -0.30303241417E+00  0.31237031775E+01  0.51100000000E-03 0.  1.
         12    1    3    3    0    0  0.28297430364E+02 -0.48786532554E+01  0.17997022689E+02  0.33888621224E+02  0.00000000000E+00 0. -1.
</event>
<event>
 7    1  0.8440037E-011  0.4778727E+02  0.7816164E-02  0.1312668E+00
        -11   -1    0    0    0    0  0.00000000000E+00  0.00000000000E+00  0.45593999997E+02  0.45594000000E+02  0.51100000000E-03 0. -1.
         11   -1    0    0    0    0 -0.00000000000E+00 -0.00000000000E+00 -0.45593999997E+02  0.45594000000E+02  0.51100000000E-03 0.  1.
    9900012    2    1    2    0    0  0.16005071625E+01  0.32087578454E+02 -0.29179592997E+02  0.47787274641E+02  0.20000016399E+02 0.  0.
         12    1    1    2    0    0 -0.16005071625E+01 -0.32087578454E+02  0.29179592997E+02  0.43400725359E+02  0.00000000000E+00 0. -1.
         11    1    3    3    0    0 -0.19930882710E+01  0.16969416250E+02 -0.95046184639E+01  0.19551758518E+02  0.51100000000E-03 0. -1.
        -11    1    3    3    0    0 -0.40671619413E+01  0.10186708180E+02 -0.12563176584E+02  0.16677656788E+02  0.51100000000E-03 0.  1.
         12    1    3    3    0    0  0.76607573749E+01  0.49314540233E+01 -0.71117979493E+01  0.11557859335E+02  0.00000000000E+00 0. -1.
</event>
<event>
 7    1  0.8440037E-011  0.4778727E+02  0.7816164E-02  0.1312668E+00
        -11   -1    0    0    0    0  0.00000000000E+00  0.00000000000E+00  0.45593999997E+02  0.45594000000E+02  0.51100000000E-03 0. -1.
         11   -1    0    0    0    0 -0.00000000000E+00 -0.00000000000E+00 -0.45593999997E+02  0.45594000000E+02  0.51100000000E-03 0.  1.
    9900012    2    1    2    0    0  0.59827919246E+01 -0.17503681624E+01 -0.42950732103E+02  0.47787274475E+02  0.20000015641E+02 0.  0.
         12    1    1    2    0    0 -0.59827919246E+01  0.17503681624E+01  0.42950732103E+02  0.43400725525E+02  0.00000000000E+00 0. -1.
         11    1    3    3    0    0 -0.47015021809E+00 -0.38117564501E+01 -0.85266252638E+01  0.93516772352E+01  0.51100000000E-03 0. -1.
        -11    1    3    3    0    0 -0.25548530662E+01  0.87848557335E+00 -0.25694572441E+02  0.25836216137E+02  0.51100000000E-03 0.  1.
         12    1    3    3    0    0  0.90077952089E+01  0.11829027143E+01 -0.87295343981E+01  0.12599381102E+02  0.00000000000E+00 0. -1.
</event>
<event>
 7    1  0.8440037E-011  0.4778727E+02  0.7816164E-02  0.1312668E+00
        -11   -1    0    0    0    0  0.00000000000E+00  0.00000000000E+00  0.45593999997E+02  0.45594000000E+02  0.51100000000E-03 0. -1.
         11   -1    0    0    0    0 -0.00000000000E+00 -0.00000000000E+00 -0.45593999997E+02  0.45594000000E+02  0.51100000000E-03 0.  1.
    9900012    2    1    2    0    0 -0.62657583548E+01  0.83763614374E+01  0.42121255095E+02  0.47787270865E+02  0.19999999183E+02 0.  0.
        -12    1    1    2    0    0  0.62657583548E+01 -0.83763614374E+01 -0.42121255095E+02  0.43400729135E+02  0.00000000000E+00 0.  1.
         11    1    3    3    0    0  0.27057351305E+01 -0.10356871722E+00  0.80262817135E+01  0.84707099751E+01  0.51100000000E-03 0. -1.
        -11    1    3    3    0    0 -0.50365218740E+01 -0.21164108342E+00  0.26896370007E+02  0.27364686447E+02  0.51100000000E-03 0.  1.
        -12    1    3    3    0    0 -0.39349716114E+01  0.86915712380E+01  0.71986033742E+01  0.11951874443E+02  0.00000000000E+00 0.  1.
</event>
<event>
 7    1  0.8440037E-011  0.4778727E+02  0.7816164E-02  0.1312668E+00
        -11   -1    0    0    0    0  0.00000000000E+00  0.00000000000E+00  0.45593999997E+02  0.45594000000E+02  0.51100000000E-03 0. -1.
         11   -1    0    0    0    0 -0.00000000000E+00 -0.00000000000E+00 -0.45593999997E+02  0.45594000000E+02  0.51100000000E-03 0.  1.
    9900012    2    1    2    0    0  0.87712156944E+01 -0.31584883969E+00 -0.42503991370E+02  0.47787271116E+02  0.20000000328E+02 0.  0.
         12    1    1    2    0    0 -0.87712156944E+01  0.31584883969E+00  0.42503991370E+02  0.43400728884E+02  0.00000000000E+00 0. -1.
         11    1    3    3    0    0  0.19854690136E+01 -0.27114404153E-01 -0.26468531623E+02  0.26542908449E+02  0.51100000000E-03 0. -1.
        -11    1    3    3    0    0  0.68252339330E+01 -0.26031705928E+01 -0.17175297707E+02  0.18664167995E+02  0.51100000000E-03 0.  1.
         12    1    3    3    0    0 -0.39487252281E-01  0.23144361572E+01  0.11398379602E+01  0.25801946718E+01  0.00000000000E+00 0. -1.
</event>
<event>
 7    1  0.8440037E-011  0.4778727E+02  0.7816164E-02  0.1312668E+00
        -11   -1    0    0    0    0  0.00000000000E+00  0.00000000000E+00  0.45593999997E+02  0.45594000000E+02  0.51100000000E-03 0. -1.
         11   -1    0    0    0    0 -0.00000000000E+00 -0.00000000000E+00 -0.45593999997E+02  0.45594000000E+02  0.51100000000E-03 0.  1.
    9900012    2    1    2    0    0  0.23706647998E+01 -0.69793645472E+01 -0.42770220598E+02  0.47787270155E+02  0.19999995945E+02 0.  0.
         12    1    1    2    0    0 -0.23706647998E+01  0.69793645472E+01  0.42770220598E+02  0.43400729845E+02  0.00000000000E+00 0. -1.
         11    1    3    3    0    0  0.32162701949E+01 -0.46447026677E+00 -0.72289302445E+01  0.79257529192E+01  0.51100000000E-03 0. -1.
        -11    1    3    3    0    0 -0.29413405822E+01 -0.22437201090E+01  0.29464862000E+00  0.37111430070E+01  0.51100000000E-03 0.  1.
        -12    1    3    3    0    0  0.20957351870E+01 -0.42711741715E+01 -0.35835938973E+02  0.36150374229E+02  0.00000000000E+00 0.  1.
</event>
<event>
 7    1  0.8440037E-011  0.4778728E+02  0.7816164E-02  0.1312668E+00
        -11   -1    0    0    0    0  0.00000000000E+00  0.00000000000E+00  0.45593999997E+02  0.45594000000E+02  0.51100000000E-03 0. -1.
         11   -1    0    0    0    0 -0.00000000000E+00 -0.00000000000E+00 -0.45593999997E+02  0.45594000000E+02  0.51100000000E-03 0.  1.
    9900012    2    1    2    0    0  0.39429726292E+02 -0.49013188677E+00 -0.18129495021E+02  0.47787284171E+02  0.20000059851E+02 0.  0.
         12    1    1    2    0    0 -0.39429726292E+02  0.49013188677E+00  0.18129495021E+02  0.43400715829E+02  0.00000000000E+00 0. -1.
         11    1    3    3    0    0  0.10311848760E+01 -0.12158071662E+01 -0.72714713658E+00  0.17522193165E+01  0.51100000000E-03 0. -1.
        -11    1    3    3    0    0  0.15305844769E+02  0.85463852375E+01 -0.32026546495E+01  0.17820397913E+02  0.51100000000E-03 0.  1.
        -12    1    3    3    0    0  0.23092696647E+02 -0.78207099581E+01 -0.14199693235E+02  0.28214666942E+02  0.00000000000E+00 0.  1.
</event>
<event>
 7    1  0.8440037E-011  0.4778727E+02  0.7816164E-02  0.1312668E+00
        -11   -1    0    0    0    0  0.00000000000E+00  0.00000000000E+00  0.45593999997E+02  0.45594000000E+02  0.51100000000E-03 0. -1.
         11   -1    0    0    0    0 -0.00000000000E+00 -0.00000000000E+00 -0.45593999997E+02  0.45594000000E+02  0.51100000000E-03 0.  1.
    9900012    2    1    2    0    0  0.30924679603E+02 -0.23114782935E+02 -0.19824080387E+02  0.47787272335E+02  0.20000005883E+02 0.  0.
         12    1    1    2    0    0 -0.30924679603E+02  0.23114782935E+02  0.19824080387E+02  0.43400727665E+02  0.00000000000E+00 0. -1.
         11    1    3    3    0    0  0.15638685430E+02 -0.86036153108E+01 -0.76387866570E+01  0.19414987516E+02  0.51100000000E-03 0. -1.
        -11    1    3    3    0    0  0.14087937076E+02 -0.11859607927E+02 -0.15422031212E+02  0.24019977481E+02  0.51100000000E-03 0.  1.
         12    1    3    3    0    0  0.11980570964E+01 -0.26515596969E+01  0.32367374814E+01  0.43523073370E+01  0.00000000000E+00 0. -1.
</event>
<event>
 7    1  0.1214742E-010  0.4778727E+02  0.7816164E-02  0.1312668E+00
        -11   -1    0    0    0    0  0.00000000000E+00  0.00000000000E+00  0.45593999997E+02  0.45594000000E+02  0.51100000000E-03 0. -1.
         11   -1    0    0    0    0 -0.00000000000E+00 -0.00000000000E+00 -0.45593999997E+02  0.45594000000E+02  0.51100000000E-03 0.  1.
    9900012    2    1    2    0    0  0.20870567374E+02 -0.19774953748E+02  0.32511440465E+02  0.47787272594E+02  0.20000007065E+02 0.  0.
        -12    1    1    2    0    0 -0.20870567374E+02  0.19774953748E+02 -0.32511440465E+02  0.43400727406E+02  0.00000000000E+00 0.  1.
         11    1    3    3    0    0 -0.30678716833E+00 -0.44129009569E+01  0.20885667534E+01  0.48918222133E+01  0.51100000000E-03 0. -1.
        -11    1    3    3    0    0 -0.14506163485E+00 -0.30326532170E+01 -0.78774490053E+00  0.31366495982E+01  0.51100000000E-03 0.  1.
         12    1    3    3    0    0  0.21322416177E+02 -0.12329399574E+02  0.31210618612E+02  0.39758800782E+02  0.00000000000E+00 0. -1.
</event>
<event>
 7    1  0.8440037E-011  0.4778728E+02  0.7816164E-02  0.1312668E+00
        -11   -1    0    0    0    0  0.00000000000E+00  0.00000000000E+00  0.45593999997E+02  0.45594000000E+02  0.51100000000E-03 0. -1.
         11   -1    0    0    0    0 -0.00000000000E+00 -0.00000000000E+00 -0.45593999997E+02  0.45594000000E+02  0.51100000000E-03 0.  1.
    9900012    2    1    2    0    0  0.31080416118E+02  0.37032994083E+01 -0.30065197881E+02  0.47787276317E+02  0.20000024040E+02 0.  0.
         12    1    1    2    0    0 -0.31080416118E+02 -0.37032994083E+01  0.30065197881E+02  0.43400723683E+02  0.00000000000E+00 0. -1.
         11    1    3    3    0    0  0.34458801847E+01  0.48833862631E+01 -0.45815353660E+01  0.75307382250E+01  0.51100000000E-03 0. -1.
        -11    1    3    3    0    0  0.18819652070E+02  0.50777837032E+01 -0.20705507899E+02  0.28437321410E+02  0.51100000000E-03 0.  1.
        -12    1    3    3    0    0  0.88148838632E+01 -0.62578705580E+01 -0.47781546164E+01  0.11819216682E+02  0.00000000000E+00 0.  1.
</event>
<event>
 7    1  0.8440037E-011  0.4778727E+02  0.7816164E-02  0.1312668E+00
        -11   -1    0    0    0    0  0.00000000000E+00  0.00000000000E+00  0.45593999997E+02  0.45594000000E+02  0.51100000000E-03 0. -1.
         11   -1    0    0    0    0 -0.00000000000E+00 -0.00000000000E+00 -0.45593999997E+02  0.45594000000E+02  0.51100000000E-03 0.  1.
    9900012    2    1    2    0    0  0.97635382376E+01 -0.18216823146E+02 -0.38163384379E+02  0.47787271530E+02  0.20000002213E+02 0.  0.
         12    1    1    2    0    0 -0.97635382376E+01  0.18216823146E+02  0.38163384379E+02  0.43400728470E+02  0.00000000000E+00 0. -1.
         11    1    3    3    0    0 -0.22513713593E+01 -0.12964419739E+01 -0.97217097396E+01  0.10062856220E+02  0.51100000000E-03 0. -1.
        -11    1    3    3    0    0  0.82035861123E+01 -0.18802250719E+02 -0.22995729280E+02  0.30816018928E+02  0.51100000000E-03 0.  1.
        -12    1    3    3    0    0  0.38113234845E+01  0.18818695471E+01 -0.54459453600E+01  0.69083963813E+01  0.00000000000E+00 0.  1.
</event>
<event>
 7    1  0.8440037E-011  0.4778727E+02  0.7816164E-02  0.1312668E+00
        -11   -1    0    0    0    0  0.00000000000E+00  0.00000000000E+00  0.45593999997E+02  0.45594000000E+02  0.51100000000E-03 0. -1.
         11   -1    0    0    0    0 -0.00000000000E+00 -0.00000000000E+00 -0.45593999997E+02  0.45594000000E+02  0.51100000000E-03 0.  1.
    9900012    2    1    2    0    0 -0.15279766237E+02  0.32499532086E+02 -0.24370737830E+02  0.47787266084E+02  0.19999977384E+02 0.  0.
         12    1    1    2    0    0  0.15279766237E+02 -0.32499532086E+02  0.24370737830E+02  0.43400733916E+02  0.00000000000E+00 0. -1.
         11    1    3    3    0    0 -0.13099187830E+01  0.43756984768E+01 -0.16784252705E+01  0.48661829011E+01  0.51100000000E-03 0.  1.
        -11    1    3    3    0    0  0.39417580257E+01  0.10857813311E+02 -0.69796437831E+01  0.13496110322E+02  0.51100000000E-03 0. -1.
         12    1    3    3    0    0 -0.17911605479E+02  0.17266020298E+02 -0.15712668776E+02  0.29424972861E+02  0.00000000000E+00 0. -1.
</event>
<event>
 7    1  0.8440037E-011  0.4778728E+02  0.7816164E-02  0.1312668E+00
        -11   -1    0    0    0    0  0.00000000000E+00  0.00000000000E+00  0.45593999997E+02  0.45594000000E+02  0.51100000000E-03 0. -1.
         11   -1    0    0    0    0 -0.00000000000E+00 -0.00000000000E+00 -0.45593999997E+02  0.45594000000E+02  0.51100000000E-03 0.  1.
    9900012    2    1    2    0    0 -0.40844094839E+02 -0.85053031938E+01 -0.11960021401E+02  0.47787281371E+02  0.20000047083E+02 0.  0.
         12    1    1    2    0    0  0.40844094839E+02  0.85053031938E+01  0.11960021401E+02  0.43400718629E+02  0.00000000000E+00 0. -1.
         11    1    3    3    0    0 -0.19179416523E+01  0.15646367285E+01 -0.27520409486E+01  0.37013940506E+01  0.51100000000E-03 0. -1.
        -11    1    3    3    0    0 -0.60982227362E+01  0.33364400428E+01  0.13634751706E+01  0.70837290675E+01  0.51100000000E-03 0.  1.
         12    1    3    3    0    0 -0.32827930450E+02 -0.13406379965E+02 -0.10571455623E+02  0.37002158253E+02  0.00000000000E+00 0. -1.
</event>
<event>
 7    1  0.8440037E-011  0.4778727E+02  0.7816164E-02  0.1312668E+00
        -11   -1    0    0    0    0  0.00000000000E+00  0.00000000000E+00  0.45593999997E+02  0.45594000000E+02  0.51100000000E-03 0. -1.
         11   -1    0    0    0    0 -0.00000000000E+00 -0.00000000000E+00 -0.45593999997E+02  0.45594000000E+02  0.51100000000E-03 0.  1.
    9900012    2    1    2    0    0 -0.98478668553E+01 -0.25600479099E+01  0.42191102867E+02  0.47787268577E+02  0.19999988750E+02 0.  0.
        -12    1    1    2    0    0  0.98478668553E+01  0.25600479099E+01 -0.42191102867E+02  0.43400731423E+02  0.00000000000E+00 0.  1.
         11    1    3    3    0    0  0.31735859547E+01 -0.57281745496E+00  0.88091876340E+01  0.93809143841E+01  0.51100000000E-03 0. -1.
        -11    1    3    3    0    0  0.23055226432E+01  0.17143188969E+01  0.82676458854E+01  0.87526163338E+01  0.51100000000E-03 0.  1.
        -12    1    3    3    0    0 -0.15326975453E+02 -0.37015493518E+01  0.25114269348E+02  0.29653737859E+02  0.00000000000E+00 0.  1.
</event>
<event>
 7    1  0.8440037E-011  0.4778727E+02  0.7816164E-02  0.1312668E+00
        -11   -1    0    0    0    0  0.00000000000E+00  0.00000000000E+00  0.45593999997E+02  0.45594000000E+02  0.51100000000E-03 0. -1.
         11   -1    0    0    0    0 -0.00000000000E+00 -0.00000000000E+00 -0.45593999997E+02  0.45594000000E+02  0.51100000000E-03 0.  1.
    9900012    2    1    2    0    0  0.31096261707E+00  0.26196557235E+02 -0.34601550166E+02  0.47787267488E+02  0.19999983786E+02 0.  0.
         12    1    1    2    0    0 -0.31096261707E+00 -0.26196557235E+02  0.34601550166E+02  0.43400732512E+02  0.00000000000E+00 0. -1.
         11    1    3    3    0    0  0.10736096439E+01  0.28827918601E+01  0.22589234232E+00  0.30845022593E+01  0.51100000000E-03 0. -1.
        -11    1    3    3    0    0  0.26046878248E+01  0.14803786602E+02 -0.95224590062E+01  0.17793642747E+02  0.51100000000E-03 0.  1.
        -12    1    3    3    0    0 -0.33673348516E+01  0.85099787721E+01 -0.25304983502E+02  0.26909122482E+02  0.00000000000E+00 0.  1.
</event>
<event>
 7    1  0.8440037E-011  0.4778727E+02  0.7816164E-02  0.1312668E+00
        -11   -1    0    0    0    0  0.00000000000E+00  0.00000000000E+00  0.45593999997E+02  0.45594000000E+02  0.51100000000E-03 0.  1.
         11   -1    0    0    0    0 -0.00000000000E+00 -0.00000000000E+00 -0.45593999997E+02  0.45594000000E+02  0.51100000000E-03 0. -1.
    9900012    2    1    2    0    0 -0.11087120066E+02  0.37700643485E+02  0.18421741975E+02  0.47787270422E+02  0.19999997160E+02 0.  0.
        -12    1    1    2    0    0  0.11087120066E+02 -0.37700643485E+02 -0.18421741975E+02  0.43400729578E+02  0.00000000000E+00 0.  1.
         11    1    3    3    0    0 -0.27924616436E+01  0.63860785424E+01 -0.37253215631E+01  0.79030286720E+01  0.51100000000E-03 0. -1.
        -11    1    3    3    0    0 -0.60942150972E+01  0.10167458051E+02  0.68382183992E+01  0.13684951297E+02  0.51100000000E-03 0.  1.
         12    1    3    3    0    0 -0.22004433255E+01  0.21147106892E+02  0.15308845139E+02  0.26199290453E+02  0.00000000000E+00 0. -1.
</event>
<event>
 7    1  0.8440037E-011  0.4778728E+02  0.7816164E-02  0.1312668E+00
        -11   -1    0    0    0    0  0.00000000000E+00  0.00000000000E+00  0.45593999997E+02  0.45594000000E+02  0.51100000000E-03 0. -1.
         11   -1    0    0    0    0 -0.00000000000E+00 -0.00000000000E+00 -0.45593999997E+02  0.45594000000E+02  0.51100000000E-03 0.  1.
    9900012    2    1    2    0    0  0.11832961331E+02 -0.18906277111E+02 -0.37231123927E+02  0.47787275618E+02  0.20000020852E+02 0.  0.
         12    1    1    2    0    0 -0.11832961331E+02  0.18906277111E+02  0.37231123927E+02  0.43400724382E+02  0.00000000000E+00 0. -1.
         11    1    3    3    0    0  0.19849162709E+01 -0.96281795219E+01 -0.56922989119E+01  0.11359753548E+02  0.51100000000E-03 0. -1.
        -11    1    3    3    0    0  0.79081175607E+01 -0.10675619612E+02 -0.16423908288E+02  0.21124676120E+02  0.51100000000E-03 0.  1.
        -12    1    3    3    0    0  0.19399274998E+01  0.13975220234E+01 -0.15114916726E+02  0.15302845950E+02  0.00000000000E+00 0.  1.
</event>
<event>
 7    1  0.8440037E-011  0.4778728E+02  0.7816164E-02  0.1312668E+00
        -11   -1    0    0    0    0  0.00000000000E+00  0.00000000000E+00  0.45593999997E+02  0.45594000000E+02  0.51100000000E-03 0. -1.
         11   -1    0    0    0    0 -0.00000000000E+00 -0.00000000000E+00 -0.45593999997E+02  0.45594000000E+02  0.51100000000E-03 0.  1.
    9900012    2    1    2    0    0 -0.15622305179E+02  0.26637655296E+02  0.30495931194E+02  0.47787275143E+02  0.20000018685E+02 0.  0.
        -12    1    1    2    0    0  0.15622305179E+02 -0.26637655296E+02 -0.30495931194E+02  0.43400724857E+02  0.00000000000E+00 0.  1.
         11    1    3    3    0    0 -0.15538502137E+02  0.24857646708E+02  0.18911074468E+02  0.34885188638E+02  0.51100000000E-03 0. -1.
        -11    1    3    3    0    0  0.14806163752E+01  0.20478076460E+01  0.21009735581E+01  0.32863096565E+01  0.51100000000E-03 0.  1.
        -12    1    3    3    0    0 -0.15644194166E+01 -0.26779905770E+00  0.94838831679E+01  0.96157768479E+01  0.00000000000E+00 0.  1.
</event>
<event>
 7    1  0.8440037E-011  0.4778725E+02  0.7816164E-02  0.1312668E+00
        -11   -1    0    0    0    0  0.00000000000E+00  0.00000000000E+00  0.45593999997E+02  0.45594000000E+02  0.51100000000E-03 0. -1.
         11   -1    0    0    0    0 -0.00000000000E+00 -0.00000000000E+00 -0.45593999997E+02  0.45594000000E+02  0.51100000000E-03 0.  1.
    9900012    2    1    2    0    0  0.21589811494E+02  0.33426654972E+02 -0.17325234568E+02  0.47787251437E+02  0.19999910602E+02 0.  0.
         12    1    1    2    0    0 -0.21589811494E+02 -0.33426654972E+02  0.17325234568E+02  0.43400748563E+02  0.00000000000E+00 0. -1.
         11    1    3    3    0    0 -0.74229140953E-01  0.75517589016E+01  0.40917782916E+00  0.75632003299E+01  0.51100000000E-03 0. -1.
        -11    1    3    3    0    0  0.15372499426E+02  0.19585350830E+02 -0.62011556231E+01  0.25658410650E+02  0.51100000000E-03 0.  1.
         12    1    3    3    0    0  0.62915412095E+01  0.62895452402E+01 -0.11533256774E+02  0.14565640457E+02  0.00000000000E+00 0. -1.
</event>
<event>
 7    1  0.8440037E-011  0.4778728E+02  0.7816164E-02  0.1312668E+00
        -11   -1    0    0    0    0  0.00000000000E+00  0.00000000000E+00  0.45593999997E+02  0.45594000000E+02  0.51100000000E-03 0.  1.
         11   -1    0    0    0    0 -0.00000000000E+00 -0.00000000000E+00 -0.45593999997E+02  0.45594000000E+02  0.51100000000E-03 0. -1.
    9900012    2    1    2    0    0  0.35984023182E+02 -0.19671108288E+02  0.14206344286E+02  0.47787278306E+02  0.20000033107E+02 0.  0.
        -12    1    1    2    0    0 -0.35984023182E+02  0.19671108288E+02 -0.14206344286E+02  0.43400721694E+02  0.00000000000E+00 0.  1.
         11    1    3    3    0    0  0.14129834325E+02 -0.40469337975E+01  0.74366987952E+00  0.14716756993E+02  0.51100000000E-03 0. -1.
        -11    1    3    3    0    0  0.22475570445E+02 -0.11287924582E+02  0.13779978104E+02  0.28678499002E+02  0.51100000000E-03 0.  1.
        -12    1    3    3    0    0 -0.62138158911E+00 -0.43362499080E+01 -0.31730369716E+00  0.43920223110E+01  0.00000000000E+00 0.  1.
</event>
<event>
 7    1  0.8440037E-011  0.4778727E+02  0.7816164E-02  0.1312668E+00
        -11   -1    0    0    0    0  0.00000000000E+00  0.00000000000E+00  0.45593999997E+02  0.45594000000E+02  0.51100000000E-03 0. -1.
         11   -1    0    0    0    0 -0.00000000000E+00 -0.00000000000E+00 -0.45593999997E+02  0.45594000000E+02  0.51100000000E-03 0.  1.
    9900012    2    1    2    0    0 -0.18795349994E+01 -0.33446234594E+02 -0.27594201951E+02  0.47787271416E+02  0.20000001694E+02 0.  0.
         12    1    1    2    0    0  0.18795349994E+01  0.33446234594E+02  0.27594201951E+02  0.43400728584E+02  0.00000000000E+00 0. -1.
         11    1    3    3    0    0 -0.50499629925E+01 -0.73051821262E+01 -0.14307979590E+02  0.16840014618E+02  0.51100000000E-03 0. -1.
        -11    1    3    3    0    0 -0.25381838325E+01 -0.35721472075E+01 -0.38313406650E+01  0.58208061634E+01  0.51100000000E-03 0.  1.
        -12    1    3    3    0    0  0.57086118256E+01 -0.22568905260E+02 -0.94548816960E+01  0.25126450635E+02  0.00000000000E+00 0.  1.
</event>
<event>
 7    1  0.8440037E-011  0.4778727E+02  0.7816164E-02  0.1312668E+00
        -11   -1    0    0    0    0  0.00000000000E+00  0.00000000000E+00  0.45593999997E+02  0.45594000000E+02  0.51100000000E-03 0. -1.
         11   -1    0    0    0    0 -0.00000000000E+00 -0.00000000000E+00 -0.45593999997E+02  0.45594000000E+02  0.51100000000E-03 0.  1.
    9900012    2    1    2    0    0  0.27026734329E+02  0.59429076408E+01 -0.33434424491E+02  0.47787271196E+02  0.20000000690E+02 0.  0.
         12    1    1    2    0    0 -0.27026734329E+02 -0.59429076408E+01  0.33434424491E+02  0.43400728804E+02  0.00000000000E+00 0. -1.
         11    1    3    3    0    0  0.10818387870E+02  0.18311348483E+01 -0.96382301963E+01  0.14604316229E+02  0.51100000000E-03 0. -1.
        -11    1    3    3    0    0  0.29435803379E+01 -0.56019641801E+01 -0.93889516175E+01  0.11322503284E+02  0.51100000000E-03 0.  1.
        -12    1    3    3    0    0  0.13264766121E+02  0.97137369726E+01 -0.14407242677E+02  0.21860451683E+02  0.00000000000E+00 0.  1.
</event>
<event>
 7    1  0.8440037E-011  0.4778727E+02  0.7816164E-02  0.1312668E+00
        -11   -1    0    0    0    0  0.00000000000E+00  0.00000000000E+00  0.45593999997E+02  0.45594000000E+02  0.51100000000E-03 0.  1.
         11   -1    0    0    0    0 -0.00000000000E+00 -0.00000000000E+00 -0.45593999997E+02  0.45594000000E+02  0.51100000000E-03 0. -1.
    9900012    2    1    2    0    0 -0.12068226959E+02  0.34908562558E+02  0.22789766205E+02  0.47787270911E+02  0.19999999391E+02 0.  0.
        -12    1    1    2    0    0  0.12068226959E+02 -0.34908562558E+02 -0.22789766205E+02  0.43400729089E+02  0.00000000000E+00 0.  1.
         11    1    3    3    0    0  0.43536086427E+01  0.79549729155E+01  0.68141612004E+01  0.11343204813E+02  0.51100000000E-03 0. -1.
        -11    1    3    3    0    0 -0.32744947004E+01  0.10432272004E+02  0.19782292372E+01  0.11111615809E+02  0.51100000000E-03 0.  1.
        -12    1    3    3    0    0 -0.13147340901E+02  0.16521317639E+02  0.13997375767E+02  0.25332450289E+02  0.00000000000E+00 0.  1.
</event>
<event>
 7    1  0.8440037E-011  0.4778728E+02  0.7816164E-02  0.1312668E+00
        -11   -1    0    0    0    0  0.00000000000E+00  0.00000000000E+00  0.45593999997E+02  0.45594000000E+02  0.51100000000E-03 0. -1.
         11   -1    0    0    0    0 -0.00000000000E+00 -0.00000000000E+00 -0.45593999997E+02  0.45594000000E+02  0.51100000000E-03 0.  1.
    9900012    2    1    2    0    0  0.32299136044E+02 -0.70436832714E+01  0.28120726549E+02  0.47787275065E+02  0.20000018333E+02 0.  0.
        -12    1    1    2    0    0 -0.32299136044E+02  0.70436832714E+01 -0.28120726549E+02  0.43400724935E+02  0.00000000000E+00 0.  1.
         11    1    3    3    0    0  0.14141242470E+02  0.53490011316E+01  0.11848452604E+02  0.19208653807E+02  0.51100000000E-03 0. -1.
        -11    1    3    3    0    0  0.32649311578E+01  0.94598194567E+00  0.33531499690E+01  0.47747536358E+01  0.51100000000E-03 0.  1.
        -12    1    3    3    0    0  0.14892962416E+02 -0.13338666349E+02  0.12919123976E+02  0.23803867622E+02  0.00000000000E+00 0.  1.
</event>
<event>
 7    1  0.8440037E-011  0.4778730E+02  0.7816164E-02  0.1312668E+00
        -11   -1    0    0    0    0  0.00000000000E+00  0.00000000000E+00  0.45593999997E+02  0.45594000000E+02  0.51100000000E-03 0. -1.
         11   -1    0    0    0    0 -0.00000000000E+00 -0.00000000000E+00 -0.45593999997E+02  0.45594000000E+02  0.51100000000E-03 0.  1.
    9900012    2    1    2    0    0 -0.13581608110E+02 -0.22580321518E+02 -0.34486083279E+02  0.47787297948E+02  0.20000122662E+02 0.  0.
         12    1    1    2    0    0  0.13581608110E+02  0.22580321518E+02  0.34486083279E+02  0.43400702052E+02  0.00000000000E+00 0. -1.
         11    1    3    3    0    0  0.11166488372E+01 -0.44599505344E+01 -0.10228413367E+01  0.47100178403E+01  0.51100000000E-03 0. -1.
        -11    1    3    3    0    0 -0.17279394618E+02 -0.16814858248E+02 -0.28478515134E+02  0.37314109406E+02  0.51100000000E-03 0.  1.
         12    1    3    3    0    0  0.25811376709E+01 -0.13055127361E+01 -0.49847268082E+01  0.57631707014E+01  0.00000000000E+00 0. -1.
</event>
<event>
 7    1  0.8440037E-011  0.4778727E+02  0.7816164E-02  0.1312668E+00
        -11   -1    0    0    0    0  0.00000000000E+00  0.00000000000E+00  0.45593999997E+02  0.45594000000E+02  0.51100000000E-03 0. -1.
         11   -1    0    0    0    0 -0.00000000000E+00 -0.00000000000E+00 -0.45593999997E+02  0.45594000000E+02  0.51100000000E-03 0.  1.
    9900012    2    1    2    0    0  0.72741677629E+01  0.22841567075E+02 -0.36179724315E+02  0.47787272418E+02  0.20000006265E+02 0.  0.
         12    1    1    2    0    0 -0.72741677629E+01 -0.22841567075E+02  0.36179724315E+02  0.43400727582E+02  0.00000000000E+00 0. -1.
         11    1    3    3    0    0  0.89202086539E+00  0.80356222814E+00 -0.79926992085E+01  0.80823668796E+01  0.51100000000E-03 0. -1.
        -11    1    3    3    0    0  0.87236891198E+01  0.10563292421E+02 -0.67384551147E+01  0.15267372931E+02  0.51100000000E-03 0.  1.
        -12    1    3    3    0    0 -0.23415422223E+01  0.11474712426E+02 -0.21448569992E+02  0.24437532607E+02  0.00000000000E+00 0.  1.
</event>
<event>
 7    1  0.8440037E-011  0.4778726E+02  0.7816164E-02  0.1312668E+00
        -11   -1    0    0    0    0  0.00000000000E+00  0.00000000000E+00  0.45593999997E+02  0.45594000000E+02  0.51100000000E-03 0. -1.
         11   -1    0    0    0    0 -0.00000000000E+00 -0.00000000000E+00 -0.45593999997E+02  0.45594000000E+02  0.51100000000E-03 0.  1.
    9900012    2    1    2    0    0 -0.10621195163E+02 -0.23426566075E+02 -0.34957266755E+02  0.47787259410E+02  0.19999946955E+02 0.  0.
         12    1    1    2    0    0  0.10621195163E+02  0.23426566075E+02  0.34957266755E+02  0.43400740590E+02  0.00000000000E+00 0. -1.
         11    1    3    3    0    0 -0.83786415977E+01 -0.10574189169E+02 -0.69060581990E+01  0.15156145674E+02  0.51100000000E-03 0. -1.
        -11    1    3    3    0    0  0.14316431818E+01 -0.12578765100E+02 -0.18721019307E+02  0.22599811897E+02  0.51100000000E-03 0.  1.
        -12    1    3    3    0    0 -0.36741967471E+01 -0.27361180690E+00 -0.93301892489E+01  0.10031301839E+02  0.00000000000E+00 0.  1.
</event>
<event>
 7    1  0.8440037E-011  0.4778727E+02  0.7816164E-02  0.1312668E+00
        -11   -1    0    0    0    0  0.00000000000E+00  0.00000000000E+00  0.45593999997E+02  0.45594000000E+02  0.51100000000E-03 0. -1.
         11   -1    0    0    0    0 -0.00000000000E+00 -0.00000000000E+00 -0.45593999997E+02  0.45594000000E+02  0.51100000000E-03 0.  1.
    9900012    2    1    2    0    0 -0.17308750529E+02 -0.21508259614E+02  0.33487687911E+02  0.47787270535E+02  0.19999997677E+02 0.  0.
        -12    1    1    2    0    0  0.17308750529E+02  0.21508259614E+02 -0.33487687911E+02  0.43400729465E+02  0.00000000000E+00 0.  1.
         11    1    3    3    0    0 -0.37651642110E+01 -0.22128865651E+00  0.76401805693E+01  0.85204336508E+01  0.51100000000E-03 0.  1.
        -11    1    3    3    0    0 -0.78472612222E-01 -0.55832935787E+01  0.14794060914E+02  0.15812765846E+02  0.51100000000E-03 0. -1.
         12    1    3    3    0    0 -0.13465113705E+02 -0.15703677378E+02  0.11053446428E+02  0.23454071038E+02  0.00000000000E+00 0. -1.
</event>
<event>
 7    1  0.8440037E-011  0.4778727E+02  0.7816164E-02  0.1312668E+00
        -11   -1    0    0    0    0  0.00000000000E+00  0.00000000000E+00  0.45593999997E+02  0.45594000000E+02  0.51100000000E-03 0. -1.
         11   -1    0    0    0    0 -0.00000000000E+00 -0.00000000000E+00 -0.45593999997E+02  0.45594000000E+02  0.51100000000E-03 0.  1.
    9900012    2    1    2    0    0 -0.80848938318E+01 -0.29744491825E+02  0.30553610443E+02  0.47787269438E+02  0.19999992674E+02 0.  0.
        -12    1    1    2    0    0  0.80848938318E+01  0.29744491825E+02 -0.30553610443E+02  0.43400730562E+02  0.00000000000E+00 0.  1.
         11    1    3    3    0    0 -0.89656139786E+01 -0.80236726925E+01  0.20168427723E+02  0.23484612719E+02  0.51100000000E-03 0. -1.
        -11    1    3    3    0    0 -0.79864746662E+00 -0.23061698630E+01  0.68567781762E+00  0.25350367933E+01  0.51100000000E-03 0.  1.
        -12    1    3    3    0    0  0.16793676134E+01 -0.19414649270E+02  0.96995049027E+01  0.21767619925E+02  0.00000000000E+00 0.  1.
</event>
<event>
 7    1  0.8440037E-011  0.4778726E+02  0.7816164E-02  0.1312668E+00
        -11   -1    0    0    0    0  0.00000000000E+00  0.00000000000E+00  0.45593999997E+02  0.45594000000E+02  0.51100000000E-03 0. -1.
         11   -1    0    0    0    0 -0.00000000000E+00 -0.00000000000E+00 -0.45593999997E+02  0.45594000000E+02  0.51100000000E-03 0.  1.
    9900012    2    1    2    0    0  0.33647690204E+02  0.67963277255E+01  0.26556862989E+02  0.47787261545E+02  0.19999956690E+02 0.  0.
        -12    1    1    2    0    0 -0.33647690204E+02 -0.67963277255E+01 -0.26556862989E+02  0.43400738455E+02  0.00000000000E+00 0.  1.
         11    1    3    3    0    0  0.19553579408E+02  0.98305454592E+01  0.20804571654E+02  0.30196229793E+02  0.51100000000E-03 0.  1.
        -11    1    3    3    0    0  0.71601975089E+01  0.21936214533E+01  0.47054448501E+01  0.88442984428E+01  0.51100000000E-03 0. -1.
        -12    1    3    3    0    0  0.69339132867E+01 -0.52278391870E+01  0.10468464841E+01  0.87467333099E+01  0.00000000000E+00 0.  1.
</event>
<event>
 7    1  0.8440037E-011  0.4778727E+02  0.7816164E-02  0.1312668E+00
        -11   -1    0    0    0    0  0.00000000000E+00  0.00000000000E+00  0.45593999997E+02  0.45594000000E+02  0.51100000000E-03 0. -1.
         11   -1    0    0    0    0 -0.00000000000E+00 -0.00000000000E+00 -0.45593999997E+02  0.45594000000E+02  0.51100000000E-03 0.  1.
    9900012    2    1    2    0    0 -0.11495013560E+02 -0.33849998288E+02 -0.24610275209E+02  0.47787269974E+02  0.19999995121E+02 0.  0.
         12    1    1    2    0    0  0.11495013560E+02  0.33849998288E+02  0.24610275209E+02  0.43400730026E+02  0.00000000000E+00 0. -1.
         11    1    3    3    0    0 -0.40037236869E+01 -0.22839828952E+02 -0.12589262623E+02  0.26385168629E+02  0.51100000000E-03 0. -1.
        -11    1    3    3    0    0 -0.39275099335E+01 -0.94734436897E+01 -0.13750125708E+02  0.17153350311E+02  0.51100000000E-03 0.  1.
         12    1    3    3    0    0 -0.35637799396E+01 -0.15367256465E+01  0.17291131216E+01  0.42487510351E+01  0.00000000000E+00 0. -1.
</event>
<event>
 7    1  0.8440037E-011  0.4778727E+02  0.7816164E-02  0.1312668E+00
        -11   -1    0    0    0    0  0.00000000000E+00  0.00000000000E+00  0.45593999997E+02  0.45594000000E+02  0.51100000000E-03 0. -1.
         11   -1    0    0    0    0 -0.00000000000E+00 -0.00000000000E+00 -0.45593999997E+02  0.45594000000E+02  0.51100000000E-03 0.  1.
    9900012    2    1    2    0    0  0.10455619454E+02  0.77377670995E+01 -0.41405675753E+02  0.47787274172E+02  0.20000014260E+02 0.  0.
         12    1    1    2    0    0 -0.10455619454E+02 -0.77377670995E+01  0.41405675753E+02  0.43400725828E+02  0.00000000000E+00 0. -1.
         11    1    3    3    0    0 -0.43104141479E-01  0.15296660192E+01  0.98767164073E+00  0.18213268867E+01  0.51100000000E-03 0. -1.
        -11    1    3    3    0    0 -0.81817545185E+00  0.63814448194E+01 -0.14458502047E+02  0.15825312975E+02  0.51100000000E-03 0.  1.
        -12    1    3    3    0    0  0.11316899047E+02 -0.17334373908E+00 -0.27934845346E+02  0.30140634310E+02  0.00000000000E+00 0.  1.
</event>
<event>
 7    1  0.8440037E-011  0.4778727E+02  0.7816164E-02  0.1312668E+00
        -11   -1    0    0    0    0  0.00000000000E+00  0.00000000000E+00  0.45593999997E+02  0.45594000000E+02  0.51100000000E-03 0.  1.
         11   -1    0    0    0    0 -0.00000000000E+00 -0.00000000000E+00 -0.45593999997E+02  0.45594000000E+02  0.51100000000E-03 0. -1.
    9900012    2    1    2    0    0  0.12651373500E+01  0.37477827077E+02 -0.21850283814E+02  0.47787274226E+02  0.20000014508E+02 0.  0.
         12    1    1    2    0    0 -0.12651373500E+01 -0.37477827077E+02  0.21850283814E+02  0.43400725774E+02  0.00000000000E+00 0. -1.
         11    1    3    3    0    0  0.15000977095E+01  0.37493681261E+01  0.60127211742E+00  0.40828400536E+01  0.51100000000E-03 0. -1.
        -11    1    3    3    0    0  0.43111579749E+01  0.29668514539E+02 -0.13511103970E+02  0.32883989550E+02  0.51100000000E-03 0.  1.
         12    1    3    3    0    0 -0.45461183344E+01  0.40599444120E+01 -0.89404519623E+01  0.10820444623E+02  0.00000000000E+00 0. -1.
</event>
<event>
 7    1  0.8440037E-011  0.4778727E+02  0.7816164E-02  0.1312668E+00
        -11   -1    0    0    0    0  0.00000000000E+00  0.00000000000E+00  0.45593999997E+02  0.45594000000E+02  0.51100000000E-03 0. -1.
         11   -1    0    0    0    0 -0.00000000000E+00 -0.00000000000E+00 -0.45593999997E+02  0.45594000000E+02  0.51100000000E-03 0.  1.
    9900012    2    1    2    0    0 -0.19347654258E+02  0.38788585781E+02 -0.21766211237E+01  0.47787265079E+02  0.19999972802E+02 0.  0.
         12    1    1    2    0    0  0.19347654258E+02 -0.38788585781E+02  0.21766211237E+01  0.43400734921E+02  0.00000000000E+00 0. -1.
         11    1    3    3    0    0 -0.63692221114E+01  0.51431437209E+01 -0.47703412974E+01  0.94749709231E+01  0.51100000000E-03 0. -1.
        -11    1    3    3    0    0 -0.11566270116E+02  0.21331554027E+02 -0.34727467538E+01  0.24512726733E+02  0.51100000000E-03 0.  1.
        -12    1    3    3    0    0 -0.14121620310E+01  0.12313888033E+02  0.60664669275E+01  0.13799567423E+02  0.00000000000E+00 0.  1.
</event>
<event>
 7    1  0.8440037E-011  0.4778721E+02  0.7816164E-02  0.1312668E+00
        -11   -1    0    0    0    0  0.00000000000E+00  0.00000000000E+00  0.45593999997E+02  0.45594000000E+02  0.51100000000E-03 0. -1.
         11   -1    0    0    0    0 -0.00000000000E+00 -0.00000000000E+00 -0.45593999997E+02  0.45594000000E+02  0.51100000000E-03 0.  1.
    9900012    2    1    2    0    0  0.10776637239E+02 -0.27403402850E+02 -0.31883319490E+02  0.47787211302E+02  0.19999727607E+02 0.  0.
         12    1    1    2    0    0 -0.10776637239E+02  0.27403402850E+02  0.31883319490E+02  0.43400788698E+02  0.00000000000E+00 0. -1.
         11    1    3    3    0    0 -0.26857708113E+00 -0.76622029548E+00  0.12516687911E+01  0.14919457810E+01  0.51100000000E-03 0. -1.
        -11    1    3    3    0    0  0.31163436269E+00 -0.15400513655E+02 -0.97904715292E+01  0.18251747035E+02  0.51100000000E-03 0.  1.
        -12    1    3    3    0    0  0.10733579958E+02 -0.11236668900E+02 -0.23344516752E+02  0.28043518485E+02  0.00000000000E+00 0.  1.
</event>
<event>
 7    1  0.8440037E-011  0.4778728E+02  0.7816164E-02  0.1312668E+00
        -11   -1    0    0    0    0  0.00000000000E+00  0.00000000000E+00  0.45593999997E+02  0.45594000000E+02  0.51100000000E-03 0.  1.
         11   -1    0    0    0    0 -0.00000000000E+00 -0.00000000000E+00 -0.45593999997E+02  0.45594000000E+02  0.51100000000E-03 0. -1.
    9900012    2    1    2    0    0  0.42036417197E+02 -0.68596324431E+01 -0.83371318653E+01  0.47787277705E+02  0.20000030367E+02 0.  0.
        -12    1    1    2    0    0 -0.42036417197E+02  0.68596324431E+01  0.83371318653E+01  0.43400722295E+02  0.00000000000E+00 0.  1.
         11    1    3    3    0    0  0.22994716361E+02  0.42201015794E+01 -0.15703341821E+01  0.23431435883E+02  0.51100000000E-03 0.  1.
        -11    1    3    3    0    0  0.72397727312E+01 -0.23208980545E+01 -0.59176775641E+01  0.96343025172E+01  0.51100000000E-03 0. -1.
        -12    1    3    3    0    0  0.11801928105E+02 -0.87588359680E+01 -0.84912011909E+00  0.14721539304E+02  0.00000000000E+00 0.  1.
</event>
<event>
 7    1  0.8440037E-011  0.4778727E+02  0.7816164E-02  0.1312668E+00
        -11   -1    0    0    0    0  0.00000000000E+00  0.00000000000E+00  0.45593999997E+02  0.45594000000E+02  0.51100000000E-03 0. -1.
         11   -1    0    0    0    0 -0.00000000000E+00 -0.00000000000E+00 -0.45593999997E+02  0.45594000000E+02  0.51100000000E-03 0.  1.
    9900012    2    1    2    0    0 -0.51259463062E+01 -0.32745203955E+02  0.28019625349E+02  0.47787272906E+02  0.20000008489E+02 0.  0.
        -12    1    1    2    0    0  0.51259463062E+01  0.32745203955E+02 -0.28019625349E+02  0.43400727094E+02  0.00000000000E+00 0.  1.
         11    1    3    3    0    0  0.10631224197E+01 -0.11324012447E+02  0.90598067431E+01  0.14541099878E+02  0.51100000000E-03 0.  1.
        -11    1    3    3    0    0 -0.81737618019E+00 -0.51890886149E+01 -0.24919534810E+01  0.58141703523E+01  0.51100000000E-03 0. -1.
        -12    1    3    3    0    0 -0.53716925457E+01 -0.16232102892E+02  0.21451772087E+02  0.27432002675E+02  0.00000000000E+00 0.  1.
</event>
<event>
 7    1  0.8440037E-011  0.4778727E+02  0.7816164E-02  0.1312668E+00
        -11   -1    0    0    0    0  0.00000000000E+00  0.00000000000E+00  0.45593999997E+02  0.45594000000E+02  0.51100000000E-03 0.  1.
         11   -1    0    0    0    0 -0.00000000000E+00 -0.00000000000E+00 -0.45593999997E+02  0.45594000000E+02  0.51100000000E-03 0. -1.
    9900012    2    1    2    0    0 -0.66845224355E+01  0.42726445922E+02 -0.36593969548E+01  0.47787271811E+02  0.20000003493E+02 0.  0.
         12    1    1    2    0    0  0.66845224355E+01 -0.42726445922E+02  0.36593969548E+01  0.43400728189E+02  0.00000000000E+00 0. -1.
         11    1    3    3    0    0 -0.11723097847E+01 -0.10851714175E+01  0.21001603495E+01  0.26386703074E+01  0.51100000000E-03 0. -1.
        -11    1    3    3    0    0 -0.39373724667E+01  0.16193989957E+02  0.91978078992E+00  0.16691141651E+02  0.51100000000E-03 0.  1.
        -12    1    3    3    0    0 -0.15748401841E+01  0.27617627383E+02 -0.66793380942E+01  0.28457459852E+02  0.00000000000E+00 0.  1.
</event>
<event>
 7    1  0.8440037E-011  0.4778727E+02  0.7816164E-02  0.1312668E+00
        -11   -1    0    0    0    0  0.00000000000E+00  0.00000000000E+00  0.45593999997E+02  0.45594000000E+02  0.51100000000E-03 0. -1.
         11   -1    0    0    0    0 -0.00000000000E+00 -0.00000000000E+00 -0.45593999997E+02  0.45594000000E+02  0.51100000000E-03 0.  1.
    9900012    2    1    2    0    0 -0.34879362085E+02  0.14052491676E+01 -0.25789118460E+02  0.47787271255E+02  0.20000000959E+02 0.  0.
         12    1    1    2    0    0  0.34879362085E+02 -0.14052491676E+01  0.25789118460E+02  0.43400728745E+02  0.00000000000E+00 0. -1.
         11    1    3    3    0    0 -0.30868217621E+02 -0.35730110994E+01 -0.17744841795E+02  0.35783972362E+02  0.51100000000E-03 0. -1.
        -11    1    3    3    0    0 -0.47940100163E+00 -0.35774847519E+00  0.85428604155E+00  0.10428874310E+01  0.51100000000E-03 0.  1.
        -12    1    3    3    0    0 -0.35317434627E+01  0.53360087421E+01 -0.88985627058E+01  0.10960411462E+02  0.00000000000E+00 0.  1.
</event>
<event>
 7    1  0.8440037E-011  0.4778727E+02  0.7816164E-02  0.1312668E+00
        -11   -1    0    0    0    0  0.00000000000E+00  0.00000000000E+00  0.45593999997E+02  0.45594000000E+02  0.51100000000E-03 0. -1.
         11   -1    0    0    0    0 -0.00000000000E+00 -0.00000000000E+00 -0.45593999997E+02  0.45594000000E+02  0.51100000000E-03 0.  1.
    9900012    2    1    2    0    0  0.18952649703E+02  0.29312621703E+02 -0.25791287189E+02  0.47787271702E+02  0.20000003000E+02 0.  0.
         12    1    1    2    0    0 -0.18952649703E+02 -0.29312621703E+02  0.25791287189E+02  0.43400728298E+02  0.00000000000E+00 0. -1.
         11    1    3    3    0    0  0.38067217941E+01  0.38520846756E+00 -0.35745658407E+01  0.52361281107E+01  0.51100000000E-03 0. -1.
        -11    1    3    3    0    0  0.18491977759E+02  0.25491257017E+02 -0.19444456524E+02  0.37011407911E+02  0.51100000000E-03 0.  1.
        -12    1    3    3    0    0 -0.33460498502E+01  0.34361562187E+01 -0.27722648247E+01  0.55397356812E+01  0.00000000000E+00 0.  1.
</event>
<event>
 7    1  0.8440037E-011  0.4778727E+02  0.7816164E-02  0.1312668E+00
        -11   -1    0    0    0    0  0.00000000000E+00  0.00000000000E+00  0.45593999997E+02  0.45594000000E+02  0.51100000000E-03 0.  1.
         11   -1    0    0    0    0 -0.00000000000E+00 -0.00000000000E+00 -0.45593999997E+02  0.45594000000E+02  0.51100000000E-03 0. -1.
    9900012    2    1    2    0    0  0.32956232887E+02 -0.20512492699E+02 -0.19409989808E+02  0.47787270200E+02  0.19999996150E+02 0.  0.
        -12    1    1    2    0    0 -0.32956232887E+02  0.20512492699E+02  0.19409989808E+02  0.43400729800E+02  0.00000000000E+00 0.  1.
         11    1    3    3    0    0  0.13976352121E+02 -0.85584899012E+01 -0.12314858262E+02  0.20499802493E+02  0.51100000000E-03 0.  1.
        -11    1    3    3    0    0  0.19692930216E+02 -0.11803809528E+02 -0.94456151844E+01  0.24826620115E+02  0.51100000000E-03 0. -1.
        -12    1    3    3    0    0 -0.71304944999E+00 -0.15019326948E+00  0.23504836380E+01  0.24608475916E+01  0.00000000000E+00 0.  1.
</event>
<event>
 7    1  0.8440037E-011  0.4778727E+02  0.7816164E-02  0.1312668E+00
        -11   -1    0    0    0    0  0.00000000000E+00  0.00000000000E+00  0.45593999997E+02  0.45594000000E+02  0.51100000000E-03 0. -1.
         11   -1    0    0    0    0 -0.00000000000E+00 -0.00000000000E+00 -0.45593999997E+02  0.45594000000E+02  0.51100000000E-03 0.  1.
    9900012    2    1    2    0    0 -0.23766632195E+01  0.93165249008E+01 -0.42322302654E+02  0.47787268828E+02  0.19999989895E+02 0.  0.
         12    1    1    2    0    0  0.23766632195E+01 -0.93165249008E+01  0.42322302654E+02  0.43400731172E+02  0.00000000000E+00 0. -1.
         11    1    3    3    0    0  0.27243789593E+01 -0.17608437796E+01 -0.23603745078E+02  0.23825607936E+02  0.51100000000E-03 0. -1.
        -11    1    3    3    0    0  0.58054548667E+00 -0.76812827401E+00  0.14537225137E+00  0.97374917716E+00  0.51100000000E-03 0.  1.
        -12    1    3    3    0    0 -0.56815876654E+01  0.11845496954E+02 -0.18863929827E+02  0.22987911715E+02  0.00000000000E+00 0.  1.
</event>
<event>
 7    1  0.8440037E-011  0.4778727E+02  0.7816164E-02  0.1312668E+00
        -11   -1    0    0    0    0  0.00000000000E+00  0.00000000000E+00  0.45593999997E+02  0.45594000000E+02  0.51100000000E-03 0. -1.
         11   -1    0    0    0    0 -0.00000000000E+00 -0.00000000000E+00 -0.45593999997E+02  0.45594000000E+02  0.51100000000E-03 0.  1.
    9900012    2    1    2    0    0 -0.38801073987E+02 -0.19112033416E+02  0.35819369068E+01  0.47787269179E+02  0.19999991493E+02 0.  0.
        -12    1    1    2    0    0  0.38801073987E+02  0.19112033416E+02 -0.35819369068E+01  0.43400730821E+02  0.00000000000E+00 0.  1.
         11    1    3    3    0    0 -0.16183643843E+02 -0.15093951777E+02  0.22752860702E-01  0.22130029964E+02  0.51100000000E-03 0. -1.
        -11    1    3    3    0    0 -0.37897211577E+01  0.19392691513E+01 -0.25792357162E+01  0.49774700838E+01  0.51100000000E-03 0.  1.
         12    1    3    3    0    0 -0.18827708987E+02 -0.59573507903E+01  0.61384197623E+01  0.20679769131E+02  0.00000000000E+00 0. -1.
</event>
