<event>
 7    1  0.4331547E-015  0.9000769E+02  0.7816164E-02  0.1186339E+00
        -11   -1    0    0    0    0  0.00000000000E+00  0.00000000000E+00  0.45593999997E+02  0.45594000000E+02  0.51100000000E-03 0.  1.
         11   -1    0    0    0    0 -0.00000000000E+00 -0.00000000000E+00 -0.45593999997E+02  0.45594000000E+02  0.51100000000E-03 0. -1.
    9900012    2    1    2    0    0 -0.68317984259E+00 -0.85504366018E+00 -0.44193072235E+00  0.90007687702E+02  0.89999948379E+02 0.  0.
         12    1    1    2    0    0  0.68317984259E+00  0.85504366018E+00  0.44193072235E+00  0.11803122983E+01  0.00000000000E+00 0. -1.
         11    1    3    3    0    0  0.30097066456E+02  0.74996757689E+01  0.57206249350E+01  0.31540515148E+02  0.51100000000E-03 0. -1.
        -11    1    3    3    0    0 -0.13517560599E+01  0.18340736392E+02 -0.26339257071E+01  0.18578143630E+02  0.51100000000E-03 0.  1.
        -12    1    3    3    0    0 -0.29428490239E+02 -0.26695455821E+02 -0.35286299503E+01  0.39889028924E+02  0.00000000000E+00 0.  1.
</event>
<event>
 7    1  0.4331547E-015  0.9000771E+02  0.7816164E-02  0.1186339E+00
        -11   -1    0    0    0    0  0.00000000000E+00  0.00000000000E+00  0.45593999997E+02  0.45594000000E+02  0.51100000000E-03 0.  1.
         11   -1    0    0    0    0 -0.00000000000E+00 -0.00000000000E+00 -0.45593999997E+02  0.45594000000E+02  0.51100000000E-03 0. -1.
    9900012    2    1    2    0    0  0.89669403993E+00  0.74107050485E+00 -0.19958490179E+00  0.90007711973E+02  0.89999972971E+02 0.  0.
         12    1    1    2    0    0 -0.89669403993E+00 -0.74107050485E+00  0.19958490179E+00  0.11802880273E+01  0.00000000000E+00 0. -1.
         11    1    3    3    0    0 -0.98709830920E+01  0.23891848989E+01  0.62497807051E+01  0.11924943220E+02  0.51100000000E-03 0. -1.
        -11    1    3    3    0    0 -0.21925959513E+01  0.77031702415E+00  0.34748828606E+02  0.34826454816E+02  0.51100000000E-03 0.  1.
         12    1    3    3    0    0  0.12960273083E+02 -0.24184314182E+01 -0.41198194213E+02  0.43256313936E+02  0.00000000000E+00 0. -1.
</event>
<event>
 7    1  0.4331547E-015  0.9000772E+02  0.7816164E-02  0.1186339E+00
        -11   -1    0    0    0    0  0.00000000000E+00  0.00000000000E+00  0.45593999997E+02  0.45594000000E+02  0.51100000000E-03 0. -1.
         11   -1    0    0    0    0 -0.00000000000E+00 -0.00000000000E+00 -0.45593999997E+02  0.45594000000E+02  0.51100000000E-03 0.  1.
    9900012    2    1    2    0    0  0.19960497186E+00 -0.11212343253E+01  0.30993118289E+00  0.90007717875E+02  0.89999978951E+02 0.  0.
         12    1    1    2    0    0 -0.19960497186E+00  0.11212343253E+01 -0.30993118289E+00  0.11802821253E+01  0.00000000000E+00 0. -1.
         11    1    3    3    0    0  0.64792976093E+01  0.18420837649E+00 -0.87434901656E+01  0.10884110013E+02  0.51100000000E-03 0. -1.
        -11    1    3    3    0    0  0.36021172890E+02  0.11905345541E+01  0.68933479281E+01  0.36694148237E+02  0.51100000000E-03 0.  1.
         12    1    3    3    0    0 -0.42300865528E+02 -0.24959772559E+01  0.21600734204E+01  0.42429459625E+02  0.00000000000E+00 0. -1.
</event>
<event>
 7    1  0.4331547E-015  0.9000785E+02  0.7816164E-02  0.1186339E+00
        -11   -1    0    0    0    0  0.00000000000E+00  0.00000000000E+00  0.45593999997E+02  0.45594000000E+02  0.51100000000E-03 0.  1.
         11   -1    0    0    0    0 -0.00000000000E+00 -0.00000000000E+00 -0.45593999997E+02  0.45594000000E+02  0.51100000000E-03 0. -1.
    9900012    2    1    2    0    0  0.83346603918E+00  0.45234337367E+00  0.70247156002E+00  0.90007853205E+02  0.90000116067E+02 0.  0.
         12    1    1    2    0    0 -0.83346603918E+00 -0.45234337367E+00 -0.70247156002E+00  0.11801467955E+01  0.00000000000E+00 0. -1.
         11    1    3    3    0    0  0.16283348575E+02 -0.11723219108E+01 -0.37793212151E+02  0.41168539741E+02  0.51100000000E-03 0. -1.
        -11    1    3    3    0    0  0.43366942843E+01  0.64331376100E+01  0.38698525730E+01  0.86699444071E+01  0.51100000000E-03 0.  1.
        -12    1    3    3    0    0 -0.19786576820E+02 -0.48084723255E+01  0.34625831138E+02  0.40169369056E+02  0.00000000000E+00 0.  1.
</event>
<event>
 7    1  0.4331547E-015  0.9000849E+02  0.7816164E-02  0.1186338E+00
        -11   -1    0    0    0    0  0.00000000000E+00  0.00000000000E+00  0.45593999997E+02  0.45594000000E+02  0.51100000000E-03 0.  1.
         11   -1    0    0    0    0 -0.00000000000E+00 -0.00000000000E+00 -0.45593999997E+02  0.45594000000E+02  0.51100000000E-03 0. -1.
    9900012    2    1    2    0    0 -0.92613480787E+00 -0.70178635370E+00  0.20249380570E+00  0.90008494379E+02  0.90000765702E+02 0.  0.
         12    1    1    2    0    0  0.92613480787E+00  0.70178635370E+00 -0.20249380570E+00  0.11795056210E+01  0.00000000000E+00 0. -1.
         11    1    3    3    0    0 -0.41660037210E+01 -0.70953079477E+01 -0.38335276382E+01  0.90771645513E+01  0.51100000000E-03 0. -1.
        -11    1    3    3    0    0 -0.37857587179E+02  0.11033262955E+02  0.70539746149E+00  0.39438906986E+02  0.51100000000E-03 0.  1.
         12    1    3    3    0    0  0.41097456092E+02 -0.46397413611E+01  0.33306239824E+01  0.41492422841E+02  0.00000000000E+00 0. -1.
</event>
<event>
 7    1  0.4331547E-015  0.9000780E+02  0.7816164E-02  0.1186339E+00
        -11   -1    0    0    0    0  0.00000000000E+00  0.00000000000E+00  0.45593999997E+02  0.45594000000E+02  0.51100000000E-03 0. -1.
         11   -1    0    0    0    0 -0.00000000000E+00 -0.00000000000E+00 -0.45593999997E+02  0.45594000000E+02  0.51100000000E-03 0.  1.
    9900012    2    1    2    0    0 -0.28726612554E+00  0.89319630101E+00 -0.71591997592E+00  0.90007803885E+02  0.90000066096E+02 0.  0.
         12    1    1    2    0    0  0.28726612554E+00 -0.89319630101E+00  0.71591997592E+00  0.11801961155E+01  0.00000000000E+00 0. -1.
         11    1    3    3    0    0  0.29048908553E+02 -0.13761160630E+02  0.12739039150E+02  0.34575883918E+02  0.51100000000E-03 0. -1.
        -11    1    3    3    0    0  0.54562295976E+01 -0.16670452146E+01  0.91966486853E+01  0.10822561086E+02  0.51100000000E-03 0.  1.
        -12    1    3    3    0    0 -0.34792404276E+02  0.16321402145E+02 -0.22651607811E+02  0.44609358880E+02  0.00000000000E+00 0.  1.
</event>
<event>
 7    1  0.4331547E-015  0.9000773E+02  0.7816164E-02  0.1186339E+00
        -11   -1    0    0    0    0  0.00000000000E+00  0.00000000000E+00  0.45593999997E+02  0.45594000000E+02  0.51100000000E-03 0.  1.
         11   -1    0    0    0    0 -0.00000000000E+00 -0.00000000000E+00 -0.45593999997E+02  0.45594000000E+02  0.51100000000E-03 0. -1.
    9900012    2    1    2    0    0 -0.67756219910E+00  0.49056658897E-01  0.96516542339E+00  0.90007728258E+02  0.89999989471E+02 0.  0.
         12    1    1    2    0    0  0.67756219910E+00 -0.49056658897E-01 -0.96516542339E+00  0.11802717416E+01  0.00000000000E+00 0. -1.
         11    1    3    3    0    0  0.27958227149E+02 -0.20912708423E+01 -0.30025912926E+02  0.41080303387E+02  0.51100000000E-03 0. -1.
        -11    1    3    3    0    0 -0.22365600546E+01 -0.94863136965E+00  0.20029789025E+02  0.20176584226E+02  0.51100000000E-03 0.  1.
        -12    1    3    3    0    0 -0.26399229293E+02  0.30889588708E+01  0.10961289324E+02  0.28750840646E+02  0.00000000000E+00 0.  1.
</event>
<event>
 7    1  0.4331547E-015  0.9000775E+02  0.7816164E-02  0.1186339E+00
        -11   -1    0    0    0    0  0.00000000000E+00  0.00000000000E+00  0.45593999997E+02  0.45594000000E+02  0.51100000000E-03 0.  1.
         11   -1    0    0    0    0 -0.00000000000E+00 -0.00000000000E+00 -0.45593999997E+02  0.45594000000E+02  0.51100000000E-03 0. -1.
    9900012    2    1    2    0    0  0.41566533726E+00 -0.10858503123E+01 -0.20280470316E+00  0.90007754974E+02  0.90000016540E+02 0.  0.
         12    1    1    2    0    0 -0.41566533726E+00  0.10858503123E+01  0.20280470316E+00  0.11802450258E+01  0.00000000000E+00 0. -1.
         11    1    3    3    0    0 -0.35014604835E+02 -0.17069745647E+02  0.26248364864E+01  0.39042137941E+02  0.51100000000E-03 0. -1.
        -11    1    3    3    0    0  0.10315193466E+01 -0.49110078974E+01  0.78580064137E+01  0.93236417665E+01  0.51100000000E-03 0.  1.
        -12    1    3    3    0    0  0.34398750825E+02  0.20894903232E+02 -0.10685647603E+02  0.41641975267E+02  0.00000000000E+00 0.  1.
</event>
<event>
 7    1  0.4331547E-015  0.9000773E+02  0.7816164E-02  0.1186339E+00
        -11   -1    0    0    0    0  0.00000000000E+00  0.00000000000E+00  0.45593999997E+02  0.45594000000E+02  0.51100000000E-03 0. -1.
         11   -1    0    0    0    0 -0.00000000000E+00 -0.00000000000E+00 -0.45593999997E+02  0.45594000000E+02  0.51100000000E-03 0.  1.
    9900012    2    1    2    0    0 -0.46894738312E+00  0.10816108466E+01  0.56903304827E-01  0.90007732379E+02  0.89999993646E+02 0.  0.
         12    1    1    2    0    0  0.46894738312E+00 -0.10816108466E+01 -0.56903304827E-01  0.11802676212E+01  0.00000000000E+00 0. -1.
         11    1    3    3    0    0  0.23182255114E+02 -0.36931918748E+02 -0.17527930092E+01  0.43640071702E+02  0.51100000000E-03 0. -1.
        -11    1    3    3    0    0 -0.26886375610E+01  0.10103042918E+02 -0.35746113488E+01  0.11048895633E+02  0.51100000000E-03 0.  1.
        -12    1    3    3    0    0 -0.20962564936E+02  0.27910486676E+02  0.53843076628E+01  0.35318765044E+02  0.00000000000E+00 0.  1.
</event>
<event>
 7    1  0.4331547E-015  0.9000816E+02  0.7816164E-02  0.1186338E+00
        -11   -1    0    0    0    0  0.00000000000E+00  0.00000000000E+00  0.45593999997E+02  0.45594000000E+02  0.51100000000E-03 0.  1.
         11   -1    0    0    0    0 -0.00000000000E+00 -0.00000000000E+00 -0.45593999997E+02  0.45594000000E+02  0.51100000000E-03 0. -1.
    9900012    2    1    2    0    0 -0.11095208474E+01 -0.39849827092E+00  0.46758325885E-01  0.90008159450E+02  0.90000426354E+02 0.  0.
         12    1    1    2    0    0  0.11095208474E+01  0.39849827092E+00 -0.46758325885E-01  0.11798405502E+01  0.00000000000E+00 0. -1.
         11    1    3    3    0    0 -0.39713879181E+02 -0.93832331566E+01  0.17355373539E+02  0.44344630509E+02  0.51100000000E-03 0. -1.
        -11    1    3    3    0    0  0.50199648630E+01  0.52826193812E+01  0.79619233627E+00  0.73307596638E+01  0.51100000000E-03 0.  1.
        -12    1    3    3    0    0  0.33584393471E+02  0.37021155046E+01 -0.18104807549E+02  0.38332769276E+02  0.00000000000E+00 0.  1.
</event>
<event>
 7    1  0.4683436E-015  0.9000779E+02  0.7816164E-02  0.1186339E+00
        -11   -1    0    0    0    0  0.00000000000E+00  0.00000000000E+00  0.45593999997E+02  0.45594000000E+02  0.51100000000E-03 0. -1.
         11   -1    0    0    0    0 -0.00000000000E+00 -0.00000000000E+00 -0.45593999997E+02  0.45594000000E+02  0.51100000000E-03 0.  1.
    9900012    2    1    2    0    0 -0.78044031513E+00 -0.20565262048E+00 -0.86110653596E+00  0.90007794699E+02  0.90000056789E+02 0.  0.
         12    1    1    2    0    0  0.78044031513E+00  0.20565262048E+00  0.86110653596E+00  0.11802053008E+01  0.00000000000E+00 0. -1.
         11    1    3    3    0    0  0.18860304300E+01 -0.74786652856E+01  0.53596929900E+01  0.93922230832E+01  0.51100000000E-03 0. -1.
        -11    1    3    3    0    0  0.26993076494E+02 -0.21679453705E+02  0.10108883755E+02  0.36066804996E+02  0.51100000000E-03 0.  1.
         12    1    3    3    0    0 -0.29659547239E+02  0.28952466370E+02 -0.16329683281E+02  0.44548766620E+02  0.00000000000E+00 0. -1.
</event>
<event>
 7    1  0.4331547E-015  0.9000780E+02  0.7816164E-02  0.1186339E+00
        -11   -1    0    0    0    0  0.00000000000E+00  0.00000000000E+00  0.45593999997E+02  0.45594000000E+02  0.51100000000E-03 0.  1.
         11   -1    0    0    0    0 -0.00000000000E+00 -0.00000000000E+00 -0.45593999997E+02  0.45594000000E+02  0.51100000000E-03 0. -1.
    9900012    2    1    2    0    0 -0.49838006374E+00 -0.98121040362E+00  0.42629383721E+00  0.90007795365E+02  0.90000057464E+02 0.  0.
         12    1    1    2    0    0  0.49838006374E+00  0.98121040362E+00 -0.42629383721E+00  0.11802046347E+01  0.00000000000E+00 0. -1.
         11    1    3    3    0    0  0.17379500450E+02 -0.18260869884E+02 -0.35492745585E+02  0.43534370264E+02  0.51100000000E-03 0. -1.
        -11    1    3    3    0    0 -0.62242493413E+01 -0.21907312245E+01  0.59663665578E+01  0.88959605060E+01  0.51100000000E-03 0.  1.
        -12    1    3    3    0    0 -0.11653631173E+02  0.19470390705E+02  0.29952672865E+02  0.37577464596E+02  0.00000000000E+00 0.  1.
</event>
<event>
 7    1  0.4331547E-015  0.9000775E+02  0.7816164E-02  0.1186339E+00
        -11   -1    0    0    0    0  0.00000000000E+00  0.00000000000E+00  0.45593999997E+02  0.45594000000E+02  0.51100000000E-03 0. -1.
         11   -1    0    0    0    0 -0.00000000000E+00 -0.00000000000E+00 -0.45593999997E+02  0.45594000000E+02  0.51100000000E-03 0.  1.
    9900012    2    1    2    0    0 -0.37822139775E+00 -0.10100706327E+01  0.47926442951E+00  0.90007750661E+02  0.90000012170E+02 0.  0.
         12    1    1    2    0    0  0.37822139775E+00  0.10100706327E+01 -0.47926442951E+00  0.11802493389E+01  0.00000000000E+00 0. -1.
         11    1    3    3    0    0  0.17517168620E+01 -0.17010384406E+02  0.36849143704E+02  0.40623651751E+02  0.51100000000E-03 0. -1.
        -11    1    3    3    0    0  0.49785101007E+01 -0.68106483828E+01 -0.45272474171E+01  0.95742604755E+01  0.51100000000E-03 0.  1.
        -12    1    3    3    0    0 -0.71084483604E+01  0.22810962156E+02 -0.31842631857E+02  0.39809838435E+02  0.00000000000E+00 0.  1.
</event>
<event>
 7    1  0.4331547E-015  0.9000768E+02  0.7816164E-02  0.1186339E+00
        -11   -1    0    0    0    0  0.00000000000E+00  0.00000000000E+00  0.45593999997E+02  0.45594000000E+02  0.51100000000E-03 0.  1.
         11   -1    0    0    0    0 -0.00000000000E+00 -0.00000000000E+00 -0.45593999997E+02  0.45594000000E+02  0.51100000000E-03 0. -1.
    9900012    2    1    2    0    0 -0.11674090217E+01  0.21196887652E-02 -0.17405690467E+00  0.90007684736E+02  0.89999945374E+02 0.  0.
         12    1    1    2    0    0  0.11674090217E+01 -0.21196887652E-02  0.17405690467E+00  0.11803152643E+01  0.00000000000E+00 0. -1.
         11    1    3    3    0    0  0.23220050131E+00 -0.12541152509E+02 -0.43106922517E+01  0.13263351434E+02  0.51100000000E-03 0. -1.
        -11    1    3    3    0    0 -0.11383719227E+02 -0.30326353745E+02  0.46489880105E+01  0.32724453925E+02  0.51100000000E-03 0.  1.
         12    1    3    3    0    0  0.99841097044E+01  0.42869625943E+02 -0.51235266350E+00  0.44019879376E+02  0.00000000000E+00 0. -1.
</event>
<event>
 7    1  0.4331547E-015  0.9000768E+02  0.7816164E-02  0.1186339E+00
        -11   -1    0    0    0    0  0.00000000000E+00  0.00000000000E+00  0.45593999997E+02  0.45594000000E+02  0.51100000000E-03 0.  1.
         11   -1    0    0    0    0 -0.00000000000E+00 -0.00000000000E+00 -0.45593999997E+02  0.45594000000E+02  0.51100000000E-03 0. -1.
    9900012    2    1    2    0    0 -0.53845348279E+00  0.29978234803E+00  0.10066491420E+01  0.90007684744E+02  0.89999945382E+02 0.  0.
         12    1    1    2    0    0  0.53845348279E+00 -0.29978234803E+00 -0.10066491420E+01  0.11803152563E+01  0.00000000000E+00 0. -1.
         11    1    3    3    0    0 -0.84749224129E+01 -0.31657416470E+01 -0.48694461320E+01  0.10274129451E+02  0.51100000000E-03 0. -1.
        -11    1    3    3    0    0 -0.25174290026E+02  0.10828707917E+01  0.29643715982E+02  0.38905878540E+02  0.51100000000E-03 0.  1.
         12    1    3    3    0    0  0.33110758956E+02  0.23826532033E+01 -0.23767620708E+02  0.40827676753E+02  0.00000000000E+00 0. -1.
</event>
<event>
 7    1  0.4331547E-015  0.9000786E+02  0.7816164E-02  0.1186339E+00
        -11   -1    0    0    0    0  0.00000000000E+00  0.00000000000E+00  0.45593999997E+02  0.45594000000E+02  0.51100000000E-03 0.  1.
         11   -1    0    0    0    0 -0.00000000000E+00 -0.00000000000E+00 -0.45593999997E+02  0.45594000000E+02  0.51100000000E-03 0. -1.
    9900012    2    1    2    0    0 -0.10088994976E+01  0.27374693923E+00  0.54765106371E+00  0.90007857097E+02  0.90000120011E+02 0.  0.
         12    1    1    2    0    0  0.10088994976E+01 -0.27374693923E+00 -0.54765106371E+00  0.11801429026E+01  0.00000000000E+00 0. -1.
         11    1    3    3    0    0 -0.17994659509E+01 -0.54760500492E+01 -0.56909681074E+01  0.81001432154E+01  0.51100000000E-03 0. -1.
        -11    1    3    3    0    0  0.31325361535E+02 -0.23082582096E+02  0.85812961601E+01  0.39846235902E+02  0.51100000000E-03 0.  1.
         12    1    3    3    0    0 -0.30534795082E+02  0.28832379084E+02 -0.23426769890E+01  0.42061477980E+02  0.00000000000E+00 0. -1.
</event>
<event>
 7    1  0.4514083E-015  0.9000773E+02  0.7816164E-02  0.1186339E+00
        -11   -1    0    0    0    0  0.00000000000E+00  0.00000000000E+00  0.45593999997E+02  0.45594000000E+02  0.51100000000E-03 0. -1.
         11   -1    0    0    0    0 -0.00000000000E+00 -0.00000000000E+00 -0.45593999997E+02  0.45594000000E+02  0.51100000000E-03 0.  1.
    9900012    2    1    2    0    0  0.44476505250E+00 -0.83412155592E+00 -0.70672974144E+00  0.90007728146E+02  0.89999989358E+02 0.  0.
         12    1    1    2    0    0 -0.44476505250E+00  0.83412155592E+00  0.70672974144E+00  0.11802718540E+01  0.00000000000E+00 0. -1.
         11    1    3    3    0    0 -0.54918704816E+01 -0.24195312573E+01 -0.71533508011E+01  0.93373015822E+01  0.51100000000E-03 0. -1.
        -11    1    3    3    0    0 -0.35358192516E+02  0.13321823100E+01 -0.91176094547E+01  0.36539119997E+02  0.51100000000E-03 0.  1.
         12    1    3    3    0    0  0.41294828050E+02  0.25322739138E+00  0.15564230514E+02  0.44131306567E+02  0.00000000000E+00 0. -1.
</event>
<event>
 7    1  0.4331547E-015  0.9000786E+02  0.7816164E-02  0.1186339E+00
        -11   -1    0    0    0    0  0.00000000000E+00  0.00000000000E+00  0.45593999997E+02  0.45594000000E+02  0.51100000000E-03 0.  1.
         11   -1    0    0    0    0 -0.00000000000E+00 -0.00000000000E+00 -0.45593999997E+02  0.45594000000E+02  0.51100000000E-03 0. -1.
    9900012    2    1    2    0    0 -0.57125273056E+00  0.59046650438E-01 -0.10309806844E+01  0.90007857059E+02  0.90000119972E+02 0.  0.
         12    1    1    2    0    0  0.57125273056E+00 -0.59046650438E-01  0.10309806844E+01  0.11801429408E+01  0.00000000000E+00 0. -1.
         11    1    3    3    0    0  0.99017111078E+00 -0.80077533597E+01 -0.58676481108E+01  0.99766651398E+01  0.51100000000E-03 0. -1.
        -11    1    3    3    0    0 -0.16605755822E+02  0.92732410786E+01  0.38609201730E+02  0.43039686163E+02  0.51100000000E-03 0.  1.
         12    1    3    3    0    0  0.15044331981E+02 -0.12064410685E+01 -0.33772534304E+02  0.36991505756E+02  0.00000000000E+00 0. -1.
</event>
<event>
 7    1  0.4331547E-015  0.9000767E+02  0.7816164E-02  0.1186339E+00
        -11   -1    0    0    0    0  0.00000000000E+00  0.00000000000E+00  0.45593999997E+02  0.45594000000E+02  0.51100000000E-03 0. -1.
         11   -1    0    0    0    0 -0.00000000000E+00 -0.00000000000E+00 -0.45593999997E+02  0.45594000000E+02  0.51100000000E-03 0.  1.
    9900012    2    1    2    0    0  0.79042540557E+00  0.87634513042E+00  0.20502983817E-01  0.90007672299E+02  0.89999932773E+02 0.  0.
         12    1    1    2    0    0 -0.79042540557E+00 -0.87634513042E+00 -0.20502983817E-01  0.11803277010E+01  0.00000000000E+00 0. -1.
         11    1    3    3    0    0  0.17615747608E+02 -0.22238568913E+02  0.90263037510E+01  0.29771507700E+02  0.51100000000E-03 0. -1.
        -11    1    3    3    0    0  0.83686658624E+01  0.89001140994E+01 -0.24531856170E+02  0.27405447756E+02  0.51100000000E-03 0.  1.
        -12    1    3    3    0    0 -0.25193988064E+02  0.14214799944E+02  0.15526055403E+02  0.32830716843E+02  0.00000000000E+00 0.  1.
</event>
<event>
 7    1  0.4457705E-015  0.9000778E+02  0.7816164E-02  0.1186339E+00
        -11   -1    0    0    0    0  0.00000000000E+00  0.00000000000E+00  0.45593999997E+02  0.45594000000E+02  0.51100000000E-03 0. -1.
         11   -1    0    0    0    0 -0.00000000000E+00 -0.00000000000E+00 -0.45593999997E+02  0.45594000000E+02  0.51100000000E-03 0.  1.
    9900012    2    1    2    0    0  0.52670173588E+00  0.23021363443E+00 -0.10307839961E+01  0.90007776003E+02  0.90000037846E+02 0.  0.
         12    1    1    2    0    0 -0.52670173588E+00 -0.23021363443E+00  0.10307839961E+01  0.11802239968E+01  0.00000000000E+00 0. -1.
         11    1    3    3    0    0 -0.25292537652E+01  0.87620439135E+01 -0.41470162509E+01  0.10018397187E+02  0.51100000000E-03 0. -1.
        -11    1    3    3    0    0  0.28515359264E+02  0.24914070328E+02  0.25561631351E+01  0.37952214487E+02  0.51100000000E-03 0.  1.
         12    1    3    3    0    0 -0.25459403763E+02 -0.33445900607E+02  0.56006911962E+00  0.42037164329E+02  0.00000000000E+00 0. -1.
</event>
<event>
 7    1  0.4331547E-015  0.9000778E+02  0.7816164E-02  0.1186339E+00
        -11   -1    0    0    0    0  0.00000000000E+00  0.00000000000E+00  0.45593999997E+02  0.45594000000E+02  0.51100000000E-03 0.  1.
         11   -1    0    0    0    0 -0.00000000000E+00 -0.00000000000E+00 -0.45593999997E+02  0.45594000000E+02  0.51100000000E-03 0. -1.
    9900012    2    1    2    0    0 -0.93427994903E+00 -0.68422588174E+00 -0.22774241588E+00  0.90007783626E+02  0.90000045570E+02 0.  0.
         12    1    1    2    0    0  0.93427994903E+00  0.68422588174E+00  0.22774241588E+00  0.11802163736E+01  0.00000000000E+00 0. -1.
         11    1    3    3    0    0 -0.35914856265E+01 -0.46989657531E+01 -0.12718524111E+02  0.14026400250E+02  0.51100000000E-03 0. -1.
        -11    1    3    3    0    0  0.69092306956E+01 -0.32118398416E+02  0.20504542830E+02  0.38726802896E+02  0.51100000000E-03 0.  1.
         12    1    3    3    0    0 -0.42520250181E+01  0.36133138287E+02 -0.80137611349E+01  0.37254580480E+02  0.00000000000E+00 0. -1.
</event>
<event>
 7    1  0.4331547E-015  0.9000789E+02  0.7816164E-02  0.1186339E+00
        -11   -1    0    0    0    0  0.00000000000E+00  0.00000000000E+00  0.45593999997E+02  0.45594000000E+02  0.51100000000E-03 0.  1.
         11   -1    0    0    0    0 -0.00000000000E+00 -0.00000000000E+00 -0.45593999997E+02  0.45594000000E+02  0.51100000000E-03 0. -1.
    9900012    2    1    2    0    0  0.34170968152E+00  0.11291807233E+01  0.29198082524E-01  0.90007886810E+02  0.90000150116E+02 0.  0.
         12    1    1    2    0    0 -0.34170968152E+00 -0.11291807233E+01 -0.29198082524E-01  0.11801131896E+01  0.00000000000E+00 0. -1.
         11    1    3    3    0    0  0.49128053121E+01 -0.73017098905E+00  0.61286824303E+01  0.78885711191E+01  0.51100000000E-03 0. -1.
        -11    1    3    3    0    0  0.27304105883E+02 -0.27334974535E+02 -0.40345515470E+01  0.38845754432E+02  0.51100000000E-03 0.  1.
         12    1    3    3    0    0 -0.31875201514E+02  0.29194326248E+02 -0.20649328008E+01  0.43273561259E+02  0.00000000000E+00 0. -1.
</event>
<event>
 7    1  0.4331547E-015  0.9000787E+02  0.7816164E-02  0.1186339E+00
        -11   -1    0    0    0    0  0.00000000000E+00  0.00000000000E+00  0.45593999997E+02  0.45594000000E+02  0.51100000000E-03 0. -1.
         11   -1    0    0    0    0 -0.00000000000E+00 -0.00000000000E+00 -0.45593999997E+02  0.45594000000E+02  0.51100000000E-03 0.  1.
    9900012    2    1    2    0    0  0.11658338412E+01  0.16166124725E+00 -0.86057035554E-01  0.90007869195E+02  0.90000132268E+02 0.  0.
         12    1    1    2    0    0 -0.11658338412E+01 -0.16166124725E+00  0.86057035554E-01  0.11801308052E+01  0.00000000000E+00 0. -1.
         11    1    3    3    0    0 -0.15228662784E+02  0.14444888509E+02 -0.18161758110E+02  0.27756376423E+02  0.51100000000E-03 0. -1.
        -11    1    3    3    0    0 -0.78883435485E+01  0.19046017326E+01 -0.15664017123E+02  0.17641284091E+02  0.51100000000E-03 0.  1.
         12    1    3    3    0    0  0.24282840174E+02 -0.16187828994E+02  0.33739718198E+02  0.44610208680E+02  0.00000000000E+00 0. -1.
</event>
<event>
 7    1  0.4331547E-015  0.9000777E+02  0.7816164E-02  0.1186339E+00
        -11   -1    0    0    0    0  0.00000000000E+00  0.00000000000E+00  0.45593999997E+02  0.45594000000E+02  0.51100000000E-03 0.  1.
         11   -1    0    0    0    0 -0.00000000000E+00 -0.00000000000E+00 -0.45593999997E+02  0.45594000000E+02  0.51100000000E-03 0. -1.
    9900012    2    1    2    0    0 -0.24733645922E+00  0.11486439384E+01 -0.11133479723E+00  0.90007765422E+02  0.90000027126E+02 0.  0.
         12    1    1    2    0    0  0.24733645922E+00 -0.11486439384E+01  0.11133479723E+00  0.11802345777E+01  0.00000000000E+00 0. -1.
         11    1    3    3    0    0  0.72513356163E+00  0.12237705943E+02 -0.35608793743E+02  0.37659971555E+02  0.51100000000E-03 0. -1.
        -11    1    3    3    0    0 -0.59159410774E+01  0.55909386169E+00 -0.63098607794E+01  0.86674845309E+01  0.51100000000E-03 0.  1.
        -12    1    3    3    0    0  0.49434710566E+01 -0.11648155866E+02  0.41807319725E+02  0.43680309337E+02  0.00000000000E+00 0.  1.
</event>
<event>
 7    1  0.4331547E-015  0.9000799E+02  0.7816164E-02  0.1186339E+00
        -11   -1    0    0    0    0  0.00000000000E+00  0.00000000000E+00  0.45593999997E+02  0.45594000000E+02  0.51100000000E-03 0.  1.
         11   -1    0    0    0    0 -0.00000000000E+00 -0.00000000000E+00 -0.45593999997E+02  0.45594000000E+02  0.51100000000E-03 0. -1.
    9900012    2    1    2    0    0  0.81873371897E+00 -0.70019592953E+00  0.48147722147E+00  0.90007991713E+02  0.90000256403E+02 0.  0.
         12    1    1    2    0    0 -0.81873371897E+00  0.70019592953E+00 -0.48147722147E+00  0.11800082869E+01  0.00000000000E+00 0. -1.
         11    1    3    3    0    0  0.90994860607E+01  0.57596195817E+01 -0.20493897424E+01  0.10962383996E+02  0.51100000000E-03 0. -1.
        -11    1    3    3    0    0  0.32787182969E+02 -0.11629632856E+02  0.11600073921E+02  0.36671643577E+02  0.51100000000E-03 0.  1.
         12    1    3    3    0    0 -0.41067935311E+02  0.51698173448E+01 -0.90692069573E+01  0.42373964140E+02  0.00000000000E+00 0. -1.
</event>
<event>
 7    1  0.4331547E-015  0.9000777E+02  0.7816164E-02  0.1186339E+00
        -11   -1    0    0    0    0  0.00000000000E+00  0.00000000000E+00  0.45593999997E+02  0.45594000000E+02  0.51100000000E-03 0. -1.
         11   -1    0    0    0    0 -0.00000000000E+00 -0.00000000000E+00 -0.45593999997E+02  0.45594000000E+02  0.51100000000E-03 0.  1.
    9900012    2    1    2    0    0  0.24986850982E+00  0.92501441067E+00  0.68909457924E+00  0.90007772365E+02  0.90000034160E+02 0.  0.
         12    1    1    2    0    0 -0.24986850982E+00 -0.92501441067E+00 -0.68909457924E+00  0.11802276354E+01  0.00000000000E+00 0. -1.
         11    1    3    3    0    0 -0.98370772041E+01  0.30387153569E+02  0.25740021784E+02  0.41020676636E+02  0.51100000000E-03 0. -1.
        -11    1    3    3    0    0 -0.76845980385E+01 -0.20188330028E-01 -0.39588964877E+01  0.86444384574E+01  0.51100000000E-03 0.  1.
        -12    1    3    3    0    0  0.17771543752E+02 -0.29441950829E+02 -0.21092030717E+02  0.40342657271E+02  0.00000000000E+00 0.  1.
</event>
<event>
 7    1  0.4331547E-015  0.9000784E+02  0.7816164E-02  0.1186339E+00
        -11   -1    0    0    0    0  0.00000000000E+00  0.00000000000E+00  0.45593999997E+02  0.45594000000E+02  0.51100000000E-03 0. -1.
         11   -1    0    0    0    0 -0.00000000000E+00 -0.00000000000E+00 -0.45593999997E+02  0.45594000000E+02  0.51100000000E-03 0.  1.
    9900012    2    1    2    0    0 -0.50910660114E+00  0.20795906532E-01 -0.10644960397E+01  0.90007841613E+02  0.90000104322E+02 0.  0.
         12    1    1    2    0    0  0.50910660114E+00 -0.20795906532E-01  0.10644960397E+01  0.11801583875E+01  0.00000000000E+00 0. -1.
         11    1    3    3    0    0  0.32250183504E+02  0.11573845282E+02  0.77389453048E+01  0.35127190399E+02  0.51100000000E-03 0. -1.
        -11    1    3    3    0    0  0.80744014669E+01 -0.13049202609E+01  0.61183971207E+01  0.10214380036E+02  0.51100000000E-03 0.  1.
        -12    1    3    3    0    0 -0.40833691572E+02 -0.10248129114E+02 -0.14921838465E+02  0.44666271177E+02  0.00000000000E+00 0.  1.
</event>
<event>
 7    1  0.4331547E-015  0.9000779E+02  0.7816164E-02  0.1186339E+00
        -11   -1    0    0    0    0  0.00000000000E+00  0.00000000000E+00  0.45593999997E+02  0.45594000000E+02  0.51100000000E-03 0. -1.
         11   -1    0    0    0    0 -0.00000000000E+00 -0.00000000000E+00 -0.45593999997E+02  0.45594000000E+02  0.51100000000E-03 0.  1.
    9900012    2    1    2    0    0 -0.84841464438E+00 -0.46496666825E+00  0.67594510038E+00  0.90007786803E+02  0.90000048789E+02 0.  0.
         12    1    1    2    0    0  0.84841464438E+00  0.46496666825E+00 -0.67594510038E+00  0.11802131969E+01  0.00000000000E+00 0. -1.
         11    1    3    3    0    0 -0.82128794736E+01  0.24920710012E+02  0.26143427170E+02  0.37040139865E+02  0.51100000000E-03 0. -1.
        -11    1    3    3    0    0 -0.22191368107E+01  0.97557483464E+01 -0.60180476991E+01  0.11675448272E+02  0.51100000000E-03 0.  1.
        -12    1    3    3    0    0  0.95836016399E+01 -0.35141425027E+02 -0.19449434371E+02  0.41292198666E+02  0.00000000000E+00 0.  1.
</event>
<event>
 7    1  0.4331547E-015  0.9000780E+02  0.7816164E-02  0.1186339E+00
        -11   -1    0    0    0    0  0.00000000000E+00  0.00000000000E+00  0.45593999997E+02  0.45594000000E+02  0.51100000000E-03 0.  1.
         11   -1    0    0    0    0 -0.00000000000E+00 -0.00000000000E+00 -0.45593999997E+02  0.45594000000E+02  0.51100000000E-03 0. -1.
    9900012    2    1    2    0    0 -0.43360589491E+00  0.77495519561E-02  0.10976340527E+01  0.90007798898E+02  0.90000061043E+02 0.  0.
         12    1    1    2    0    0  0.43360589491E+00 -0.77495519561E-02 -0.10976340527E+01  0.11802011021E+01  0.00000000000E+00 0. -1.
         11    1    3    3    0    0  0.25335800248E+02  0.15525500498E+01 -0.83023774867E+01  0.26706603267E+02  0.51100000000E-03 0. -1.
        -11    1    3    3    0    0  0.10176654215E+02  0.52220855029E+01 -0.15345572815E+02  0.19139516015E+02  0.51100000000E-03 0.  1.
        -12    1    3    3    0    0 -0.35946060358E+02 -0.67668860008E+01  0.24745584355E+02  0.44161679616E+02  0.00000000000E+00 0.  1.
</event>
<event>
 7    1  0.4331547E-015  0.9000774E+02  0.7816164E-02  0.1186339E+00
        -11   -1    0    0    0    0  0.00000000000E+00  0.00000000000E+00  0.45593999997E+02  0.45594000000E+02  0.51100000000E-03 0. -1.
         11   -1    0    0    0    0 -0.00000000000E+00 -0.00000000000E+00 -0.45593999997E+02  0.45594000000E+02  0.51100000000E-03 0.  1.
    9900012    2    1    2    0    0 -0.99321319435E+00  0.49660398973E+00 -0.39990525519E+00  0.90007740628E+02  0.90000002004E+02 0.  0.
         12    1    1    2    0    0  0.99321319435E+00 -0.49660398973E+00  0.39990525519E+00  0.11802593720E+01  0.00000000000E+00 0. -1.
         11    1    3    3    0    0  0.26032927724E+01 -0.54531133549E+01  0.52428782352E+00  0.60653488360E+01  0.51100000000E-03 0. -1.
        -11    1    3    3    0    0 -0.35109346647E+02 -0.22260830109E+02  0.12583710593E+01  0.41590795581E+02  0.51100000000E-03 0.  1.
         12    1    3    3    0    0  0.31512840680E+02  0.28210547454E+02 -0.21825641380E+01  0.42351596211E+02  0.00000000000E+00 0. -1.
</event>
<event>
 7    1  0.4331547E-015  0.9000772E+02  0.7816164E-02  0.1186339E+00
        -11   -1    0    0    0    0  0.00000000000E+00  0.00000000000E+00  0.45593999997E+02  0.45594000000E+02  0.51100000000E-03 0.  1.
         11   -1    0    0    0    0 -0.00000000000E+00 -0.00000000000E+00 -0.45593999997E+02  0.45594000000E+02  0.51100000000E-03 0. -1.
    9900012    2    1    2    0    0 -0.64731861850E+00 -0.31380956461E+00 -0.93571580395E+00  0.90007719566E+02  0.89999980664E+02 0.  0.
         12    1    1    2    0    0  0.64731861850E+00  0.31380956461E+00  0.93571580395E+00  0.11802804338E+01  0.00000000000E+00 0. -1.
         11    1    3    3    0    0 -0.71800978841E+01  0.22046132287E+01  0.22384092563E+01  0.78373848555E+01  0.51100000000E-03 0. -1.
        -11    1    3    3    0    0 -0.12936642420E+02 -0.19381192047E+01  0.36064316298E+02  0.38363367077E+02  0.51100000000E-03 0.  1.
         12    1    3    3    0    0  0.19469421686E+02 -0.58030358857E+00 -0.39238441359E+02  0.43806967634E+02  0.00000000000E+00 0. -1.
</event>
<event>
 7    1  0.4331547E-015  0.9000765E+02  0.7816164E-02  0.1186339E+00
        -11   -1    0    0    0    0  0.00000000000E+00  0.00000000000E+00  0.45593999997E+02  0.45594000000E+02  0.51100000000E-03 0. -1.
         11   -1    0    0    0    0 -0.00000000000E+00 -0.00000000000E+00 -0.45593999997E+02  0.45594000000E+02  0.51100000000E-03 0.  1.
    9900012    2    1    2    0    0  0.46353404675E+00  0.92221597102E+00 -0.57260706000E+00  0.90007650495E+02  0.89999910681E+02 0.  0.
         12    1    1    2    0    0 -0.46353404675E+00 -0.92221597102E+00  0.57260706000E+00  0.11803495054E+01  0.00000000000E+00 0. -1.
         11    1    3    3    0    0  0.60823792223E+00  0.69526094070E+01 -0.79767442590E+01  0.10598923538E+02  0.51100000000E-03 0. -1.
        -11    1    3    3    0    0  0.16915976663E+02  0.90522570176E+01 -0.30004571541E+02  0.35614153608E+02  0.51100000000E-03 0.  1.
         12    1    3    3    0    0 -0.17060680538E+02 -0.15082650454E+02  0.37408708740E+02  0.43794573348E+02  0.00000000000E+00 0. -1.
</event>
<event>
 7    1  0.4331547E-015  0.9000723E+02  0.7816164E-02  0.1186340E+00
        -11   -1    0    0    0    0  0.00000000000E+00  0.00000000000E+00  0.45593999997E+02  0.45594000000E+02  0.51100000000E-03 0. -1.
         11   -1    0    0    0    0 -0.00000000000E+00 -0.00000000000E+00 -0.45593999997E+02  0.45594000000E+02  0.51100000000E-03 0.  1.
    9900012    2    1    2    0    0 -0.17052198825E-01 -0.70193030791E+00 -0.94932036404E+00  0.90007234956E+02  0.89999489656E+02 0.  0.
         12    1    1    2    0    0  0.17052198825E-01  0.70193030791E+00  0.94932036404E+00  0.11807650436E+01  0.00000000000E+00 0. -1.
         11    1    3    3    0    0  0.13029095390E+02 -0.19522276964E+01  0.18878617245E+01  0.13309114990E+02  0.51100000000E-03 0. -1.
        -11    1    3    3    0    0  0.23610062587E+02  0.22182486114E+02  0.74702908233E+01  0.33246097377E+02  0.51100000000E-03 0.  1.
         12    1    3    3    0    0 -0.36656210176E+02 -0.20932188725E+02 -0.10307472912E+02  0.43452022590E+02  0.00000000000E+00 0. -1.
</event>
<event>
 7    1  0.7062018E-015  0.9000769E+02  0.7816164E-02  0.1186339E+00
        -11   -1    0    0    0    0  0.00000000000E+00  0.00000000000E+00  0.45593999997E+02  0.45594000000E+02  0.51100000000E-03 0. -1.
         11   -1    0    0    0    0 -0.00000000000E+00 -0.00000000000E+00 -0.45593999997E+02  0.45594000000E+02  0.51100000000E-03 0.  1.
    9900012    2    1    2    0    0 -0.25795446492E+00  0.68728111706E+00 -0.92425298584E+00  0.90007686727E+02  0.89999947392E+02 0.  0.
         12    1    1    2    0    0  0.25795446492E+00 -0.68728111706E+00  0.92425298584E+00  0.11803132727E+01  0.00000000000E+00 0. -1.
         11    1    3    3    0    0  0.79943122372E+01 -0.41485719354E+01 -0.20881249637E+01  0.92455364027E+01  0.51100000000E-03 0. -1.
        -11    1    3    3    0    0  0.10167224752E+02 -0.15292257676E+02 -0.32561116533E+02  0.37382508130E+02  0.51100000000E-03 0.  1.
         12    1    3    3    0    0 -0.18419491454E+02  0.20128110728E+02  0.33724988510E+02  0.43379642195E+02  0.00000000000E+00 0. -1.
</event>
<event>
 7    1  0.4331547E-015  0.9000775E+02  0.7816164E-02  0.1186339E+00
        -11   -1    0    0    0    0  0.00000000000E+00  0.00000000000E+00  0.45593999997E+02  0.45594000000E+02  0.51100000000E-03 0.  1.
         11   -1    0    0    0    0 -0.00000000000E+00 -0.00000000000E+00 -0.45593999997E+02  0.45594000000E+02  0.51100000000E-03 0. -1.
    9900012    2    1    2    0    0 -0.44698547774E+00 -0.10389951435E+01 -0.33716778491E+00  0.90007750433E+02  0.90000011939E+02 0.  0.
         12    1    1    2    0    0  0.44698547774E+00  0.10389951435E+01  0.33716778491E+00  0.11802495671E+01  0.00000000000E+00 0. -1.
         11    1    3    3    0    0 -0.83168380572E+01 -0.34983013679E+01  0.41402857785E+01  0.99272289346E+01  0.51100000000E-03 0. -1.
        -11    1    3    3    0    0 -0.14311298427E+02 -0.18441894784E+02  0.27388174500E+02  0.35986509258E+02  0.51100000000E-03 0.  1.
         12    1    3    3    0    0  0.22181151006E+02  0.20901201008E+02 -0.31865628063E+02  0.44094012240E+02  0.00000000000E+00 0. -1.
</event>
<event>
 7    1  0.4331547E-015  0.9000769E+02  0.7816164E-02  0.1186339E+00
        -11   -1    0    0    0    0  0.00000000000E+00  0.00000000000E+00  0.45593999997E+02  0.45594000000E+02  0.51100000000E-03 0. -1.
         11   -1    0    0    0    0 -0.00000000000E+00 -0.00000000000E+00 -0.45593999997E+02  0.45594000000E+02  0.51100000000E-03 0.  1.
    9900012    2    1    2    0    0  0.11276482967E+01  0.30415769821E+00 -0.17037837344E+00  0.90007690135E+02  0.89999950845E+02 0.  0.
         12    1    1    2    0    0 -0.11276482967E+01 -0.30415769821E+00  0.17037837344E+00  0.11803098646E+01  0.00000000000E+00 0. -1.
         11    1    3    3    0    0  0.24334015401E+01  0.11362176244E+01 -0.91636472731E+01  0.95490766649E+01  0.51100000000E-03 0. -1.
        -11    1    3    3    0    0  0.37722043932E+02  0.67158468598E+01  0.13107709548E+02  0.40495274382E+02  0.51100000000E-03 0.  1.
         12    1    3    3    0    0 -0.39027797175E+02 -0.75479067860E+01 -0.41144406486E+01  0.39963339088E+02  0.00000000000E+00 0. -1.
</event>
<event>
 7    1  0.4331547E-015  0.9000780E+02  0.7816164E-02  0.1186339E+00
        -11   -1    0    0    0    0  0.00000000000E+00  0.00000000000E+00  0.45593999997E+02  0.45594000000E+02  0.51100000000E-03 0.  1.
         11   -1    0    0    0    0 -0.00000000000E+00 -0.00000000000E+00 -0.45593999997E+02  0.45594000000E+02  0.51100000000E-03 0. -1.
    9900012    2    1    2    0    0 -0.99178609032E+00 -0.11914530152E+00  0.62852546488E+00  0.90007796835E+02  0.90000058953E+02 0.  0.
         12    1    1    2    0    0  0.99178609032E+00  0.11914530152E+00 -0.62852546488E+00  0.11802031655E+01  0.00000000000E+00 0. -1.
         11    1    3    3    0    0 -0.36720768409E+01 -0.54912493986E+01  0.78035367078E+01  0.10224145622E+02  0.51100000000E-03 0. -1.
        -11    1    3    3    0    0 -0.34208324411E+02 -0.14342272691E+02  0.12633871360E+01  0.37114773235E+02  0.51100000000E-03 0.  1.
         12    1    3    3    0    0  0.36888615162E+02  0.19714376788E+02 -0.84383983789E+01  0.42668877978E+02  0.00000000000E+00 0. -1.
</event>
<event>
 7    1  0.4331547E-015  0.9000778E+02  0.7816164E-02  0.1186339E+00
        -11   -1    0    0    0    0  0.00000000000E+00  0.00000000000E+00  0.45593999997E+02  0.45594000000E+02  0.51100000000E-03 0. -1.
         11   -1    0    0    0    0 -0.00000000000E+00 -0.00000000000E+00 -0.45593999997E+02  0.45594000000E+02  0.51100000000E-03 0.  1.
    9900012    2    1    2    0    0  0.94751667344E+00  0.58511280332E+00 -0.39085442108E+00  0.90007783063E+02  0.90000045000E+02 0.  0.
         12    1    1    2    0    0 -0.94751667344E+00 -0.58511280332E+00  0.39085442108E+00  0.11802169366E+01  0.00000000000E+00 0. -1.
         11    1    3    3    0    0  0.39939659251E+01  0.79074283662E+01  0.29641682591E+01  0.93415994833E+01  0.51100000000E-03 0. -1.
        -11    1    3    3    0    0  0.38082112121E+02 -0.38823169171E+01 -0.80845761512E+01  0.39123905991E+02  0.51100000000E-03 0.  1.
         12    1    3    3    0    0 -0.41128561372E+02 -0.34399986458E+01  0.47295534710E+01  0.41542277589E+02  0.00000000000E+00 0. -1.
</event>
<event>
 7    1  0.4331547E-015  0.9000790E+02  0.7816164E-02  0.1186339E+00
        -11   -1    0    0    0    0  0.00000000000E+00  0.00000000000E+00  0.45593999997E+02  0.45594000000E+02  0.51100000000E-03 0. -1.
         11   -1    0    0    0    0 -0.00000000000E+00 -0.00000000000E+00 -0.45593999997E+02  0.45594000000E+02  0.51100000000E-03 0.  1.
    9900012    2    1    2    0    0 -0.71837655738E+00 -0.93513263351E+00 -0.45685289081E-01  0.90007904637E+02  0.90000168178E+02 0.  0.
         12    1    1    2    0    0  0.71837655738E+00  0.93513263351E+00  0.45685289081E-01  0.11800953631E+01  0.00000000000E+00 0. -1.
         11    1    3    3    0    0  0.18028046927E+02  0.26869575873E+02 -0.13520172677E+02  0.35068214284E+02  0.51100000000E-03 0. -1.
        -11    1    3    3    0    0  0.49081981638E+01  0.53646942352E+01 -0.63304890031E+01  0.96408217872E+01  0.51100000000E-03 0.  1.
        -12    1    3    3    0    0 -0.23654621648E+02 -0.33169402741E+02  0.19804976391E+02  0.45298868566E+02  0.00000000000E+00 0.  1.
</event>
<event>
 7    1  0.4331547E-015  0.9000790E+02  0.7816164E-02  0.1186339E+00
        -11   -1    0    0    0    0  0.00000000000E+00  0.00000000000E+00  0.45593999997E+02  0.45594000000E+02  0.51100000000E-03 0.  1.
         11   -1    0    0    0    0 -0.00000000000E+00 -0.00000000000E+00 -0.45593999997E+02  0.45594000000E+02  0.51100000000E-03 0. -1.
    9900012    2    1    2    0    0 -0.23606812399E+00  0.99728703343E-01  0.11519423959E+01  0.90007896082E+02  0.90000159510E+02 0.  0.
         12    1    1    2    0    0  0.23606812399E+00 -0.99728703343E-01 -0.11519423959E+01  0.11801039179E+01  0.00000000000E+00 0. -1.
         11    1    3    3    0    0  0.28908918810E+01  0.78234029924E+01 -0.17932404696E+01  0.85310375625E+01  0.51100000000E-03 0. -1.
        -11    1    3    3    0    0 -0.18844185428E+02  0.32752852403E+02 -0.15853091949E+01  0.37820178087E+02  0.51100000000E-03 0.  1.
         12    1    3    3    0    0  0.15717225423E+02 -0.40476526693E+02  0.45304920604E+01  0.43656680433E+02  0.00000000000E+00 0. -1.
</event>
<event>
 7    1  0.4331547E-015  0.9000768E+02  0.7816164E-02  0.1186339E+00
        -11   -1    0    0    0    0  0.00000000000E+00  0.00000000000E+00  0.45593999997E+02  0.45594000000E+02  0.51100000000E-03 0. -1.
         11   -1    0    0    0    0 -0.00000000000E+00 -0.00000000000E+00 -0.45593999997E+02  0.45594000000E+02  0.51100000000E-03 0.  1.
    9900012    2    1    2    0    0 -0.10991627020E+01 -0.21511580865E+00 -0.37244505632E+00  0.90007682764E+02  0.89999943377E+02 0.  0.
         12    1    1    2    0    0  0.10991627020E+01  0.21511580865E+00  0.37244505632E+00  0.11803172356E+01  0.00000000000E+00 0. -1.
         11    1    3    3    0    0  0.39577824378E+02 -0.67426624431E+01  0.14405601619E+02  0.42654296824E+02  0.51100000000E-03 0. -1.
        -11    1    3    3    0    0 -0.75916951032E+01  0.48311500487E+01  0.33345653635E+01  0.95965187312E+01  0.51100000000E-03 0.  1.
        -12    1    3    3    0    0 -0.33085291976E+02  0.16963965857E+01 -0.18112612039E+02  0.37756867209E+02  0.00000000000E+00 0.  1.
</event>
<event>
 7    1  0.4331547E-015  0.9000774E+02  0.7816164E-02  0.1186339E+00
        -11   -1    0    0    0    0  0.00000000000E+00  0.00000000000E+00  0.45593999997E+02  0.45594000000E+02  0.51100000000E-03 0.  1.
         11   -1    0    0    0    0 -0.00000000000E+00 -0.00000000000E+00 -0.45593999997E+02  0.45594000000E+02  0.51100000000E-03 0. -1.
    9900012    2    1    2    0    0 -0.55964849454E-01  0.10039600239E+01  0.61802188151E+00  0.90007737809E+02  0.89999999148E+02 0.  0.
         12    1    1    2    0    0  0.55964849454E-01 -0.10039600239E+01 -0.61802188151E+00  0.11802621912E+01  0.00000000000E+00 0. -1.
         11    1    3    3    0    0 -0.16498239194E+01 -0.37237420905E+01 -0.96301812127E+01  0.10456030058E+02  0.51100000000E-03 0. -1.
        -11    1    3    3    0    0  0.25832390621E+02  0.32824325018E+02  0.61103401785E+01  0.42214748316E+02  0.51100000000E-03 0.  1.
         12    1    3    3    0    0 -0.24238531551E+02 -0.28096622903E+02  0.41378629157E+01  0.37336959435E+02  0.00000000000E+00 0. -1.
</event>
<event>
 7    1  0.4331547E-015  0.9000773E+02  0.7816164E-02  0.1186339E+00
        -11   -1    0    0    0    0  0.00000000000E+00  0.00000000000E+00  0.45593999997E+02  0.45594000000E+02  0.51100000000E-03 0.  1.
         11   -1    0    0    0    0 -0.00000000000E+00 -0.00000000000E+00 -0.45593999997E+02  0.45594000000E+02  0.51100000000E-03 0. -1.
    9900012    2    1    2    0    0 -0.11338290047E+01  0.32724135399E+00 -0.19585154108E-01  0.90007729398E+02  0.89999990626E+02 0.  0.
         12    1    1    2    0    0  0.11338290047E+01 -0.32724135399E+00  0.19585154108E-01  0.11802706020E+01  0.00000000000E+00 0. -1.
         11    1    3    3    0    0  0.29908912101E+01  0.52361803776E+01  0.71514378099E+01  0.93544683540E+01  0.51100000000E-03 0. -1.
        -11    1    3    3    0    0 -0.26185758302E+02  0.90715979823E+01  0.26294725241E+02  0.38202099465E+02  0.51100000000E-03 0.  1.
         12    1    3    3    0    0  0.22061038087E+02 -0.13980537006E+02 -0.33465748205E+02  0.42451161579E+02  0.00000000000E+00 0. -1.
</event>
<event>
 7    1  0.4331547E-015  0.9000845E+02  0.7816164E-02  0.1186338E+00
        -11   -1    0    0    0    0  0.00000000000E+00  0.00000000000E+00  0.45593999997E+02  0.45594000000E+02  0.51100000000E-03 0.  1.
         11   -1    0    0    0    0 -0.00000000000E+00 -0.00000000000E+00 -0.45593999997E+02  0.45594000000E+02  0.51100000000E-03 0. -1.
    9900012    2    1    2    0    0 -0.82926787854E+00 -0.60570503059E+00  0.58031885598E+00  0.90008451878E+02  0.90000722639E+02 0.  0.
         12    1    1    2    0    0  0.82926787854E+00  0.60570503059E+00 -0.58031885598E+00  0.11795481224E+01  0.00000000000E+00 0. -1.
         11    1    3    3    0    0  0.21608595126E+02 -0.21458038900E+02 -0.23016885069E+02  0.38172710348E+02  0.51100000000E-03 0. -1.
        -11    1    3    3    0    0  0.73208996107E+01 -0.34567406208E+00 -0.15371653753E+01  0.74885205027E+01  0.51100000000E-03 0.  1.
        -12    1    3    3    0    0 -0.29758762616E+02  0.21198007932E+02  0.25134369300E+02  0.44347221027E+02  0.00000000000E+00 0.  1.
</event>
<event>
 7    1  0.4331547E-015  0.9000771E+02  0.7816164E-02  0.1186339E+00
        -11   -1    0    0    0    0  0.00000000000E+00  0.00000000000E+00  0.45593999997E+02  0.45594000000E+02  0.51100000000E-03 0. -1.
         11   -1    0    0    0    0 -0.00000000000E+00 -0.00000000000E+00 -0.45593999997E+02  0.45594000000E+02  0.51100000000E-03 0.  1.
    9900012    2    1    2    0    0 -0.20044864668E+00 -0.11629923554E+01  0.18976795658E-01  0.90007707241E+02  0.89999968176E+02 0.  0.
         12    1    1    2    0    0  0.20044864668E+00  0.11629923554E+01 -0.18976795658E-01  0.11802927592E+01  0.00000000000E+00 0. -1.
         11    1    3    3    0    0 -0.25863175744E+02 -0.17092936609E+02  0.22004617857E+02  0.38016779831E+02  0.51100000000E-03 0. -1.
        -11    1    3    3    0    0  0.20063270418E+01 -0.70321323644E+01  0.54339641966E+01  0.91106641328E+01  0.51100000000E-03 0.  1.
        -12    1    3    3    0    0  0.23656400056E+02  0.22962076618E+02 -0.27419605258E+02  0.42880263277E+02  0.00000000000E+00 0.  1.
</event>
<event>
 7    1  0.4331547E-015  0.9000777E+02  0.7816164E-02  0.1186339E+00
        -11   -1    0    0    0    0  0.00000000000E+00  0.00000000000E+00  0.45593999997E+02  0.45594000000E+02  0.51100000000E-03 0. -1.
         11   -1    0    0    0    0 -0.00000000000E+00 -0.00000000000E+00 -0.45593999997E+02  0.45594000000E+02  0.51100000000E-03 0.  1.
    9900012    2    1    2    0    0 -0.11327983107E+01  0.21336743657E+00 -0.25335363408E+00  0.90007768777E+02  0.90000030525E+02 0.  0.
         12    1    1    2    0    0  0.11327983107E+01 -0.21336743657E+00  0.25335363408E+00  0.11802312230E+01  0.00000000000E+00 0. -1.
         11    1    3    3    0    0 -0.16290929139E+02  0.96201562111E+01  0.32260549105E+02  0.37398994726E+02  0.51100000000E-03 0. -1.
        -11    1    3    3    0    0 -0.53990499199E+01  0.55936445588E+01  0.34879823790E+01  0.85208345146E+01  0.51100000000E-03 0.  1.
        -12    1    3    3    0    0  0.20557180748E+02 -0.15000433333E+02 -0.36001885118E+02  0.44087939536E+02  0.00000000000E+00 0.  1.
</event>
<event>
 7    1  0.4331547E-015  0.9000806E+02  0.7816164E-02  0.1186338E+00
        -11   -1    0    0    0    0  0.00000000000E+00  0.00000000000E+00  0.45593999997E+02  0.45594000000E+02  0.51100000000E-03 0. -1.
         11   -1    0    0    0    0 -0.00000000000E+00 -0.00000000000E+00 -0.45593999997E+02  0.45594000000E+02  0.51100000000E-03 0.  1.
    9900012    2    1    2    0    0  0.11141087690E+01 -0.37847456520E+00  0.88121779732E-01  0.90008064920E+02  0.90000330576E+02 0.  0.
         12    1    1    2    0    0 -0.11141087690E+01  0.37847456520E+00 -0.88121779732E-01  0.11799350803E+01  0.00000000000E+00 0. -1.
         11    1    3    3    0    0 -0.27656180963E+01  0.91785494689E+01 -0.22004839703E+01  0.98354737442E+01  0.51100000000E-03 0. -1.
        -11    1    3    3    0    0 -0.26739845468E+02  0.20594091924E+02 -0.10484057653E+02  0.35341921608E+02  0.51100000000E-03 0.  1.
         12    1    3    3    0    0  0.30619572334E+02 -0.30151115958E+02  0.12772663403E+02  0.44830669567E+02  0.00000000000E+00 0. -1.
</event>
<event>
 7    1  0.4331547E-015  0.9000770E+02  0.7816164E-02  0.1186339E+00
        -11   -1    0    0    0    0  0.00000000000E+00  0.00000000000E+00  0.45593999997E+02  0.45594000000E+02  0.51100000000E-03 0.  1.
         11   -1    0    0    0    0 -0.00000000000E+00 -0.00000000000E+00 -0.45593999997E+02  0.45594000000E+02  0.51100000000E-03 0. -1.
    9900012    2    1    2    0    0  0.27397248626E+00 -0.15488284914E+00  0.11375666215E+01  0.90007700276E+02  0.89999961120E+02 0.  0.
         12    1    1    2    0    0 -0.27397248626E+00  0.15488284914E+00 -0.11375666215E+01  0.11802997240E+01  0.00000000000E+00 0. -1.
         11    1    3    3    0    0 -0.30124128007E+02 -0.22720821452E+02  0.97329914477E+00  0.37744484725E+02  0.51100000000E-03 0. -1.
        -11    1    3    3    0    0 -0.19909254082E+01 -0.76382044320E+01  0.10786258911E+01  0.79667675377E+01  0.51100000000E-03 0.  1.
        -12    1    3    3    0    0  0.32389025902E+02  0.30204143035E+02 -0.91435841438E+00  0.44296448014E+02  0.00000000000E+00 0.  1.
</event>
<event>
 7    1  0.4331547E-015  0.9000777E+02  0.7816164E-02  0.1186339E+00
        -11   -1    0    0    0    0  0.00000000000E+00  0.00000000000E+00  0.45593999997E+02  0.45594000000E+02  0.51100000000E-03 0.  1.
         11   -1    0    0    0    0 -0.00000000000E+00 -0.00000000000E+00 -0.45593999997E+02  0.45594000000E+02  0.51100000000E-03 0. -1.
    9900012    2    1    2    0    0 -0.91394556297E+00 -0.63128478071E+00 -0.39889654173E+00  0.90007773150E+02  0.90000034956E+02 0.  0.
         12    1    1    2    0    0  0.91394556297E+00  0.63128478071E+00  0.39889654173E+00  0.11802268500E+01  0.00000000000E+00 0. -1.
         11    1    3    3    0    0  0.17915984418E+02  0.76065720974E+00  0.55774666656E+01  0.18779489656E+02  0.51100000000E-03 0. -1.
        -11    1    3    3    0    0  0.49655456851E+01 -0.31345215966E+02  0.31740404185E+01  0.31894415510E+02  0.51100000000E-03 0.  1.
        -12    1    3    3    0    0 -0.23795475666E+02  0.29953273976E+02 -0.91504036258E+01  0.39333867984E+02  0.00000000000E+00 0.  1.
</event>
<event>
 7    1  0.4331547E-015  0.9000765E+02  0.7816164E-02  0.1186339E+00
        -11   -1    0    0    0    0  0.00000000000E+00  0.00000000000E+00  0.45593999997E+02  0.45594000000E+02  0.51100000000E-03 0.  1.
         11   -1    0    0    0    0 -0.00000000000E+00 -0.00000000000E+00 -0.45593999997E+02  0.45594000000E+02  0.51100000000E-03 0. -1.
    9900012    2    1    2    0    0  0.94434804046E+00  0.22100330214E+00  0.67275434800E+00  0.90007646623E+02  0.89999906759E+02 0.  0.
         12    1    1    2    0    0 -0.94434804046E+00 -0.22100330214E+00 -0.67275434800E+00  0.11803533767E+01  0.00000000000E+00 0. -1.
         11    1    3    3    0    0 -0.69398833008E+00 -0.21932425703E+01  0.83134646112E+01  0.86258696302E+01  0.51100000000E-03 0. -1.
        -11    1    3    3    0    0  0.16514827392E+02  0.24305159676E+02  0.25543475502E+02  0.38935195539E+02  0.51100000000E-03 0.  1.
         12    1    3    3    0    0 -0.14876491021E+02 -0.21890913804E+02 -0.33184185765E+02  0.42446581454E+02  0.00000000000E+00 0. -1.
</event>
<event>
 7    1  0.4331547E-015  0.9000769E+02  0.7816164E-02  0.1186339E+00
        -11   -1    0    0    0    0  0.00000000000E+00  0.00000000000E+00  0.45593999997E+02  0.45594000000E+02  0.51100000000E-03 0.  1.
         11   -1    0    0    0    0 -0.00000000000E+00 -0.00000000000E+00 -0.45593999997E+02  0.45594000000E+02  0.51100000000E-03 0. -1.
    9900012    2    1    2    0    0 -0.10861937270E+01  0.26228978431E+00  0.38015713451E+00  0.90007689791E+02  0.89999950496E+02 0.  0.
         12    1    1    2    0    0  0.10861937270E+01 -0.26228978431E+00 -0.38015713451E+00  0.11803102094E+01  0.00000000000E+00 0. -1.
         11    1    3    3    0    0  0.56525791394E+01  0.14587945643E+01  0.81209464942E+01  0.10001475128E+02  0.51100000000E-03 0. -1.
        -11    1    3    3    0    0  0.77109996197E+01 -0.84022309854E+01  0.33675261823E+02  0.35553906392E+02  0.51100000000E-03 0.  1.
         12    1    3    3    0    0 -0.14449772486E+02  0.72057262054E+01 -0.41416051182E+02  0.44452308271E+02  0.00000000000E+00 0. -1.
</event>
<event>
 7    1  0.4331547E-015  0.9000848E+02  0.7816164E-02  0.1186338E+00
        -11   -1    0    0    0    0  0.00000000000E+00  0.00000000000E+00  0.45593999997E+02  0.45594000000E+02  0.51100000000E-03 0. -1.
         11   -1    0    0    0    0 -0.00000000000E+00 -0.00000000000E+00 -0.45593999997E+02  0.45594000000E+02  0.51100000000E-03 0.  1.
    9900012    2    1    2    0    0  0.61102635029E+00 -0.10088387111E+01 -0.12512048661E-01  0.90008480904E+02  0.90000752049E+02 0.  0.
         12    1    1    2    0    0 -0.61102635029E+00  0.10088387111E+01  0.12512048661E-01  0.11795190957E+01  0.00000000000E+00 0. -1.
         11    1    3    3    0    0  0.11530006927E+01 -0.85480302289E+01 -0.30895116793E+01  0.91620583969E+01  0.51100000000E-03 0. -1.
        -11    1    3    3    0    0 -0.30349941212E+02 -0.14938431835E+02  0.20599461244E+02  0.39605725357E+02  0.51100000000E-03 0.  1.
         12    1    3    3    0    0  0.29807966869E+02  0.22477623352E+02 -0.17522461614E+02  0.41240697150E+02  0.00000000000E+00 0. -1.
</event>
<event>
 7    1  0.4331547E-015  0.9000776E+02  0.7816164E-02  0.1186339E+00
        -11   -1    0    0    0    0  0.00000000000E+00  0.00000000000E+00  0.45593999997E+02  0.45594000000E+02  0.51100000000E-03 0.  1.
         11   -1    0    0    0    0 -0.00000000000E+00 -0.00000000000E+00 -0.45593999997E+02  0.45594000000E+02  0.51100000000E-03 0. -1.
    9900012    2    1    2    0    0 -0.31132743624E+00 -0.82052671261E+00 -0.78916321425E+00  0.90007759585E+02  0.90000021211E+02 0.  0.
         12    1    1    2    0    0  0.31132743624E+00  0.82052671261E+00  0.78916321425E+00  0.11802404151E+01  0.00000000000E+00 0. -1.
         11    1    3    3    0    0  0.80264067732E+01  0.39473298517E+02  0.12537718039E+02  0.42187188522E+02  0.51100000000E-03 0. -1.
        -11    1    3    3    0    0  0.65501597986E+01 -0.89594558678E+01 -0.16719424070E+01  0.11223717499E+02  0.51100000000E-03 0.  1.
        -12    1    3    3    0    0 -0.14887894008E+02 -0.31334369362E+02 -0.11654938846E+02  0.36596853564E+02  0.00000000000E+00 0.  1.
</event>
<event>
 7    1  0.4331547E-015  0.9000702E+02  0.7816164E-02  0.1186340E+00
        -11   -1    0    0    0    0  0.00000000000E+00  0.00000000000E+00  0.45593999997E+02  0.45594000000E+02  0.51100000000E-03 0.  1.
         11   -1    0    0    0    0 -0.00000000000E+00 -0.00000000000E+00 -0.45593999997E+02  0.45594000000E+02  0.51100000000E-03 0. -1.
    9900012    2    1    2    0    0 -0.10468191237E+01 -0.54453780936E+00 -0.48575992033E-01  0.90007021029E+02  0.89999272903E+02 0.  0.
         12    1    1    2    0    0  0.10468191237E+01  0.54453780936E+00  0.48575992033E-01  0.11809789713E+01  0.00000000000E+00 0. -1.
         11    1    3    3    0    0 -0.12667439243E+02 -0.33364286095E+01 -0.39135168732E+02  0.41269325228E+02  0.51100000000E-03 0. -1.
        -11    1    3    3    0    0  0.64604705638E+01  0.32831590178E+01 -0.18459466113E+01  0.74782572966E+01  0.51100000000E-03 0.  1.
        -12    1    3    3    0    0  0.51601495560E+01 -0.49126821764E+00  0.40932539351E+02  0.41259438504E+02  0.00000000000E+00 0.  1.
</event>
<event>
 7    1  0.4331547E-015  0.9000774E+02  0.7816164E-02  0.1186339E+00
        -11   -1    0    0    0    0  0.00000000000E+00  0.00000000000E+00  0.45593999997E+02  0.45594000000E+02  0.51100000000E-03 0.  1.
         11   -1    0    0    0    0 -0.00000000000E+00 -0.00000000000E+00 -0.45593999997E+02  0.45594000000E+02  0.51100000000E-03 0. -1.
    9900012    2    1    2    0    0 -0.10865464424E+01 -0.32948966591E+00 -0.32227461305E+00  0.90007742597E+02  0.90000003999E+02 0.  0.
         12    1    1    2    0    0  0.10865464424E+01  0.32948966591E+00  0.32227461305E+00  0.11802574031E+01  0.00000000000E+00 0. -1.
         11    1    3    3    0    0 -0.87252453485E+01 -0.13768490903E+01  0.20289902580E+01  0.90632456404E+01  0.51100000000E-03 0. -1.
        -11    1    3    3    0    0  0.10786250840E+02 -0.39081392938E+02  0.98454947113E+00  0.40554504301E+02  0.51100000000E-03 0.  1.
         12    1    3    3    0    0 -0.31475519342E+01  0.40128752363E+02 -0.33358143422E+01  0.40389992655E+02  0.00000000000E+00 0. -1.
</event>
<event>
 7    1  0.4331547E-015  0.9000771E+02  0.7816164E-02  0.1186339E+00
        -11   -1    0    0    0    0  0.00000000000E+00  0.00000000000E+00  0.45593999997E+02  0.45594000000E+02  0.51100000000E-03 0. -1.
         11   -1    0    0    0    0 -0.00000000000E+00 -0.00000000000E+00 -0.45593999997E+02  0.45594000000E+02  0.51100000000E-03 0.  1.
    9900012    2    1    2    0    0  0.11112087207E+01  0.18075684383E+00  0.35444091874E+00  0.90007709264E+02  0.89999970226E+02 0.  0.
         12    1    1    2    0    0 -0.11112087207E+01 -0.18075684383E+00 -0.35444091874E+00  0.11802907364E+01  0.00000000000E+00 0. -1.
         11    1    3    3    0    0 -0.31079767032E+02 -0.15168572520E+02  0.75540177553E+01  0.35399162357E+02  0.51100000000E-03 0. -1.
        -11    1    3    3    0    0 -0.36577177048E+01 -0.90740135429E+01 -0.54420806758E+01  0.11195216073E+02  0.51100000000E-03 0.  1.
        -12    1    3    3    0    0  0.35848693457E+02  0.24423342907E+02 -0.17574961607E+01  0.43413330834E+02  0.00000000000E+00 0.  1.
</event>
<event>
 7    1  0.4331547E-015  0.9000765E+02  0.7816164E-02  0.1186339E+00
        -11   -1    0    0    0    0  0.00000000000E+00  0.00000000000E+00  0.45593999997E+02  0.45594000000E+02  0.51100000000E-03 0.  1.
         11   -1    0    0    0    0 -0.00000000000E+00 -0.00000000000E+00 -0.45593999997E+02  0.45594000000E+02  0.51100000000E-03 0. -1.
    9900012    2    1    2    0    0 -0.51892117682E+00 -0.70845132923E+00  0.78869853273E+00  0.90007649269E+02  0.89999909439E+02 0.  0.
         12    1    1    2    0    0  0.51892117682E+00  0.70845132923E+00 -0.78869853273E+00  0.11803507314E+01  0.00000000000E+00 0. -1.
         11    1    3    3    0    0 -0.27622516951E+02  0.28643245394E+02  0.91248510591E+01  0.40825260030E+02  0.51100000000E-03 0. -1.
        -11    1    3    3    0    0 -0.15697396891E+01 -0.10682120414E+02  0.56887841072E+01  0.12203853658E+02  0.51100000000E-03 0.  1.
        -12    1    3    3    0    0  0.28673335463E+02 -0.18669576309E+02 -0.14024936634E+02  0.36978535581E+02  0.00000000000E+00 0.  1.
</event>
<event>
 7    1  0.4331547E-015  0.9000773E+02  0.7816164E-02  0.1186339E+00
        -11   -1    0    0    0    0  0.00000000000E+00  0.00000000000E+00  0.45593999997E+02  0.45594000000E+02  0.51100000000E-03 0.  1.
         11   -1    0    0    0    0 -0.00000000000E+00 -0.00000000000E+00 -0.45593999997E+02  0.45594000000E+02  0.51100000000E-03 0. -1.
    9900012    2    1    2    0    0  0.20226793081E+00 -0.10111919685E+01  0.57412572966E+00  0.90007728054E+02  0.89999989264E+02 0.  0.
         12    1    1    2    0    0 -0.20226793081E+00  0.10111919685E+01 -0.57412572966E+00  0.11802719460E+01  0.00000000000E+00 0. -1.
         11    1    3    3    0    0  0.69318966471E+01 -0.81551515092E+01  0.18249780579E+01  0.10857634753E+02  0.51100000000E-03 0. -1.
        -11    1    3    3    0    0 -0.26202745471E+02  0.48883920563E+01  0.31324975350E+02  0.41130698122E+02  0.51100000000E-03 0.  1.
         12    1    3    3    0    0  0.19473116755E+02  0.22555674844E+01 -0.32575827678E+02  0.38019395178E+02  0.00000000000E+00 0. -1.
</event>
<event>
 7    1  0.4331547E-015  0.9000774E+02  0.7816164E-02  0.1186339E+00
        -11   -1    0    0    0    0  0.00000000000E+00  0.00000000000E+00  0.45593999997E+02  0.45594000000E+02  0.51100000000E-03 0.  1.
         11   -1    0    0    0    0 -0.00000000000E+00 -0.00000000000E+00 -0.45593999997E+02  0.45594000000E+02  0.51100000000E-03 0. -1.
    9900012    2    1    2    0    0  0.10763923348E+01 -0.39221099576E+00  0.28384746692E+00  0.90007737610E+02  0.89999998947E+02 0.  0.
         12    1    1    2    0    0 -0.10763923348E+01  0.39221099576E+00 -0.28384746692E+00  0.11802623895E+01  0.00000000000E+00 0. -1.
         11    1    3    3    0    0 -0.27634970050E+02 -0.33733267302E+02 -0.39496882914E+01  0.43786127145E+02  0.51100000000E-03 0. -1.
        -11    1    3    3    0    0  0.69701306597E+01  0.41267831108E+01 -0.37724073075E+01  0.89355535593E+01  0.51100000000E-03 0.  1.
        -12    1    3    3    0    0  0.21741231725E+02  0.29214273195E+02  0.80059430659E+01  0.37286056906E+02  0.00000000000E+00 0.  1.
</event>
<event>
 7    1  0.4331547E-015  0.9000739E+02  0.7816164E-02  0.1186340E+00
        -11   -1    0    0    0    0  0.00000000000E+00  0.00000000000E+00  0.45593999997E+02  0.45594000000E+02  0.51100000000E-03 0.  1.
         11   -1    0    0    0    0 -0.00000000000E+00 -0.00000000000E+00 -0.45593999997E+02  0.45594000000E+02  0.51100000000E-03 0. -1.
    9900012    2    1    2    0    0 -0.97224839394E+00 -0.65710923651E+00 -0.12958397035E+00  0.90007385121E+02  0.89999641803E+02 0.  0.
         12    1    1    2    0    0  0.97224839394E+00  0.65710923651E+00  0.12958397035E+00  0.11806148795E+01  0.00000000000E+00 0. -1.
         11    1    3    3    0    0  0.55403493603E+01  0.28973496437E+01  0.51888263665E+01  0.81249015572E+01  0.51100000000E-03 0. -1.
        -11    1    3    3    0    0 -0.74247388083E+01  0.14269790751E+02  0.34599697113E+02  0.38156162216E+02  0.51100000000E-03 0.  1.
         12    1    3    3    0    0  0.91214105411E+00 -0.17824249632E+02 -0.39918107450E+02  0.43726321348E+02  0.00000000000E+00 0. -1.
</event>
<event>
 7    1  0.4331547E-015  0.9000766E+02  0.7816164E-02  0.1186339E+00
        -11   -1    0    0    0    0  0.00000000000E+00  0.00000000000E+00  0.45593999997E+02  0.45594000000E+02  0.51100000000E-03 0.  1.
         11   -1    0    0    0    0 -0.00000000000E+00 -0.00000000000E+00 -0.45593999997E+02  0.45594000000E+02  0.51100000000E-03 0. -1.
    9900012    2    1    2    0    0  0.10260064358E+01 -0.17364445336E+00  0.55709546806E+00  0.90007662352E+02  0.89999922695E+02 0.  0.
         12    1    1    2    0    0 -0.10260064358E+01  0.17364445336E+00 -0.55709546806E+00  0.11803376479E+01  0.00000000000E+00 0. -1.
         11    1    3    3    0    0  0.79283214612E+00  0.45937475708E+01 -0.72108597311E+01  0.85864776177E+01  0.51100000000E-03 0. -1.
        -11    1    3    3    0    0 -0.33359237150E+02  0.78504651780E+01 -0.16566073403E+02  0.38064462363E+02  0.51100000000E-03 0.  1.
         12    1    3    3    0    0  0.33592411440E+02 -0.12617857202E+02  0.24334028603E+02  0.43356722371E+02  0.00000000000E+00 0. -1.
</event>
<event>
 7    1  0.4331547E-015  0.9000778E+02  0.7816164E-02  0.1186339E+00
        -11   -1    0    0    0    0  0.00000000000E+00  0.00000000000E+00  0.45593999997E+02  0.45594000000E+02  0.51100000000E-03 0. -1.
         11   -1    0    0    0    0 -0.00000000000E+00 -0.00000000000E+00 -0.45593999997E+02  0.45594000000E+02  0.51100000000E-03 0.  1.
    9900012    2    1    2    0    0 -0.82401110983E-02  0.86185027632E+00 -0.80626491458E+00  0.90007780990E+02  0.90000042899E+02 0.  0.
         12    1    1    2    0    0  0.82401110983E-02 -0.86185027632E+00  0.80626491458E+00  0.11802190096E+01  0.00000000000E+00 0. -1.
         11    1    3    3    0    0 -0.89251332310E+01  0.44568434985E+01 -0.51515821350E+01  0.11227655851E+02  0.51100000000E-03 0. -1.
        -11    1    3    3    0    0  0.18022691064E+01 -0.92653484474E+01 -0.36105449707E+02  0.37318873973E+02  0.51100000000E-03 0.  1.
         12    1    3    3    0    0  0.71146240135E+01  0.56703552252E+01  0.40450766928E+02  0.41461251166E+02  0.00000000000E+00 0. -1.
</event>
<event>
 7    1  0.4331547E-015  0.9000762E+02  0.7816164E-02  0.1186339E+00
        -11   -1    0    0    0    0  0.00000000000E+00  0.00000000000E+00  0.45593999997E+02  0.45594000000E+02  0.51100000000E-03 0. -1.
         11   -1    0    0    0    0 -0.00000000000E+00 -0.00000000000E+00 -0.45593999997E+02  0.45594000000E+02  0.51100000000E-03 0.  1.
    9900012    2    1    2    0    0 -0.46218710921E+00  0.39903137728E+00 -0.10101748010E+01  0.90007620361E+02  0.89999880150E+02 0.  0.
         12    1    1    2    0    0  0.46218710921E+00 -0.39903137728E+00  0.10101748010E+01  0.11803796392E+01  0.00000000000E+00 0. -1.
         11    1    3    3    0    0  0.10171914758E+02 -0.18753944920E+02  0.31780740697E+02  0.38277849723E+02  0.51100000000E-03 0. -1.
        -11    1    3    3    0    0  0.38417750545E+01 -0.81591670099E+01 -0.88053598574E+01  0.12604189952E+02  0.51100000000E-03 0.  1.
        -12    1    3    3    0    0 -0.14475876921E+02  0.27312143307E+02 -0.23985555640E+02  0.39125580686E+02  0.00000000000E+00 0.  1.
</event>
<event>
 7    1  0.4331547E-015  0.9000762E+02  0.7816164E-02  0.1186339E+00
        -11   -1    0    0    0    0  0.00000000000E+00  0.00000000000E+00  0.45593999997E+02  0.45594000000E+02  0.51100000000E-03 0.  1.
         11   -1    0    0    0    0 -0.00000000000E+00 -0.00000000000E+00 -0.45593999997E+02  0.45594000000E+02  0.51100000000E-03 0. -1.
    9900012    2    1    2    0    0 -0.82150119789E+00  0.84735456135E+00  0.20663892977E-01  0.90007618296E+02  0.89999878057E+02 0.  0.
         12    1    1    2    0    0  0.82150119789E+00 -0.84735456135E+00 -0.20663892977E-01  0.11803817040E+01  0.00000000000E+00 0. -1.
         11    1    3    3    0    0  0.24008123050E+02 -0.47134167401E+01  0.35926265210E+02  0.43466110960E+02  0.51100000000E-03 0.  1.
        -11    1    3    3    0    0 -0.13076976489E+02 -0.56998693962E+00 -0.72372596225E+01  0.14956942412E+02  0.51100000000E-03 0. -1.
        -12    1    3    3    0    0 -0.11752647759E+02  0.61307582411E+01 -0.28668341694E+02  0.31584564924E+02  0.00000000000E+00 0.  1.
</event>
<event>
 7    1  0.4331547E-015  0.9000770E+02  0.7816164E-02  0.1186339E+00
        -11   -1    0    0    0    0  0.00000000000E+00  0.00000000000E+00  0.45593999997E+02  0.45594000000E+02  0.51100000000E-03 0.  1.
         11   -1    0    0    0    0 -0.00000000000E+00 -0.00000000000E+00 -0.45593999997E+02  0.45594000000E+02  0.51100000000E-03 0. -1.
    9900012    2    1    2    0    0 -0.25622157943E+00 -0.21342383601E+00  0.11322109064E+01  0.90007703102E+02  0.89999963983E+02 0.  0.
         12    1    1    2    0    0  0.25622157943E+00  0.21342383601E+00 -0.11322109064E+01  0.11802968982E+01  0.00000000000E+00 0. -1.
         11    1    3    3    0    0  0.79172172034E+01  0.19253432208E+01 -0.39104535012E+01  0.90377498090E+01  0.51100000000E-03 0. -1.
        -11    1    3    3    0    0  0.59320065348E+01  0.33625635006E+02  0.20167835092E+02  0.39656192501E+02  0.51100000000E-03 0.  1.
         12    1    3    3    0    0 -0.14105445318E+02 -0.35764402063E+02 -0.15125170685E+02  0.41313760792E+02  0.00000000000E+00 0. -1.
</event>
<event>
 7    1  0.4331547E-015  0.9000749E+02  0.7816164E-02  0.1186340E+00
        -11   -1    0    0    0    0  0.00000000000E+00  0.00000000000E+00  0.45593999997E+02  0.45594000000E+02  0.51100000000E-03 0. -1.
         11   -1    0    0    0    0 -0.00000000000E+00 -0.00000000000E+00 -0.45593999997E+02  0.45594000000E+02  0.51100000000E-03 0.  1.
    9900012    2    1    2    0    0  0.73511964898E-01 -0.69396918148E+00 -0.95215794228E+00  0.90007490796E+02  0.89999748874E+02 0.  0.
         12    1    1    2    0    0 -0.73511964898E-01  0.69396918148E+00  0.95215794228E+00  0.11805092041E+01  0.00000000000E+00 0. -1.
         11    1    3    3    0    0  0.76172116826E+01  0.27243286121E+02  0.31089113612E+02  0.42032743640E+02  0.51100000000E-03 0. -1.
        -11    1    3    3    0    0  0.45336854338E+01 -0.76340779194E+01 -0.95404795436E+00  0.89299304058E+01  0.51100000000E-03 0.  1.
        -12    1    3    3    0    0 -0.12077385152E+02 -0.20303177383E+02 -0.31087223600E+02  0.39044816750E+02  0.00000000000E+00 0.  1.
</event>
<event>
 7    1  0.4331547E-015  0.9000772E+02  0.7816164E-02  0.1186339E+00
        -11   -1    0    0    0    0  0.00000000000E+00  0.00000000000E+00  0.45593999997E+02  0.45594000000E+02  0.51100000000E-03 0. -1.
         11   -1    0    0    0    0 -0.00000000000E+00 -0.00000000000E+00 -0.45593999997E+02  0.45594000000E+02  0.51100000000E-03 0.  1.
    9900012    2    1    2    0    0  0.10046020745E+01  0.56509958044E+00 -0.25397015720E+00  0.90007718803E+02  0.89999979891E+02 0.  0.
         12    1    1    2    0    0 -0.10046020745E+01 -0.56509958044E+00  0.25397015720E+00  0.11802811973E+01  0.00000000000E+00 0. -1.
         11    1    3    3    0    0  0.83703949809E+00 -0.87708042965E+00 -0.75805596164E+01  0.76768997363E+01  0.51100000000E-03 0. -1.
        -11    1    3    3    0    0  0.14468524316E+02  0.38500429156E+02 -0.31522809182E+01  0.41249946865E+02  0.51100000000E-03 0.  1.
         12    1    3    3    0    0 -0.14300961740E+02 -0.37058249146E+02  0.10478870377E+02  0.41080872202E+02  0.00000000000E+00 0. -1.
</event>
<event>
 7    1  0.4331547E-015  0.9000747E+02  0.7816164E-02  0.1186340E+00
        -11   -1    0    0    0    0  0.00000000000E+00  0.00000000000E+00  0.45593999997E+02  0.45594000000E+02  0.51100000000E-03 0. -1.
         11   -1    0    0    0    0 -0.00000000000E+00 -0.00000000000E+00 -0.45593999997E+02  0.45594000000E+02  0.51100000000E-03 0.  1.
    9900012    2    1    2    0    0 -0.10356386213E+01  0.19729846386E+00 -0.53120157122E+00  0.90007470819E+02  0.89999728633E+02 0.  0.
         12    1    1    2    0    0  0.10356386213E+01 -0.19729846386E+00  0.53120157122E+00  0.11805291809E+01  0.00000000000E+00 0. -1.
         11    1    3    3    0    0 -0.38757092168E+02  0.19870556899E+02  0.51274124349E+01  0.43854778341E+02  0.51100000000E-03 0. -1.
        -11    1    3    3    0    0  0.73444107525E+01  0.28055556662E+01 -0.24123864015E+01  0.82238142190E+01  0.51100000000E-03 0.  1.
        -12    1    3    3    0    0  0.30377042794E+02 -0.22478814101E+02 -0.32462276046E+01  0.37928878259E+02  0.00000000000E+00 0.  1.
</event>
<event>
 7    1  0.4331547E-015  0.9000775E+02  0.7816164E-02  0.1186339E+00
        -11   -1    0    0    0    0  0.00000000000E+00  0.00000000000E+00  0.45593999997E+02  0.45594000000E+02  0.51100000000E-03 0. -1.
         11   -1    0    0    0    0 -0.00000000000E+00 -0.00000000000E+00 -0.45593999997E+02  0.45594000000E+02  0.51100000000E-03 0.  1.
    9900012    2    1    2    0    0  0.10965856712E+01 -0.28646662315E+00 -0.32927148881E+00  0.90007753003E+02  0.90000014543E+02 0.  0.
         12    1    1    2    0    0 -0.10965856712E+01  0.28646662315E+00  0.32927148881E+00  0.11802469970E+01  0.00000000000E+00 0. -1.
         11    1    3    3    0    0  0.32898273995E+02 -0.19814307498E+02  0.48987248003E+01  0.38715639197E+02  0.51100000000E-03 0. -1.
        -11    1    3    3    0    0  0.62483111892E+01  0.32174145077E-01 -0.58131570807E+01  0.85343554764E+01  0.51100000000E-03 0.  1.
        -12    1    3    3    0    0 -0.38049999513E+02  0.19495666730E+02  0.58516079163E+00  0.42757758329E+02  0.00000000000E+00 0.  1.
</event>
<event>
 7    1  0.4331547E-015  0.9000749E+02  0.7816164E-02  0.1186340E+00
        -11   -1    0    0    0    0  0.00000000000E+00  0.00000000000E+00  0.45593999997E+02  0.45594000000E+02  0.51100000000E-03 0.  1.
         11   -1    0    0    0    0 -0.00000000000E+00 -0.00000000000E+00 -0.45593999997E+02  0.45594000000E+02  0.51100000000E-03 0. -1.
    9900012    2    1    2    0    0 -0.71454766176E+00  0.64235847842E+00  0.68585527542E+00  0.90007491536E+02  0.89999749624E+02 0.  0.
         12    1    1    2    0    0  0.71454766176E+00 -0.64235847842E+00 -0.68585527542E+00  0.11805084644E+01  0.00000000000E+00 0. -1.
         11    1    3    3    0    0  0.30385487540E+02  0.23447810739E+02  0.16492153634E+02  0.41774020794E+02  0.51100000000E-03 0. -1.
        -11    1    3    3    0    0  0.28434539455E+01 -0.79017639703E+01 -0.16943971213E+01  0.85670348458E+01  0.51100000000E-03 0.  1.
        -12    1    3    3    0    0 -0.33943489148E+02 -0.14903688290E+02 -0.14111901237E+02  0.39666435896E+02  0.00000000000E+00 0.  1.
</event>
<event>
 7    1  0.4331547E-015  0.9000778E+02  0.7816164E-02  0.1186339E+00
        -11   -1    0    0    0    0  0.00000000000E+00  0.00000000000E+00  0.45593999997E+02  0.45594000000E+02  0.51100000000E-03 0.  1.
         11   -1    0    0    0    0 -0.00000000000E+00 -0.00000000000E+00 -0.45593999997E+02  0.45594000000E+02  0.51100000000E-03 0. -1.
    9900012    2    1    2    0    0 -0.94047897701E+00 -0.70131616243E+00  0.12872494131E+00  0.90007781725E+02  0.90000043644E+02 0.  0.
         12    1    1    2    0    0  0.94047897701E+00  0.70131616243E+00 -0.12872494131E+00  0.11802182749E+01  0.00000000000E+00 0. -1.
         11    1    3    3    0    0  0.99517341531E+01 -0.18269847718E+01 -0.29167921134E+01  0.10530078941E+02  0.51100000000E-03 0. -1.
        -11    1    3    3    0    0 -0.20678578437E+02 -0.28889282426E+02  0.22820839035E+02  0.42225406331E+02  0.51100000000E-03 0.  1.
         12    1    3    3    0    0  0.97863653071E+01  0.30014951036E+02 -0.19775321980E+02  0.37252296453E+02  0.00000000000E+00 0. -1.
</event>
<event>
 7    1  0.4331547E-015  0.9000784E+02  0.7816164E-02  0.1186339E+00
        -11   -1    0    0    0    0  0.00000000000E+00  0.00000000000E+00  0.45593999997E+02  0.45594000000E+02  0.51100000000E-03 0.  1.
         11   -1    0    0    0    0 -0.00000000000E+00 -0.00000000000E+00 -0.45593999997E+02  0.45594000000E+02  0.51100000000E-03 0. -1.
    9900012    2    1    2    0    0  0.61785996056E+00  0.14878087273E+00  0.99442422089E+00  0.90007844836E+02  0.90000107588E+02 0.  0.
         12    1    1    2    0    0 -0.61785996056E+00 -0.14878087273E+00 -0.99442422089E+00  0.11801551635E+01  0.00000000000E+00 0. -1.
         11    1    3    3    0    0 -0.19833704798E+02  0.17463073956E+02 -0.30226008030E+02  0.40149051791E+02  0.51100000000E-03 0. -1.
        -11    1    3    3    0    0  0.11172807683E+02  0.52773985017E+01  0.33520657511E+01  0.12803082110E+02  0.51100000000E-03 0.  1.
        -12    1    3    3    0    0  0.92787570757E+01 -0.22591691584E+02  0.27868366500E+02  0.37055710935E+02  0.00000000000E+00 0.  1.
</event>
<event>
 7    1  0.4331547E-015  0.9000794E+02  0.7816164E-02  0.1186339E+00
        -11   -1    0    0    0    0  0.00000000000E+00  0.00000000000E+00  0.45593999997E+02  0.45594000000E+02  0.51100000000E-03 0.  1.
         11   -1    0    0    0    0 -0.00000000000E+00 -0.00000000000E+00 -0.45593999997E+02  0.45594000000E+02  0.51100000000E-03 0. -1.
    9900012    2    1    2    0    0 -0.97439916537E+00  0.65257716474E+00  0.13125146637E+00  0.90007941681E+02  0.90000205711E+02 0.  0.
         12    1    1    2    0    0  0.97439916537E+00 -0.65257716474E+00 -0.13125146637E+00  0.11800583193E+01  0.00000000000E+00 0. -1.
         11    1    3    3    0    0  0.32813788249E+02 -0.13466455734E+02  0.11209906291E+02  0.37198818914E+02  0.51100000000E-03 0. -1.
        -11    1    3    3    0    0  0.19990115286E+01 -0.87381801585E+01 -0.16573716988E+00  0.89654508333E+01  0.51100000000E-03 0.  1.
        -12    1    3    3    0    0 -0.35787198943E+02  0.22857213057E+02 -0.10912917655E+02  0.43843671934E+02  0.00000000000E+00 0.  1.
</event>
<event>
 7    1  0.4331547E-015  0.9000767E+02  0.7816164E-02  0.1186339E+00
        -11   -1    0    0    0    0  0.00000000000E+00  0.00000000000E+00  0.45593999997E+02  0.45594000000E+02  0.51100000000E-03 0.  1.
         11   -1    0    0    0    0 -0.00000000000E+00 -0.00000000000E+00 -0.45593999997E+02  0.45594000000E+02  0.51100000000E-03 0. -1.
    9900012    2    1    2    0    0  0.96624112220E+00 -0.37717806623E+00  0.56329542602E+00  0.90007666599E+02  0.89999926998E+02 0.  0.
         12    1    1    2    0    0 -0.96624112220E+00  0.37717806623E+00 -0.56329542602E+00  0.11803334007E+01  0.00000000000E+00 0. -1.
         11    1    3    3    0    0 -0.67415508494E+01  0.65725171981E+01  0.33181178168E+01  0.99828050307E+01  0.51100000000E-03 0. -1.
        -11    1    3    3    0    0 -0.20337890352E+02 -0.92204594145E+01  0.29643871365E+02  0.37113417595E+02  0.51100000000E-03 0.  1.
         12    1    3    3    0    0  0.28045682324E+02  0.22707641502E+01 -0.32398693756E+02  0.42911443974E+02  0.00000000000E+00 0. -1.
</event>
<event>
 7    1  0.4331547E-015  0.9000782E+02  0.7816164E-02  0.1186339E+00
        -11   -1    0    0    0    0  0.00000000000E+00  0.00000000000E+00  0.45593999997E+02  0.45594000000E+02  0.51100000000E-03 0.  1.
         11   -1    0    0    0    0 -0.00000000000E+00 -0.00000000000E+00 -0.45593999997E+02  0.45594000000E+02  0.51100000000E-03 0. -1.
    9900012    2    1    2    0    0  0.39852048789E-02 -0.84865313788E-02  0.11801467758E+01  0.90007815982E+02  0.90000078353E+02 0.  0.
         12    1    1    2    0    0 -0.39852048789E-02  0.84865313788E-02 -0.11801467758E+01  0.11801840177E+01  0.00000000000E+00 0. -1.
         11    1    3    3    0    0  0.84464914942E+00  0.46132428567E-01  0.98382930127E+01  0.98745921461E+01  0.51100000000E-03 0. -1.
        -11    1    3    3    0    0 -0.28297819792E+02 -0.15659905263E+02  0.19546975791E+02  0.37789992070E+02  0.51100000000E-03 0.  1.
         12    1    3    3    0    0  0.27457155847E+02  0.15605286303E+02 -0.28205122028E+02  0.42343231766E+02  0.00000000000E+00 0. -1.
</event>
<event>
 7    1  0.4331547E-015  0.9000779E+02  0.7816164E-02  0.1186339E+00
        -11   -1    0    0    0    0  0.00000000000E+00  0.00000000000E+00  0.45593999997E+02  0.45594000000E+02  0.51100000000E-03 0.  1.
         11   -1    0    0    0    0 -0.00000000000E+00 -0.00000000000E+00 -0.45593999997E+02  0.45594000000E+02  0.51100000000E-03 0. -1.
    9900012    2    1    2    0    0  0.88418113400E+00 -0.20863830104E+00  0.75339076093E+00  0.90007786521E+02  0.90000048503E+02 0.  0.
         12    1    1    2    0    0 -0.88418113400E+00  0.20863830104E+00 -0.75339076093E+00  0.11802134794E+01  0.00000000000E+00 0. -1.
         11    1    3    3    0    0  0.60118760567E+01  0.28147009760E+02 -0.27387633761E+02  0.39730080486E+02  0.51100000000E-03 0. -1.
        -11    1    3    3    0    0 -0.43535902663E+01 -0.58259546879E+01 -0.59572702905E+01  0.94013066011E+01  0.51100000000E-03 0.  1.
        -12    1    3    3    0    0 -0.77410465646E+00 -0.22529693374E+02  0.34098294812E+02  0.40876399433E+02  0.00000000000E+00 0.  1.
</event>
<event>
 7    1  0.4331547E-015  0.9000751E+02  0.7816164E-02  0.1186340E+00
        -11   -1    0    0    0    0  0.00000000000E+00  0.00000000000E+00  0.45593999997E+02  0.45594000000E+02  0.51100000000E-03 0. -1.
         11   -1    0    0    0    0 -0.00000000000E+00 -0.00000000000E+00 -0.45593999997E+02  0.45594000000E+02  0.51100000000E-03 0.  1.
    9900012    2    1    2    0    0  0.54889424480E+00  0.10396291060E+01  0.10702698573E+00  0.90007505042E+02  0.89999763308E+02 0.  0.
         12    1    1    2    0    0 -0.54889424480E+00 -0.10396291060E+01 -0.10702698573E+00  0.11804949579E+01  0.00000000000E+00 0. -1.
         11    1    3    3    0    0  0.33606168553E+02 -0.70393056257E+01 -0.10790883263E+02  0.35991242690E+02  0.51100000000E-03 0. -1.
        -11    1    3    3    0    0  0.94470597312E+01  0.12427069789E+01 -0.30000889990E+00  0.95331665149E+01  0.51100000000E-03 0.  1.
        -12    1    3    3    0    0 -0.42504334039E+02  0.68362277528E+01  0.11197919149E+02  0.44483095837E+02  0.00000000000E+00 0.  1.
</event>
<event>
 7    1  0.4331547E-015  0.9000777E+02  0.7816164E-02  0.1186339E+00
        -11   -1    0    0    0    0  0.00000000000E+00  0.00000000000E+00  0.45593999997E+02  0.45594000000E+02  0.51100000000E-03 0.  1.
         11   -1    0    0    0    0 -0.00000000000E+00 -0.00000000000E+00 -0.45593999997E+02  0.45594000000E+02  0.51100000000E-03 0. -1.
    9900012    2    1    2    0    0 -0.74515777827E+00  0.59897836552E+00  0.69203080680E+00  0.90007770431E+02  0.90000032201E+02 0.  0.
         12    1    1    2    0    0  0.74515777827E+00 -0.59897836552E+00 -0.69203080680E+00  0.11802295685E+01  0.00000000000E+00 0. -1.
         11    1    3    3    0    0  0.31150104038E+02  0.15811193810E+02 -0.74087268651E+01  0.35710111528E+02  0.51100000000E-03 0. -1.
        -11    1    3    3    0    0  0.62491254736E+00  0.10749391071E+02 -0.30991696834E+01  0.11204676571E+02  0.51100000000E-03 0.  1.
        -12    1    3    3    0    0 -0.32520174364E+02 -0.25961606515E+02  0.11199927355E+02  0.43092982332E+02  0.00000000000E+00 0.  1.
</event>
<event>
 7    1  0.4331547E-015  0.9000783E+02  0.7816164E-02  0.1186339E+00
        -11   -1    0    0    0    0  0.00000000000E+00  0.00000000000E+00  0.45593999997E+02  0.45594000000E+02  0.51100000000E-03 0.  1.
         11   -1    0    0    0    0 -0.00000000000E+00 -0.00000000000E+00 -0.45593999997E+02  0.45594000000E+02  0.51100000000E-03 0. -1.
    9900012    2    1    2    0    0 -0.87627971002E+00 -0.15907314231E+00  0.77435779924E+00  0.90007830353E+02  0.90000092913E+02 0.  0.
         12    1    1    2    0    0  0.87627971002E+00  0.15907314231E+00 -0.77435779924E+00  0.11801696471E+01  0.00000000000E+00 0. -1.
         11    1    3    3    0    0  0.52267833840E+01  0.10648595707E+02  0.33481222891E+01  0.12325655284E+02  0.51100000000E-03 0. -1.
        -11    1    3    3    0    0  0.30992034230E+02 -0.46794719565E+01 -0.19000190279E+02  0.36652569820E+02  0.51100000000E-03 0.  1.
         12    1    3    3    0    0 -0.37095097324E+02 -0.61281968925E+01  0.16426425790E+02  0.41029605248E+02  0.00000000000E+00 0. -1.
</event>
<event>
 7    1  0.4331547E-015  0.9000771E+02  0.7816164E-02  0.1186339E+00
        -11   -1    0    0    0    0  0.00000000000E+00  0.00000000000E+00  0.45593999997E+02  0.45594000000E+02  0.51100000000E-03 0.  1.
         11   -1    0    0    0    0 -0.00000000000E+00 -0.00000000000E+00 -0.45593999997E+02  0.45594000000E+02  0.51100000000E-03 0. -1.
    9900012    2    1    2    0    0 -0.95632226517E+00  0.69029717578E+00  0.44973370390E-01  0.90007709752E+02  0.89999970721E+02 0.  0.
         12    1    1    2    0    0  0.95632226517E+00 -0.69029717578E+00 -0.44973370390E-01  0.11802902481E+01  0.00000000000E+00 0. -1.
         11    1    3    3    0    0 -0.28170929074E+02 -0.13887711657E+00 -0.23921461469E+02  0.36957500603E+02  0.51100000000E-03 0. -1.
        -11    1    3    3    0    0  0.91943538564E+01  0.51657119463E+00 -0.10615741539E+02  0.14053361069E+02  0.51100000000E-03 0.  1.
        -12    1    3    3    0    0  0.18020252952E+02  0.31260309772E+00  0.34582176378E+02  0.38996848081E+02  0.00000000000E+00 0.  1.
</event>
<event>
 7    1  0.4331547E-015  0.9000786E+02  0.7816164E-02  0.1186339E+00
        -11   -1    0    0    0    0  0.00000000000E+00  0.00000000000E+00  0.45593999997E+02  0.45594000000E+02  0.51100000000E-03 0.  1.
         11   -1    0    0    0    0 -0.00000000000E+00 -0.00000000000E+00 -0.45593999997E+02  0.45594000000E+02  0.51100000000E-03 0. -1.
    9900012    2    1    2    0    0 -0.42249836100E+00  0.50905737104E+00 -0.97729098129E+00  0.90007855122E+02  0.90000118009E+02 0.  0.
         12    1    1    2    0    0  0.42249836100E+00 -0.50905737104E+00  0.97729098129E+00  0.11801448785E+01  0.00000000000E+00 0. -1.
         11    1    3    3    0    0 -0.40827463953E+01  0.35851823757E+02  0.74960199279E+01  0.36853933302E+02  0.51100000000E-03 0. -1.
        -11    1    3    3    0    0 -0.30940318432E+01  0.67177951703E+01 -0.75145158233E+01  0.10543706811E+02  0.51100000000E-03 0.  1.
        -12    1    3    3    0    0  0.67542798775E+01 -0.42060561556E+02 -0.95879508587E+00  0.42610215009E+02  0.00000000000E+00 0.  1.
</event>
<event>
 7    1  0.4331547E-015  0.9000769E+02  0.7816164E-02  0.1186339E+00
        -11   -1    0    0    0    0  0.00000000000E+00  0.00000000000E+00  0.45593999997E+02  0.45594000000E+02  0.51100000000E-03 0. -1.
         11   -1    0    0    0    0 -0.00000000000E+00 -0.00000000000E+00 -0.45593999997E+02  0.45594000000E+02  0.51100000000E-03 0.  1.
    9900012    2    1    2    0    0  0.16400426644E+00 -0.10841980079E+01 -0.43674768086E+00  0.90007690186E+02  0.89999950897E+02 0.  0.
         12    1    1    2    0    0 -0.16400426644E+00  0.10841980079E+01  0.43674768086E+00  0.11803098138E+01  0.00000000000E+00 0. -1.
         11    1    3    3    0    0  0.32640098616E+02 -0.18102418358E+02  0.62921031310E+01  0.37850550196E+02  0.51100000000E-03 0. -1.
        -11    1    3    3    0    0 -0.64361149673E+00 -0.65849820508E+01  0.75461452143E+01  0.10035961948E+02  0.51100000000E-03 0.  1.
        -12    1    3    3    0    0 -0.31832482852E+02  0.23603202401E+02 -0.14274996026E+02  0.42121178042E+02  0.00000000000E+00 0.  1.
</event>
<event>
 7    1  0.4331547E-015  0.9000764E+02  0.7816164E-02  0.1186339E+00
        -11   -1    0    0    0    0  0.00000000000E+00  0.00000000000E+00  0.45593999997E+02  0.45594000000E+02  0.51100000000E-03 0.  1.
         11   -1    0    0    0    0 -0.00000000000E+00 -0.00000000000E+00 -0.45593999997E+02  0.45594000000E+02  0.51100000000E-03 0. -1.
    9900012    2    1    2    0    0  0.27144756497E+00 -0.67850243109E+00  0.92692566464E+00  0.90007643902E+02  0.89999904002E+02 0.  0.
         12    1    1    2    0    0 -0.27144756497E+00  0.67850243109E+00 -0.92692566464E+00  0.11803560977E+01  0.00000000000E+00 0. -1.
         11    1    3    3    0    0 -0.26015194823E+02 -0.29164339079E+02 -0.35923420261E+01  0.39246069320E+02  0.51100000000E-03 0. -1.
        -11    1    3    3    0    0  0.27293512251E-01  0.12492191780E+01 -0.10118198583E+02  0.10195059407E+02  0.51100000000E-03 0.  1.
        -12    1    3    3    0    0  0.26259348875E+02  0.27236617470E+02  0.14637466274E+02  0.40566515175E+02  0.00000000000E+00 0.  1.
</event>
<event>
 7    1  0.4331547E-015  0.9000771E+02  0.7816164E-02  0.1186339E+00
        -11   -1    0    0    0    0  0.00000000000E+00  0.00000000000E+00  0.45593999997E+02  0.45594000000E+02  0.51100000000E-03 0.  1.
         11   -1    0    0    0    0 -0.00000000000E+00 -0.00000000000E+00 -0.45593999997E+02  0.45594000000E+02  0.51100000000E-03 0. -1.
    9900012    2    1    2    0    0  0.32977473586E+00  0.10727228457E+01  0.36550689606E+00  0.90007711488E+02  0.89999972480E+02 0.  0.
         12    1    1    2    0    0 -0.32977473586E+00 -0.10727228457E+01 -0.36550689606E+00  0.11802885118E+01  0.00000000000E+00 0. -1.
         11    1    3    3    0    0  0.32331497853E+01  0.44442618357E+01 -0.33820264111E+02  0.34263902078E+02  0.51100000000E-03 0. -1.
        -11    1    3    3    0    0 -0.63155962759E+01  0.84193945837E+01 -0.70842976416E+01  0.12687010476E+02  0.51100000000E-03 0.  1.
        -12    1    3    3    0    0  0.34122212264E+01 -0.11790933574E+02  0.41270068649E+02  0.43056798935E+02  0.00000000000E+00 0.  1.
</event>
<event>
 7    1  0.4331547E-015  0.9000774E+02  0.7816164E-02  0.1186339E+00
        -11   -1    0    0    0    0  0.00000000000E+00  0.00000000000E+00  0.45593999997E+02  0.45594000000E+02  0.51100000000E-03 0.  1.
         11   -1    0    0    0    0 -0.00000000000E+00 -0.00000000000E+00 -0.45593999997E+02  0.45594000000E+02  0.51100000000E-03 0. -1.
    9900012    2    1    2    0    0 -0.42545330973E+00 -0.10883976026E+01  0.16550056578E+00  0.90007741428E+02  0.90000002815E+02 0.  0.
         12    1    1    2    0    0  0.42545330973E+00  0.10883976026E+01 -0.16550056578E+00  0.11802585722E+01  0.00000000000E+00 0. -1.
         11    1    3    3    0    0 -0.12005147758E+02 -0.39688613056E+01  0.84954105710E+01  0.15233103222E+02  0.51100000000E-03 0. -1.
        -11    1    3    3    0    0 -0.25909759766E+02 -0.41393025263E+01  0.14843229733E+02  0.30145827998E+02  0.51100000000E-03 0.  1.
         12    1    3    3    0    0  0.37489454214E+02  0.70197662293E+01 -0.23173139738E+02  0.44628810207E+02  0.00000000000E+00 0. -1.
</event>
<event>
 7    1  0.4331547E-015  0.9000753E+02  0.7816164E-02  0.1186339E+00
        -11   -1    0    0    0    0  0.00000000000E+00  0.00000000000E+00  0.45593999997E+02  0.45594000000E+02  0.51100000000E-03 0. -1.
         11   -1    0    0    0    0 -0.00000000000E+00 -0.00000000000E+00 -0.45593999997E+02  0.45594000000E+02  0.51100000000E-03 0.  1.
    9900012    2    1    2    0    0  0.10356072519E+01 -0.55717852092E+00 -0.10282586536E+00  0.90007532532E+02  0.89999791161E+02 0.  0.
         12    1    1    2    0    0 -0.10356072519E+01  0.55717852092E+00  0.10282586536E+00  0.11804674680E+01  0.00000000000E+00 0. -1.
         11    1    3    3    0    0 -0.23229209170E+01  0.36591119739E+01  0.90203683077E+01  0.10007602445E+02  0.51100000000E-03 0. -1.
        -11    1    3    3    0    0  0.20494190470E+02  0.31721731720E+02 -0.13132655657E+02  0.39984331321E+02  0.51100000000E-03 0.  1.
         12    1    3    3    0    0 -0.17135662301E+02 -0.35938022215E+02  0.40094614835E+01  0.40015598766E+02  0.00000000000E+00 0. -1.
</event>
<event>
 7    1  0.4331547E-015  0.9000776E+02  0.7816164E-02  0.1186339E+00
        -11   -1    0    0    0    0  0.00000000000E+00  0.00000000000E+00  0.45593999997E+02  0.45594000000E+02  0.51100000000E-03 0.  1.
         11   -1    0    0    0    0 -0.00000000000E+00 -0.00000000000E+00 -0.45593999997E+02  0.45594000000E+02  0.51100000000E-03 0. -1.
    9900012    2    1    2    0    0 -0.85453909986E+00  0.64210553798E+00  0.50041816039E+00  0.90007764883E+02  0.90000026580E+02 0.  0.
         12    1    1    2    0    0  0.85453909986E+00 -0.64210553798E+00 -0.50041816039E+00  0.11802351166E+01  0.00000000000E+00 0. -1.
         11    1    3    3    0    0  0.23536793065E+01 -0.78910685006E+01  0.65454124180E+01  0.10519087049E+02  0.51100000000E-03 0. -1.
        -11    1    3    3    0    0 -0.31197057026E+01 -0.14356923421E+02  0.31930224583E+02  0.35148158643E+02  0.51100000000E-03 0.  1.
         12    1    3    3    0    0 -0.88512703835E-01  0.22890097460E+02 -0.37975218840E+02  0.44340519192E+02  0.00000000000E+00 0. -1.
</event>
<event>
 7    1  0.4331547E-015  0.9000765E+02  0.7816164E-02  0.1186339E+00
        -11   -1    0    0    0    0  0.00000000000E+00  0.00000000000E+00  0.45593999997E+02  0.45594000000E+02  0.51100000000E-03 0.  1.
         11   -1    0    0    0    0 -0.00000000000E+00 -0.00000000000E+00 -0.45593999997E+02  0.45594000000E+02  0.51100000000E-03 0. -1.
    9900012    2    1    2    0    0  0.85639317936E+00  0.11284820741E+00  0.80441995589E+00  0.90007646044E+02  0.89999906172E+02 0.  0.
         12    1    1    2    0    0 -0.85639317936E+00 -0.11284820741E+00 -0.80441995589E+00  0.11803539558E+01  0.00000000000E+00 0. -1.
         11    1    3    3    0    0  0.51971862005E+01 -0.76560585964E+01  0.53712117429E+01  0.10699340797E+02  0.51100000000E-03 0. -1.
        -11    1    3    3    0    0 -0.99236500434E+01 -0.33854487039E+02  0.65131191139E+01  0.35875142421E+02  0.51100000000E-03 0.  1.
         12    1    3    3    0    0  0.55828570223E+01  0.41623393843E+02 -0.11079910901E+02  0.43433162827E+02  0.00000000000E+00 0. -1.
</event>
<event>
 7    1  0.4331547E-015  0.9000774E+02  0.7816164E-02  0.1186339E+00
        -11   -1    0    0    0    0  0.00000000000E+00  0.00000000000E+00  0.45593999997E+02  0.45594000000E+02  0.51100000000E-03 0.  1.
         11   -1    0    0    0    0 -0.00000000000E+00 -0.00000000000E+00 -0.45593999997E+02  0.45594000000E+02  0.51100000000E-03 0. -1.
    9900012    2    1    2    0    0 -0.46648104857E+00 -0.95958703519E+00  0.50459170377E+00  0.90007735354E+02  0.89999996661E+02 0.  0.
         12    1    1    2    0    0  0.46648104857E+00  0.95958703519E+00 -0.50459170377E+00  0.11802646459E+01  0.00000000000E+00 0. -1.
         11    1    3    3    0    0 -0.12326168229E+02  0.62774383555E+01 -0.13358947949E+01  0.13896951849E+02  0.51100000000E-03 0. -1.
        -11    1    3    3    0    0 -0.21839090741E+02 -0.25464887037E+02 -0.11619657982E+02  0.35502433833E+02  0.51100000000E-03 0.  1.
         12    1    3    3    0    0  0.33698777922E+02  0.18227861646E+02  0.13460144481E+02  0.40608349672E+02  0.00000000000E+00 0. -1.
</event>
<event>
 7    1  0.4331547E-015  0.9000769E+02  0.7816164E-02  0.1186339E+00
        -11   -1    0    0    0    0  0.00000000000E+00  0.00000000000E+00  0.45593999997E+02  0.45594000000E+02  0.51100000000E-03 0.  1.
         11   -1    0    0    0    0 -0.00000000000E+00 -0.00000000000E+00 -0.45593999997E+02  0.45594000000E+02  0.51100000000E-03 0. -1.
    9900012    2    1    2    0    0 -0.40056553497E-01  0.10851918887E+01  0.46248743023E+00  0.90007686234E+02  0.89999946892E+02 0.  0.
         12    1    1    2    0    0  0.40056553497E-01 -0.10851918887E+01 -0.46248743023E+00  0.11803137659E+01  0.00000000000E+00 0. -1.
         11    1    3    3    0    0 -0.12072855362E+01 -0.13352801706E+02  0.35070379646E+01  0.13858360917E+02  0.51100000000E-03 0. -1.
        -11    1    3    3    0    0 -0.32035592600E+02  0.10967510166E+02  0.16284894523E+02  0.37573438256E+02  0.51100000000E-03 0.  1.
         12    1    3    3    0    0  0.33202821583E+02  0.34704834285E+01 -0.19329445057E+02  0.38575887061E+02  0.00000000000E+00 0. -1.
</event>
<event>
 7    1  0.4331547E-015  0.9000773E+02  0.7816164E-02  0.1186339E+00
        -11   -1    0    0    0    0  0.00000000000E+00  0.00000000000E+00  0.45593999997E+02  0.45594000000E+02  0.51100000000E-03 0. -1.
         11   -1    0    0    0    0 -0.00000000000E+00 -0.00000000000E+00 -0.45593999997E+02  0.45594000000E+02  0.51100000000E-03 0.  1.
    9900012    2    1    2    0    0  0.38535027448E+00 -0.57717881861E+00 -0.95467222859E+00  0.90007733383E+02  0.89999994664E+02 0.  0.
         12    1    1    2    0    0 -0.38535027448E+00  0.57717881861E+00  0.95467222859E+00  0.11802666168E+01  0.00000000000E+00 0. -1.
         11    1    3    3    0    0 -0.13815951459E+02 -0.31951825458E+02  0.64521572263E+01  0.35403813325E+02  0.51100000000E-03 0. -1.
        -11    1    3    3    0    0 -0.10169015114E+02 -0.24293814241E+01 -0.76085304597E+01  0.12930603176E+02  0.51100000000E-03 0.  1.
        -12    1    3    3    0    0  0.24370316848E+02  0.33804028064E+02  0.20170100481E+00  0.41673316881E+02  0.00000000000E+00 0.  1.
</event>
<event>
 7    1  0.4885307E-015  0.9000754E+02  0.7816164E-02  0.1186339E+00
        -11   -1    0    0    0    0  0.00000000000E+00  0.00000000000E+00  0.45593999997E+02  0.45594000000E+02  0.51100000000E-03 0. -1.
         11   -1    0    0    0    0 -0.00000000000E+00 -0.00000000000E+00 -0.45593999997E+02  0.45594000000E+02  0.51100000000E-03 0.  1.
    9900012    2    1    2    0    0  0.88154629254E+00  0.12648762195E+00 -0.77482946189E+00  0.90007540903E+02  0.89999799643E+02 0.  0.
         12    1    1    2    0    0 -0.88154629254E+00 -0.12648762195E+00  0.77482946189E+00  0.11804590969E+01  0.00000000000E+00 0. -1.
         11    1    3    3    0    0  0.74401461542E+01  0.57406779386E+01 -0.20467665188E+01  0.96177134203E+01  0.51100000000E-03 0. -1.
        -11    1    3    3    0    0  0.24768494774E+02 -0.22312578303E+02 -0.20125156098E+02  0.38940356857E+02  0.51100000000E-03 0.  1.
         12    1    3    3    0    0 -0.31327094636E+02  0.16698387986E+02  0.21397093155E+02  0.41449470626E+02  0.00000000000E+00 0. -1.
</event>
<event>
 7    1  0.4331547E-015  0.9000788E+02  0.7816164E-02  0.1186339E+00
        -11   -1    0    0    0    0  0.00000000000E+00  0.00000000000E+00  0.45593999997E+02  0.45594000000E+02  0.51100000000E-03 0. -1.
         11   -1    0    0    0    0 -0.00000000000E+00 -0.00000000000E+00 -0.45593999997E+02  0.45594000000E+02  0.51100000000E-03 0.  1.
    9900012    2    1    2    0    0  0.13003175185E+00  0.10645611376E+01 -0.49241883167E+00  0.90007883490E+02  0.90000146752E+02 0.  0.
         12    1    1    2    0    0 -0.13003175185E+00 -0.10645611376E+01  0.49241883167E+00  0.11801165104E+01  0.00000000000E+00 0. -1.
         11    1    3    3    0    0  0.22801317271E+01  0.90049746841E+01  0.79284172078E+01  0.12212631552E+02  0.51100000000E-03 0. -1.
        -11    1    3    3    0    0  0.32772041275E+02  0.98225551012E+01  0.82865339344E+01  0.35201646594E+02  0.51100000000E-03 0.  1.
         12    1    3    3    0    0 -0.34922141250E+02 -0.17762968648E+02 -0.16707369974E+02  0.42593605343E+02  0.00000000000E+00 0. -1.
</event>
<event>
 7    1  0.4331547E-015  0.9000764E+02  0.7816164E-02  0.1186339E+00
        -11   -1    0    0    0    0  0.00000000000E+00  0.00000000000E+00  0.45593999997E+02  0.45594000000E+02  0.51100000000E-03 0.  1.
         11   -1    0    0    0    0 -0.00000000000E+00 -0.00000000000E+00 -0.45593999997E+02  0.45594000000E+02  0.51100000000E-03 0. -1.
    9900012    2    1    2    0    0 -0.73509838509E+00  0.51048244966E-01  0.92210282410E+00  0.90007640234E+02  0.89999900285E+02 0.  0.
         12    1    1    2    0    0  0.73509838509E+00 -0.51048244966E-01 -0.92210282410E+00  0.11803597660E+01  0.00000000000E+00 0. -1.
         11    1    3    3    0    0  0.34319568934E+02  0.85640338569E+01  0.27211573377E+01  0.35476473686E+02  0.51100000000E-03 0. -1.
        -11    1    3    3    0    0  0.80522656691E+01  0.21622915946E+01 -0.54681925214E+01  0.99707380398E+01  0.51100000000E-03 0.  1.
        -12    1    3    3    0    0 -0.43106932988E+02 -0.10675277207E+02  0.36691380078E+01  0.44560428508E+02  0.00000000000E+00 0.  1.
</event>
<event>
 7    1  0.4331547E-015  0.9000777E+02  0.7816164E-02  0.1186339E+00
        -11   -1    0    0    0    0  0.00000000000E+00  0.00000000000E+00  0.45593999997E+02  0.45594000000E+02  0.51100000000E-03 0.  1.
         11   -1    0    0    0    0 -0.00000000000E+00 -0.00000000000E+00 -0.45593999997E+02  0.45594000000E+02  0.51100000000E-03 0. -1.
    9900012    2    1    2    0    0  0.45783393399E-01 -0.65312880218E+00  0.98196911449E+00  0.90007772610E+02  0.90000034408E+02 0.  0.
         12    1    1    2    0    0 -0.45783393399E-01  0.65312880218E+00 -0.98196911449E+00  0.11802273904E+01  0.00000000000E+00 0. -1.
         11    1    3    3    0    0 -0.91350395042E+01  0.32744902575E+01  0.25224248312E+01  0.10026657493E+02  0.51100000000E-03 0. -1.
        -11    1    3    3    0    0 -0.10748633074E+02  0.11372246056E+02  0.33435597503E+02  0.36916124850E+02  0.51100000000E-03 0.  1.
         12    1    3    3    0    0  0.19929455972E+02 -0.15299865115E+02 -0.34976053219E+02  0.43064990267E+02  0.00000000000E+00 0. -1.
</event>
<event>
 7    1  0.4331547E-015  0.9000801E+02  0.7816164E-02  0.1186339E+00
        -11   -1    0    0    0    0  0.00000000000E+00  0.00000000000E+00  0.45593999997E+02  0.45594000000E+02  0.51100000000E-03 0. -1.
         11   -1    0    0    0    0 -0.00000000000E+00 -0.00000000000E+00 -0.45593999997E+02  0.45594000000E+02  0.51100000000E-03 0.  1.
    9900012    2    1    2    0    0 -0.70775908398E+00 -0.93480581666E+00  0.13265284804E+00  0.90008007791E+02  0.90000272693E+02 0.  0.
         12    1    1    2    0    0  0.70775908398E+00  0.93480581666E+00 -0.13265284804E+00  0.11799922093E+01  0.00000000000E+00 0. -1.
         11    1    3    3    0    0 -0.52285789541E+01 -0.17716015071E+01 -0.81287780079E+01  0.98261712758E+01  0.51100000000E-03 0. -1.
        -11    1    3    3    0    0 -0.23247229931E+02 -0.30186565806E+02  0.48201560786E+01  0.38404379431E+02  0.51100000000E-03 0.  1.
         12    1    3    3    0    0  0.27768049801E+02  0.31023361497E+02  0.34412747773E+01  0.41777457084E+02  0.00000000000E+00 0. -1.
</event>
<event>
 7    1  0.4331547E-015  0.9000777E+02  0.7816164E-02  0.1186339E+00
        -11   -1    0    0    0    0  0.00000000000E+00  0.00000000000E+00  0.45593999997E+02  0.45594000000E+02  0.51100000000E-03 0.  1.
         11   -1    0    0    0    0 -0.00000000000E+00 -0.00000000000E+00 -0.45593999997E+02  0.45594000000E+02  0.51100000000E-03 0. -1.
    9900012    2    1    2    0    0 -0.11366801719E+01  0.30856124928E+00  0.75390431700E-01  0.90007773083E+02  0.90000034888E+02 0.  0.
         12    1    1    2    0    0  0.11366801719E+01 -0.30856124928E+00 -0.75390431700E-01  0.11802269167E+01  0.00000000000E+00 0. -1.
         11    1    3    3    0    0  0.68038854667E+00  0.40349477944E+02  0.10805582625E+02  0.41776834670E+02  0.51100000000E-03 0. -1.
        -11    1    3    3    0    0  0.31264833123E+00 -0.66818190844E+01  0.75866110294E+01  0.10114401734E+02  0.51100000000E-03 0.  1.
        -12    1    3    3    0    0 -0.21297170498E+01 -0.33359097611E+02 -0.18316803223E+02  0.38116536679E+02  0.00000000000E+00 0.  1.
</event>
<event>
 7    1  0.4331547E-015  0.9000770E+02  0.7816164E-02  0.1186339E+00
        -11   -1    0    0    0    0  0.00000000000E+00  0.00000000000E+00  0.45593999997E+02  0.45594000000E+02  0.51100000000E-03 0.  1.
         11   -1    0    0    0    0 -0.00000000000E+00 -0.00000000000E+00 -0.45593999997E+02  0.45594000000E+02  0.51100000000E-03 0. -1.
    9900012    2    1    2    0    0  0.85926962160E+00  0.72168581840E+00  0.36598388835E+00  0.90007695417E+02  0.89999956196E+02 0.  0.
         12    1    1    2    0    0 -0.85926962160E+00 -0.72168581840E+00 -0.36598388835E+00  0.11803045834E+01  0.00000000000E+00 0. -1.
         11    1    3    3    0    0  0.10924669886E+02 -0.77808476678E+00 -0.58830848304E+01  0.12432397814E+02  0.51100000000E-03 0. -1.
        -11    1    3    3    0    0  0.21976359834E+02 -0.26401297475E+02 -0.15166779765E+01  0.34384432702E+02  0.51100000000E-03 0.  1.
         12    1    3    3    0    0 -0.32041760098E+02  0.27901068060E+02  0.77657466952E+01  0.43190864900E+02  0.00000000000E+00 0. -1.
</event>
<event>
 7    1  0.4331547E-015  0.9000781E+02  0.7816164E-02  0.1186339E+00
        -11   -1    0    0    0    0  0.00000000000E+00  0.00000000000E+00  0.45593999997E+02  0.45594000000E+02  0.51100000000E-03 0.  1.
         11   -1    0    0    0    0 -0.00000000000E+00 -0.00000000000E+00 -0.45593999997E+02  0.45594000000E+02  0.51100000000E-03 0. -1.
    9900012    2    1    2    0    0  0.21131252247E+00 -0.10222900284E+01  0.55057271577E+00  0.90007805016E+02  0.90000067242E+02 0.  0.
         12    1    1    2    0    0 -0.21131252247E+00  0.10222900284E+01 -0.55057271577E+00  0.11801949837E+01  0.00000000000E+00 0. -1.
         11    1    3    3    0    0 -0.16976827377E+02  0.19273318761E+02 -0.23377198994E+02  0.34729913863E+02  0.51100000000E-03 0. -1.
        -11    1    3    3    0    0  0.22794937175E+01  0.34617290371E+01 -0.10254979330E+02  0.11060933996E+02  0.51100000000E-03 0.  1.
        -12    1    3    3    0    0  0.14908646182E+02 -0.23757337827E+02  0.34182751040E+02  0.44216957158E+02  0.00000000000E+00 0.  1.
</event>
<event>
 7    1  0.4331547E-015  0.9000763E+02  0.7816164E-02  0.1186339E+00
        -11   -1    0    0    0    0  0.00000000000E+00  0.00000000000E+00  0.45593999997E+02  0.45594000000E+02  0.51100000000E-03 0.  1.
         11   -1    0    0    0    0 -0.00000000000E+00 -0.00000000000E+00 -0.45593999997E+02  0.45594000000E+02  0.51100000000E-03 0. -1.
    9900012    2    1    2    0    0 -0.81685398497E+00 -0.62277992700E+00  0.58152646643E+00  0.90007627897E+02  0.89999887785E+02 0.  0.
         12    1    1    2    0    0  0.81685398497E+00  0.62277992700E+00 -0.58152646643E+00  0.11803721029E+01  0.00000000000E+00 0. -1.
         11    1    3    3    0    0 -0.12340232651E+02  0.13942618521E+02 -0.31230586556E+02  0.36359695956E+02  0.51100000000E-03 0. -1.
        -11    1    3    3    0    0 -0.40280997580E+01 -0.56071270661E+01 -0.76449295352E+01  0.10300990703E+02  0.51100000000E-03 0.  1.
        -12    1    3    3    0    0  0.15551478424E+02 -0.89582713816E+01  0.39457042558E+02  0.43346941239E+02  0.00000000000E+00 0.  1.
</event>
<event>
 7    1  0.4331547E-015  0.9000768E+02  0.7816164E-02  0.1186339E+00
        -11   -1    0    0    0    0  0.00000000000E+00  0.00000000000E+00  0.45593999997E+02  0.45594000000E+02  0.51100000000E-03 0. -1.
         11   -1    0    0    0    0 -0.00000000000E+00 -0.00000000000E+00 -0.45593999997E+02  0.45594000000E+02  0.51100000000E-03 0.  1.
    9900012    2    1    2    0    0  0.11063982810E+01  0.13474754136E+00 -0.38844197980E+00  0.90007677490E+02  0.89999938033E+02 0.  0.
         12    1    1    2    0    0 -0.11063982810E+01 -0.13474754136E+00  0.38844197980E+00  0.11803225101E+01  0.00000000000E+00 0. -1.
         11    1    3    3    0    0 -0.38571913829E+01  0.90842290870E+00  0.96444873290E+01  0.10426854446E+02  0.51100000000E-03 0. -1.
        -11    1    3    3    0    0  0.48823767814E+01  0.34682142829E+02 -0.22918250870E+02  0.41856120908E+02  0.51100000000E-03 0.  1.
         12    1    3    3    0    0  0.81212882467E-01 -0.35455818196E+02  0.12885321561E+02  0.37724702136E+02  0.00000000000E+00 0. -1.
</event>
<event>
 7    1  0.4331547E-015  0.9000770E+02  0.7816164E-02  0.1186339E+00
        -11   -1    0    0    0    0  0.00000000000E+00  0.00000000000E+00  0.45593999997E+02  0.45594000000E+02  0.51100000000E-03 0.  1.
         11   -1    0    0    0    0 -0.00000000000E+00 -0.00000000000E+00 -0.45593999997E+02  0.45594000000E+02  0.51100000000E-03 0. -1.
    9900012    2    1    2    0    0  0.11194177187E+01 -0.18643181572E+00  0.32441778598E+00  0.90007703533E+02  0.89999964419E+02 0.  0.
         12    1    1    2    0    0 -0.11194177187E+01  0.18643181572E+00 -0.32441778598E+00  0.11802964673E+01  0.00000000000E+00 0. -1.
         11    1    3    3    0    0 -0.63874712579E+01 -0.62141386534E+01  0.24261347851E+01  0.92358777888E+01  0.51100000000E-03 0. -1.
        -11    1    3    3    0    0 -0.24258205102E+02  0.18812168655E+02 -0.24991390660E+02  0.39584439009E+02  0.51100000000E-03 0.  1.
         12    1    3    3    0    0  0.31765094078E+02 -0.12784461817E+02  0.22889673661E+02  0.41187386735E+02  0.00000000000E+00 0. -1.
</event>
<event>
 7    1  0.4331547E-015  0.9000769E+02  0.7816164E-02  0.1186339E+00
        -11   -1    0    0    0    0  0.00000000000E+00  0.00000000000E+00  0.45593999997E+02  0.45594000000E+02  0.51100000000E-03 0. -1.
         11   -1    0    0    0    0 -0.00000000000E+00 -0.00000000000E+00 -0.45593999997E+02  0.45594000000E+02  0.51100000000E-03 0.  1.
    9900012    2    1    2    0    0 -0.37497038437E+00 -0.10908220844E+01 -0.25029269779E+00  0.90007685617E+02  0.89999946267E+02 0.  0.
         12    1    1    2    0    0  0.37497038437E+00  0.10908220844E+01  0.25029269779E+00  0.11803143834E+01  0.00000000000E+00 0. -1.
         11    1    3    3    0    0  0.21781773553E+01  0.47227301119E+01  0.80234809182E+01  0.95616359796E+01  0.51100000000E-03 0. -1.
        -11    1    3    3    0    0 -0.27359748332E+02  0.26450184225E+02  0.31225034014E+01  0.38182693751E+02  0.51100000000E-03 0.  1.
         12    1    3    3    0    0  0.24806600593E+02 -0.32263736422E+02 -0.11396277017E+02  0.42263355886E+02  0.00000000000E+00 0. -1.
</event>
<event>
 7    1  0.4331547E-015  0.9000764E+02  0.7816164E-02  0.1186339E+00
        -11   -1    0    0    0    0  0.00000000000E+00  0.00000000000E+00  0.45593999997E+02  0.45594000000E+02  0.51100000000E-03 0.  1.
         11   -1    0    0    0    0 -0.00000000000E+00 -0.00000000000E+00 -0.45593999997E+02  0.45594000000E+02  0.51100000000E-03 0. -1.
    9900012    2    1    2    0    0  0.98532961687E+00  0.47568552722E-01 -0.64816206307E+00  0.90007639343E+02  0.89999899382E+02 0.  0.
         12    1    1    2    0    0 -0.98532961687E+00 -0.47568552722E-01  0.64816206307E+00  0.11803606572E+01  0.00000000000E+00 0. -1.
         11    1    3    3    0    0 -0.22287477347E+01 -0.77763596718E+01 -0.13703634350E+01  0.82046927069E+01  0.51100000000E-03 0. -1.
        -11    1    3    3    0    0 -0.33162663665E+02  0.68335072530E+01  0.21295757156E+02  0.39999604446E+02  0.51100000000E-03 0.  1.
         12    1    3    3    0    0  0.36376741016E+02  0.99042097150E+00 -0.20573555784E+02  0.41803342190E+02  0.00000000000E+00 0. -1.
</event>
<event>
 7    1  0.4331547E-015  0.9000866E+02  0.7816164E-02  0.1186337E+00
        -11   -1    0    0    0    0  0.00000000000E+00  0.00000000000E+00  0.45593999997E+02  0.45594000000E+02  0.51100000000E-03 0.  1.
         11   -1    0    0    0    0 -0.00000000000E+00 -0.00000000000E+00 -0.45593999997E+02  0.45594000000E+02  0.51100000000E-03 0. -1.
    9900012    2    1    2    0    0 -0.20680033191E+00 -0.88497405625E+00  0.75159508055E+00  0.90008660938E+02  0.90000934458E+02 0.  0.
         12    1    1    2    0    0  0.20680033191E+00  0.88497405625E+00 -0.75159508055E+00  0.11793390618E+01  0.00000000000E+00 0. -1.
         11    1    3    3    0    0 -0.51257612383E+00  0.51759994499E+01  0.12690762573E+02  0.13715289262E+02  0.51100000000E-03 0. -1.
        -11    1    3    3    0    0 -0.27696531024E+02  0.54393039486E+01  0.18193300264E+02  0.33580947470E+02  0.51100000000E-03 0.  1.
         12    1    3    3    0    0  0.28002306816E+02 -0.11500277455E+02 -0.30132467756E+02  0.42712424207E+02  0.00000000000E+00 0. -1.
</event>
<event>
 7    1  0.4331547E-015  0.9000780E+02  0.7816164E-02  0.1186339E+00
        -11   -1    0    0    0    0  0.00000000000E+00  0.00000000000E+00  0.45593999997E+02  0.45594000000E+02  0.51100000000E-03 0.  1.
         11   -1    0    0    0    0 -0.00000000000E+00 -0.00000000000E+00 -0.45593999997E+02  0.45594000000E+02  0.51100000000E-03 0. -1.
    9900012    2    1    2    0    0 -0.87941884486E+00  0.78460005360E+00  0.62344384587E-01  0.90007804435E+02  0.90000066654E+02 0.  0.
         12    1    1    2    0    0  0.87941884486E+00 -0.78460005360E+00 -0.62344384587E-01  0.11801955648E+01  0.00000000000E+00 0. -1.
         11    1    3    3    0    0 -0.81847844977E+01  0.20526200712E+01  0.11134915904E+01  0.85113929655E+01  0.51100000000E-03 0. -1.
        -11    1    3    3    0    0 -0.61507552973E+01  0.16386780089E+02  0.35015216494E+02  0.39146184217E+02  0.51100000000E-03 0.  1.
         12    1    3    3    0    0  0.13456120950E+02 -0.17654800107E+02 -0.36066363699E+02  0.42350227252E+02  0.00000000000E+00 0. -1.
</event>
<event>
 7    1  0.4331547E-015  0.9000766E+02  0.7816164E-02  0.1186339E+00
        -11   -1    0    0    0    0  0.00000000000E+00  0.00000000000E+00  0.45593999997E+02  0.45594000000E+02  0.51100000000E-03 0.  1.
         11   -1    0    0    0    0 -0.00000000000E+00 -0.00000000000E+00 -0.45593999997E+02  0.45594000000E+02  0.51100000000E-03 0. -1.
    9900012    2    1    2    0    0 -0.70181556125E-01  0.57372819885E+00  0.10291338300E+01  0.90007658551E+02  0.89999918844E+02 0.  0.
         12    1    1    2    0    0  0.70181556125E-01 -0.57372819885E+00 -0.10291338300E+01  0.11803414493E+01  0.00000000000E+00 0. -1.
         11    1    3    3    0    0  0.66640976710E+01 -0.30305368524E+02  0.15131075274E+02  0.34522094351E+02  0.51100000000E-03 0. -1.
        -11    1    3    3    0    0  0.37431282639E+01 -0.10289247352E+02 -0.50199759044E+01  0.12044906750E+02  0.51100000000E-03 0.  1.
        -12    1    3    3    0    0 -0.10477407491E+02  0.41168344075E+02 -0.90819655398E+01  0.43440657450E+02  0.00000000000E+00 0.  1.
</event>
<event>
 7    1  0.4331547E-015  0.9000779E+02  0.7816164E-02  0.1186339E+00
        -11   -1    0    0    0    0  0.00000000000E+00  0.00000000000E+00  0.45593999997E+02  0.45594000000E+02  0.51100000000E-03 0.  1.
         11   -1    0    0    0    0 -0.00000000000E+00 -0.00000000000E+00 -0.45593999997E+02  0.45594000000E+02  0.51100000000E-03 0. -1.
    9900012    2    1    2    0    0  0.72482603122E+00 -0.93115779761E+00  0.21730735712E-01  0.90007788221E+02  0.90000050225E+02 0.  0.
         12    1    1    2    0    0 -0.72482603122E+00  0.93115779761E+00 -0.21730735712E-01  0.11802117795E+01  0.00000000000E+00 0. -1.
         11    1    3    3    0    0 -0.26664496477E+02  0.14761428809E+02 -0.24342311638E+02  0.39005682779E+02  0.51100000000E-03 0. -1.
        -11    1    3    3    0    0  0.73615603168E+01  0.40953723794E+01 -0.54201156025E+01  0.10017100310E+02  0.51100000000E-03 0.  1.
        -12    1    3    3    0    0  0.20027762192E+02 -0.19787958986E+02  0.29784157977E+02  0.40985005131E+02  0.00000000000E+00 0.  1.
</event>
<event>
 7    1  0.4331547E-015  0.9000794E+02  0.7816164E-02  0.1186339E+00
        -11   -1    0    0    0    0  0.00000000000E+00  0.00000000000E+00  0.45593999997E+02  0.45594000000E+02  0.51100000000E-03 0.  1.
         11   -1    0    0    0    0 -0.00000000000E+00 -0.00000000000E+00 -0.45593999997E+02  0.45594000000E+02  0.51100000000E-03 0. -1.
    9900012    2    1    2    0    0 -0.81254109013E+00  0.73586641218E+00 -0.43683911082E+00  0.90007936100E+02  0.90000200056E+02 0.  0.
         12    1    1    2    0    0  0.81254109013E+00 -0.73586641218E+00  0.43683911082E+00  0.11800639002E+01  0.00000000000E+00 0. -1.
         11    1    3    3    0    0  0.12225165981E+02 -0.46885512487E+01 -0.25827639870E+02  0.28956936605E+02  0.51100000000E-03 0. -1.
        -11    1    3    3    0    0  0.20934744728E+02  0.47154585271E+01  0.11447026149E+02  0.24321461590E+02  0.51100000000E-03 0.  1.
        -12    1    3    3    0    0 -0.33972451799E+02  0.70895913381E+00  0.13943774610E+02  0.36729537904E+02  0.00000000000E+00 0.  1.
</event>
<event>
 7    1  0.4331547E-015  0.9000778E+02  0.7816164E-02  0.1186339E+00
        -11   -1    0    0    0    0  0.00000000000E+00  0.00000000000E+00  0.45593999997E+02  0.45594000000E+02  0.51100000000E-03 0.  1.
         11   -1    0    0    0    0 -0.00000000000E+00 -0.00000000000E+00 -0.45593999997E+02  0.45594000000E+02  0.51100000000E-03 0. -1.
    9900012    2    1    2    0    0  0.52590629849E+00  0.57647315519E+00  0.88545324578E+00  0.90007777062E+02  0.90000038919E+02 0.  0.
         12    1    1    2    0    0 -0.52590629849E+00 -0.57647315519E+00 -0.88545324578E+00  0.11802229382E+01  0.00000000000E+00 0. -1.
         11    1    3    3    0    0  0.19884499270E+02  0.18645421104E+01 -0.36899016308E+02  0.41957207167E+02  0.51100000000E-03 0. -1.
        -11    1    3    3    0    0 -0.93912674830E+00  0.81607127158E+01  0.62228913252E+01  0.10305511525E+02  0.51100000000E-03 0.  1.
        -12    1    3    3    0    0 -0.18419466223E+02 -0.94487816710E+01  0.31561578229E+02  0.37745058370E+02  0.00000000000E+00 0.  1.
</event>
<event>
 7    1  0.4331547E-015  0.9000771E+02  0.7816164E-02  0.1186339E+00
        -11   -1    0    0    0    0  0.00000000000E+00  0.00000000000E+00  0.45593999997E+02  0.45594000000E+02  0.51100000000E-03 0.  1.
         11   -1    0    0    0    0 -0.00000000000E+00 -0.00000000000E+00 -0.45593999997E+02  0.45594000000E+02  0.51100000000E-03 0. -1.
    9900012    2    1    2    0    0 -0.27604236435E+00  0.10985339122E+01  0.33183159553E+00  0.90007708362E+02  0.89999969312E+02 0.  0.
         12    1    1    2    0    0  0.27604236435E+00 -0.10985339122E+01 -0.33183159553E+00  0.11802916381E+01  0.00000000000E+00 0. -1.
         11    1    3    3    0    0 -0.21289107373E+02 -0.36418852029E+02 -0.12590478904E+02  0.44023619060E+02  0.51100000000E-03 0. -1.
        -11    1    3    3    0    0  0.28532980718E+01  0.91554879778E+01 -0.78936977670E+00  0.96222333636E+01  0.51100000000E-03 0.  1.
        -12    1    3    3    0    0  0.18159766937E+02  0.28361897964E+02  0.13711680276E+02  0.36361855938E+02  0.00000000000E+00 0.  1.
</event>
<event>
 7    1  0.4331547E-015  0.9000767E+02  0.7816164E-02  0.1186339E+00
        -11   -1    0    0    0    0  0.00000000000E+00  0.00000000000E+00  0.45593999997E+02  0.45594000000E+02  0.51100000000E-03 0. -1.
         11   -1    0    0    0    0 -0.00000000000E+00 -0.00000000000E+00 -0.45593999997E+02  0.45594000000E+02  0.51100000000E-03 0.  1.
    9900012    2    1    2    0    0  0.15730056847E+00  0.10801936636E+01 -0.44902989920E+00  0.90007665441E+02  0.89999925825E+02 0.  0.
         12    1    1    2    0    0 -0.15730056847E+00 -0.10801936636E+01  0.44902989920E+00  0.11803345586E+01  0.00000000000E+00 0. -1.
         11    1    3    3    0    0  0.74350339299E+01 -0.44557169035E+01 -0.16125904925E+01  0.88166655273E+01  0.51100000000E-03 0. -1.
        -11    1    3    3    0    0  0.31055128763E+02  0.20184256267E+02  0.11666108637E+02  0.38831988290E+02  0.51100000000E-03 0.  1.
         12    1    3    3    0    0 -0.38332862125E+02 -0.14648345699E+02 -0.10502548043E+02  0.42359011625E+02  0.00000000000E+00 0. -1.
</event>
<event>
 7    1  0.4331547E-015  0.9000779E+02  0.7816164E-02  0.1186339E+00
        -11   -1    0    0    0    0  0.00000000000E+00  0.00000000000E+00  0.45593999997E+02  0.45594000000E+02  0.51100000000E-03 0.  1.
         11   -1    0    0    0    0 -0.00000000000E+00 -0.00000000000E+00 -0.45593999997E+02  0.45594000000E+02  0.51100000000E-03 0. -1.
    9900012    2    1    2    0    0 -0.13025600838E+00  0.71264938236E+00  0.93169620720E+00  0.90007790869E+02  0.90000052909E+02 0.  0.
         12    1    1    2    0    0  0.13025600838E+00 -0.71264938236E+00 -0.93169620720E+00  0.11802091308E+01  0.00000000000E+00 0. -1.
         11    1    3    3    0    0  0.32294754660E+02  0.99284815831E+01  0.10686661637E+02  0.35436290188E+02  0.51100000000E-03 0. -1.
        -11    1    3    3    0    0  0.65203581549E+01  0.84849236159E+01 -0.30337261430E-01  0.10700930793E+02  0.51100000000E-03 0.  1.
        -12    1    3    3    0    0 -0.38945368823E+02 -0.17700755817E+02 -0.97246281680E+01  0.43870569888E+02  0.00000000000E+00 0.  1.
</event>
<event>
 7    1  0.4331547E-015  0.9000803E+02  0.7816164E-02  0.1186338E+00
        -11   -1    0    0    0    0  0.00000000000E+00  0.00000000000E+00  0.45593999997E+02  0.45594000000E+02  0.51100000000E-03 0. -1.
         11   -1    0    0    0    0 -0.00000000000E+00 -0.00000000000E+00 -0.45593999997E+02  0.45594000000E+02  0.51100000000E-03 0.  1.
    9900012    2    1    2    0    0  0.80124688456E-01  0.23300153028E+00 -0.11539605171E+01  0.90008027732E+02  0.90000292897E+02 0.  0.
         12    1    1    2    0    0 -0.80124688456E-01 -0.23300153028E+00  0.11539605171E+01  0.11799722683E+01  0.00000000000E+00 0. -1.
         11    1    3    3    0    0  0.57549804224E+01  0.30687348011E+02 -0.20496503236E+02  0.37348892524E+02  0.51100000000E-03 0. -1.
        -11    1    3    3    0    0  0.74297814081E+01  0.51233455922E+01 -0.18661871967E+01  0.92159088940E+01  0.51100000000E-03 0.  1.
        -12    1    3    3    0    0 -0.13104637142E+02 -0.35577692073E+02  0.21208729916E+02  0.43443226313E+02  0.00000000000E+00 0.  1.
</event>
<event>
 7    1  0.4331547E-015  0.9000771E+02  0.7816164E-02  0.1186339E+00
        -11   -1    0    0    0    0  0.00000000000E+00  0.00000000000E+00  0.45593999997E+02  0.45594000000E+02  0.51100000000E-03 0.  1.
         11   -1    0    0    0    0 -0.00000000000E+00 -0.00000000000E+00 -0.45593999997E+02  0.45594000000E+02  0.51100000000E-03 0. -1.
    9900012    2    1    2    0    0  0.23586701650E+00  0.10668950914E+01  0.44629921046E+00  0.90007711319E+02  0.89999972308E+02 0.  0.
         12    1    1    2    0    0 -0.23586701650E+00 -0.10668950914E+01 -0.44629921046E+00  0.11802886811E+01  0.00000000000E+00 0. -1.
         11    1    3    3    0    0 -0.14010329991E+02  0.10090878755E+00 -0.10371518830E+02  0.17431808057E+02  0.51100000000E-03 0. -1.
        -11    1    3    3    0    0 -0.23063814031E+02 -0.18398249011E+02  0.16327352413E+01  0.29548280982E+02  0.51100000000E-03 0.  1.
         12    1    3    3    0    0  0.37310011039E+02  0.19364235315E+02  0.91850827994E+01  0.43027622280E+02  0.00000000000E+00 0. -1.
</event>
<event>
 7    1  0.4331547E-015  0.9000806E+02  0.7816164E-02  0.1186338E+00
        -11   -1    0    0    0    0  0.00000000000E+00  0.00000000000E+00  0.45593999997E+02  0.45594000000E+02  0.51100000000E-03 0.  1.
         11   -1    0    0    0    0 -0.00000000000E+00 -0.00000000000E+00 -0.45593999997E+02  0.45594000000E+02  0.51100000000E-03 0. -1.
    9900012    2    1    2    0    0  0.49517468352E+00 -0.93882751430E+00  0.51542892585E+00  0.90008058456E+02  0.90000324027E+02 0.  0.
         12    1    1    2    0    0 -0.49517468352E+00  0.93882751430E+00 -0.51542892585E+00  0.11799415436E+01  0.00000000000E+00 0. -1.
         11    1    3    3    0    0  0.21486594330E+02 -0.35391504910E+01 -0.30734426539E+02  0.37667018691E+02  0.51100000000E-03 0. -1.
        -11    1    3    3    0    0  0.18349672860E+01 -0.84701240549E+01 -0.34740609314E+01  0.93369805645E+01  0.51100000000E-03 0.  1.
        -12    1    3    3    0    0 -0.22826386932E+02  0.11070447032E+02  0.34723916396E+02  0.43004059201E+02  0.00000000000E+00 0.  1.
</event>
<event>
 7    1  0.4331547E-015  0.9000770E+02  0.7816164E-02  0.1186339E+00
        -11   -1    0    0    0    0  0.00000000000E+00  0.00000000000E+00  0.45593999997E+02  0.45594000000E+02  0.51100000000E-03 0.  1.
         11   -1    0    0    0    0 -0.00000000000E+00 -0.00000000000E+00 -0.45593999997E+02  0.45594000000E+02  0.51100000000E-03 0. -1.
    9900012    2    1    2    0    0 -0.54642816555E+00  0.91981614683E+00  0.49847133841E+00  0.90007695311E+02  0.89999956089E+02 0.  0.
         12    1    1    2    0    0  0.54642816555E+00 -0.91981614683E+00 -0.49847133841E+00  0.11803046892E+01  0.00000000000E+00 0. -1.
         11    1    3    3    0    0  0.16404014253E+02 -0.15987115617E+02 -0.30382117032E+02  0.38049344081E+02  0.51100000000E-03 0. -1.
        -11    1    3    3    0    0  0.97480446096E+01  0.41148338777E+01  0.23403428544E+01  0.10836670914E+02  0.51100000000E-03 0.  1.
        -12    1    3    3    0    0 -0.26698487028E+02  0.12792097886E+02  0.28540245516E+02  0.41121680316E+02  0.00000000000E+00 0.  1.
</event>
<event>
 7    1  0.4331547E-015  0.9000778E+02  0.7816164E-02  0.1186339E+00
        -11   -1    0    0    0    0  0.00000000000E+00  0.00000000000E+00  0.45593999997E+02  0.45594000000E+02  0.51100000000E-03 0.  1.
         11   -1    0    0    0    0 -0.00000000000E+00 -0.00000000000E+00 -0.45593999997E+02  0.45594000000E+02  0.51100000000E-03 0. -1.
    9900012    2    1    2    0    0 -0.10227952615E+01  0.23974881690E+00 -0.53789723663E+00  0.90007778377E+02  0.90000040252E+02 0.  0.
         12    1    1    2    0    0  0.10227952615E+01 -0.23974881690E+00  0.53789723663E+00  0.11802216230E+01  0.00000000000E+00 0. -1.
         11    1    3    3    0    0  0.27180019538E+02 -0.18911834972E+02 -0.77240756188E+01  0.34001063344E+02  0.51100000000E-03 0. -1.
        -11    1    3    3    0    0  0.71154004687E+01  0.85390708421E+01 -0.10335334728E+02  0.15177740243E+02  0.51100000000E-03 0.  1.
        -12    1    3    3    0    0 -0.35318215268E+02  0.10612512947E+02  0.17521513110E+02  0.40828974790E+02  0.00000000000E+00 0.  1.
</event>
<event>
 7    1  0.4331547E-015  0.9000735E+02  0.7816164E-02  0.1186340E+00
        -11   -1    0    0    0    0  0.00000000000E+00  0.00000000000E+00  0.45593999997E+02  0.45594000000E+02  0.51100000000E-03 0. -1.
         11   -1    0    0    0    0 -0.00000000000E+00 -0.00000000000E+00 -0.45593999997E+02  0.45594000000E+02  0.51100000000E-03 0.  1.
    9900012    2    1    2    0    0  0.51531581889E+00 -0.11571969817E+00 -0.10559286340E+01  0.90007353261E+02  0.89999609523E+02 0.  0.
         12    1    1    2    0    0 -0.51531581889E+00  0.11571969817E+00  0.10559286340E+01  0.11806467388E+01  0.00000000000E+00 0. -1.
         11    1    3    3    0    0 -0.61817325546E+01 -0.10698822449E+01 -0.88821439299E+01  0.10874325103E+02  0.51100000000E-03 0. -1.
        -11    1    3    3    0    0  0.79672868291E+01  0.28545074913E+02 -0.23168433627E+02  0.37617486336E+02  0.51100000000E-03 0.  1.
         12    1    3    3    0    0 -0.12702384556E+01 -0.27590912367E+02  0.30994648923E+02  0.41515541822E+02  0.00000000000E+00 0. -1.
</event>
<event>
 7    1  0.4331547E-015  0.9000778E+02  0.7816164E-02  0.1186339E+00
        -11   -1    0    0    0    0  0.00000000000E+00  0.00000000000E+00  0.45593999997E+02  0.45594000000E+02  0.51100000000E-03 0.  1.
         11   -1    0    0    0    0 -0.00000000000E+00 -0.00000000000E+00 -0.45593999997E+02  0.45594000000E+02  0.51100000000E-03 0. -1.
    9900012    2    1    2    0    0  0.49007402253E+00 -0.65317463545E+00  0.85212267088E+00  0.90007778539E+02  0.90000040415E+02 0.  0.
         12    1    1    2    0    0 -0.49007402253E+00  0.65317463545E+00 -0.85212267088E+00  0.11802214615E+01  0.00000000000E+00 0. -1.
         11    1    3    3    0    0 -0.26921352169E+02 -0.23411330756E+02  0.24101232225E+01  0.35758331960E+02  0.51100000000E-03 0. -1.
        -11    1    3    3    0    0 -0.31128241109E+01 -0.93338706735E+01 -0.15408799212E+01  0.99591730023E+01  0.51100000000E-03 0.  1.
        -12    1    3    3    0    0  0.30524250303E+02  0.32092026794E+02 -0.17120630327E-01  0.44290273576E+02  0.00000000000E+00 0.  1.
</event>
<event>
 7    1  0.4331547E-015  0.9000756E+02  0.7816164E-02  0.1186339E+00
        -11   -1    0    0    0    0  0.00000000000E+00  0.00000000000E+00  0.45593999997E+02  0.45594000000E+02  0.51100000000E-03 0.  1.
         11   -1    0    0    0    0 -0.00000000000E+00 -0.00000000000E+00 -0.45593999997E+02  0.45594000000E+02  0.51100000000E-03 0. -1.
    9900012    2    1    2    0    0  0.93801259245E+00  0.69235620355E+00  0.18500164064E+00  0.90007555023E+02  0.89999813949E+02 0.  0.
         12    1    1    2    0    0 -0.93801259245E+00 -0.69235620355E+00 -0.18500164064E+00  0.11804449768E+01  0.00000000000E+00 0. -1.
         11    1    3    3    0    0 -0.34655160974E+02 -0.71425937872E+00  0.49519734638E+01  0.35014459728E+02  0.51100000000E-03 0. -1.
        -11    1    3    3    0    0 -0.94223902085E+01  0.37573111821E+00  0.14425616321E+01  0.95395804645E+01  0.51100000000E-03 0.  1.
        -12    1    3    3    0    0  0.45015563775E+02  0.10308844641E+01 -0.62095334553E+01  0.45453514831E+02  0.00000000000E+00 0.  1.
</event>
<event>
 7    1  0.4331547E-015  0.9000771E+02  0.7816164E-02  0.1186339E+00
        -11   -1    0    0    0    0  0.00000000000E+00  0.00000000000E+00  0.45593999997E+02  0.45594000000E+02  0.51100000000E-03 0.  1.
         11   -1    0    0    0    0 -0.00000000000E+00 -0.00000000000E+00 -0.45593999997E+02  0.45594000000E+02  0.51100000000E-03 0. -1.
    9900012    2    1    2    0    0  0.94308159338E+00  0.24135996440E+00 -0.66740228631E+00  0.90007710486E+02  0.89999971465E+02 0.  0.
         12    1    1    2    0    0 -0.94308159338E+00 -0.24135996440E+00  0.66740228631E+00  0.11802895136E+01  0.00000000000E+00 0. -1.
         11    1    3    3    0    0 -0.12606176753E+02  0.14038874822E+00 -0.38391869149E+02  0.40408798774E+02  0.51100000000E-03 0. -1.
        -11    1    3    3    0    0  0.60215090926E+01  0.73734394686E+01 -0.91803636853E+00  0.95639412579E+01  0.51100000000E-03 0.  1.
        -12    1    3    3    0    0  0.75277492536E+01 -0.72724682524E+01  0.38642503231E+02  0.40034970455E+02  0.00000000000E+00 0.  1.
</event>
<event>
 7    1  0.4331547E-015  0.9000754E+02  0.7816164E-02  0.1186339E+00
        -11   -1    0    0    0    0  0.00000000000E+00  0.00000000000E+00  0.45593999997E+02  0.45594000000E+02  0.51100000000E-03 0.  1.
         11   -1    0    0    0    0 -0.00000000000E+00 -0.00000000000E+00 -0.45593999997E+02  0.45594000000E+02  0.51100000000E-03 0. -1.
    9900012    2    1    2    0    0  0.42241153718E+00  0.56219956105E+00 -0.94814889283E+00  0.90007539846E+02  0.89999798571E+02 0.  0.
         12    1    1    2    0    0 -0.42241153718E+00 -0.56219956105E+00  0.94814889283E+00  0.11804601544E+01  0.00000000000E+00 0. -1.
         11    1    3    3    0    0 -0.10003241429E+02 -0.21456396168E+02 -0.28073766808E+02  0.36722992234E+02  0.51100000000E-03 0. -1.
        -11    1    3    3    0    0 -0.12147905562E+02 -0.12899067060E+01  0.23039597217E+01  0.12431560623E+02  0.51100000000E-03 0.  1.
        -12    1    3    3    0    0  0.22573558528E+02  0.23308502435E+02  0.24821658194E+02  0.40852986988E+02  0.00000000000E+00 0.  1.
</event>
<event>
 7    1  0.4331547E-015  0.9000783E+02  0.7816164E-02  0.1186339E+00
        -11   -1    0    0    0    0  0.00000000000E+00  0.00000000000E+00  0.45593999997E+02  0.45594000000E+02  0.51100000000E-03 0.  1.
         11   -1    0    0    0    0 -0.00000000000E+00 -0.00000000000E+00 -0.45593999997E+02  0.45594000000E+02  0.51100000000E-03 0. -1.
    9900012    2    1    2    0    0 -0.47050440164E+00  0.10578830211E+01  0.22871855313E+00  0.90007829226E+02  0.90000091772E+02 0.  0.
         12    1    1    2    0    0  0.47050440164E+00 -0.10578830211E+01 -0.22871855313E+00  0.11801707736E+01  0.00000000000E+00 0. -1.
         11    1    3    3    0    0  0.16937179427E+01 -0.76807486447E+01  0.79396718483E+01  0.11175910233E+02  0.51100000000E-03 0. -1.
        -11    1    3    3    0    0 -0.20460244518E+02 -0.23010678960E+02  0.16479085701E+02  0.34923820205E+02  0.51100000000E-03 0.  1.
         12    1    3    3    0    0  0.18296022174E+02  0.31749310625E+02 -0.24190038996E+02  0.43908098788E+02  0.00000000000E+00 0. -1.
</event>
<event>
 7    1  0.4331547E-015  0.9000786E+02  0.7816164E-02  0.1186339E+00
        -11   -1    0    0    0    0  0.00000000000E+00  0.00000000000E+00  0.45593999997E+02  0.45594000000E+02  0.51100000000E-03 0.  1.
         11   -1    0    0    0    0 -0.00000000000E+00 -0.00000000000E+00 -0.45593999997E+02  0.45594000000E+02  0.51100000000E-03 0. -1.
    9900012    2    1    2    0    0  0.68670120822E+00 -0.80567629057E+00  0.52159717961E+00  0.90007857444E+02  0.90000120362E+02 0.  0.
         12    1    1    2    0    0 -0.68670120822E+00  0.80567629057E+00 -0.52159717961E+00  0.11801425559E+01  0.00000000000E+00 0. -1.
         11    1    3    3    0    0  0.58178131880E+00  0.70745410642E+01  0.21416049059E+02  0.22561798650E+02  0.51100000000E-03 0. -1.
        -11    1    3    3    0    0 -0.15604405760E+02 -0.30727460405E+02 -0.19694643311E+02  0.39693239695E+02  0.51100000000E-03 0.  1.
         12    1    3    3    0    0  0.15709325649E+02  0.22847243050E+02 -0.11998085687E+01  0.27752819099E+02  0.00000000000E+00 0. -1.
</event>
<event>
 7    1  0.4331547E-015  0.9000783E+02  0.7816164E-02  0.1186339E+00
        -11   -1    0    0    0    0  0.00000000000E+00  0.00000000000E+00  0.45593999997E+02  0.45594000000E+02  0.51100000000E-03 0. -1.
         11   -1    0    0    0    0 -0.00000000000E+00 -0.00000000000E+00 -0.45593999997E+02  0.45594000000E+02  0.51100000000E-03 0.  1.
    9900012    2    1    2    0    0 -0.46477832204E+00  0.66062598189E+00  0.86043998564E+00  0.90007829442E+02  0.90000091991E+02 0.  0.
         12    1    1    2    0    0  0.46477832204E+00 -0.66062598189E+00 -0.86043998564E+00  0.11801705578E+01  0.00000000000E+00 0. -1.
         11    1    3    3    0    0 -0.66239424109E+01 -0.66944816776E+01  0.16880267366E+01  0.95677652835E+01  0.51100000000E-03 0. -1.
        -11    1    3    3    0    0  0.14609432324E+02  0.15531776806E+02 -0.36834855690E+02  0.42561463762E+02  0.51100000000E-03 0.  1.
         12    1    3    3    0    0 -0.84502682347E+01 -0.81766691460E+01  0.36007268939E+02  0.37878600397E+02  0.00000000000E+00 0. -1.
</event>
<event>
 7    1  0.4331547E-015  0.9000775E+02  0.7816164E-02  0.1186339E+00
        -11   -1    0    0    0    0  0.00000000000E+00  0.00000000000E+00  0.45593999997E+02  0.45594000000E+02  0.51100000000E-03 0.  1.
         11   -1    0    0    0    0 -0.00000000000E+00 -0.00000000000E+00 -0.45593999997E+02  0.45594000000E+02  0.51100000000E-03 0. -1.
    9900012    2    1    2    0    0 -0.18313223965E+00  0.31432706481E+00  0.11227872324E+01  0.90007749988E+02  0.90000011488E+02 0.  0.
         12    1    1    2    0    0  0.18313223965E+00 -0.31432706481E+00 -0.11227872324E+01  0.11802500117E+01  0.00000000000E+00 0. -1.
         11    1    3    3    0    0 -0.15002788979E+02 -0.29245042765E+01 -0.13063103998E+02  0.20106742370E+02  0.51100000000E-03 0. -1.
        -11    1    3    3    0    0  0.48759390293E+01  0.34185399826E+02  0.14353440774E+02  0.37395689658E+02  0.51100000000E-03 0.  1.
         12    1    3    3    0    0  0.99437177098E+01 -0.30946568485E+02 -0.16754954361E+00  0.32505317961E+02  0.00000000000E+00 0. -1.
</event>
<event>
 7    1  0.4331547E-015  0.9000775E+02  0.7816164E-02  0.1186339E+00
        -11   -1    0    0    0    0  0.00000000000E+00  0.00000000000E+00  0.45593999997E+02  0.45594000000E+02  0.51100000000E-03 0. -1.
         11   -1    0    0    0    0 -0.00000000000E+00 -0.00000000000E+00 -0.45593999997E+02  0.45594000000E+02  0.51100000000E-03 0.  1.
    9900012    2    1    2    0    0  0.11784996760E+01  0.62911509209E-01 -0.13099424295E-01  0.90007749629E+02  0.90000011124E+02 0.  0.
         12    1    1    2    0    0 -0.11784996760E+01 -0.62911509209E-01  0.13099424295E-01  0.11802503714E+01  0.00000000000E+00 0. -1.
         11    1    3    3    0    0 -0.12259143842E+01  0.22533744462E+01 -0.95190352818E+01  0.98586305047E+01  0.51100000000E-03 0. -1.
        -11    1    3    3    0    0  0.13042916038E+01  0.26107402163E+02 -0.24547398919E+02  0.35859063265E+02  0.51100000000E-03 0.  1.
         12    1    3    3    0    0  0.11001224564E+01 -0.28297865100E+02  0.34053334776E+02  0.44290055859E+02  0.00000000000E+00 0. -1.
</event>
<event>
 7    1  0.4331547E-015  0.9000772E+02  0.7816164E-02  0.1186339E+00
        -11   -1    0    0    0    0  0.00000000000E+00  0.00000000000E+00  0.45593999997E+02  0.45594000000E+02  0.51100000000E-03 0.  1.
         11   -1    0    0    0    0 -0.00000000000E+00 -0.00000000000E+00 -0.45593999997E+02  0.45594000000E+02  0.51100000000E-03 0. -1.
    9900012    2    1    2    0    0 -0.55718879447E+00  0.46554852999E+00  0.93051468906E+00  0.90007723603E+02  0.89999984755E+02 0.  0.
         12    1    1    2    0    0  0.55718879447E+00 -0.46554852999E+00 -0.93051468906E+00  0.11802763969E+01  0.00000000000E+00 0. -1.
         11    1    3    3    0    0  0.12495966139E+01 -0.10645834194E+02 -0.10910318855E+01  0.10774304072E+02  0.51100000000E-03 0. -1.
        -11    1    3    3    0    0  0.12611970953E+02 -0.28729165546E+02  0.15197606408E+02  0.34862501418E+02  0.51100000000E-03 0.  1.
         12    1    3    3    0    0 -0.14418756361E+02  0.39840548271E+02 -0.13176059833E+02  0.44370918114E+02  0.00000000000E+00 0. -1.
</event>
<event>
 7    1  0.5048562E-015  0.9000736E+02  0.7816164E-02  0.1186340E+00
        -11   -1    0    0    0    0  0.00000000000E+00  0.00000000000E+00  0.45593999997E+02  0.45594000000E+02  0.51100000000E-03 0. -1.
         11   -1    0    0    0    0 -0.00000000000E+00 -0.00000000000E+00 -0.45593999997E+02  0.45594000000E+02  0.51100000000E-03 0.  1.
    9900012    2    1    2    0    0  0.10736059010E+00 -0.19348127414E+00 -0.11597217208E+01  0.90007357900E+02  0.89999614223E+02 0.  0.
         12    1    1    2    0    0 -0.10736059010E+00  0.19348127414E+00  0.11597217208E+01  0.11806421004E+01  0.00000000000E+00 0. -1.
         11    1    3    3    0    0 -0.29443133320E+01  0.35967667539E+02  0.63215169187E+01  0.36637462598E+02  0.51100000000E-03 0. -1.
        -11    1    3    3    0    0  0.57106711436E+01  0.59530483569E+01  0.46410062616E+01  0.94651724247E+01  0.51100000000E-03 0.  1.
        -12    1    3    3    0    0 -0.26589972214E+01 -0.42114197170E+02 -0.12122244901E+02  0.43904722877E+02  0.00000000000E+00 0.  1.
</event>
<event>
 7    1  0.4331547E-015  0.9000777E+02  0.7816164E-02  0.1186339E+00
        -11   -1    0    0    0    0  0.00000000000E+00  0.00000000000E+00  0.45593999997E+02  0.45594000000E+02  0.51100000000E-03 0.  1.
         11   -1    0    0    0    0 -0.00000000000E+00 -0.00000000000E+00 -0.45593999997E+02  0.45594000000E+02  0.51100000000E-03 0. -1.
    9900012    2    1    2    0    0 -0.72938081360E+00  0.57134992970E+00  0.73110421497E+00  0.90007766766E+02  0.90000028487E+02 0.  0.
         12    1    1    2    0    0  0.72938081360E+00 -0.57134992970E+00 -0.73110421497E+00  0.11802332340E+01  0.00000000000E+00 0. -1.
         11    1    3    3    0    0  0.44506395043E+01 -0.11579486974E+01  0.50721676347E+01  0.68465992989E+01  0.51100000000E-03 0. -1.
        -11    1    3    3    0    0 -0.12083305659E+02 -0.12718508598E+02  0.35842099447E+02  0.39905172968E+02  0.51100000000E-03 0.  1.
         12    1    3    3    0    0  0.69032853410E+01  0.14447807225E+02 -0.40183162867E+02  0.43255994499E+02  0.00000000000E+00 0. -1.
</event>
<event>
 7    1  0.4331547E-015  0.9000784E+02  0.7816164E-02  0.1186339E+00
        -11   -1    0    0    0    0  0.00000000000E+00  0.00000000000E+00  0.45593999997E+02  0.45594000000E+02  0.51100000000E-03 0.  1.
         11   -1    0    0    0    0 -0.00000000000E+00 -0.00000000000E+00 -0.45593999997E+02  0.45594000000E+02  0.51100000000E-03 0. -1.
    9900012    2    1    2    0    0  0.63544193138E+00 -0.86672397969E+00 -0.48762854748E+00  0.90007839627E+02  0.90000102310E+02 0.  0.
         12    1    1    2    0    0 -0.63544193138E+00  0.86672397969E+00  0.48762854748E+00  0.11801603728E+01  0.00000000000E+00 0. -1.
         11    1    3    3    0    0 -0.17239521104E+02  0.29242445630E+02 -0.78118386370E+01  0.34833124141E+02  0.51100000000E-03 0. -1.
        -11    1    3    3    0    0 -0.50664748723E+01  0.58383211717E+01  0.97725402969E+01  0.12460245016E+02  0.51100000000E-03 0.  1.
        -12    1    3    3    0    0  0.22941437907E+02 -0.35947490781E+02 -0.24483302074E+01  0.42714470470E+02  0.00000000000E+00 0.  1.
</event>
<event>
 7    1  0.4331547E-015  0.9000794E+02  0.7816164E-02  0.1186339E+00
        -11   -1    0    0    0    0  0.00000000000E+00  0.00000000000E+00  0.45593999997E+02  0.45594000000E+02  0.51100000000E-03 0. -1.
         11   -1    0    0    0    0 -0.00000000000E+00 -0.00000000000E+00 -0.45593999997E+02  0.45594000000E+02  0.51100000000E-03 0.  1.
    9900012    2    1    2    0    0  0.18104702096E+00 -0.11634325306E+01 -0.78706253642E-01  0.90007937310E+02  0.90000201283E+02 0.  0.
         12    1    1    2    0    0 -0.18104702096E+00  0.11634325306E+01  0.78706253642E-01  0.11800626896E+01  0.00000000000E+00 0. -1.
         11    1    3    3    0    0  0.11712300288E+02  0.15909081150E+02  0.31908696227E+02  0.37529211772E+02  0.51100000000E-03 0. -1.
        -11    1    3    3    0    0 -0.80808909472E+00 -0.45424051540E+01  0.79937491248E+01  0.92296521006E+01  0.51100000000E-03 0.  1.
        -12    1    3    3    0    0 -0.10723164173E+02 -0.12530108527E+02 -0.39981151605E+02  0.43249073438E+02  0.00000000000E+00 0.  1.
</event>
<event>
 7    1  0.4331547E-015  0.9000776E+02  0.7816164E-02  0.1186339E+00
        -11   -1    0    0    0    0  0.00000000000E+00  0.00000000000E+00  0.45593999997E+02  0.45594000000E+02  0.51100000000E-03 0.  1.
         11   -1    0    0    0    0 -0.00000000000E+00 -0.00000000000E+00 -0.45593999997E+02  0.45594000000E+02  0.51100000000E-03 0. -1.
    9900012    2    1    2    0    0  0.81116307191E+00 -0.53614613939E+00  0.66896798126E+00  0.90007764273E+02  0.90000025961E+02 0.  0.
         12    1    1    2    0    0 -0.81116307191E+00  0.53614613939E+00 -0.66896798126E+00  0.11802357273E+01  0.00000000000E+00 0. -1.
         11    1    3    3    0    0 -0.32133810309E+02 -0.24233321113E+02  0.91872657868E+01  0.41282459593E+02  0.51100000000E-03 0. -1.
        -11    1    3    3    0    0  0.88422067810E+01 -0.52052276743E+01 -0.67297178177E+00  0.10282602160E+02  0.51100000000E-03 0.  1.
        -12    1    3    3    0    0  0.24102766600E+02  0.28902402648E+02 -0.78453260237E+01  0.38442702520E+02  0.00000000000E+00 0.  1.
</event>
<event>
 7    1  0.4331547E-015  0.9000777E+02  0.7816164E-02  0.1186339E+00
        -11   -1    0    0    0    0  0.00000000000E+00  0.00000000000E+00  0.45593999997E+02  0.45594000000E+02  0.51100000000E-03 0.  1.
         11   -1    0    0    0    0 -0.00000000000E+00 -0.00000000000E+00 -0.45593999997E+02  0.45594000000E+02  0.51100000000E-03 0. -1.
    9900012    2    1    2    0    0 -0.13568893577E+00  0.11723718644E+01 -0.81392862449E-02  0.90007773952E+02  0.90000035768E+02 0.  0.
         12    1    1    2    0    0  0.13568893577E+00 -0.11723718644E+01  0.81392862449E-02  0.11802260477E+01  0.00000000000E+00 0. -1.
         11    1    3    3    0    0  0.42832606551E+01 -0.40135208458E+02  0.31441310644E+01  0.40485390454E+02  0.51100000000E-03 0. -1.
        -11    1    3    3    0    0 -0.93064654589E+01  0.26051718814E+01  0.27986441741E+01  0.10061293622E+02  0.51100000000E-03 0.  1.
        -12    1    3    3    0    0  0.48875158681E+01  0.38702408441E+02 -0.59509145247E+01  0.39461089876E+02  0.00000000000E+00 0.  1.
</event>
<event>
 7    1  0.4331547E-015  0.9000773E+02  0.7816164E-02  0.1186339E+00
        -11   -1    0    0    0    0  0.00000000000E+00  0.00000000000E+00  0.45593999997E+02  0.45594000000E+02  0.51100000000E-03 0. -1.
         11   -1    0    0    0    0 -0.00000000000E+00 -0.00000000000E+00 -0.45593999997E+02  0.45594000000E+02  0.51100000000E-03 0.  1.
    9900012    2    1    2    0    0  0.10160339117E+01  0.40421981409E+00 -0.44419502773E+00  0.90007734017E+02  0.89999995306E+02 0.  0.
         12    1    1    2    0    0 -0.10160339117E+01 -0.40421981409E+00  0.44419502773E+00  0.11802659829E+01  0.00000000000E+00 0. -1.
         11    1    3    3    0    0 -0.18857748286E+02  0.18320272012E+02  0.26749345098E+02  0.37506992687E+02  0.51100000000E-03 0. -1.
        -11    1    3    3    0    0  0.75158111471E+00  0.10540247452E+02 -0.52944299053E+01  0.11819165741E+02  0.51100000000E-03 0.  1.
        -12    1    3    3    0    0  0.19122201083E+02 -0.28456299650E+02 -0.21899110220E+02  0.40681575590E+02  0.00000000000E+00 0.  1.
</event>
<event>
 7    1  0.4331547E-015  0.9000780E+02  0.7816164E-02  0.1186339E+00
        -11   -1    0    0    0    0  0.00000000000E+00  0.00000000000E+00  0.45593999997E+02  0.45594000000E+02  0.51100000000E-03 0.  1.
         11   -1    0    0    0    0 -0.00000000000E+00 -0.00000000000E+00 -0.45593999997E+02  0.45594000000E+02  0.51100000000E-03 0. -1.
    9900012    2    1    2    0    0 -0.57607681597E+00 -0.90777684981E+00 -0.48677923615E+00  0.90007797758E+02  0.90000059889E+02 0.  0.
         12    1    1    2    0    0  0.57607681597E+00  0.90777684981E+00  0.48677923615E+00  0.11802022419E+01  0.00000000000E+00 0. -1.
         11    1    3    3    0    0  0.22420449966E+02 -0.28672772354E+02 -0.70534266562E+01  0.37074995334E+02  0.51100000000E-03 0. -1.
        -11    1    3    3    0    0 -0.10334950109E+01 -0.93440360572E+01  0.10226031104E+01  0.94564707560E+01  0.51100000000E-03 0.  1.
        -12    1    3    3    0    0 -0.21963031771E+02  0.37109031562E+02  0.55440443096E+01  0.43476331668E+02  0.00000000000E+00 0.  1.
</event>
<event>
 7    1  0.4331547E-015  0.9000773E+02  0.7816164E-02  0.1186339E+00
        -11   -1    0    0    0    0  0.00000000000E+00  0.00000000000E+00  0.45593999997E+02  0.45594000000E+02  0.51100000000E-03 0. -1.
         11   -1    0    0    0    0 -0.00000000000E+00 -0.00000000000E+00 -0.45593999997E+02  0.45594000000E+02  0.51100000000E-03 0.  1.
    9900012    2    1    2    0    0  0.11771716632E+01  0.38547273669E-01  0.76316110027E-01  0.90007727504E+02  0.89999988707E+02 0.  0.
         12    1    1    2    0    0 -0.11771716632E+01 -0.38547273669E-01 -0.76316110027E-01  0.11802724964E+01  0.00000000000E+00 0. -1.
         11    1    3    3    0    0 -0.53772775914E+00 -0.71736344586E+01  0.56041644130E+01  0.91190373131E+01  0.51100000000E-03 0. -1.
        -11    1    3    3    0    0 -0.21244896589E+02  0.37168363083E+02 -0.51769523901E+00  0.42814727069E+02  0.51100000000E-03 0.  1.
         12    1    3    3    0    0  0.22959796012E+02 -0.29956181351E+02 -0.50101530640E+01  0.38073963121E+02  0.00000000000E+00 0. -1.
</event>
<event>
 7    1  0.4331547E-015  0.9000789E+02  0.7816164E-02  0.1186339E+00
        -11   -1    0    0    0    0  0.00000000000E+00  0.00000000000E+00  0.45593999997E+02  0.45594000000E+02  0.51100000000E-03 0.  1.
         11   -1    0    0    0    0 -0.00000000000E+00 -0.00000000000E+00 -0.45593999997E+02  0.45594000000E+02  0.51100000000E-03 0. -1.
    9900012    2    1    2    0    0  0.26324213914E+00  0.85579350632E+00  0.76875084142E+00  0.90007891189E+02  0.90000154553E+02 0.  0.
         12    1    1    2    0    0 -0.26324213914E+00 -0.85579350632E+00 -0.76875084142E+00  0.11801088109E+01  0.00000000000E+00 0. -1.
         11    1    3    3    0    0  0.72231200742E+00  0.59500941606E+00  0.82756068539E+01  0.83283515717E+01  0.51100000000E-03 0. -1.
        -11    1    3    3    0    0 -0.33471365839E+02 -0.16138082467E+02  0.13159922628E+02  0.39420218172E+02  0.51100000000E-03 0.  1.
         12    1    3    3    0    0  0.33012295971E+02  0.16398866558E+02 -0.20666778641E+02  0.42259321446E+02  0.00000000000E+00 0. -1.
</event>
<event>
 7    1  0.4331547E-015  0.9000783E+02  0.7816164E-02  0.1186339E+00
        -11   -1    0    0    0    0  0.00000000000E+00  0.00000000000E+00  0.45593999997E+02  0.45594000000E+02  0.51100000000E-03 0. -1.
         11   -1    0    0    0    0 -0.00000000000E+00 -0.00000000000E+00 -0.45593999997E+02  0.45594000000E+02  0.51100000000E-03 0.  1.
    9900012    2    1    2    0    0  0.16502317047E+00  0.27506714596E+00 -0.11357366024E+01  0.90007833820E+02  0.90000096427E+02 0.  0.
         12    1    1    2    0    0 -0.16502317047E+00 -0.27506714596E+00  0.11357366024E+01  0.11801661797E+01  0.00000000000E+00 0. -1.
         11    1    3    3    0    0 -0.27751025431E+01  0.94322472304E+01 -0.67053469366E+01  0.11900847018E+02  0.51100000000E-03 0. -1.
        -11    1    3    3    0    0  0.26438447826E+02 -0.17206620335E+02 -0.23892463076E+02  0.39571569326E+02  0.51100000000E-03 0.  1.
         12    1    3    3    0    0 -0.23498322112E+02  0.80494402507E+01  0.29462073410E+02  0.38535417477E+02  0.00000000000E+00 0. -1.
</event>
<event>
 7    1  0.4331547E-015  0.9000767E+02  0.7816164E-02  0.1186339E+00
        -11   -1    0    0    0    0  0.00000000000E+00  0.00000000000E+00  0.45593999997E+02  0.45594000000E+02  0.51100000000E-03 0. -1.
         11   -1    0    0    0    0 -0.00000000000E+00 -0.00000000000E+00 -0.45593999997E+02  0.45594000000E+02  0.51100000000E-03 0.  1.
    9900012    2    1    2    0    0 -0.78088639201E+00 -0.18590714283E+00 -0.86535634197E+00  0.90007666733E+02  0.89999927134E+02 0.  0.
         12    1    1    2    0    0  0.78088639201E+00  0.18590714283E+00  0.86535634197E+00  0.11803332672E+01  0.00000000000E+00 0. -1.
         11    1    3    3    0    0  0.17735559409E+02  0.35655794560E+02  0.84463977971E+01  0.40709057828E+02  0.51100000000E-03 0. -1.
        -11    1    3    3    0    0  0.51895858610E+01 -0.76531082122E+01 -0.83429579404E+01  0.12454188620E+02  0.51100000000E-03 0.  1.
        -12    1    3    3    0    0 -0.23706031662E+02 -0.28188593490E+02 -0.96879619862E+00  0.36844420286E+02  0.00000000000E+00 0.  1.
</event>
<event>
 7    1  0.4331547E-015  0.9000786E+02  0.7816164E-02  0.1186339E+00
        -11   -1    0    0    0    0  0.00000000000E+00  0.00000000000E+00  0.45593999997E+02  0.45594000000E+02  0.51100000000E-03 0.  1.
         11   -1    0    0    0    0 -0.00000000000E+00 -0.00000000000E+00 -0.45593999997E+02  0.45594000000E+02  0.51100000000E-03 0. -1.
    9900012    2    1    2    0    0  0.13279593934E+00 -0.95944231714E+00  0.67421372218E+00  0.90007860828E+02  0.90000123791E+02 0.  0.
         12    1    1    2    0    0 -0.13279593934E+00  0.95944231714E+00 -0.67421372218E+00  0.11801391717E+01  0.00000000000E+00 0. -1.
         11    1    3    3    0    0  0.17233456631E+02  0.35732066780E+02  0.27818317237E+00  0.39671778508E+02  0.51100000000E-03 0. -1.
        -11    1    3    3    0    0 -0.91251450865E+01  0.12885134775E+01 -0.60104529091E+01  0.11002458101E+02  0.51100000000E-03 0.  1.
        -12    1    3    3    0    0 -0.79755156048E+01 -0.37980022575E+02  0.64064834589E+01  0.39333624220E+02  0.00000000000E+00 0.  1.
</event>
<event>
 7    1  0.4331547E-015  0.9000774E+02  0.7816164E-02  0.1186339E+00
        -11   -1    0    0    0    0  0.00000000000E+00  0.00000000000E+00  0.45593999997E+02  0.45594000000E+02  0.51100000000E-03 0.  1.
         11   -1    0    0    0    0 -0.00000000000E+00 -0.00000000000E+00 -0.45593999997E+02  0.45594000000E+02  0.51100000000E-03 0. -1.
    9900012    2    1    2    0    0  0.52735119920E+00  0.10395027160E+01 -0.18535326506E+00  0.90007736887E+02  0.89999998214E+02 0.  0.
         12    1    1    2    0    0 -0.52735119920E+00 -0.10395027160E+01  0.18535326506E+00  0.11802631133E+01  0.00000000000E+00 0. -1.
         11    1    3    3    0    0 -0.64254707378E+01 -0.61886226918E+01 -0.38900398048E+01  0.97323242326E+01  0.51100000000E-03 0. -1.
        -11    1    3    3    0    0  0.96431480230E+01 -0.95522675603E+01  0.38895509269E+02  0.41195834266E+02  0.51100000000E-03 0.  1.
         12    1    3    3    0    0 -0.26903260860E+01  0.16780392968E+02 -0.35190822729E+02  0.39079578388E+02  0.00000000000E+00 0. -1.
</event>
<event>
 7    1  0.4331547E-015  0.9000775E+02  0.7816164E-02  0.1186339E+00
        -11   -1    0    0    0    0  0.00000000000E+00  0.00000000000E+00  0.45593999997E+02  0.45594000000E+02  0.51100000000E-03 0.  1.
         11   -1    0    0    0    0 -0.00000000000E+00 -0.00000000000E+00 -0.45593999997E+02  0.45594000000E+02  0.51100000000E-03 0. -1.
    9900012    2    1    2    0    0 -0.76331407164E+00 -0.15698589185E+00  0.88639573778E+00  0.90007749880E+02  0.90000011378E+02 0.  0.
         12    1    1    2    0    0  0.76331407164E+00  0.15698589185E+00 -0.88639573778E+00  0.11802501202E+01  0.00000000000E+00 0. -1.
         11    1    3    3    0    0 -0.32783719676E+02 -0.46556057761E+01 -0.16413956208E+02  0.36957609495E+02  0.51100000000E-03 0. -1.
        -11    1    3    3    0    0 -0.18817639143E+01 -0.77220674250E+01 -0.61542969069E+01  0.10052200328E+02  0.51100000000E-03 0.  1.
        -12    1    3    3    0    0  0.33902169518E+02  0.12220687309E+02  0.23454648853E+02  0.42997940057E+02  0.00000000000E+00 0.  1.
</event>
<event>
 7    1  0.4331547E-015  0.9000773E+02  0.7816164E-02  0.1186339E+00
        -11   -1    0    0    0    0  0.00000000000E+00  0.00000000000E+00  0.45593999997E+02  0.45594000000E+02  0.51100000000E-03 0. -1.
         11   -1    0    0    0    0 -0.00000000000E+00 -0.00000000000E+00 -0.45593999997E+02  0.45594000000E+02  0.51100000000E-03 0.  1.
    9900012    2    1    2    0    0  0.11202695091E+01 -0.16982898991E+00 -0.33044578902E+00  0.90007728812E+02  0.89999990032E+02 0.  0.
         12    1    1    2    0    0 -0.11202695091E+01  0.16982898991E+00  0.33044578902E+00  0.11802711885E+01  0.00000000000E+00 0. -1.
         11    1    3    3    0    0 -0.44271019488E+01 -0.34855918925E+02  0.11681607639E+02  0.37026939828E+02  0.51100000000E-03 0. -1.
        -11    1    3    3    0    0  0.52998490418E+01 -0.66879596954E+01 -0.74998628461E+01  0.11360684298E+02  0.51100000000E-03 0.  1.
        -12    1    3    3    0    0  0.24752241611E+00  0.41374049630E+02 -0.45121905817E+01  0.41620104685E+02  0.00000000000E+00 0.  1.
</event>
<event>
 7    1  0.7874974E-015  0.9000777E+02  0.7816164E-02  0.1186339E+00
        -11   -1    0    0    0    0  0.00000000000E+00  0.00000000000E+00  0.45593999997E+02  0.45594000000E+02  0.51100000000E-03 0. -1.
         11   -1    0    0    0    0 -0.00000000000E+00 -0.00000000000E+00 -0.45593999997E+02  0.45594000000E+02  0.51100000000E-03 0.  1.
    9900012    2    1    2    0    0 -0.43112168582E+00  0.76734343627E+00 -0.78629764999E+00  0.90007768730E+02  0.90000030477E+02 0.  0.
         12    1    1    2    0    0  0.43112168582E+00 -0.76734343627E+00  0.78629764999E+00  0.11802312704E+01  0.00000000000E+00 0. -1.
         11    1    3    3    0    0  0.61881751135E+01  0.47789088982E+01  0.42689123842E+01  0.89081476581E+01  0.51100000000E-03 0. -1.
        -11    1    3    3    0    0  0.32240620330E+02  0.79690329463E+01 -0.18814598253E+02  0.38170043137E+02  0.51100000000E-03 0.  1.
         12    1    3    3    0    0 -0.38859917129E+02 -0.11980598408E+02  0.13759388219E+02  0.42929577935E+02  0.00000000000E+00 0. -1.
</event>
<event>
 7    1  0.4331547E-015  0.9000779E+02  0.7816164E-02  0.1186339E+00
        -11   -1    0    0    0    0  0.00000000000E+00  0.00000000000E+00  0.45593999997E+02  0.45594000000E+02  0.51100000000E-03 0. -1.
         11   -1    0    0    0    0 -0.00000000000E+00 -0.00000000000E+00 -0.45593999997E+02  0.45594000000E+02  0.51100000000E-03 0.  1.
    9900012    2    1    2    0    0 -0.62548606257E+00 -0.79928889068E+00 -0.60232926806E+00  0.90007789810E+02  0.90000051836E+02 0.  0.
         12    1    1    2    0    0  0.62548606257E+00  0.79928889068E+00  0.60232926806E+00  0.11802101899E+01  0.00000000000E+00 0. -1.
         11    1    3    3    0    0 -0.30329621366E+02  0.19665828025E+02  0.18756573083E+02  0.40723945759E+02  0.51100000000E-03 0. -1.
        -11    1    3    3    0    0 -0.22246217935E+01 -0.10926404331E+02 -0.89290907443E+00  0.11186265713E+02  0.51100000000E-03 0.  1.
        -12    1    3    3    0    0  0.31928757097E+02 -0.95387125845E+01 -0.18465993277E+02  0.38097578338E+02  0.00000000000E+00 0.  1.
</event>
<event>
 7    1  0.4331547E-015  0.9000780E+02  0.7816164E-02  0.1186339E+00
        -11   -1    0    0    0    0  0.00000000000E+00  0.00000000000E+00  0.45593999997E+02  0.45594000000E+02  0.51100000000E-03 0.  1.
         11   -1    0    0    0    0 -0.00000000000E+00 -0.00000000000E+00 -0.45593999997E+02  0.45594000000E+02  0.51100000000E-03 0. -1.
    9900012    2    1    2    0    0 -0.74508504028E+00  0.39274800079E+00  0.82671927422E+00  0.90007801937E+02  0.90000064123E+02 0.  0.
         12    1    1    2    0    0  0.74508504028E+00 -0.39274800079E+00 -0.82671927422E+00  0.11801980629E+01  0.00000000000E+00 0. -1.
         11    1    3    3    0    0 -0.11157030069E+02 -0.13428755346E+01 -0.38564499884E+02  0.40168436443E+02  0.51100000000E-03 0. -1.
        -11    1    3    3    0    0 -0.69736813934E+00  0.93970611023E+01  0.14047865439E+01  0.95270407356E+01  0.51100000000E-03 0.  1.
        -12    1    3    3    0    0  0.11109313168E+02 -0.76614375669E+01  0.37986432615E+02  0.40312324759E+02  0.00000000000E+00 0.  1.
</event>
<event>
 7    1  0.4331547E-015  0.9000771E+02  0.7816164E-02  0.1186339E+00
        -11   -1    0    0    0    0  0.00000000000E+00  0.00000000000E+00  0.45593999997E+02  0.45594000000E+02  0.51100000000E-03 0. -1.
         11   -1    0    0    0    0 -0.00000000000E+00 -0.00000000000E+00 -0.45593999997E+02  0.45594000000E+02  0.51100000000E-03 0.  1.
    9900012    2    1    2    0    0 -0.10366907446E+01 -0.48537197315E+00 -0.28771155427E+00  0.90007706989E+02  0.89999967922E+02 0.  0.
         12    1    1    2    0    0  0.10366907446E+01  0.48537197315E+00  0.28771155427E+00  0.11802930106E+01  0.00000000000E+00 0. -1.
         11    1    3    3    0    0 -0.24358278734E-01  0.22124564291E+02  0.27844915988E+02  0.35564536902E+02  0.51100000000E-03 0. -1.
        -11    1    3    3    0    0 -0.59844950608E+01  0.74010456900E+01  0.38835259729E+01  0.10279661117E+02  0.51100000000E-03 0.  1.
        -12    1    3    3    0    0  0.49721625949E+01 -0.30010981954E+02 -0.32016153515E+02  0.44163508971E+02  0.00000000000E+00 0.  1.
</event>
<event>
 7    1  0.4331547E-015  0.9000852E+02  0.7816164E-02  0.1186337E+00
        -11   -1    0    0    0    0  0.00000000000E+00  0.00000000000E+00  0.45593999997E+02  0.45594000000E+02  0.51100000000E-03 0.  1.
         11   -1    0    0    0    0 -0.00000000000E+00 -0.00000000000E+00 -0.45593999997E+02  0.45594000000E+02  0.51100000000E-03 0. -1.
    9900012    2    1    2    0    0  0.77495533864E+00 -0.44238977851E+00  0.77130175779E+00  0.90008520922E+02  0.90000792595E+02 0.  0.
         12    1    1    2    0    0 -0.77495533864E+00  0.44238977851E+00 -0.77130175779E+00  0.11794790776E+01  0.00000000000E+00 0. -1.
         11    1    3    3    0    0  0.65523348851E+01  0.26251607497E+01  0.70799979387E+01  0.99975463230E+01  0.51100000000E-03 0. -1.
        -11    1    3    3    0    0 -0.24877646006E+02  0.23532342147E+02 -0.24913358191E+02  0.42347890317E+02  0.51100000000E-03 0.  1.
         12    1    3    3    0    0  0.19100266459E+02 -0.26599892675E+02  0.18604662010E+02  0.37663084282E+02  0.00000000000E+00 0. -1.
</event>
<event>
 7    1  0.4331547E-015  0.9000765E+02  0.7816164E-02  0.1186339E+00
        -11   -1    0    0    0    0  0.00000000000E+00  0.00000000000E+00  0.45593999997E+02  0.45594000000E+02  0.51100000000E-03 0.  1.
         11   -1    0    0    0    0 -0.00000000000E+00 -0.00000000000E+00 -0.45593999997E+02  0.45594000000E+02  0.51100000000E-03 0. -1.
    9900012    2    1    2    0    0 -0.38994604366E+00  0.67138840724E+00  0.88905157564E+00  0.90007647081E+02  0.89999907222E+02 0.  0.
         12    1    1    2    0    0  0.38994604366E+00 -0.67138840724E+00 -0.88905157564E+00  0.11803529195E+01  0.00000000000E+00 0. -1.
         11    1    3    3    0    0  0.25194375426E+01 -0.51494321809E+01 -0.88930870036E+01  0.10580700073E+02  0.51100000000E-03 0. -1.
        -11    1    3    3    0    0 -0.18725736263E+02 -0.31406704925E+02  0.13104210621E+02  0.38842691064E+02  0.51100000000E-03 0.  1.
         12    1    3    3    0    0  0.15816352677E+02  0.37227525513E+02 -0.33220720420E+01  0.40584255943E+02  0.00000000000E+00 0. -1.
</event>
<event>
 7    1  0.4331547E-015  0.9000774E+02  0.7816164E-02  0.1186339E+00
        -11   -1    0    0    0    0  0.00000000000E+00  0.00000000000E+00  0.45593999997E+02  0.45594000000E+02  0.51100000000E-03 0. -1.
         11   -1    0    0    0    0 -0.00000000000E+00 -0.00000000000E+00 -0.45593999997E+02  0.45594000000E+02  0.51100000000E-03 0.  1.
    9900012    2    1    2    0    0 -0.45929422931E+00  0.45782823043E+00 -0.98613253221E+00  0.90007739330E+02  0.90000000689E+02 0.  0.
         12    1    1    2    0    0  0.45929422931E+00 -0.45782823043E+00  0.98613253221E+00  0.11802606698E+01  0.00000000000E+00 0. -1.
         11    1    3    3    0    0 -0.95948366626E-02  0.35430439655E+02 -0.66115510389E+01  0.36042041474E+02  0.51100000000E-03 0. -1.
        -11    1    3    3    0    0 -0.37669886441E+01  0.74757917034E+01 -0.54273529952E+01  0.99766640633E+01  0.51100000000E-03 0.  1.
        -12    1    3    3    0    0  0.33172892515E+01 -0.42448403128E+02  0.11052771502E+02  0.43989033792E+02  0.00000000000E+00 0.  1.
</event>
<event>
 7    1  0.4331547E-015  0.9000780E+02  0.7816164E-02  0.1186339E+00
        -11   -1    0    0    0    0  0.00000000000E+00  0.00000000000E+00  0.45593999997E+02  0.45594000000E+02  0.51100000000E-03 0.  1.
         11   -1    0    0    0    0 -0.00000000000E+00 -0.00000000000E+00 -0.45593999997E+02  0.45594000000E+02  0.51100000000E-03 0. -1.
    9900012    2    1    2    0    0 -0.51846168206E+00 -0.79767974230E+00  0.69840527199E+00  0.90007802808E+02  0.90000065005E+02 0.  0.
         12    1    1    2    0    0  0.51846168206E+00  0.79767974230E+00 -0.69840527199E+00  0.11801971916E+01  0.00000000000E+00 0. -1.
         11    1    3    3    0    0 -0.22960663713E+02 -0.43731312243E+01 -0.26978216621E+01  0.23528591050E+02  0.51100000000E-03 0. -1.
        -11    1    3    3    0    0 -0.91193922626E+01  0.23734028027E+02 -0.90911680958E+01  0.27002161751E+02  0.51100000000E-03 0.  1.
         12    1    3    3    0    0  0.31561594293E+02 -0.20158576545E+02  0.12487395030E+02  0.39477050007E+02  0.00000000000E+00 0. -1.
</event>
<event>
 7    1  0.4331547E-015  0.9000779E+02  0.7816164E-02  0.1186339E+00
        -11   -1    0    0    0    0  0.00000000000E+00  0.00000000000E+00  0.45593999997E+02  0.45594000000E+02  0.51100000000E-03 0.  1.
         11   -1    0    0    0    0 -0.00000000000E+00 -0.00000000000E+00 -0.45593999997E+02  0.45594000000E+02  0.51100000000E-03 0. -1.
    9900012    2    1    2    0    0  0.55352382501E+00 -0.10100502351E+01  0.25750756950E+00  0.90007788048E+02  0.90000050051E+02 0.  0.
         12    1    1    2    0    0 -0.55352382501E+00  0.10100502351E+01 -0.25750756950E+00  0.11802119516E+01  0.00000000000E+00 0. -1.
         11    1    3    3    0    0 -0.16332829746E+02  0.17773902132E+02 -0.26918236782E+02  0.36156111464E+02  0.51100000000E-03 0. -1.
        -11    1    3    3    0    0 -0.72309379798E+01 -0.12300201501E+01 -0.58258539567E+01  0.93669625933E+01  0.51100000000E-03 0.  1.
        -12    1    3    3    0    0  0.24117291550E+02 -0.17553932217E+02  0.33001598308E+02  0.44484713991E+02  0.00000000000E+00 0.  1.
</event>
<event>
 7    1  0.4331547E-015  0.9000769E+02  0.7816164E-02  0.1186339E+00
        -11   -1    0    0    0    0  0.00000000000E+00  0.00000000000E+00  0.45593999997E+02  0.45594000000E+02  0.51100000000E-03 0.  1.
         11   -1    0    0    0    0 -0.00000000000E+00 -0.00000000000E+00 -0.45593999997E+02  0.45594000000E+02  0.51100000000E-03 0. -1.
    9900012    2    1    2    0    0  0.71602450076E+00  0.12503446595E+00  0.92994664780E+00  0.90007692637E+02  0.89999953380E+02 0.  0.
         12    1    1    2    0    0 -0.71602450076E+00 -0.12503446595E+00 -0.92994664780E+00  0.11803073630E+01  0.00000000000E+00 0. -1.
         11    1    3    3    0    0  0.48286410497E+01 -0.96304166659E+01  0.15268891802E+01  0.10880812946E+02  0.51100000000E-03 0. -1.
        -11    1    3    3    0    0 -0.61803039670E+01 -0.34297895413E+02  0.23295179812E+01  0.34928046627E+02  0.51100000000E-03 0.  1.
         12    1    3    3    0    0  0.20676874181E+01  0.44053346545E+02 -0.29264605136E+01  0.44198833064E+02  0.00000000000E+00 0. -1.
</event>
<event>
 7    1  0.4331547E-015  0.9000778E+02  0.7816164E-02  0.1186339E+00
        -11   -1    0    0    0    0  0.00000000000E+00  0.00000000000E+00  0.45593999997E+02  0.45594000000E+02  0.51100000000E-03 0.  1.
         11   -1    0    0    0    0 -0.00000000000E+00 -0.00000000000E+00 -0.45593999997E+02  0.45594000000E+02  0.51100000000E-03 0. -1.
    9900012    2    1    2    0    0  0.92193990063E+00 -0.56037473966E+00  0.47847097683E+00  0.90007776502E+02  0.90000038352E+02 0.  0.
         12    1    1    2    0    0 -0.92193990063E+00  0.56037473966E+00 -0.47847097683E+00  0.11802234979E+01  0.00000000000E+00 0. -1.
         11    1    3    3    0    0  0.96884329483E+01  0.10233378511E+01  0.14588710896E+01  0.98509521605E+01  0.51100000000E-03 0. -1.
        -11    1    3    3    0    0  0.10398118906E+02  0.39701035659E+01  0.36248058052E+02  0.37918390155E+02  0.51100000000E-03 0.  1.
         12    1    3    3    0    0 -0.19164611954E+02 -0.55538161566E+01 -0.37228458165E+02  0.42238434187E+02  0.00000000000E+00 0. -1.
</event>
<event>
 7    1  0.4331547E-015  0.9000769E+02  0.7816164E-02  0.1186339E+00
        -11   -1    0    0    0    0  0.00000000000E+00  0.00000000000E+00  0.45593999997E+02  0.45594000000E+02  0.51100000000E-03 0.  1.
         11   -1    0    0    0    0 -0.00000000000E+00 -0.00000000000E+00 -0.45593999997E+02  0.45594000000E+02  0.51100000000E-03 0. -1.
    9900012    2    1    2    0    0  0.48031433633E+00  0.10169440346E+01  0.35813214245E+00  0.90007688320E+02  0.89999949006E+02 0.  0.
         12    1    1    2    0    0 -0.48031433633E+00 -0.10169440346E+01 -0.35813214245E+00  0.11803116803E+01  0.00000000000E+00 0. -1.
         11    1    3    3    0    0  0.23970993651E+01  0.81197716881E+00 -0.95227325646E+01  0.98533155865E+01  0.51100000000E-03 0. -1.
        -11    1    3    3    0    0 -0.12050831220E+02  0.35661575694E+02  0.19001691651E+02  0.42166749934E+02  0.51100000000E-03 0.  1.
         12    1    3    3    0    0  0.10134046191E+02 -0.35456608829E+02 -0.91208269438E+01  0.37987622800E+02  0.00000000000E+00 0. -1.
</event>
<event>
 7    1  0.4331547E-015  0.9000776E+02  0.7816164E-02  0.1186339E+00
        -11   -1    0    0    0    0  0.00000000000E+00  0.00000000000E+00  0.45593999997E+02  0.45594000000E+02  0.51100000000E-03 0. -1.
         11   -1    0    0    0    0 -0.00000000000E+00 -0.00000000000E+00 -0.45593999997E+02  0.45594000000E+02  0.51100000000E-03 0.  1.
    9900012    2    1    2    0    0 -0.10833338863E+01 -0.38315970359E+00 -0.26934455067E+00  0.90007758434E+02  0.90000020045E+02 0.  0.
         12    1    1    2    0    0  0.10833338863E+01  0.38315970359E+00  0.26934455067E+00  0.11802415662E+01  0.00000000000E+00 0. -1.
         11    1    3    3    0    0 -0.20768486838E+02 -0.73129150690E+01  0.28351491724E+02  0.35897295937E+02  0.51100000000E-03 0. -1.
        -11    1    3    3    0    0  0.28681287198E+01 -0.22492678075E+01  0.10193267936E+02  0.10825344314E+02  0.51100000000E-03 0.  1.
        -12    1    3    3    0    0  0.16817024231E+02  0.91790231729E+01 -0.38814104211E+02  0.43285118183E+02  0.00000000000E+00 0.  1.
</event>
<event>
 7    1  0.4331547E-015  0.9000778E+02  0.7816164E-02  0.1186339E+00
        -11   -1    0    0    0    0  0.00000000000E+00  0.00000000000E+00  0.45593999997E+02  0.45594000000E+02  0.51100000000E-03 0. -1.
         11   -1    0    0    0    0 -0.00000000000E+00 -0.00000000000E+00 -0.45593999997E+02  0.45594000000E+02  0.51100000000E-03 0.  1.
    9900012    2    1    2    0    0  0.43771170666E+00  0.99802150963E+00 -0.45307342317E+00  0.90007782224E+02  0.90000044149E+02 0.  0.
         12    1    1    2    0    0 -0.43771170666E+00 -0.99802150963E+00  0.45307342317E+00  0.11802177759E+01  0.00000000000E+00 0. -1.
         11    1    3    3    0    0 -0.97989362418E+00 -0.43836069347E+01 -0.88860418913E+01  0.99568038058E+01  0.51100000000E-03 0. -1.
        -11    1    3    3    0    0  0.28316042675E+02 -0.25746323123E+02  0.12681696869E+01  0.38292031570E+02  0.51100000000E-03 0.  1.
         12    1    3    3    0    0 -0.26898437344E+02  0.31127951568E+02  0.71647987812E+01  0.41758946849E+02  0.00000000000E+00 0. -1.
</event>
<event>
 7    1  0.4331547E-015  0.9000779E+02  0.7816164E-02  0.1186339E+00
        -11   -1    0    0    0    0  0.00000000000E+00  0.00000000000E+00  0.45593999997E+02  0.45594000000E+02  0.51100000000E-03 0. -1.
         11   -1    0    0    0    0 -0.00000000000E+00 -0.00000000000E+00 -0.45593999997E+02  0.45594000000E+02  0.51100000000E-03 0.  1.
    9900012    2    1    2    0    0 -0.30226144385E+00 -0.10021137076E+01 -0.54524621585E+00  0.90007793535E+02  0.90000055610E+02 0.  0.
         12    1    1    2    0    0  0.30226144385E+00  0.10021137076E+01  0.54524621585E+00  0.11802064647E+01  0.00000000000E+00 0. -1.
         11    1    3    3    0    0 -0.11438488109E+02 -0.51778931948E+00  0.11489034794E+02  0.16220512839E+02  0.51100000000E-03 0. -1.
        -11    1    3    3    0    0 -0.11458097116E+02  0.23462910392E+02  0.15932919626E+02  0.30588463212E+02  0.51100000000E-03 0.  1.
         12    1    3    3    0    0  0.22594323781E+02 -0.23947234780E+02 -0.27967200635E+02  0.43198817485E+02  0.00000000000E+00 0. -1.
</event>
<event>
 7    1  0.4331547E-015  0.9000781E+02  0.7816164E-02  0.1186339E+00
        -11   -1    0    0    0    0  0.00000000000E+00  0.00000000000E+00  0.45593999997E+02  0.45594000000E+02  0.51100000000E-03 0.  1.
         11   -1    0    0    0    0 -0.00000000000E+00 -0.00000000000E+00 -0.45593999997E+02  0.45594000000E+02  0.51100000000E-03 0. -1.
    9900012    2    1    2    0    0 -0.99157002511E+00  0.20064814661E+00  0.60775805274E+00  0.90007813301E+02  0.90000075637E+02 0.  0.
         12    1    1    2    0    0  0.99157002511E+00 -0.20064814661E+00 -0.60775805274E+00  0.11801866988E+01  0.00000000000E+00 0. -1.
         11    1    3    3    0    0 -0.95871755732E+01  0.36939080957E+02 -0.32372298288E-01  0.38162949122E+02  0.51100000000E-03 0. -1.
        -11    1    3    3    0    0  0.11007624560E+02  0.34824941248E+01 -0.63108911501E-01  0.11545542291E+02  0.51100000000E-03 0.  1.
        -12    1    3    3    0    0 -0.24120190122E+01 -0.40220926935E+02  0.70323926253E+00  0.40299321889E+02  0.00000000000E+00 0.  1.
</event>
<event>
 7    1  0.4331547E-015  0.9000768E+02  0.7816164E-02  0.1186339E+00
        -11   -1    0    0    0    0  0.00000000000E+00  0.00000000000E+00  0.45593999997E+02  0.45594000000E+02  0.51100000000E-03 0. -1.
         11   -1    0    0    0    0 -0.00000000000E+00 -0.00000000000E+00 -0.45593999997E+02  0.45594000000E+02  0.51100000000E-03 0.  1.
    9900012    2    1    2    0    0 -0.55833317870E+00  0.99811673555E+00 -0.29184980574E+00  0.90007682557E+02  0.89999943167E+02 0.  0.
         12    1    1    2    0    0  0.55833317870E+00 -0.99811673555E+00  0.29184980574E+00  0.11803174426E+01  0.00000000000E+00 0. -1.
         11    1    3    3    0    0 -0.53602848024E+01  0.11301665244E+01  0.36704012690E+02  0.37110570965E+02  0.51100000000E-03 0. -1.
        -11    1    3    3    0    0 -0.80932978168E+01 -0.29248528352E+01  0.42460075698E+01  0.95960832741E+01  0.51100000000E-03 0.  1.
        -12    1    3    3    0    0  0.12895249440E+02  0.27928030464E+01 -0.41241870065E+02  0.43301028319E+02  0.00000000000E+00 0.  1.
</event>
<event>
 7    1  0.4331547E-015  0.9000722E+02  0.7816164E-02  0.1186340E+00
        -11   -1    0    0    0    0  0.00000000000E+00  0.00000000000E+00  0.45593999997E+02  0.45594000000E+02  0.51100000000E-03 0.  1.
         11   -1    0    0    0    0 -0.00000000000E+00 -0.00000000000E+00 -0.45593999997E+02  0.45594000000E+02  0.51100000000E-03 0. -1.
    9900012    2    1    2    0    0  0.87442141560E+00 -0.66235947801E+00  0.43693672867E+00  0.90007217804E+02  0.89999472277E+02 0.  0.
         12    1    1    2    0    0 -0.87442141560E+00  0.66235947801E+00 -0.43693672867E+00  0.11807821963E+01  0.00000000000E+00 0. -1.
         11    1    3    3    0    0  0.33602913477E+02  0.14664040095E+02 -0.48535322067E+01  0.36983058841E+02  0.51100000000E-03 0. -1.
        -11    1    3    3    0    0  0.33345384447E+01  0.83477889483E+01 -0.21626707068E+01  0.92456406923E+01  0.51100000000E-03 0.  1.
        -12    1    3    3    0    0 -0.36063030506E+02 -0.23674188521E+02  0.74531396422E+01  0.43778518271E+02  0.00000000000E+00 0.  1.
</event>
<event>
 7    1  0.4331547E-015  0.9000775E+02  0.7816164E-02  0.1186339E+00
        -11   -1    0    0    0    0  0.00000000000E+00  0.00000000000E+00  0.45593999997E+02  0.45594000000E+02  0.51100000000E-03 0.  1.
         11   -1    0    0    0    0 -0.00000000000E+00 -0.00000000000E+00 -0.45593999997E+02  0.45594000000E+02  0.51100000000E-03 0. -1.
    9900012    2    1    2    0    0  0.23346865950E+00  0.10929877754E+00  0.11517538288E+01  0.90007749721E+02  0.90000011218E+02 0.  0.
         12    1    1    2    0    0 -0.23346865950E+00 -0.10929877754E+00 -0.11517538288E+01  0.11802502785E+01  0.00000000000E+00 0. -1.
         11    1    3    3    0    0 -0.22519868093E+02 -0.17902903919E+02 -0.25732146268E+02  0.38597950457E+02  0.51100000000E-03 0. -1.
        -11    1    3    3    0    0  0.54023293468E+01 -0.74678844895E+01 -0.16972338181E+01  0.93720362790E+01  0.51100000000E-03 0.  1.
        -12    1    3    3    0    0  0.17351007405E+02  0.25480087186E+02  0.28581133915E+02  0.42037762986E+02  0.00000000000E+00 0.  1.
</event>
<event>
 7    1  0.4331547E-015  0.9000755E+02  0.7816164E-02  0.1186339E+00
        -11   -1    0    0    0    0  0.00000000000E+00  0.00000000000E+00  0.45593999997E+02  0.45594000000E+02  0.51100000000E-03 0.  1.
         11   -1    0    0    0    0 -0.00000000000E+00 -0.00000000000E+00 -0.45593999997E+02  0.45594000000E+02  0.51100000000E-03 0. -1.
    9900012    2    1    2    0    0  0.69367174610E+00 -0.88048585131E+00  0.37017994348E+00  0.90007547114E+02  0.89999805936E+02 0.  0.
         12    1    1    2    0    0 -0.69367174610E+00  0.88048585131E+00 -0.37017994348E+00  0.11804528861E+01  0.00000000000E+00 0. -1.
         11    1    3    3    0    0 -0.72195263010E+01  0.29129460884E+01  0.96001014296E+01  0.12359966126E+02  0.51100000000E-03 0. -1.
        -11    1    3    3    0    0  0.37106611344E+02  0.11222098046E+01  0.14349562106E+02  0.39800375541E+02  0.51100000000E-03 0.  1.
         12    1    3    3    0    0 -0.29193413297E+02 -0.49156417442E+01 -0.23579483592E+02  0.37847205447E+02  0.00000000000E+00 0. -1.
</event>
<event>
 7    1  0.4331547E-015  0.9000774E+02  0.7816164E-02  0.1186339E+00
        -11   -1    0    0    0    0  0.00000000000E+00  0.00000000000E+00  0.45593999997E+02  0.45594000000E+02  0.51100000000E-03 0.  1.
         11   -1    0    0    0    0 -0.00000000000E+00 -0.00000000000E+00 -0.45593999997E+02  0.45594000000E+02  0.51100000000E-03 0. -1.
    9900012    2    1    2    0    0 -0.47986667958E-01  0.70654785842E+00  0.94418854144E+00  0.90007743842E+02  0.90000005261E+02 0.  0.
         12    1    1    2    0    0  0.47986667958E-01 -0.70654785842E+00 -0.94418854144E+00  0.11802561579E+01  0.00000000000E+00 0. -1.
         11    1    3    3    0    0  0.27752935911E+02 -0.23288329839E+02 -0.60983167306E+01  0.36739096690E+02  0.51100000000E-03 0. -1.
        -11    1    3    3    0    0 -0.15370464935E+01 -0.88120208832E+01 -0.40280217949E+01  0.98101571757E+01  0.51100000000E-03 0.  1.
        -12    1    3    3    0    0 -0.26263876085E+02  0.32806898581E+02  0.11070527067E+02  0.43458489977E+02  0.00000000000E+00 0.  1.
</event>
<event>
 7    1  0.4331547E-015  0.9000774E+02  0.7816164E-02  0.1186339E+00
        -11   -1    0    0    0    0  0.00000000000E+00  0.00000000000E+00  0.45593999997E+02  0.45594000000E+02  0.51100000000E-03 0. -1.
         11   -1    0    0    0    0 -0.00000000000E+00 -0.00000000000E+00 -0.45593999997E+02  0.45594000000E+02  0.51100000000E-03 0.  1.
    9900012    2    1    2    0    0 -0.31456980833E+00 -0.79364178973E+00 -0.81497399462E+00  0.90007744067E+02  0.90000005489E+02 0.  0.
         12    1    1    2    0    0  0.31456980833E+00  0.79364178973E+00  0.81497399462E+00  0.11802559327E+01  0.00000000000E+00 0. -1.
         11    1    3    3    0    0 -0.43634363257E+01  0.98372168613E+01  0.27958371341E+00  0.10765155803E+02  0.51100000000E-03 0. -1.
        -11    1    3    3    0    0 -0.36715288897E+02 -0.11453668007E+02 -0.23522536379E+00  0.38461074879E+02  0.51100000000E-03 0.  1.
         12    1    3    3    0    0  0.40764155415E+02  0.82280935598E+00 -0.85933234424E+00  0.40781513385E+02  0.00000000000E+00 0. -1.
</event>
<event>
 7    1  0.4331547E-015  0.9000777E+02  0.7816164E-02  0.1186339E+00
        -11   -1    0    0    0    0  0.00000000000E+00  0.00000000000E+00  0.45593999997E+02  0.45594000000E+02  0.51100000000E-03 0. -1.
         11   -1    0    0    0    0 -0.00000000000E+00 -0.00000000000E+00 -0.45593999997E+02  0.45594000000E+02  0.51100000000E-03 0.  1.
    9900012    2    1    2    0    0  0.83531857806E+00  0.53475608039E+00 -0.63971315893E+00  0.90007765228E+02  0.90000026929E+02 0.  0.
         12    1    1    2    0    0 -0.83531857806E+00 -0.53475608039E+00  0.63971315893E+00  0.11802347724E+01  0.00000000000E+00 0. -1.
         11    1    3    3    0    0 -0.25511698721E+02 -0.14941580829E+02 -0.28473930306E+02  0.41047074398E+02  0.51100000000E-03 0. -1.
        -11    1    3    3    0    0  0.28610408264E+01 -0.67634871302E+01  0.21312622819E+01  0.76467373400E+01  0.51100000000E-03 0.  1.
        -12    1    3    3    0    0  0.23485976472E+02  0.22239824039E+02  0.25702954865E+02  0.41313953490E+02  0.00000000000E+00 0.  1.
</event>
<event>
 7    1  0.4331547E-015  0.9000774E+02  0.7816164E-02  0.1186339E+00
        -11   -1    0    0    0    0  0.00000000000E+00  0.00000000000E+00  0.45593999997E+02  0.45594000000E+02  0.51100000000E-03 0. -1.
         11   -1    0    0    0    0 -0.00000000000E+00 -0.00000000000E+00 -0.45593999997E+02  0.45594000000E+02  0.51100000000E-03 0.  1.
    9900012    2    1    2    0    0 -0.11131013602E+01  0.28917066432E+00 -0.26531235223E+00  0.90007743691E+02  0.90000005108E+02 0.  0.
         12    1    1    2    0    0  0.11131013602E+01 -0.28917066432E+00  0.26531235223E+00  0.11802563092E+01  0.00000000000E+00 0. -1.
         11    1    3    3    0    0  0.53342745555E+01  0.58442937923E+01 -0.71807264132E+01  0.10685180721E+02  0.51100000000E-03 0. -1.
        -11    1    3    3    0    0 -0.69243333950E+01  0.29729887680E+02 -0.18627231427E+02  0.35760122557E+02  0.51100000000E-03 0.  1.
         12    1    3    3    0    0  0.47695747933E+00 -0.35285010808E+02  0.25542645488E+02  0.43562440412E+02  0.00000000000E+00 0. -1.
</event>
<event>
 7    1  0.4331547E-015  0.9000772E+02  0.7816164E-02  0.1186339E+00
        -11   -1    0    0    0    0  0.00000000000E+00  0.00000000000E+00  0.45593999997E+02  0.45594000000E+02  0.51100000000E-03 0. -1.
         11   -1    0    0    0    0 -0.00000000000E+00 -0.00000000000E+00 -0.45593999997E+02  0.45594000000E+02  0.51100000000E-03 0.  1.
    9900012    2    1    2    0    0 -0.97537356935E+00 -0.46350551193E+00 -0.47630247358E+00  0.90007722488E+02  0.89999983625E+02 0.  0.
         12    1    1    2    0    0  0.97537356935E+00  0.46350551193E+00  0.47630247358E+00  0.11802775122E+01  0.00000000000E+00 0. -1.
         11    1    3    3    0    0 -0.92710370910E+01  0.23726117756E+01 -0.29452717622E+01  0.10012793886E+02  0.51100000000E-03 0. -1.
        -11    1    3    3    0    0 -0.30757234534E+02  0.14332391662E+02  0.12516589445E+02  0.36167526022E+02  0.51100000000E-03 0.  1.
         12    1    3    3    0    0  0.39052898056E+02 -0.17168508950E+02 -0.10047620156E+02  0.43827402580E+02  0.00000000000E+00 0. -1.
</event>
<event>
 7    1  0.4331547E-015  0.9000758E+02  0.7816164E-02  0.1186339E+00
        -11   -1    0    0    0    0  0.00000000000E+00  0.00000000000E+00  0.45593999997E+02  0.45594000000E+02  0.51100000000E-03 0. -1.
         11   -1    0    0    0    0 -0.00000000000E+00 -0.00000000000E+00 -0.45593999997E+02  0.45594000000E+02  0.51100000000E-03 0.  1.
    9900012    2    1    2    0    0  0.40274846339E+00  0.10254897216E+01  0.42374635545E+00  0.90007577843E+02  0.89999837071E+02 0.  0.
         12    1    1    2    0    0 -0.40274846339E+00 -0.10254897216E+01 -0.42374635545E+00  0.11804221565E+01  0.00000000000E+00 0. -1.
         11    1    3    3    0    0 -0.11093882611E+02  0.37630376974E+02  0.69282572270E+00  0.39237730698E+02  0.51100000000E-03 0. -1.
        -11    1    3    3    0    0 -0.28769823279E+01  0.13828583942E+01 -0.87182194884E+01  0.92842164970E+01  0.51100000000E-03 0.  1.
        -12    1    3    3    0    0  0.14373613403E+02 -0.37987745646E+02  0.84491401211E+01  0.41485630649E+02  0.00000000000E+00 0.  1.
</event>
<event>
 7    1  0.4331547E-015  0.9000775E+02  0.7816164E-02  0.1186339E+00
        -11   -1    0    0    0    0  0.00000000000E+00  0.00000000000E+00  0.45593999997E+02  0.45594000000E+02  0.51100000000E-03 0. -1.
         11   -1    0    0    0    0 -0.00000000000E+00 -0.00000000000E+00 -0.45593999997E+02  0.45594000000E+02  0.51100000000E-03 0.  1.
    9900012    2    1    2    0    0 -0.31587048648E+00  0.10420778349E+01  0.45530360214E+00  0.90007745049E+02  0.90000006484E+02 0.  0.
         12    1    1    2    0    0  0.31587048648E+00 -0.10420778349E+01 -0.45530360214E+00  0.11802549506E+01  0.00000000000E+00 0. -1.
         11    1    3    3    0    0 -0.65996810610E+01 -0.83096307171E-01 -0.19244088362E+01  0.68750305259E+01  0.51100000000E-03 0. -1.
        -11    1    3    3    0    0 -0.11226841477E+02  0.33707321051E+02 -0.19122943093E+02  0.40347396629E+02  0.51100000000E-03 0.  1.
         12    1    3    3    0    0  0.17510652051E+02 -0.32582146909E+02  0.21502655531E+02  0.42785317894E+02  0.00000000000E+00 0. -1.
</event>
<event>
 7    1  0.4331547E-015  0.9000775E+02  0.7816164E-02  0.1186339E+00
        -11   -1    0    0    0    0  0.00000000000E+00  0.00000000000E+00  0.45593999997E+02  0.45594000000E+02  0.51100000000E-03 0. -1.
         11   -1    0    0    0    0 -0.00000000000E+00 -0.00000000000E+00 -0.45593999997E+02  0.45594000000E+02  0.51100000000E-03 0.  1.
    9900012    2    1    2    0    0  0.99013019942E+00  0.50686783474E+00 -0.39460871701E+00  0.90007750512E+02  0.90000012019E+02 0.  0.
         12    1    1    2    0    0 -0.99013019942E+00 -0.50686783474E+00  0.39460871701E+00  0.11802494877E+01  0.00000000000E+00 0. -1.
         11    1    3    3    0    0 -0.88325574243E+01 -0.39055530607E+01  0.59034866485E+01  0.11318947400E+02  0.51100000000E-03 0. -1.
        -11    1    3    3    0    0  0.21363574123E+02 -0.27288847381E+02 -0.22442091331E+02  0.41288387644E+02  0.51100000000E-03 0.  1.
         12    1    3    3    0    0 -0.11540886499E+02  0.31701268276E+02  0.16143995965E+02  0.37400415469E+02  0.00000000000E+00 0. -1.
</event>
<event>
 7    1  0.4331547E-015  0.9000774E+02  0.7816164E-02  0.1186339E+00
        -11   -1    0    0    0    0  0.00000000000E+00  0.00000000000E+00  0.45593999997E+02  0.45594000000E+02  0.51100000000E-03 0. -1.
         11   -1    0    0    0    0 -0.00000000000E+00 -0.00000000000E+00 -0.45593999997E+02  0.45594000000E+02  0.51100000000E-03 0.  1.
    9900012    2    1    2    0    0 -0.81247936383E+00  0.78189984446E+00  0.34861215018E+00  0.90007737099E+02  0.89999998429E+02 0.  0.
         12    1    1    2    0    0  0.81247936383E+00 -0.78189984446E+00 -0.34861215018E+00  0.11802629007E+01  0.00000000000E+00 0. -1.
         11    1    3    3    0    0  0.25716782457E+02 -0.17141316302E+02 -0.17971684369E+02  0.35751350518E+02  0.51100000000E-03 0. -1.
        -11    1    3    3    0    0  0.79383455641E+01  0.30979449705E+01 -0.51908626008E+01  0.99779581146E+01  0.51100000000E-03 0.  1.
        -12    1    3    3    0    0 -0.34467607385E+02  0.14825271176E+02  0.23511159120E+02  0.44278428467E+02  0.00000000000E+00 0.  1.
</event>
<event>
 7    1  0.4331547E-015  0.9000770E+02  0.7816164E-02  0.1186339E+00
        -11   -1    0    0    0    0  0.00000000000E+00  0.00000000000E+00  0.45593999997E+02  0.45594000000E+02  0.51100000000E-03 0. -1.
         11   -1    0    0    0    0 -0.00000000000E+00 -0.00000000000E+00 -0.45593999997E+02  0.45594000000E+02  0.51100000000E-03 0.  1.
    9900012    2    1    2    0    0 -0.56659031419E+00 -0.55935637858E+00 -0.87132853302E+00  0.90007695990E+02  0.89999956778E+02 0.  0.
         12    1    1    2    0    0  0.56659031419E+00  0.55935637858E+00  0.87132853302E+00  0.11803040095E+01  0.00000000000E+00 0. -1.
         11    1    3    3    0    0  0.63582718482E+01 -0.13586369212E+02 -0.13926154080E+02  0.20468385794E+02  0.51100000000E-03 0. -1.
        -11    1    3    3    0    0  0.29966359879E+02  0.83454492721E+01  0.53816548441E+01  0.31568836803E+02  0.51100000000E-03 0.  1.
         12    1    3    3    0    0 -0.36891222042E+02  0.46815635614E+01  0.76731707034E+01  0.37970473394E+02  0.00000000000E+00 0. -1.
</event>
<event>
 7    1  0.4331547E-015  0.9000770E+02  0.7816164E-02  0.1186339E+00
        -11   -1    0    0    0    0  0.00000000000E+00  0.00000000000E+00  0.45593999997E+02  0.45594000000E+02  0.51100000000E-03 0.  1.
         11   -1    0    0    0    0 -0.00000000000E+00 -0.00000000000E+00 -0.45593999997E+02  0.45594000000E+02  0.51100000000E-03 0. -1.
    9900012    2    1    2    0    0 -0.50221228179E+00 -0.30551197471E+00  0.10234954171E+01  0.90007704439E+02  0.89999965337E+02 0.  0.
         12    1    1    2    0    0  0.50221228179E+00  0.30551197471E+00 -0.10234954171E+01  0.11802955611E+01  0.00000000000E+00 0. -1.
         11    1    3    3    0    0 -0.35133301760E+02  0.11128307222E+02  0.12326107857E+02  0.38860275981E+02  0.51100000000E-03 0. -1.
        -11    1    3    3    0    0  0.12740145081E+00  0.19753930214E+01  0.88024756820E+01  0.90223049777E+01  0.51100000000E-03 0.  1.
        -12    1    3    3    0    0  0.34503688028E+02 -0.13409212218E+02 -0.20105088121E+02  0.42125123480E+02  0.00000000000E+00 0.  1.
</event>
<event>
 7    1  0.4331547E-015  0.9000772E+02  0.7816164E-02  0.1186339E+00
        -11   -1    0    0    0    0  0.00000000000E+00  0.00000000000E+00  0.45593999997E+02  0.45594000000E+02  0.51100000000E-03 0. -1.
         11   -1    0    0    0    0 -0.00000000000E+00 -0.00000000000E+00 -0.45593999997E+02  0.45594000000E+02  0.51100000000E-03 0.  1.
    9900012    2    1    2    0    0 -0.67102387512E+00  0.19570941982E+00 -0.95103921172E+00  0.90007724269E+02  0.89999985430E+02 0.  0.
         12    1    1    2    0    0  0.67102387512E+00 -0.19570941982E+00  0.95103921172E+00  0.11802757306E+01  0.00000000000E+00 0. -1.
         11    1    3    3    0    0 -0.14633138049E+02  0.86445142222E+01 -0.68686998111E+01  0.18331268168E+02  0.51100000000E-03 0. -1.
        -11    1    3    3    0    0  0.13028494428E+02  0.22655942226E+02  0.24171466959E+02  0.35599061792E+02  0.51100000000E-03 0.  1.
         12    1    3    3    0    0  0.93361974631E+00 -0.31104747029E+02 -0.18253806360E+02  0.36077394310E+02  0.00000000000E+00 0. -1.
</event>
<event>
 7    1  0.4331547E-015  0.9000771E+02  0.7816164E-02  0.1186339E+00
        -11   -1    0    0    0    0  0.00000000000E+00  0.00000000000E+00  0.45593999997E+02  0.45594000000E+02  0.51100000000E-03 0. -1.
         11   -1    0    0    0    0 -0.00000000000E+00 -0.00000000000E+00 -0.45593999997E+02  0.45594000000E+02  0.51100000000E-03 0.  1.
    9900012    2    1    2    0    0  0.24744508483E+00  0.41622897031E+00 -0.10763851062E+01  0.90007711678E+02  0.89999972672E+02 0.  0.
         12    1    1    2    0    0 -0.24744508483E+00 -0.41622897031E+00  0.10763851062E+01  0.11802883218E+01  0.00000000000E+00 0. -1.
         11    1    3    3    0    0  0.67537952310E+01  0.22370772090E+02  0.28728978855E+02  0.37032680435E+02  0.51100000000E-03 0. -1.
        -11    1    3    3    0    0 -0.24058115301E+01  0.20283153691E+01  0.76720337131E+01  0.82922912341E+01  0.51100000000E-03 0.  1.
        -12    1    3    3    0    0 -0.41005386160E+01 -0.23982858489E+02 -0.37477397674E+02  0.44682740009E+02  0.00000000000E+00 0.  1.
</event>
<event>
 7    1  0.4331547E-015  0.9000775E+02  0.7816164E-02  0.1186339E+00
        -11   -1    0    0    0    0  0.00000000000E+00  0.00000000000E+00  0.45593999997E+02  0.45594000000E+02  0.51100000000E-03 0. -1.
         11   -1    0    0    0    0 -0.00000000000E+00 -0.00000000000E+00 -0.45593999997E+02  0.45594000000E+02  0.51100000000E-03 0.  1.
    9900012    2    1    2    0    0 -0.84906701363E+00  0.41793468274E+00 -0.70526807132E+00  0.90007751194E+02  0.90000012709E+02 0.  0.
         12    1    1    2    0    0  0.84906701363E+00 -0.41793468274E+00  0.70526807132E+00  0.11802488064E+01  0.00000000000E+00 0. -1.
         11    1    3    3    0    0 -0.37597756989E+01  0.18340667718E+02  0.31857131337E+02  0.36951222211E+02  0.51100000000E-03 0. -1.
        -11    1    3    3    0    0 -0.81547756340E+00 -0.54970846471E+00  0.83733747090E+01  0.84309303954E+01  0.51100000000E-03 0.  1.
        -12    1    3    3    0    0  0.37261862487E+01 -0.17373024570E+02 -0.40935774117E+02  0.44625598587E+02  0.00000000000E+00 0.  1.
</event>
<event>
 7    1  0.4331547E-015  0.9000763E+02  0.7816164E-02  0.1186339E+00
        -11   -1    0    0    0    0  0.00000000000E+00  0.00000000000E+00  0.45593999997E+02  0.45594000000E+02  0.51100000000E-03 0.  1.
         11   -1    0    0    0    0 -0.00000000000E+00 -0.00000000000E+00 -0.45593999997E+02  0.45594000000E+02  0.51100000000E-03 0. -1.
    9900012    2    1    2    0    0 -0.71671924640E+00  0.93283574506E+00  0.96968859725E-01  0.90007630581E+02  0.89999890505E+02 0.  0.
         12    1    1    2    0    0  0.71671924640E+00 -0.93283574506E+00 -0.96968859725E-01  0.11803694189E+01  0.00000000000E+00 0. -1.
         11    1    3    3    0    0  0.46997182890E+01 -0.29130242107E+00 -0.75310409133E+01  0.88819359711E+01  0.51100000000E-03 0. -1.
        -11    1    3    3    0    0 -0.34005374735E+02  0.28742029205E+01 -0.21455013303E+02  0.40310595993E+02  0.51100000000E-03 0.  1.
         12    1    3    3    0    0  0.28588937199E+02 -0.16500647544E+01  0.29083023075E+02  0.40815098617E+02  0.00000000000E+00 0. -1.
</event>
<event>
 7    1  0.4331547E-015  0.9000718E+02  0.7816164E-02  0.1186340E+00
        -11   -1    0    0    0    0  0.00000000000E+00  0.00000000000E+00  0.45593999997E+02  0.45594000000E+02  0.51100000000E-03 0.  1.
         11   -1    0    0    0    0 -0.00000000000E+00 -0.00000000000E+00 -0.45593999997E+02  0.45594000000E+02  0.51100000000E-03 0. -1.
    9900012    2    1    2    0    0 -0.41864290182E+00 -0.94848866867E+00 -0.56520323889E+00  0.90007175146E+02  0.89999429056E+02 0.  0.
         12    1    1    2    0    0  0.41864290182E+00  0.94848866867E+00  0.56520323889E+00  0.11808248537E+01  0.00000000000E+00 0. -1.
         11    1    3    3    0    0  0.16565204140E+01  0.54329246161E+01 -0.63089656924E+01  0.84890387050E+01  0.51100000000E-03 0. -1.
        -11    1    3    3    0    0  0.30803430682E+02  0.15607218845E+02  0.19479741879E+02  0.39647155835E+02  0.51100000000E-03 0.  1.
         12    1    3    3    0    0 -0.32878593998E+02 -0.21988632130E+02 -0.13735979425E+02  0.41870980607E+02  0.00000000000E+00 0. -1.
</event>
<event>
 7    1  0.4331547E-015  0.9000892E+02  0.7816164E-02  0.1186337E+00
        -11   -1    0    0    0    0  0.00000000000E+00  0.00000000000E+00  0.45593999997E+02  0.45594000000E+02  0.51100000000E-03 0.  1.
         11   -1    0    0    0    0 -0.00000000000E+00 -0.00000000000E+00 -0.45593999997E+02  0.45594000000E+02  0.51100000000E-03 0. -1.
    9900012    2    1    2    0    0 -0.46294530971E+00 -0.12926386271E+00  0.10766612559E+01  0.90008921137E+02  0.90001198088E+02 0.  0.
         12    1    1    2    0    0  0.46294530971E+00  0.12926386271E+00 -0.10766612559E+01  0.11790788633E+01  0.00000000000E+00 0. -1.
         11    1    3    3    0    0  0.28459685665E+01 -0.58595137860E+01  0.57899710805E+01  0.87153430377E+01  0.51100000000E-03 0. -1.
        -11    1    3    3    0    0 -0.11414219869E+02 -0.87395488312E+01 -0.39890928098E+02  0.42402243735E+02  0.51100000000E-03 0.  1.
         12    1    3    3    0    0  0.81053059932E+01  0.14469798755E+02  0.35177618273E+02  0.38891334364E+02  0.00000000000E+00 0. -1.
</event>
<event>
 7    1  0.4331547E-015  0.9000783E+02  0.7816164E-02  0.1186339E+00
        -11   -1    0    0    0    0  0.00000000000E+00  0.00000000000E+00  0.45593999997E+02  0.45594000000E+02  0.51100000000E-03 0.  1.
         11   -1    0    0    0    0 -0.00000000000E+00 -0.00000000000E+00 -0.45593999997E+02  0.45594000000E+02  0.51100000000E-03 0. -1.
    9900012    2    1    2    0    0 -0.17801548580E+00  0.11646599463E+01  0.68480795084E-01  0.90007825469E+02  0.90000087965E+02 0.  0.
         12    1    1    2    0    0  0.17801548580E+00 -0.11646599463E+01 -0.68480795084E-01  0.11801745307E+01  0.00000000000E+00 0. -1.
         11    1    3    3    0    0 -0.24463818739E+01  0.99982299729E+01  0.47736858716E+00  0.10304235435E+02  0.51100000000E-03 0. -1.
        -11    1    3    3    0    0 -0.28430568350E+02  0.97380505578E+01  0.22139912291E+02  0.37326968292E+02  0.51100000000E-03 0.  1.
         12    1    3    3    0    0  0.30698934738E+02 -0.18571620584E+02 -0.22548800083E+02  0.42376621743E+02  0.00000000000E+00 0. -1.
</event>
<event>
 7    1  0.4331547E-015  0.9000771E+02  0.7816164E-02  0.1186339E+00
        -11   -1    0    0    0    0  0.00000000000E+00  0.00000000000E+00  0.45593999997E+02  0.45594000000E+02  0.51100000000E-03 0. -1.
         11   -1    0    0    0    0 -0.00000000000E+00 -0.00000000000E+00 -0.45593999997E+02  0.45594000000E+02  0.51100000000E-03 0.  1.
    9900012    2    1    2    0    0 -0.75169699822E+00  0.37290914416E+00 -0.83003901109E+00  0.90007714286E+02  0.89999975314E+02 0.  0.
         12    1    1    2    0    0  0.75169699822E+00 -0.37290914416E+00  0.83003901109E+00  0.11802857141E+01  0.00000000000E+00 0. -1.
         11    1    3    3    0    0  0.68344093553E+01  0.92671540099E+00 -0.65322537283E+01  0.94993837538E+01  0.51100000000E-03 0. -1.
        -11    1    3    3    0    0  0.34310994911E+02 -0.16606981433E+01  0.15152087045E+02  0.37544480716E+02  0.51100000000E-03 0.  1.
         12    1    3    3    0    0 -0.41897101265E+02  0.11068918864E+01 -0.94498723276E+01  0.42963849817E+02  0.00000000000E+00 0. -1.
</event>
<event>
 7    1  0.4331547E-015  0.9000771E+02  0.7816164E-02  0.1186339E+00
        -11   -1    0    0    0    0  0.00000000000E+00  0.00000000000E+00  0.45593999997E+02  0.45594000000E+02  0.51100000000E-03 0.  1.
         11   -1    0    0    0    0 -0.00000000000E+00 -0.00000000000E+00 -0.45593999997E+02  0.45594000000E+02  0.51100000000E-03 0. -1.
    9900012    2    1    2    0    0 -0.11748873723E+01  0.85115452440E-01  0.74076623251E-01  0.90007706679E+02  0.89999967607E+02 0.  0.
         12    1    1    2    0    0  0.11748873723E+01 -0.85115452440E-01 -0.74076623251E-01  0.11802933212E+01  0.00000000000E+00 0. -1.
         11    1    3    3    0    0  0.78598701766E+01 -0.11265290316E+02 -0.12578263889E+02  0.18625172424E+02  0.51100000000E-03 0. -1.
        -11    1    3    3    0    0  0.30038276905E+02  0.52523889043E+01  0.82626662014E+01  0.31593627865E+02  0.51100000000E-03 0.  1.
         12    1    3    3    0    0 -0.39073034454E+02  0.60980168645E+01  0.43896743112E+01  0.39788906390E+02  0.00000000000E+00 0. -1.
</event>
<event>
 7    1  0.4331547E-015  0.9000748E+02  0.7816164E-02  0.1186340E+00
        -11   -1    0    0    0    0  0.00000000000E+00  0.00000000000E+00  0.45593999997E+02  0.45594000000E+02  0.51100000000E-03 0. -1.
         11   -1    0    0    0    0 -0.00000000000E+00 -0.00000000000E+00 -0.45593999997E+02  0.45594000000E+02  0.51100000000E-03 0.  1.
    9900012    2    1    2    0    0  0.66236597506E+00  0.97702771642E+00 -0.17998503808E-01  0.90007476476E+02  0.89999734366E+02 0.  0.
         12    1    1    2    0    0 -0.66236597506E+00 -0.97702771642E+00  0.17998503808E-01  0.11805235236E+01  0.00000000000E+00 0. -1.
         11    1    3    3    0    0  0.73981633332E+01  0.14157409065E+02 -0.10539781947E+02  0.19137712922E+02  0.51100000000E-03 0. -1.
        -11    1    3    3    0    0  0.66133615472E+01 -0.97521173298E+01 -0.27773616509E+02  0.30169755015E+02  0.51100000000E-03 0.  1.
         12    1    3    3    0    0 -0.13349158905E+02 -0.34282640184E+01  0.38295399952E+02  0.40700008540E+02  0.00000000000E+00 0. -1.
</event>
<event>
 7    1  0.4331547E-015  0.9000776E+02  0.7816164E-02  0.1186339E+00
        -11   -1    0    0    0    0  0.00000000000E+00  0.00000000000E+00  0.45593999997E+02  0.45594000000E+02  0.51100000000E-03 0.  1.
         11   -1    0    0    0    0 -0.00000000000E+00 -0.00000000000E+00 -0.45593999997E+02  0.45594000000E+02  0.51100000000E-03 0. -1.
    9900012    2    1    2    0    0  0.11189667004E+01 -0.35538051057E+00  0.12074639766E+00  0.90007762110E+02  0.90000023770E+02 0.  0.
         12    1    1    2    0    0 -0.11189667004E+01  0.35538051057E+00 -0.12074639766E+00  0.11802378897E+01  0.00000000000E+00 0. -1.
         11    1    3    3    0    0 -0.65785682946E+01  0.31397746156E+02 -0.10375912829E+02  0.33715806260E+02  0.51100000000E-03 0. -1.
        -11    1    3    3    0    0 -0.80309193173E+01  0.51845677296E+01  0.12920189672E+02  0.16071923004E+02  0.51100000000E-03 0.  1.
        -12    1    3    3    0    0  0.15728454312E+02 -0.36937694396E+02 -0.24235304456E+01  0.40220032846E+02  0.00000000000E+00 0.  1.
</event>
<event>
 7    1  0.4331547E-015  0.9000773E+02  0.7816164E-02  0.1186339E+00
        -11   -1    0    0    0    0  0.00000000000E+00  0.00000000000E+00  0.45593999997E+02  0.45594000000E+02  0.51100000000E-03 0.  1.
         11   -1    0    0    0    0 -0.00000000000E+00 -0.00000000000E+00 -0.45593999997E+02  0.45594000000E+02  0.51100000000E-03 0. -1.
    9900012    2    1    2    0    0  0.10112247754E+01  0.51567095049E+00 -0.32332397075E+00  0.90007732884E+02  0.89999994158E+02 0.  0.
         12    1    1    2    0    0 -0.10112247754E+01 -0.51567095049E+00  0.32332397075E+00  0.11802671162E+01  0.00000000000E+00 0. -1.
         11    1    3    3    0    0  0.99842937580E+01 -0.23287076717E+02  0.28225616518E+01  0.25493938857E+02  0.51100000000E-03 0. -1.
        -11    1    3    3    0    0  0.14796200790E+02 -0.11822768648E+02 -0.95492440501E+01  0.21210692551E+02  0.51100000000E-03 0.  1.
        -12    1    3    3    0    0 -0.23769269773E+02  0.35625516316E+02  0.64033584276E+01  0.43303101476E+02  0.00000000000E+00 0.  1.
</event>
<event>
 7    1  0.4331547E-015  0.9000773E+02  0.7816164E-02  0.1186339E+00
        -11   -1    0    0    0    0  0.00000000000E+00  0.00000000000E+00  0.45593999997E+02  0.45594000000E+02  0.51100000000E-03 0.  1.
         11   -1    0    0    0    0 -0.00000000000E+00 -0.00000000000E+00 -0.45593999997E+02  0.45594000000E+02  0.51100000000E-03 0. -1.
    9900012    2    1    2    0    0  0.16721626232E+00  0.98512917927E+00 -0.62816732048E+00  0.90007730979E+02  0.89999992228E+02 0.  0.
         12    1    1    2    0    0 -0.16721626232E+00 -0.98512917927E+00  0.62816732048E+00  0.11802690205E+01  0.00000000000E+00 0. -1.
         11    1    3    3    0    0  0.71171627091E+01  0.19033370116E+01  0.16027954659E+01  0.75396054521E+01  0.51100000000E-03 0. -1.
        -11    1    3    3    0    0  0.27091142292E+02  0.16083315945E+02  0.21021843969E+02  0.37875070516E+02  0.51100000000E-03 0.  1.
         12    1    3    3    0    0 -0.34041088738E+02 -0.17001523777E+02 -0.23252806756E+02  0.44593055012E+02  0.00000000000E+00 0. -1.
</event>
<event>
 7    1  0.4331547E-015  0.9000766E+02  0.7816164E-02  0.1186339E+00
        -11   -1    0    0    0    0  0.00000000000E+00  0.00000000000E+00  0.45593999997E+02  0.45594000000E+02  0.51100000000E-03 0.  1.
         11   -1    0    0    0    0 -0.00000000000E+00 -0.00000000000E+00 -0.45593999997E+02  0.45594000000E+02  0.51100000000E-03 0. -1.
    9900012    2    1    2    0    0 -0.79295398820E+00  0.13997120069E+00  0.86304339404E+00  0.90007656040E+02  0.89999916299E+02 0.  0.
         12    1    1    2    0    0  0.79295398820E+00 -0.13997120069E+00 -0.86304339404E+00  0.11803439602E+01  0.00000000000E+00 0. -1.
         11    1    3    3    0    0 -0.89533856342E+01  0.10843726079E+02 -0.13061576456E+02  0.19192558177E+02  0.51100000000E-03 0. -1.
        -11    1    3    3    0    0  0.77526596104E+01  0.27679010281E+02  0.14984514112E+02  0.32415536470E+02  0.51100000000E-03 0.  1.
         12    1    3    3    0    0  0.40777203564E+00 -0.38382765160E+02 -0.10598942614E+01  0.38399561393E+02  0.00000000000E+00 0. -1.
</event>
<event>
 7    1  0.4331547E-015  0.9000776E+02  0.7816164E-02  0.1186339E+00
        -11   -1    0    0    0    0  0.00000000000E+00  0.00000000000E+00  0.45593999997E+02  0.45594000000E+02  0.51100000000E-03 0.  1.
         11   -1    0    0    0    0 -0.00000000000E+00 -0.00000000000E+00 -0.45593999997E+02  0.45594000000E+02  0.51100000000E-03 0. -1.
    9900012    2    1    2    0    0  0.96336311736E-01  0.51359874788E+00  0.10582566460E+01  0.90007757869E+02  0.90000019473E+02 0.  0.
         12    1    1    2    0    0 -0.96336311736E-01 -0.51359874788E+00 -0.10582566460E+01  0.11802421309E+01  0.00000000000E+00 0. -1.
         11    1    3    3    0    0 -0.22705146528E+02  0.16858255791E+02 -0.34090391999E+02  0.44293106620E+02  0.51100000000E-03 0. -1.
        -11    1    3    3    0    0  0.72363860121E+01 -0.30245731105E+01  0.51305785743E+01  0.93720948450E+01  0.51100000000E-03 0.  1.
        -12    1    3    3    0    0  0.15565096827E+02 -0.13320083932E+02  0.30018070071E+02  0.36342556404E+02  0.00000000000E+00 0.  1.
</event>
<event>
 7    1  0.4331547E-015  0.9000776E+02  0.7816164E-02  0.1186339E+00
        -11   -1    0    0    0    0  0.00000000000E+00  0.00000000000E+00  0.45593999997E+02  0.45594000000E+02  0.51100000000E-03 0. -1.
         11   -1    0    0    0    0 -0.00000000000E+00 -0.00000000000E+00 -0.45593999997E+02  0.45594000000E+02  0.51100000000E-03 0.  1.
    9900012    2    1    2    0    0  0.71997577120E+00  0.44127438739E+00 -0.82454212257E+00  0.90007763622E+02  0.90000025302E+02 0.  0.
         12    1    1    2    0    0 -0.71997577120E+00 -0.44127438739E+00  0.82454212257E+00  0.11802363780E+01  0.00000000000E+00 0. -1.
         11    1    3    3    0    0  0.14003266195E+02  0.69384118130E+01  0.36371442023E+02  0.39586801055E+02  0.51100000000E-03 0. -1.
        -11    1    3    3    0    0 -0.16754301966E+02 -0.46031656036E+01 -0.51363983046E+01  0.18118453459E+02  0.51100000000E-03 0.  1.
        -12    1    3    3    0    0  0.34710115414E+01 -0.18939718220E+01 -0.32059585841E+02  0.32302509108E+02  0.00000000000E+00 0.  1.
</event>
<event>
 7    1  0.4331547E-015  0.9000750E+02  0.7816164E-02  0.1186340E+00
        -11   -1    0    0    0    0  0.00000000000E+00  0.00000000000E+00  0.45593999997E+02  0.45594000000E+02  0.51100000000E-03 0.  1.
         11   -1    0    0    0    0 -0.00000000000E+00 -0.00000000000E+00 -0.45593999997E+02  0.45594000000E+02  0.51100000000E-03 0. -1.
    9900012    2    1    2    0    0 -0.28414651885E+00  0.93359723337E+00  0.66425484822E+00  0.90007501147E+02  0.89999759362E+02 0.  0.
         12    1    1    2    0    0  0.28414651885E+00 -0.93359723337E+00 -0.66425484822E+00  0.11804988529E+01  0.00000000000E+00 0. -1.
         11    1    3    3    0    0 -0.32973923528E+02 -0.53517934389E+01 -0.17424003093E+02  0.37676480859E+02  0.51100000000E-03 0. -1.
        -11    1    3    3    0    0 -0.71268104470E+01  0.35422464593E+01 -0.11223191310E+01  0.80373215451E+01  0.51100000000E-03 0.  1.
        -12    1    3    3    0    0  0.39816587457E+02  0.27431442130E+01  0.19210577073E+02  0.44293698743E+02  0.00000000000E+00 0.  1.
</event>
<event>
 7    1  0.4331547E-015  0.9000797E+02  0.7816164E-02  0.1186339E+00
        -11   -1    0    0    0    0  0.00000000000E+00  0.00000000000E+00  0.45593999997E+02  0.45594000000E+02  0.51100000000E-03 0.  1.
         11   -1    0    0    0    0 -0.00000000000E+00 -0.00000000000E+00 -0.45593999997E+02  0.45594000000E+02  0.51100000000E-03 0. -1.
    9900012    2    1    2    0    0 -0.11252545890E+01  0.35101974234E+00  0.55215567308E-01  0.90007973937E+02  0.90000238393E+02 0.  0.
         12    1    1    2    0    0  0.11252545890E+01 -0.35101974234E+00 -0.55215567308E-01  0.11800260626E+01  0.00000000000E+00 0. -1.
         11    1    3    3    0    0  0.99282615536E+01 -0.43005702764E+01 -0.37960266383E+01  0.11466259228E+02  0.51100000000E-03 0. -1.
        -11    1    3    3    0    0  0.15583627412E+02  0.34665302919E+02  0.53654552544E+01  0.38383860933E+02  0.51100000000E-03 0.  1.
         12    1    3    3    0    0 -0.26637143555E+02 -0.30013712900E+02 -0.15142130488E+01  0.40157853777E+02  0.00000000000E+00 0. -1.
</event>
<event>
 7    1  0.4331547E-015  0.9000777E+02  0.7816164E-02  0.1186339E+00
        -11   -1    0    0    0    0  0.00000000000E+00  0.00000000000E+00  0.45593999997E+02  0.45594000000E+02  0.51100000000E-03 0.  1.
         11   -1    0    0    0    0 -0.00000000000E+00 -0.00000000000E+00 -0.45593999997E+02  0.45594000000E+02  0.51100000000E-03 0. -1.
    9900012    2    1    2    0    0 -0.88284685433E+00  0.69014855517E+00 -0.37042640992E+00  0.90007771496E+02  0.90000033280E+02 0.  0.
         12    1    1    2    0    0  0.88284685433E+00 -0.69014855517E+00  0.37042640992E+00  0.11802285040E+01  0.00000000000E+00 0. -1.
         11    1    3    3    0    0 -0.42646472450E+01  0.10067420148E+02 -0.42532863512E+00  0.10941712356E+02  0.51100000000E-03 0. -1.
        -11    1    3    3    0    0  0.16976100377E+02  0.31415119854E+02 -0.37250236671E+01  0.35902277658E+02  0.51100000000E-03 0.  1.
         12    1    3    3    0    0 -0.13594299986E+02 -0.40792391447E+02  0.37799258923E+01  0.43163781482E+02  0.00000000000E+00 0. -1.
</event>
<event>
 7    1  0.4331547E-015  0.9000773E+02  0.7816164E-02  0.1186339E+00
        -11   -1    0    0    0    0  0.00000000000E+00  0.00000000000E+00  0.45593999997E+02  0.45594000000E+02  0.51100000000E-03 0.  1.
         11   -1    0    0    0    0 -0.00000000000E+00 -0.00000000000E+00 -0.45593999997E+02  0.45594000000E+02  0.51100000000E-03 0. -1.
    9900012    2    1    2    0    0 -0.85430611084E+00  0.75990792816E+00 -0.29280446747E+00  0.90007731621E+02  0.89999992878E+02 0.  0.
         12    1    1    2    0    0  0.85430611084E+00 -0.75990792816E+00  0.29280446747E+00  0.11802683790E+01  0.00000000000E+00 0. -1.
         11    1    3    3    0    0  0.53936736989E+01  0.64134005333E+01  0.24984719778E+01  0.87444716739E+01  0.51100000000E-03 0. -1.
        -11    1    3    3    0    0  0.16891677433E+01 -0.20861910758E+02  0.34422200466E+02  0.40285983832E+02  0.51100000000E-03 0.  1.
         12    1    3    3    0    0 -0.79371475530E+01  0.15208418153E+02 -0.37213476911E+02  0.40977276115E+02  0.00000000000E+00 0. -1.
</event>
<event>
 7    1  0.4331547E-015  0.9000765E+02  0.7816164E-02  0.1186339E+00
        -11   -1    0    0    0    0  0.00000000000E+00  0.00000000000E+00  0.45593999997E+02  0.45594000000E+02  0.51100000000E-03 0.  1.
         11   -1    0    0    0    0 -0.00000000000E+00 -0.00000000000E+00 -0.45593999997E+02  0.45594000000E+02  0.51100000000E-03 0. -1.
    9900012    2    1    2    0    0 -0.31862343242E+00 -0.34954897756E-01  0.11359928488E+01  0.90007651539E+02  0.89999911739E+02 0.  0.
         12    1    1    2    0    0  0.31862343242E+00  0.34954897756E-01 -0.11359928488E+01  0.11803484609E+01  0.00000000000E+00 0. -1.
         11    1    3    3    0    0  0.66139951280E+01 -0.33296708160E+01 -0.69509234505E+01  0.10156129990E+02  0.51100000000E-03 0. -1.
        -11    1    3    3    0    0 -0.33920369593E+02  0.23118266103E+01 -0.21157942980E+02  0.40044906880E+02  0.51100000000E-03 0.  1.
         12    1    3    3    0    0  0.26987751032E+02  0.98288930797E+00  0.29244859279E+02  0.39806614670E+02  0.00000000000E+00 0. -1.
</event>
<event>
 7    1  0.4331547E-015  0.9000773E+02  0.7816164E-02  0.1186339E+00
        -11   -1    0    0    0    0  0.00000000000E+00  0.00000000000E+00  0.45593999997E+02  0.45594000000E+02  0.51100000000E-03 0.  1.
         11   -1    0    0    0    0 -0.00000000000E+00 -0.00000000000E+00 -0.45593999997E+02  0.45594000000E+02  0.51100000000E-03 0. -1.
    9900012    2    1    2    0    0 -0.42261419449E+00 -0.10165281130E+01  0.42557619517E+00  0.90007725769E+02  0.89999986949E+02 0.  0.
         12    1    1    2    0    0  0.42261419449E+00  0.10165281130E+01 -0.42557619517E+00  0.11802742307E+01  0.00000000000E+00 0. -1.
         11    1    3    3    0    0  0.95430492646E+01 -0.45395974886E+00 -0.21528468175E+01  0.97933966733E+01  0.51100000000E-03 0. -1.
        -11    1    3    3    0    0  0.24011520678E+02  0.10619231333E+02  0.26404262001E+02  0.37235819468E+02  0.51100000000E-03 0.  1.
         12    1    3    3    0    0 -0.33977184137E+02 -0.11181799697E+02 -0.23825838988E+02  0.42978509628E+02  0.00000000000E+00 0. -1.
</event>
<event>
 7    1  0.4331547E-015  0.9000788E+02  0.7816164E-02  0.1186339E+00
        -11   -1    0    0    0    0  0.00000000000E+00  0.00000000000E+00  0.45593999997E+02  0.45594000000E+02  0.51100000000E-03 0.  1.
         11   -1    0    0    0    0 -0.00000000000E+00 -0.00000000000E+00 -0.45593999997E+02  0.45594000000E+02  0.51100000000E-03 0. -1.
    9900012    2    1    2    0    0  0.97052840660E+00  0.55054176648E+00  0.38428010884E+00  0.90007875927E+02  0.90000139090E+02 0.  0.
         12    1    1    2    0    0 -0.97052840660E+00 -0.55054176648E+00 -0.38428010884E+00  0.11801240726E+01  0.00000000000E+00 0. -1.
         11    1    3    3    0    0  0.18610829401E+00  0.41140240157E+01 -0.89093120477E+01  0.98150736790E+01  0.51100000000E-03 0. -1.
        -11    1    3    3    0    0  0.30002848611E+02 -0.27258955169E+02 -0.29175312498E+01  0.40641524954E+02  0.51100000000E-03 0.  1.
         12    1    3    3    0    0 -0.29218428498E+02  0.23695472920E+02  0.12211123406E+02  0.39551277295E+02  0.00000000000E+00 0. -1.
</event>
<event>
 7    1  0.4331547E-015  0.9000723E+02  0.7816164E-02  0.1186340E+00
        -11   -1    0    0    0    0  0.00000000000E+00  0.00000000000E+00  0.45593999997E+02  0.45594000000E+02  0.51100000000E-03 0.  1.
         11   -1    0    0    0    0 -0.00000000000E+00 -0.00000000000E+00 -0.45593999997E+02  0.45594000000E+02  0.51100000000E-03 0. -1.
    9900012    2    1    2    0    0  0.84843704070E+00  0.75595750830E+00  0.32077593493E+00  0.90007231451E+02  0.89999486104E+02 0.  0.
         12    1    1    2    0    0 -0.84843704070E+00 -0.75595750830E+00 -0.32077593493E+00  0.11807685492E+01  0.00000000000E+00 0. -1.
         11    1    3    3    0    0  0.51023267831E+01  0.15197868943E+02 -0.34070126185E+02  0.37653452133E+02  0.51100000000E-03 0. -1.
        -11    1    3    3    0    0 -0.11466224661E+02 -0.32087972600E+01 -0.33108496924E+01  0.12358495612E+02  0.51100000000E-03 0.  1.
        -12    1    3    3    0    0  0.72123349188E+01 -0.11233114175E+02  0.37701751812E+02  0.39995283706E+02  0.00000000000E+00 0.  1.
</event>
<event>
 7    1  0.4331547E-015  0.9000882E+02  0.7816164E-02  0.1186337E+00
        -11   -1    0    0    0    0  0.00000000000E+00  0.00000000000E+00  0.45593999997E+02  0.45594000000E+02  0.51100000000E-03 0.  1.
         11   -1    0    0    0    0 -0.00000000000E+00 -0.00000000000E+00 -0.45593999997E+02  0.45594000000E+02  0.51100000000E-03 0. -1.
    9900012    2    1    2    0    0 -0.93310068780E+00  0.41412996265E+00 -0.59016206007E+00  0.90008817327E+02  0.90001092909E+02 0.  0.
         12    1    1    2    0    0  0.93310068780E+00 -0.41412996265E+00  0.59016206007E+00  0.11791826732E+01  0.00000000000E+00 0. -1.
         11    1    3    3    0    0  0.61571537884E+01 -0.58872252368E+01 -0.11197318301E+02  0.14069466982E+02  0.51100000000E-03 0. -1.
        -11    1    3    3    0    0 -0.37790199796E+02 -0.26582949134E+01  0.19688519964E+02  0.42694303497E+02  0.51100000000E-03 0.  1.
         12    1    3    3    0    0  0.30699945320E+02  0.89596501128E+01 -0.90813637226E+01  0.33245046847E+02  0.00000000000E+00 0. -1.
</event>
<event>
 7    1  0.4331547E-015  0.9000744E+02  0.7816164E-02  0.1186340E+00
        -11   -1    0    0    0    0  0.00000000000E+00  0.00000000000E+00  0.45593999997E+02  0.45594000000E+02  0.51100000000E-03 0.  1.
         11   -1    0    0    0    0 -0.00000000000E+00 -0.00000000000E+00 -0.45593999997E+02  0.45594000000E+02  0.51100000000E-03 0. -1.
    9900012    2    1    2    0    0 -0.68945639477E+00 -0.37250244876E+00  0.88296261222E+00  0.90007436080E+02  0.89999693436E+02 0.  0.
         12    1    1    2    0    0  0.68945639477E+00  0.37250244876E+00 -0.88296261222E+00  0.11805639200E+01  0.00000000000E+00 0. -1.
         11    1    3    3    0    0 -0.74931337559E+01  0.20476259265E+01  0.27136480733E+01  0.82282265127E+01  0.51100000000E-03 0. -1.
        -11    1    3    3    0    0 -0.30579465396E+02 -0.11762096902E+02  0.19104397825E+02  0.37926621837E+02  0.51100000000E-03 0.  1.
         12    1    3    3    0    0  0.37383142758E+02  0.93419685271E+01 -0.20935083286E+02  0.43852587730E+02  0.00000000000E+00 0. -1.
</event>
<event>
 7    1  0.4492275E-015  0.9000767E+02  0.7816164E-02  0.1186339E+00
        -11   -1    0    0    0    0  0.00000000000E+00  0.00000000000E+00  0.45593999997E+02  0.45594000000E+02  0.51100000000E-03 0. -1.
         11   -1    0    0    0    0 -0.00000000000E+00 -0.00000000000E+00 -0.45593999997E+02  0.45594000000E+02  0.51100000000E-03 0.  1.
    9900012    2    1    2    0    0  0.48805204848E+00 -0.21641553657E+00 -0.10526845936E+01  0.90007671512E+02  0.89999931976E+02 0.  0.
         12    1    1    2    0    0 -0.48805204848E+00  0.21641553657E+00  0.10526845936E+01  0.11803284882E+01  0.00000000000E+00 0. -1.
         11    1    3    3    0    0  0.98334622764E+01 -0.23972558364E+02  0.25079061623E+02  0.36060225554E+02  0.51100000000E-03 0. -1.
        -11    1    3    3    0    0 -0.33665905460E+01 -0.29852959817E+01  0.86011012953E+01  0.97069494567E+01  0.51100000000E-03 0.  1.
        -12    1    3    3    0    0 -0.59788196819E+01  0.26741438809E+02 -0.34732847512E+02  0.44240496501E+02  0.00000000000E+00 0.  1.
</event>
<event>
 7    1  0.4331547E-015  0.9000713E+02  0.7816164E-02  0.1186340E+00
        -11   -1    0    0    0    0  0.00000000000E+00  0.00000000000E+00  0.45593999997E+02  0.45594000000E+02  0.51100000000E-03 0. -1.
         11   -1    0    0    0    0 -0.00000000000E+00 -0.00000000000E+00 -0.45593999997E+02  0.45594000000E+02  0.51100000000E-03 0.  1.
    9900012    2    1    2    0    0  0.92317471096E+00 -0.44420229990E+00 -0.58726426367E+00  0.90007133138E+02  0.89999386493E+02 0.  0.
         12    1    1    2    0    0 -0.92317471096E+00  0.44420229990E+00  0.58726426367E+00  0.11808668619E+01  0.00000000000E+00 0. -1.
         11    1    3    3    0    0  0.25623140193E+01 -0.96568364658E+00 -0.79260782456E+01  0.83857447288E+01  0.51100000000E-03 0. -1.
        -11    1    3    3    0    0  0.10837457243E+02 -0.33122277005E+02  0.23740243936E+02  0.42167936823E+02  0.51100000000E-03 0.  1.
         12    1    3    3    0    0 -0.12476596551E+02  0.33643758352E+02 -0.16401429954E+02  0.39453451586E+02  0.00000000000E+00 0. -1.
</event>
<event>
 7    1  0.4331547E-015  0.9000772E+02  0.7816164E-02  0.1186339E+00
        -11   -1    0    0    0    0  0.00000000000E+00  0.00000000000E+00  0.45593999997E+02  0.45594000000E+02  0.51100000000E-03 0. -1.
         11   -1    0    0    0    0 -0.00000000000E+00 -0.00000000000E+00 -0.45593999997E+02  0.45594000000E+02  0.51100000000E-03 0.  1.
    9900012    2    1    2    0    0 -0.58560252768E+00  0.10217247551E+01 -0.78787691604E-01  0.90007720670E+02  0.89999981783E+02 0.  0.
         12    1    1    2    0    0  0.58560252768E+00 -0.10217247551E+01  0.78787691604E-01  0.11802793297E+01  0.00000000000E+00 0. -1.
         11    1    3    3    0    0 -0.86072011767E+01 -0.88301950808E+01  0.39938216721E+02  0.41798533615E+02  0.51100000000E-03 0. -1.
        -11    1    3    3    0    0  0.96040321889E+01  0.66444989515E+01 -0.45045704093E+01  0.12517106512E+02  0.51100000000E-03 0.  1.
        -12    1    3    3    0    0 -0.15824335399E+01  0.32074208844E+01 -0.35512434003E+02  0.35692080543E+02  0.00000000000E+00 0.  1.
</event>
<event>
 7    1  0.4331547E-015  0.9000772E+02  0.7816164E-02  0.1186339E+00
        -11   -1    0    0    0    0  0.00000000000E+00  0.00000000000E+00  0.45593999997E+02  0.45594000000E+02  0.51100000000E-03 0. -1.
         11   -1    0    0    0    0 -0.00000000000E+00 -0.00000000000E+00 -0.45593999997E+02  0.45594000000E+02  0.51100000000E-03 0.  1.
    9900012    2    1    2    0    0 -0.37345923609E+00 -0.10304320526E+01  0.43795722329E+00  0.90007716752E+02  0.89999977813E+02 0.  0.
         12    1    1    2    0    0  0.37345923609E+00  0.10304320526E+01 -0.43795722329E+00  0.11802832480E+01  0.00000000000E+00 0. -1.
         11    1    3    3    0    0 -0.98501435648E+01  0.94623436277E+01  0.12230941956E+02  0.18334590712E+02  0.51100000000E-03 0. -1.
        -11    1    3    3    0    0  0.65991642306E+01  0.20893577064E+02 -0.28541023426E+02  0.35981669632E+02  0.51100000000E-03 0.  1.
         12    1    3    3    0    0  0.28775200981E+01 -0.31386352744E+02  0.16748038693E+02  0.35691456408E+02  0.00000000000E+00 0. -1.
</event>
<event>
 7    1  0.4331547E-015  0.9000778E+02  0.7816164E-02  0.1186339E+00
        -11   -1    0    0    0    0  0.00000000000E+00  0.00000000000E+00  0.45593999997E+02  0.45594000000E+02  0.51100000000E-03 0.  1.
         11   -1    0    0    0    0 -0.00000000000E+00 -0.00000000000E+00 -0.45593999997E+02  0.45594000000E+02  0.51100000000E-03 0. -1.
    9900012    2    1    2    0    0  0.42904420529E+00  0.31284152392E+00  0.10540224872E+01  0.90007783006E+02  0.90000044942E+02 0.  0.
         12    1    1    2    0    0 -0.42904420529E+00 -0.31284152392E+00 -0.10540224872E+01  0.11802169939E+01  0.00000000000E+00 0. -1.
         11    1    3    3    0    0 -0.25048422486E+01 -0.35247153426E+02  0.55254411900E+01  0.35765438064E+02  0.51100000000E-03 0. -1.
        -11    1    3    3    0    0 -0.15517170736E+01 -0.89502465930E+01  0.11443093745E+01  0.91555548252E+01  0.51100000000E-03 0.  1.
        -12    1    3    3    0    0  0.44856035274E+01  0.44510241543E+02 -0.56157280773E+01  0.45086790117E+02  0.00000000000E+00 0.  1.
</event>
<event>
 7    1  0.4331547E-015  0.9000779E+02  0.7816164E-02  0.1186339E+00
        -11   -1    0    0    0    0  0.00000000000E+00  0.00000000000E+00  0.45593999997E+02  0.45594000000E+02  0.51100000000E-03 0. -1.
         11   -1    0    0    0    0 -0.00000000000E+00 -0.00000000000E+00 -0.45593999997E+02  0.45594000000E+02  0.51100000000E-03 0.  1.
    9900012    2    1    2    0    0  0.69012667372E+00  0.92228160660E+00 -0.25695506767E+00  0.90007786420E+02  0.90000048401E+02 0.  0.
         12    1    1    2    0    0 -0.69012667372E+00 -0.92228160660E+00  0.25695506767E+00  0.11802135800E+01  0.00000000000E+00 0. -1.
         11    1    3    3    0    0  0.23856720134E+01  0.11635360153E+02  0.34030352762E+02  0.36043556237E+02  0.51100000000E-03 0. -1.
        -11    1    3    3    0    0 -0.25534876066E+01  0.84265247507E+01  0.50922568663E+01  0.10171415761E+02  0.51100000000E-03 0.  1.
        -12    1    3    3    0    0  0.85794226692E+00 -0.19139603297E+02 -0.39379564696E+02  0.43792814422E+02  0.00000000000E+00 0.  1.
</event>
<event>
 7    1  0.4331547E-015  0.9000754E+02  0.7816164E-02  0.1186339E+00
        -11   -1    0    0    0    0  0.00000000000E+00  0.00000000000E+00  0.45593999997E+02  0.45594000000E+02  0.51100000000E-03 0.  1.
         11   -1    0    0    0    0 -0.00000000000E+00 -0.00000000000E+00 -0.45593999997E+02  0.45594000000E+02  0.51100000000E-03 0. -1.
    9900012    2    1    2    0    0  0.11067696919E+01  0.27880611374E+00  0.30134397137E+00  0.90007542381E+02  0.89999801141E+02 0.  0.
         12    1    1    2    0    0 -0.11067696919E+01 -0.27880611374E+00 -0.30134397137E+00  0.11804576185E+01  0.00000000000E+00 0. -1.
         11    1    3    3    0    0  0.85313996808E+01 -0.12124143264E+02  0.23966072961E+01  0.15017435107E+02  0.51100000000E-03 0. -1.
        -11    1    3    3    0    0 -0.12508684966E+02 -0.26478124547E+02  0.14177557375E+02  0.32535540759E+02  0.51100000000E-03 0.  1.
         12    1    3    3    0    0  0.50840549773E+01  0.38881073924E+02 -0.16272820700E+02  0.42454566516E+02  0.00000000000E+00 0. -1.
</event>
<event>
 7    1  0.4331547E-015  0.9000772E+02  0.7816164E-02  0.1186339E+00
        -11   -1    0    0    0    0  0.00000000000E+00  0.00000000000E+00  0.45593999997E+02  0.45594000000E+02  0.51100000000E-03 0.  1.
         11   -1    0    0    0    0 -0.00000000000E+00 -0.00000000000E+00 -0.45593999997E+02  0.45594000000E+02  0.51100000000E-03 0. -1.
    9900012    2    1    2    0    0  0.18062726898E-01 -0.53853148150E-01  0.11789133163E+01  0.90007719088E+02  0.89999980180E+02 0.  0.
         12    1    1    2    0    0 -0.18062726898E-01  0.53853148150E-01 -0.11789133163E+01  0.11802809119E+01  0.00000000000E+00 0. -1.
         11    1    3    3    0    0 -0.30925255817E+02  0.77761140414E+01 -0.22253597312E+02  0.38885241294E+02  0.51100000000E-03 0. -1.
        -11    1    3    3    0    0 -0.41993372292E+01  0.61831583956E+01  0.53368453295E+01  0.91841057944E+01  0.51100000000E-03 0.  1.
        -12    1    3    3    0    0  0.35142655773E+02 -0.14013125585E+02  0.18095665298E+02  0.41938372000E+02  0.00000000000E+00 0.  1.
</event>
<event>
 7    1  0.4331547E-015  0.9000774E+02  0.7816164E-02  0.1186339E+00
        -11   -1    0    0    0    0  0.00000000000E+00  0.00000000000E+00  0.45593999997E+02  0.45594000000E+02  0.51100000000E-03 0.  1.
         11   -1    0    0    0    0 -0.00000000000E+00 -0.00000000000E+00 -0.45593999997E+02  0.45594000000E+02  0.51100000000E-03 0. -1.
    9900012    2    1    2    0    0  0.14481681701E+00  0.10670323706E+01  0.48319576358E+00  0.90007742343E+02  0.90000003742E+02 0.  0.
         12    1    1    2    0    0 -0.14481681701E+00 -0.10670323706E+01 -0.48319576358E+00  0.11802576567E+01  0.00000000000E+00 0. -1.
         11    1    3    3    0    0  0.39083953452E+02  0.51316217282E+01 -0.73082224878E+01  0.40091134621E+02  0.51100000000E-03 0. -1.
        -11    1    3    3    0    0  0.77123485103E+00  0.49464463992E+01  0.77146282161E+01  0.91966093724E+01  0.51100000000E-03 0.  1.
        -12    1    3    3    0    0 -0.39710371486E+02 -0.90110357568E+01  0.76790035361E-01  0.40719998350E+02  0.00000000000E+00 0.  1.
</event>
<event>
 7    1  0.4331547E-015  0.9000778E+02  0.7816164E-02  0.1186339E+00
        -11   -1    0    0    0    0  0.00000000000E+00  0.00000000000E+00  0.45593999997E+02  0.45594000000E+02  0.51100000000E-03 0. -1.
         11   -1    0    0    0    0 -0.00000000000E+00 -0.00000000000E+00 -0.45593999997E+02  0.45594000000E+02  0.51100000000E-03 0.  1.
    9900012    2    1    2    0    0  0.57553513267E+00  0.10042583454E+01 -0.23054801021E+00  0.90007776335E+02  0.90000038183E+02 0.  0.
         12    1    1    2    0    0 -0.57553513267E+00 -0.10042583454E+01  0.23054801021E+00  0.11802236645E+01  0.00000000000E+00 0. -1.
         11    1    3    3    0    0  0.22157026498E+02  0.21943863385E+02  0.29169482808E+02  0.42700417926E+02  0.51100000000E-03 0. -1.
        -11    1    3    3    0    0 -0.87970457488E+01 -0.11074978233E+01  0.89053679208E+00  0.89110954082E+01  0.51100000000E-03 0.  1.
        -12    1    3    3    0    0 -0.12784445616E+02 -0.19832107216E+02 -0.30290567610E+02  0.38396263002E+02  0.00000000000E+00 0.  1.
</event>
<event>
 7    1  0.4331547E-015  0.9000773E+02  0.7816164E-02  0.1186339E+00
        -11   -1    0    0    0    0  0.00000000000E+00  0.00000000000E+00  0.45593999997E+02  0.45594000000E+02  0.51100000000E-03 0.  1.
         11   -1    0    0    0    0 -0.00000000000E+00 -0.00000000000E+00 -0.45593999997E+02  0.45594000000E+02  0.51100000000E-03 0. -1.
    9900012    2    1    2    0    0  0.38014462462E+00  0.25472289359E+00  0.10879485974E+01  0.90007734844E+02  0.89999996144E+02 0.  0.
         12    1    1    2    0    0 -0.38014462462E+00 -0.25472289359E+00 -0.10879485974E+01  0.11802651561E+01  0.00000000000E+00 0. -1.
         11    1    3    3    0    0 -0.13598799838E+02 -0.29425815719E+02 -0.18392351945E+02  0.37270425246E+02  0.51100000000E-03 0. -1.
        -11    1    3    3    0    0  0.16000388381E+02  0.44550278693E+01 -0.51845512765E+01  0.17399404411E+02  0.51100000000E-03 0.  1.
        -12    1    3    3    0    0 -0.20214439185E+01  0.25225510743E+02  0.24664851818E+02  0.35337905187E+02  0.00000000000E+00 0.  1.
</event>
<event>
 7    1  0.4331547E-015  0.9000771E+02  0.7816164E-02  0.1186339E+00
        -11   -1    0    0    0    0  0.00000000000E+00  0.00000000000E+00  0.45593999997E+02  0.45594000000E+02  0.51100000000E-03 0.  1.
         11   -1    0    0    0    0 -0.00000000000E+00 -0.00000000000E+00 -0.45593999997E+02  0.45594000000E+02  0.51100000000E-03 0. -1.
    9900012    2    1    2    0    0 -0.11276768662E+01  0.13886335147E+00 -0.31960256429E+00  0.90007710229E+02  0.89999971204E+02 0.  0.
         12    1    1    2    0    0  0.11276768662E+01 -0.13886335147E+00  0.31960256429E+00  0.11802897712E+01  0.00000000000E+00 0. -1.
         11    1    3    3    0    0  0.83197030340E+01  0.30975033750E+01  0.66216470727E+01  0.11075116069E+02  0.51100000000E-03 0. -1.
        -11    1    3    3    0    0  0.50008076120E+01  0.11146118081E+02  0.32446962233E+02  0.34670583835E+02  0.51100000000E-03 0.  1.
         12    1    3    3    0    0 -0.14448187512E+02 -0.14104758105E+02 -0.39388211870E+02  0.44262010324E+02  0.00000000000E+00 0. -1.
</event>
<event>
 7    1  0.4331547E-015  0.9000774E+02  0.7816164E-02  0.1186339E+00
        -11   -1    0    0    0    0  0.00000000000E+00  0.00000000000E+00  0.45593999997E+02  0.45594000000E+02  0.51100000000E-03 0.  1.
         11   -1    0    0    0    0 -0.00000000000E+00 -0.00000000000E+00 -0.45593999997E+02  0.45594000000E+02  0.51100000000E-03 0. -1.
    9900012    2    1    2    0    0  0.34055196639E+00  0.75529069338E+00  0.84058578656E+00  0.90007735564E+02  0.89999996874E+02 0.  0.
         12    1    1    2    0    0 -0.34055196639E+00 -0.75529069338E+00 -0.84058578656E+00  0.11802644356E+01  0.00000000000E+00 0. -1.
         11    1    3    3    0    0 -0.66615393478E+01  0.67978935607E+01 -0.31638021475E+02  0.33038642019E+02  0.51100000000E-03 0. -1.
        -11    1    3    3    0    0  0.67742714545E+00  0.19918163191E+02  0.11604651452E+02  0.23062091580E+02  0.51100000000E-03 0.  1.
        -12    1    3    3    0    0  0.63246641687E+01 -0.25960766058E+02  0.20873955810E+02  0.33907001966E+02  0.00000000000E+00 0.  1.
</event>
<event>
 7    1  0.4331547E-015  0.9000787E+02  0.7816164E-02  0.1186339E+00
        -11   -1    0    0    0    0  0.00000000000E+00  0.00000000000E+00  0.45593999997E+02  0.45594000000E+02  0.51100000000E-03 0.  1.
         11   -1    0    0    0    0 -0.00000000000E+00 -0.00000000000E+00 -0.45593999997E+02  0.45594000000E+02  0.51100000000E-03 0. -1.
    9900012    2    1    2    0    0  0.58131997155E+00 -0.40458049818E+00  0.94397284954E+00  0.90007871605E+02  0.90000134710E+02 0.  0.
         12    1    1    2    0    0 -0.58131997155E+00  0.40458049818E+00 -0.94397284954E+00  0.11801283953E+01  0.00000000000E+00 0. -1.
         11    1    3    3    0    0  0.52819220013E+01  0.25263913145E+01  0.74977590049E+01  0.95130301933E+01  0.51100000000E-03 0. -1.
        -11    1    3    3    0    0  0.28167454309E+02  0.24221668919E+02  0.11688620517E+01  0.37168009984E+02  0.51100000000E-03 0.  1.
         12    1    3    3    0    0 -0.32868056338E+02 -0.27152640732E+02 -0.77226482070E+01  0.43326831427E+02  0.00000000000E+00 0. -1.
</event>
<event>
 7    1  0.4331547E-015  0.9000729E+02  0.7816164E-02  0.1186340E+00
        -11   -1    0    0    0    0  0.00000000000E+00  0.00000000000E+00  0.45593999997E+02  0.45594000000E+02  0.51100000000E-03 0.  1.
         11   -1    0    0    0    0 -0.00000000000E+00 -0.00000000000E+00 -0.45593999997E+02  0.45594000000E+02  0.51100000000E-03 0. -1.
    9900012    2    1    2    0    0 -0.48333474389E+00  0.54911037425E+00 -0.92678877262E+00  0.90007291693E+02  0.89999547142E+02 0.  0.
         12    1    1    2    0    0  0.48333474389E+00 -0.54911037425E+00  0.92678877262E+00  0.11807083073E+01  0.00000000000E+00 0. -1.
         11    1    3    3    0    0 -0.17134889651E+02 -0.13442420986E+02 -0.32962695817E+02  0.39507498543E+02  0.51100000000E-03 0. -1.
        -11    1    3    3    0    0  0.32437199544E+01 -0.75841300116E+01 -0.15461992439E+01  0.83923464858E+01  0.51100000000E-03 0.  1.
        -12    1    3    3    0    0  0.13407834953E+02  0.21575661372E+02  0.33582106289E+02  0.42107446664E+02  0.00000000000E+00 0.  1.
</event>
<event>
 7    1  0.4733121E-015  0.9000790E+02  0.7816164E-02  0.1186339E+00
        -11   -1    0    0    0    0  0.00000000000E+00  0.00000000000E+00  0.45593999997E+02  0.45594000000E+02  0.51100000000E-03 0. -1.
         11   -1    0    0    0    0 -0.00000000000E+00 -0.00000000000E+00 -0.45593999997E+02  0.45594000000E+02  0.51100000000E-03 0.  1.
    9900012    2    1    2    0    0 -0.19477877956E+00  0.84092655766E+00 -0.80470390332E+00  0.90007896352E+02  0.90000159784E+02 0.  0.
         12    1    1    2    0    0  0.19477877956E+00 -0.84092655766E+00  0.80470390332E+00  0.11801036481E+01  0.00000000000E+00 0. -1.
         11    1    3    3    0    0 -0.58429343256E+01 -0.42555776293E+01 -0.64862201857E+01  0.97118934843E+01  0.51100000000E-03 0. -1.
        -11    1    3    3    0    0  0.34021441020E+02 -0.93898101156E-01 -0.21840111284E+02  0.40428427215E+02  0.51100000000E-03 0.  1.
         12    1    3    3    0    0 -0.28373285474E+02  0.51904022882E+01  0.27521627566E+02  0.39867575652E+02  0.00000000000E+00 0. -1.
</event>
<event>
 7    1  0.4331547E-015  0.9000773E+02  0.7816164E-02  0.1186339E+00
        -11   -1    0    0    0    0  0.00000000000E+00  0.00000000000E+00  0.45593999997E+02  0.45594000000E+02  0.51100000000E-03 0. -1.
         11   -1    0    0    0    0 -0.00000000000E+00 -0.00000000000E+00 -0.45593999997E+02  0.45594000000E+02  0.51100000000E-03 0.  1.
    9900012    2    1    2    0    0 -0.74192171359E+00  0.78597615865E+00  0.47416225233E+00  0.90007730458E+02  0.89999991700E+02 0.  0.
         12    1    1    2    0    0  0.74192171359E+00 -0.78597615865E+00 -0.47416225233E+00  0.11802695424E+01  0.00000000000E+00 0. -1.
         11    1    3    3    0    0  0.59895900243E+01 -0.31608353398E+02  0.14032721801E+02  0.35098154860E+02  0.51100000000E-03 0. -1.
        -11    1    3    3    0    0  0.83288350990E+01 -0.70231918616E+01 -0.13226179780E+01  0.10974699841E+02  0.51100000000E-03 0.  1.
        -12    1    3    3    0    0 -0.15060346837E+02  0.39417521418E+02 -0.12235941571E+02  0.43934875756E+02  0.00000000000E+00 0.  1.
</event>
<event>
 7    1  0.4331547E-015  0.9000773E+02  0.7816164E-02  0.1186339E+00
        -11   -1    0    0    0    0  0.00000000000E+00  0.00000000000E+00  0.45593999997E+02  0.45594000000E+02  0.51100000000E-03 0. -1.
         11   -1    0    0    0    0 -0.00000000000E+00 -0.00000000000E+00 -0.45593999997E+02  0.45594000000E+02  0.51100000000E-03 0.  1.
    9900012    2    1    2    0    0  0.21875390017E+00  0.66880702084E+00 -0.94756111298E+00  0.90007733859E+02  0.89999995146E+02 0.  0.
         12    1    1    2    0    0 -0.21875390017E+00 -0.66880702084E+00  0.94756111298E+00  0.11802661407E+01  0.00000000000E+00 0. -1.
         11    1    3    3    0    0  0.10140578578E+02 -0.29843986540E+01 -0.51217553180E+01  0.11746077942E+02  0.51100000000E-03 0. -1.
        -11    1    3    3    0    0  0.17025350517E+02 -0.18779229055E+00 -0.30046713947E+02  0.34535530189E+02  0.51100000000E-03 0.  1.
         12    1    3    3    0    0 -0.26947175195E+02  0.38409979654E+01  0.34220908152E+02  0.43726125728E+02  0.00000000000E+00 0. -1.
</event>
<event>
 7    1  0.4331547E-015  0.9000775E+02  0.7816164E-02  0.1186339E+00
        -11   -1    0    0    0    0  0.00000000000E+00  0.00000000000E+00  0.45593999997E+02  0.45594000000E+02  0.51100000000E-03 0. -1.
         11   -1    0    0    0    0 -0.00000000000E+00 -0.00000000000E+00 -0.45593999997E+02  0.45594000000E+02  0.51100000000E-03 0.  1.
    9900012    2    1    2    0    0  0.97192204692E+00 -0.56091841481E+00 -0.36568185829E+00  0.90007752079E+02  0.90000013607E+02 0.  0.
         12    1    1    2    0    0 -0.97192204692E+00  0.56091841481E+00  0.36568185829E+00  0.11802479209E+01  0.00000000000E+00 0. -1.
         11    1    3    3    0    0 -0.14039517594E+01 -0.35488085770E+02  0.26975926182E+02  0.44599057230E+02  0.51100000000E-03 0. -1.
        -11    1    3    3    0    0 -0.97664623713E+00  0.79260888523E+01 -0.20134345725E+01  0.82359359763E+01  0.51100000000E-03 0.  1.
        -12    1    3    3    0    0  0.33525200435E+01  0.27001078503E+02 -0.25328173468E+02  0.37172758873E+02  0.00000000000E+00 0.  1.
</event>
<event>
 7    1  0.4331547E-015  0.9000772E+02  0.7816164E-02  0.1186339E+00
        -11   -1    0    0    0    0  0.00000000000E+00  0.00000000000E+00  0.45593999997E+02  0.45594000000E+02  0.51100000000E-03 0.  1.
         11   -1    0    0    0    0 -0.00000000000E+00 -0.00000000000E+00 -0.45593999997E+02  0.45594000000E+02  0.51100000000E-03 0. -1.
    9900012    2    1    2    0    0  0.78103218149E+00 -0.86489939889E+00 -0.18707503393E+00  0.90007720666E+02  0.89999981778E+02 0.  0.
         12    1    1    2    0    0 -0.78103218149E+00  0.86489939889E+00  0.18707503393E+00  0.11802793343E+01  0.00000000000E+00 0. -1.
         11    1    3    3    0    0 -0.18627518167E+02 -0.19164107277E+02 -0.18835184644E+02  0.32695743173E+02  0.51100000000E-03 0. -1.
        -11    1    3    3    0    0 -0.51702476198E+01  0.31152298819E+01 -0.13077242696E+02  0.14403138354E+02  0.51100000000E-03 0.  1.
        -12    1    3    3    0    0  0.24578797969E+02  0.15183977996E+02  0.31725352305E+02  0.42908839139E+02  0.00000000000E+00 0.  1.
</event>
<event>
 7    1  0.4331547E-015  0.9000772E+02  0.7816164E-02  0.1186339E+00
        -11   -1    0    0    0    0  0.00000000000E+00  0.00000000000E+00  0.45593999997E+02  0.45594000000E+02  0.51100000000E-03 0.  1.
         11   -1    0    0    0    0 -0.00000000000E+00 -0.00000000000E+00 -0.45593999997E+02  0.45594000000E+02  0.51100000000E-03 0. -1.
    9900012    2    1    2    0    0  0.71367004465E+00 -0.40656485395E+00  0.84761151440E+00  0.90007718172E+02  0.89999979252E+02 0.  0.
         12    1    1    2    0    0 -0.71367004465E+00  0.40656485395E+00 -0.84761151440E+00  0.11802818275E+01  0.00000000000E+00 0. -1.
         11    1    3    3    0    0 -0.65509627590E+01  0.31373944643E+01 -0.19672893928E+01  0.75251966692E+01  0.51100000000E-03 0. -1.
        -11    1    3    3    0    0 -0.28932368740E+02  0.30728275269E+01  0.25975806030E+02  0.39003419454E+02  0.51100000000E-03 0.  1.
         12    1    3    3    0    0  0.36197001543E+02 -0.66167868451E+01 -0.23160905123E+02  0.43479102049E+02  0.00000000000E+00 0. -1.
</event>
<event>
 7    1  0.4331547E-015  0.9000776E+02  0.7816164E-02  0.1186339E+00
        -11   -1    0    0    0    0  0.00000000000E+00  0.00000000000E+00  0.45593999997E+02  0.45594000000E+02  0.51100000000E-03 0. -1.
         11   -1    0    0    0    0 -0.00000000000E+00 -0.00000000000E+00 -0.45593999997E+02  0.45594000000E+02  0.51100000000E-03 0.  1.
    9900012    2    1    2    0    0 -0.11445930956E+01 -0.25758835514E+00  0.12854790777E+00  0.90007758635E+02  0.90000020249E+02 0.  0.
         12    1    1    2    0    0  0.11445930956E+01  0.25758835514E+00 -0.12854790777E+00  0.11802413651E+01  0.00000000000E+00 0. -1.
         11    1    3    3    0    0  0.13806058606E+02 -0.30152809760E+02  0.96838828442E+01  0.34548180529E+02  0.51100000000E-03 0. -1.
        -11    1    3    3    0    0  0.89529977013E+01 -0.61412549659E+01  0.11295642799E+01  0.10915452172E+02  0.51100000000E-03 0.  1.
        -12    1    3    3    0    0 -0.23903649403E+02  0.36036476371E+02 -0.10684899216E+02  0.44544125934E+02  0.00000000000E+00 0.  1.
</event>
<event>
 7    1  0.4331547E-015  0.9000685E+02  0.7816164E-02  0.1186341E+00
        -11   -1    0    0    0    0  0.00000000000E+00  0.00000000000E+00  0.45593999997E+02  0.45594000000E+02  0.51100000000E-03 0.  1.
         11   -1    0    0    0    0 -0.00000000000E+00 -0.00000000000E+00 -0.45593999997E+02  0.45594000000E+02  0.51100000000E-03 0. -1.
    9900012    2    1    2    0    0  0.59928449836E+00 -0.56640748892E+00  0.84566333735E+00  0.90006854017E+02  0.89999103685E+02 0.  0.
         12    1    1    2    0    0 -0.59928449836E+00  0.56640748892E+00 -0.84566333735E+00  0.11811459832E+01  0.00000000000E+00 0. -1.
         11    1    3    3    0    0 -0.55280454799E+01  0.28648594765E+01 -0.66937599126E+01  0.91418339887E+01  0.51100000000E-03 0. -1.
        -11    1    3    3    0    0 -0.33472002288E+02 -0.11299357095E+02  0.17288507855E+02  0.39331195152E+02  0.51100000000E-03 0.  1.
         12    1    3    3    0    0  0.39599332267E+02  0.78680901293E+01 -0.97490846051E+01  0.41533824877E+02  0.00000000000E+00 0. -1.
</event>
<event>
 7    1  0.4331547E-015  0.9000777E+02  0.7816164E-02  0.1186339E+00
        -11   -1    0    0    0    0  0.00000000000E+00  0.00000000000E+00  0.45593999997E+02  0.45594000000E+02  0.51100000000E-03 0.  1.
         11   -1    0    0    0    0 -0.00000000000E+00 -0.00000000000E+00 -0.45593999997E+02  0.45594000000E+02  0.51100000000E-03 0. -1.
    9900012    2    1    2    0    0  0.73269810132E-01  0.10925870474E+01  0.44026428888E+00  0.90007768004E+02  0.90000029741E+02 0.  0.
         12    1    1    2    0    0 -0.73269810132E-01 -0.10925870474E+01 -0.44026428888E+00  0.11802319963E+01  0.00000000000E+00 0. -1.
         11    1    3    3    0    0  0.23153800978E+02 -0.90943395676E+01 -0.26221666974E+02  0.36143897563E+02  0.51100000000E-03 0. -1.
        -11    1    3    3    0    0  0.22327602427E+01 -0.77870746416E+01 -0.50009506652E+01  0.95201500824E+01  0.51100000000E-03 0.  1.
        -12    1    3    3    0    0 -0.25313291411E+02  0.17974001256E+02  0.31662881928E+02  0.44343720358E+02  0.00000000000E+00 0.  1.
</event>
<event>
 7    1  0.4331547E-015  0.9000766E+02  0.7816164E-02  0.1186339E+00
        -11   -1    0    0    0    0  0.00000000000E+00  0.00000000000E+00  0.45593999997E+02  0.45594000000E+02  0.51100000000E-03 0. -1.
         11   -1    0    0    0    0 -0.00000000000E+00 -0.00000000000E+00 -0.45593999997E+02  0.45594000000E+02  0.51100000000E-03 0.  1.
    9900012    2    1    2    0    0 -0.11290487067E+01  0.16480105468E+00  0.30215563760E+00  0.90007657508E+02  0.89999917787E+02 0.  0.
         12    1    1    2    0    0  0.11290487067E+01 -0.16480105468E+00 -0.30215563760E+00  0.11803424923E+01  0.00000000000E+00 0. -1.
         11    1    3    3    0    0 -0.10662106844E+02  0.98235472360E+01 -0.70721590765E+00  0.14514914993E+02  0.51100000000E-03 0. -1.
        -11    1    3    3    0    0 -0.29953507847E+02  0.69794417604E+01 -0.78405998524E+01  0.31739569088E+02  0.51100000000E-03 0.  1.
         12    1    3    3    0    0  0.39486565984E+02 -0.16638187942E+02  0.88499713977E+01  0.43753173427E+02  0.00000000000E+00 0. -1.
</event>
<event>
 7    1  0.4331547E-015  0.9000773E+02  0.7816164E-02  0.1186339E+00
        -11   -1    0    0    0    0  0.00000000000E+00  0.00000000000E+00  0.45593999997E+02  0.45594000000E+02  0.51100000000E-03 0.  1.
         11   -1    0    0    0    0 -0.00000000000E+00 -0.00000000000E+00 -0.45593999997E+02  0.45594000000E+02  0.51100000000E-03 0. -1.
    9900012    2    1    2    0    0  0.77607825481E+00 -0.53424363859E+00  0.71086286991E+00  0.90007728954E+02  0.89999990176E+02 0.  0.
         12    1    1    2    0    0 -0.77607825481E+00  0.53424363859E+00 -0.71086286991E+00  0.11802710463E+01  0.00000000000E+00 0. -1.
         11    1    3    3    0    0  0.38703399148E+01  0.31317869315E+01  0.85191119836E+01  0.98672635361E+01  0.51100000000E-03 0. -1.
        -11    1    3    3    0    0 -0.94322775796E+01 -0.30054068641E+02  0.23060463409E+02  0.39038440992E+02  0.51100000000E-03 0.  1.
         12    1    3    3    0    0  0.63380159196E+01  0.26388038071E+02 -0.30868712523E+02  0.41102024425E+02  0.00000000000E+00 0. -1.
</event>
<event>
 7    1  0.4331547E-015  0.9000767E+02  0.7816164E-02  0.1186339E+00
        -11   -1    0    0    0    0  0.00000000000E+00  0.00000000000E+00  0.45593999997E+02  0.45594000000E+02  0.51100000000E-03 0. -1.
         11   -1    0    0    0    0 -0.00000000000E+00 -0.00000000000E+00 -0.45593999997E+02  0.45594000000E+02  0.51100000000E-03 0.  1.
    9900012    2    1    2    0    0 -0.67175097454E+00  0.87579253504E+00 -0.41823210689E+00  0.90007669524E+02  0.89999929962E+02 0.  0.
         12    1    1    2    0    0  0.67175097454E+00 -0.87579253504E+00  0.41823210689E+00  0.11803304755E+01  0.00000000000E+00 0. -1.
         11    1    3    3    0    0  0.62927848167E+01  0.10231179553E+02  0.23537154753E+01  0.12239940874E+02  0.51100000000E-03 0. -1.
        -11    1    3    3    0    0  0.28438599058E+02 -0.74230556043E+01  0.20070810507E+02  0.35590632272E+02  0.51100000000E-03 0.  1.
         12    1    3    3    0    0 -0.35403134849E+02 -0.19323314135E+01 -0.22842758089E+02  0.42177096379E+02  0.00000000000E+00 0. -1.
</event>
<event>
 7    1  0.5182743E-015  0.9000774E+02  0.7816164E-02  0.1186339E+00
        -11   -1    0    0    0    0  0.00000000000E+00  0.00000000000E+00  0.45593999997E+02  0.45594000000E+02  0.51100000000E-03 0. -1.
         11   -1    0    0    0    0 -0.00000000000E+00 -0.00000000000E+00 -0.45593999997E+02  0.45594000000E+02  0.51100000000E-03 0.  1.
    9900012    2    1    2    0    0 -0.30145392291E+00  0.35029894709E+00 -0.10860143630E+01  0.90007741123E+02  0.90000002506E+02 0.  0.
         12    1    1    2    0    0  0.30145392291E+00 -0.35029894709E+00  0.10860143630E+01  0.11802588769E+01  0.00000000000E+00 0. -1.
         11    1    3    3    0    0  0.46312729369E+01  0.54826854411E+01 -0.65505277624E+01  0.97168895686E+01  0.51100000000E-03 0. -1.
        -11    1    3    3    0    0 -0.55223653202E-02  0.10932438233E+02 -0.34897975955E+02  0.36570301643E+02  0.51100000000E-03 0.  1.
         12    1    3    3    0    0 -0.49272044944E+01 -0.16064824727E+02  0.40362489355E+02  0.43720549911E+02  0.00000000000E+00 0. -1.
</event>
<event>
 7    1  0.4331547E-015  0.9000815E+02  0.7816164E-02  0.1186338E+00
        -11   -1    0    0    0    0  0.00000000000E+00  0.00000000000E+00  0.45593999997E+02  0.45594000000E+02  0.51100000000E-03 0.  1.
         11   -1    0    0    0    0 -0.00000000000E+00 -0.00000000000E+00 -0.45593999997E+02  0.45594000000E+02  0.51100000000E-03 0. -1.
    9900012    2    1    2    0    0  0.11380090283E+01 -0.30828177820E+00  0.44090181431E-01  0.90008149947E+02  0.90000416725E+02 0.  0.
         12    1    1    2    0    0 -0.11380090283E+01  0.30828177820E+00 -0.44090181431E-01  0.11798500530E+01  0.00000000000E+00 0. -1.
         11    1    3    3    0    0 -0.22689744739E+02 -0.10985152933E+02 -0.33483938477E+02  0.41912673948E+02  0.51100000000E-03 0. -1.
        -11    1    3    3    0    0  0.93396157370E+01  0.21696381700E+01 -0.10560747445E+01  0.96462970113E+01  0.51100000000E-03 0.  1.
        -12    1    3    3    0    0  0.14488138031E+02  0.85072329850E+01  0.34584103403E+02  0.38449178988E+02  0.00000000000E+00 0.  1.
</event>
<event>
 7    1  0.4331547E-015  0.9000769E+02  0.7816164E-02  0.1186339E+00
        -11   -1    0    0    0    0  0.00000000000E+00  0.00000000000E+00  0.45593999997E+02  0.45594000000E+02  0.51100000000E-03 0.  1.
         11   -1    0    0    0    0 -0.00000000000E+00 -0.00000000000E+00 -0.45593999997E+02  0.45594000000E+02  0.51100000000E-03 0. -1.
    9900012    2    1    2    0    0 -0.58012949969E+00  0.10122359841E+01  0.17875343099E+00  0.90007692958E+02  0.89999953705E+02 0.  0.
         12    1    1    2    0    0  0.58012949969E+00 -0.10122359841E+01 -0.17875343099E+00  0.11803070418E+01  0.00000000000E+00 0. -1.
         11    1    3    3    0    0  0.10765309792E+02  0.13421758393E+00 -0.37890578729E+02  0.39390428609E+02  0.51100000000E-03 0. -1.
        -11    1    3    3    0    0  0.66385498623E+01  0.63412938282E+01  0.12331448073E+01  0.92629907734E+01  0.51100000000E-03 0.  1.
        -12    1    3    3    0    0 -0.17983989154E+02 -0.54632754281E+01  0.36836187353E+02  0.41354273576E+02  0.00000000000E+00 0.  1.
</event>
<event>
 7    1  0.4331547E-015  0.9000765E+02  0.7816164E-02  0.1186339E+00
        -11   -1    0    0    0    0  0.00000000000E+00  0.00000000000E+00  0.45593999997E+02  0.45594000000E+02  0.51100000000E-03 0.  1.
         11   -1    0    0    0    0 -0.00000000000E+00 -0.00000000000E+00 -0.45593999997E+02  0.45594000000E+02  0.51100000000E-03 0. -1.
    9900012    2    1    2    0    0 -0.39443675185E+00  0.10961075217E+01  0.19025460788E+00  0.90007648838E+02  0.89999909002E+02 0.  0.
         12    1    1    2    0    0  0.39443675185E+00 -0.10961075217E+01 -0.19025460788E+00  0.11803511622E+01  0.00000000000E+00 0. -1.
         11    1    3    3    0    0 -0.95352258540E+00  0.42098615388E+02  0.99805102892E+01  0.43276011933E+02  0.51100000000E-03 0. -1.
        -11    1    3    3    0    0 -0.19477789554E+01 -0.77447310065E+01  0.58451255514E+01  0.98964738263E+01  0.51100000000E-03 0.  1.
        -12    1    3    3    0    0  0.25068647889E+01 -0.33257776860E+02 -0.15635381233E+02  0.36835163079E+02  0.00000000000E+00 0.  1.
</event>
<event>
 7    1  0.4331547E-015  0.9000794E+02  0.7816164E-02  0.1186339E+00
        -11   -1    0    0    0    0  0.00000000000E+00  0.00000000000E+00  0.45593999997E+02  0.45594000000E+02  0.51100000000E-03 0.  1.
         11   -1    0    0    0    0 -0.00000000000E+00 -0.00000000000E+00 -0.45593999997E+02  0.45594000000E+02  0.51100000000E-03 0. -1.
    9900012    2    1    2    0    0 -0.52798299142E-01 -0.76536368994E+00  0.89664769181E+00  0.90007938001E+02  0.90000201982E+02 0.  0.
         12    1    1    2    0    0  0.52798299142E-01  0.76536368994E+00 -0.89664769181E+00  0.11800619990E+01  0.00000000000E+00 0. -1.
         11    1    3    3    0    0 -0.13897697157E+01  0.12756110852E+01  0.87786140955E+01  0.89790149349E+01  0.51100000000E-03 0. -1.
        -11    1    3    3    0    0  0.72889600419E+01  0.22640662002E+02  0.28211539415E+02  0.36900128330E+02  0.51100000000E-03 0.  1.
         12    1    3    3    0    0 -0.59519886254E+01 -0.24681636777E+02 -0.36093505818E+02  0.44128794736E+02  0.00000000000E+00 0. -1.
</event>
<event>
 7    1  0.4331547E-015  0.9000771E+02  0.7816164E-02  0.1186339E+00
        -11   -1    0    0    0    0  0.00000000000E+00  0.00000000000E+00  0.45593999997E+02  0.45594000000E+02  0.51100000000E-03 0.  1.
         11   -1    0    0    0    0 -0.00000000000E+00 -0.00000000000E+00 -0.45593999997E+02  0.45594000000E+02  0.51100000000E-03 0. -1.
    9900012    2    1    2    0    0 -0.74128130400E+00 -0.91723939769E+00 -0.47414298516E-01  0.90007714357E+02  0.89999975386E+02 0.  0.
         12    1    1    2    0    0  0.74128130400E+00  0.91723939769E+00  0.47414298516E-01  0.11802856434E+01  0.00000000000E+00 0. -1.
         11    1    3    3    0    0  0.86222596595E+01  0.14952424179E+01  0.93305183182E+00  0.88005509774E+01  0.51100000000E-03 0. -1.
        -11    1    3    3    0    0  0.12250806522E+02 -0.40582296216E+01  0.36054555254E+02  0.38294679042E+02  0.51100000000E-03 0.  1.
         12    1    3    3    0    0 -0.21614347486E+02  0.16457478059E+01 -0.37035021384E+02  0.42912484337E+02  0.00000000000E+00 0. -1.
</event>
<event>
 7    1  0.4331547E-015  0.9000779E+02  0.7816164E-02  0.1186339E+00
        -11   -1    0    0    0    0  0.00000000000E+00  0.00000000000E+00  0.45593999997E+02  0.45594000000E+02  0.51100000000E-03 0. -1.
         11   -1    0    0    0    0 -0.00000000000E+00 -0.00000000000E+00 -0.45593999997E+02  0.45594000000E+02  0.51100000000E-03 0.  1.
    9900012    2    1    2    0    0  0.53560669647E+00  0.10442541508E+01 -0.12472738611E+00  0.90007788923E+02  0.90000050937E+02 0.  0.
         12    1    1    2    0    0 -0.53560669647E+00 -0.10442541508E+01  0.12472738611E+00  0.11802110767E+01  0.00000000000E+00 0. -1.
         11    1    3    3    0    0 -0.65804026980E+01  0.38191910007E+02  0.68079704949E+01  0.39348089562E+02  0.51100000000E-03 0. -1.
        -11    1    3    3    0    0  0.78191847471E+01  0.29986356620E+01  0.36511386231E+01  0.91357692314E+01  0.51100000000E-03 0.  1.
        -12    1    3    3    0    0 -0.70317535260E+00 -0.40146291519E+02 -0.10583836504E+02  0.41523930130E+02  0.00000000000E+00 0.  1.
</event>
<event>
 7    1  0.4331547E-015  0.9000791E+02  0.7816164E-02  0.1186339E+00
        -11   -1    0    0    0    0  0.00000000000E+00  0.00000000000E+00  0.45593999997E+02  0.45594000000E+02  0.51100000000E-03 0. -1.
         11   -1    0    0    0    0 -0.00000000000E+00 -0.00000000000E+00 -0.45593999997E+02  0.45594000000E+02  0.51100000000E-03 0.  1.
    9900012    2    1    2    0    0 -0.76351075856E+00 -0.64564191259E+00 -0.62674236844E+00  0.90007911802E+02  0.90000175438E+02 0.  0.
         12    1    1    2    0    0  0.76351075856E+00  0.64564191259E+00  0.62674236844E+00  0.11800881976E+01  0.00000000000E+00 0. -1.
         11    1    3    3    0    0  0.34232995518E+00  0.93595763861E+01  0.25980458439E+01  0.97195011391E+01  0.51100000000E-03 0. -1.
        -11    1    3    3    0    0  0.36135940338E+02 -0.19076901212E+02  0.47479219385E+01  0.41137295815E+02  0.51100000000E-03 0.  1.
         12    1    3    3    0    0 -0.37241781051E+02  0.90716829134E+01 -0.79727101508E+01  0.39151114849E+02  0.00000000000E+00 0. -1.
</event>
<event>
 7    1  0.4331547E-015  0.9000776E+02  0.7816164E-02  0.1186339E+00
        -11   -1    0    0    0    0  0.00000000000E+00  0.00000000000E+00  0.45593999997E+02  0.45594000000E+02  0.51100000000E-03 0. -1.
         11   -1    0    0    0    0 -0.00000000000E+00 -0.00000000000E+00 -0.45593999997E+02  0.45594000000E+02  0.51100000000E-03 0.  1.
    9900012    2    1    2    0    0  0.10780239423E-01  0.87444111507E+00 -0.79259956981E+00  0.90007755299E+02  0.90000016868E+02 0.  0.
         12    1    1    2    0    0 -0.10780239423E-01 -0.87444111507E+00  0.79259956981E+00  0.11802447015E+01  0.00000000000E+00 0. -1.
         11    1    3    3    0    0  0.26174047837E+02  0.21117021064E+02  0.10349267592E+02  0.35186882481E+02  0.51100000000E-03 0. -1.
        -11    1    3    3    0    0  0.32765357434E+01  0.19829195948E+01  0.11103195640E+02  0.11745152629E+02  0.51100000000E-03 0.  1.
        -12    1    3    3    0    0 -0.29439803341E+02 -0.22225499544E+02 -0.22245062802E+02  0.43075720189E+02  0.00000000000E+00 0.  1.
</event>
<event>
 7    1  0.4331547E-015  0.9000774E+02  0.7816164E-02  0.1186339E+00
        -11   -1    0    0    0    0  0.00000000000E+00  0.00000000000E+00  0.45593999997E+02  0.45594000000E+02  0.51100000000E-03 0. -1.
         11   -1    0    0    0    0 -0.00000000000E+00 -0.00000000000E+00 -0.45593999997E+02  0.45594000000E+02  0.51100000000E-03 0.  1.
    9900012    2    1    2    0    0  0.11018134402E+01  0.14810246181E-01 -0.42284175260E+00  0.90007742677E+02  0.90000004080E+02 0.  0.
         12    1    1    2    0    0 -0.11018134402E+01 -0.14810246181E-01  0.42284175260E+00  0.11802573229E+01  0.00000000000E+00 0. -1.
         11    1    3    3    0    0  0.26023693374E+01  0.10481366983E+02 -0.33829814822E+01  0.11317064282E+02  0.51100000000E-03 0. -1.
        -11    1    3    3    0    0 -0.33640977143E+02 -0.61072809063E+01 -0.19385086120E+02  0.39303890231E+02  0.51100000000E-03 0.  1.
         12    1    3    3    0    0  0.32140421246E+02 -0.43592758302E+01  0.22345225849E+02  0.39386788164E+02  0.00000000000E+00 0. -1.
</event>
<event>
 7    1  0.4331547E-015  0.9000766E+02  0.7816164E-02  0.1186339E+00
        -11   -1    0    0    0    0  0.00000000000E+00  0.00000000000E+00  0.45593999997E+02  0.45594000000E+02  0.51100000000E-03 0. -1.
         11   -1    0    0    0    0 -0.00000000000E+00 -0.00000000000E+00 -0.45593999997E+02  0.45594000000E+02  0.51100000000E-03 0.  1.
    9900012    2    1    2    0    0  0.93978600007E+00  0.67852059027E+00  0.22272059915E+00  0.90007664292E+02  0.89999924661E+02 0.  0.
         12    1    1    2    0    0 -0.93978600007E+00 -0.67852059027E+00 -0.22272059915E+00  0.11803357076E+01  0.00000000000E+00 0. -1.
         11    1    3    3    0    0 -0.66687673424E+01  0.20433171185E+01 -0.74411203969E+01  0.10198915420E+02  0.51100000000E-03 0. -1.
        -11    1    3    3    0    0  0.31054309287E+01  0.34353756875E+02 -0.14625092801E+02  0.37466220151E+02  0.51100000000E-03 0.  1.
         12    1    3    3    0    0  0.45031224138E+01 -0.35718553404E+02  0.22288933797E+02  0.42342528722E+02  0.00000000000E+00 0. -1.
</event>
<event>
 7    1  0.4331547E-015  0.9000775E+02  0.7816164E-02  0.1186339E+00
        -11   -1    0    0    0    0  0.00000000000E+00  0.00000000000E+00  0.45593999997E+02  0.45594000000E+02  0.51100000000E-03 0.  1.
         11   -1    0    0    0    0 -0.00000000000E+00 -0.00000000000E+00 -0.45593999997E+02  0.45594000000E+02  0.51100000000E-03 0. -1.
    9900012    2    1    2    0    0 -0.44004496538E+00  0.95089379437E+00 -0.54327928265E+00  0.90007749620E+02  0.90000011115E+02 0.  0.
         12    1    1    2    0    0  0.44004496538E+00 -0.95089379437E+00  0.54327928265E+00  0.11802503797E+01  0.00000000000E+00 0. -1.
         11    1    3    3    0    0  0.20366438616E+02  0.70863903283E+00 -0.27470168453E+02  0.34203861569E+02  0.51100000000E-03 0. -1.
        -11    1    3    3    0    0 -0.14046195362E+00  0.52755639646E+01 -0.11067239972E+02  0.12261121709E+02  0.51100000000E-03 0.  1.
        -12    1    3    3    0    0 -0.20666021627E+02 -0.50333092031E+01  0.37994129142E+02  0.43542766342E+02  0.00000000000E+00 0.  1.
</event>
<event>
 7    1  0.4331547E-015  0.9000746E+02  0.7816164E-02  0.1186340E+00
        -11   -1    0    0    0    0  0.00000000000E+00  0.00000000000E+00  0.45593999997E+02  0.45594000000E+02  0.51100000000E-03 0.  1.
         11   -1    0    0    0    0 -0.00000000000E+00 -0.00000000000E+00 -0.45593999997E+02  0.45594000000E+02  0.51100000000E-03 0. -1.
    9900012    2    1    2    0    0  0.10881605525E+01  0.78421019512E-01  0.45102455908E+00  0.90007463513E+02  0.89999721231E+02 0.  0.
         12    1    1    2    0    0 -0.10881605525E+01 -0.78421019512E-01 -0.45102455908E+00  0.11805364870E+01  0.00000000000E+00 0. -1.
         11    1    3    3    0    0 -0.99410624105E+01  0.50812304603E+00 -0.19208806303E+01  0.10137686794E+02  0.51100000000E-03 0. -1.
        -11    1    3    3    0    0  0.15801718530E+01  0.90448540227E+01  0.39422112811E+02  0.40477269005E+02  0.51100000000E-03 0.  1.
         12    1    3    3    0    0  0.94490511100E+01 -0.94745560492E+01 -0.37050207621E+02  0.39392507714E+02  0.00000000000E+00 0. -1.
</event>
<event>
 7    1  0.4331547E-015  0.9000775E+02  0.7816164E-02  0.1186339E+00
        -11   -1    0    0    0    0  0.00000000000E+00  0.00000000000E+00  0.45593999997E+02  0.45594000000E+02  0.51100000000E-03 0.  1.
         11   -1    0    0    0    0 -0.00000000000E+00 -0.00000000000E+00 -0.45593999997E+02  0.45594000000E+02  0.51100000000E-03 0. -1.
    9900012    2    1    2    0    0  0.10032224823E+01 -0.58246202064E+00 -0.21740785673E+00  0.90007752767E+02  0.90000014304E+02 0.  0.
         12    1    1    2    0    0 -0.10032224823E+01  0.58246202064E+00  0.21740785673E+00  0.11802472328E+01  0.00000000000E+00 0. -1.
         11    1    3    3    0    0 -0.10012625976E+02  0.53864968986E+00 -0.99078231195E+00  0.10075935305E+02  0.51100000000E-03 0. -1.
        -11    1    3    3    0    0 -0.27924889490E+02  0.38101344822E+01  0.21589086436E+02  0.35502186288E+02  0.51100000000E-03 0.  1.
         12    1    3    3    0    0  0.38940737948E+02 -0.49312461927E+01 -0.20815711981E+02  0.44429631174E+02  0.00000000000E+00 0. -1.
</event>
<event>
 7    1  0.4331547E-015  0.9000778E+02  0.7816164E-02  0.1186339E+00
        -11   -1    0    0    0    0  0.00000000000E+00  0.00000000000E+00  0.45593999997E+02  0.45594000000E+02  0.51100000000E-03 0.  1.
         11   -1    0    0    0    0 -0.00000000000E+00 -0.00000000000E+00 -0.45593999997E+02  0.45594000000E+02  0.51100000000E-03 0. -1.
    9900012    2    1    2    0    0 -0.91818600174E+00 -0.52841681805E+00  0.52022707108E+00  0.90007777109E+02  0.90000038967E+02 0.  0.
         12    1    1    2    0    0  0.91818600174E+00  0.52841681805E+00 -0.52022707108E+00  0.11802228912E+01  0.00000000000E+00 0. -1.
         11    1    3    3    0    0 -0.10287459883E+01  0.32073389074E+01  0.68936192196E+01  0.76725046355E+01  0.51100000000E-03 0. -1.
        -11    1    3    3    0    0 -0.39010814975E+01 -0.37209724287E+02  0.17219887643E+02  0.41186242230E+02  0.51100000000E-03 0.  1.
         12    1    3    3    0    0  0.40116414841E+01  0.33473968561E+02 -0.23593279791E+02  0.41149030243E+02  0.00000000000E+00 0. -1.
</event>
<event>
 7    1  0.4331547E-015  0.9000772E+02  0.7816164E-02  0.1186339E+00
        -11   -1    0    0    0    0  0.00000000000E+00  0.00000000000E+00  0.45593999997E+02  0.45594000000E+02  0.51100000000E-03 0. -1.
         11   -1    0    0    0    0 -0.00000000000E+00 -0.00000000000E+00 -0.45593999997E+02  0.45594000000E+02  0.51100000000E-03 0.  1.
    9900012    2    1    2    0    0 -0.11046617129E+01 -0.35319728966E-01 -0.41418307216E+00  0.90007715034E+02  0.89999976073E+02 0.  0.
         12    1    1    2    0    0  0.11046617129E+01  0.35319728966E-01  0.41418307216E+00  0.11802849658E+01  0.00000000000E+00 0. -1.
         11    1    3    3    0    0 -0.28173783131E+02  0.28633394706E+02 -0.10583310119E+02  0.41540820908E+02  0.51100000000E-03 0. -1.
        -11    1    3    3    0    0 -0.39907070544E+01 -0.80643294846E+01  0.63209654841E+01  0.10996079199E+02  0.51100000000E-03 0.  1.
        -12    1    3    3    0    0  0.31059828473E+02 -0.20604384950E+02  0.38481615629E+01  0.37470814928E+02  0.00000000000E+00 0.  1.
</event>
<event>
 7    1  0.4331547E-015  0.9000773E+02  0.7816164E-02  0.1186339E+00
        -11   -1    0    0    0    0  0.00000000000E+00  0.00000000000E+00  0.45593999997E+02  0.45594000000E+02  0.51100000000E-03 0.  1.
         11   -1    0    0    0    0 -0.00000000000E+00 -0.00000000000E+00 -0.45593999997E+02  0.45594000000E+02  0.51100000000E-03 0. -1.
    9900012    2    1    2    0    0 -0.10913912625E+01  0.40973110518E+00  0.18448304931E+00  0.90007725260E+02  0.89999986433E+02 0.  0.
         12    1    1    2    0    0  0.10913912625E+01 -0.40973110518E+00 -0.18448304931E+00  0.11802747400E+01  0.00000000000E+00 0. -1.
         11    1    3    3    0    0 -0.49842937732E+01 -0.28602183062E+02  0.66856202549E+00  0.29040920023E+02  0.51100000000E-03 0. -1.
        -11    1    3    3    0    0 -0.51335144395E+01 -0.10402355329E+02 -0.14139113206E+02  0.18288698407E+02  0.51100000000E-03 0.  1.
        -12    1    3    3    0    0  0.90264169501E+01  0.39414269496E+02  0.13655034230E+02  0.42678106831E+02  0.00000000000E+00 0.  1.
</event>
<event>
 7    1  0.4331547E-015  0.9000773E+02  0.7816164E-02  0.1186339E+00
        -11   -1    0    0    0    0  0.00000000000E+00  0.00000000000E+00  0.45593999997E+02  0.45594000000E+02  0.51100000000E-03 0. -1.
         11   -1    0    0    0    0 -0.00000000000E+00 -0.00000000000E+00 -0.45593999997E+02  0.45594000000E+02  0.51100000000E-03 0.  1.
    9900012    2    1    2    0    0 -0.10703362816E+01  0.30920974857E+00 -0.38963219433E+00  0.90007727289E+02  0.89999988490E+02 0.  0.
         12    1    1    2    0    0  0.10703362816E+01 -0.30920974857E+00  0.38963219433E+00  0.11802727105E+01  0.00000000000E+00 0. -1.
         11    1    3    3    0    0 -0.23759806248E+01 -0.19430278525E+01  0.37158804371E+02  0.37285350792E+02  0.51100000000E-03 0. -1.
        -11    1    3    3    0    0 -0.10870135904E+02  0.55530272049E+01  0.91729493987E+00  0.12240808632E+02  0.51100000000E-03 0.  1.
        -12    1    3    3    0    0  0.12175780247E+02 -0.33007896038E+01 -0.38465731505E+02  0.40481567865E+02  0.00000000000E+00 0.  1.
</event>
<event>
 7    1  0.4331547E-015  0.9000786E+02  0.7816164E-02  0.1186339E+00
        -11   -1    0    0    0    0  0.00000000000E+00  0.00000000000E+00  0.45593999997E+02  0.45594000000E+02  0.51100000000E-03 0.  1.
         11   -1    0    0    0    0 -0.00000000000E+00 -0.00000000000E+00 -0.45593999997E+02  0.45594000000E+02  0.51100000000E-03 0. -1.
    9900012    2    1    2    0    0 -0.50493240934E-01  0.10332525256E+01  0.56795586009E+00  0.90007858395E+02  0.90000121326E+02 0.  0.
         12    1    1    2    0    0  0.50493240934E-01 -0.10332525256E+01 -0.56795586009E+00  0.11801416051E+01  0.00000000000E+00 0. -1.
         11    1    3    3    0    0 -0.80910106231E+00 -0.77858424943E+01 -0.26041430413E+01  0.82495787235E+01  0.51100000000E-03 0. -1.
        -11    1    3    3    0    0 -0.39734339835E+02 -0.18331299833E+01  0.29677594028E+01  0.39887162394E+02  0.51100000000E-03 0.  1.
         12    1    3    3    0    0  0.40492947657E+02  0.10652225003E+02  0.20433949860E+00  0.41871117278E+02  0.00000000000E+00 0. -1.
</event>
<event>
 7    1  0.4331547E-015  0.9000779E+02  0.7816164E-02  0.1186339E+00
        -11   -1    0    0    0    0  0.00000000000E+00  0.00000000000E+00  0.45593999997E+02  0.45594000000E+02  0.51100000000E-03 0.  1.
         11   -1    0    0    0    0 -0.00000000000E+00 -0.00000000000E+00 -0.45593999997E+02  0.45594000000E+02  0.51100000000E-03 0. -1.
    9900012    2    1    2    0    0 -0.10900283819E+01  0.34267311861E+00  0.29548283041E+00  0.90007789492E+02  0.90000051514E+02 0.  0.
         12    1    1    2    0    0  0.10900283819E+01 -0.34267311861E+00 -0.29548283041E+00  0.11802105078E+01  0.00000000000E+00 0. -1.
         11    1    3    3    0    0  0.40501837131E+01  0.42918925730E+01  0.89583441776E+01  0.10727360376E+02  0.51100000000E-03 0. -1.
        -11    1    3    3    0    0  0.32850564355E+02  0.14217429746E+02  0.19651892993E+01  0.35849084456E+02  0.51100000000E-03 0.  1.
         12    1    3    3    0    0 -0.37990776450E+02 -0.18166649201E+02 -0.10628050647E+02  0.43431344661E+02  0.00000000000E+00 0. -1.
</event>
<event>
 7    1  0.4331547E-015  0.9000759E+02  0.7816164E-02  0.1186339E+00
        -11   -1    0    0    0    0  0.00000000000E+00  0.00000000000E+00  0.45593999997E+02  0.45594000000E+02  0.51100000000E-03 0.  1.
         11   -1    0    0    0    0 -0.00000000000E+00 -0.00000000000E+00 -0.45593999997E+02  0.45594000000E+02  0.51100000000E-03 0. -1.
    9900012    2    1    2    0    0  0.75664307956E+00  0.17088516329E+00  0.88974482799E+00  0.90007594837E+02  0.89999854289E+02 0.  0.
         12    1    1    2    0    0 -0.75664307956E+00 -0.17088516329E+00 -0.88974482799E+00  0.11804051626E+01  0.00000000000E+00 0. -1.
         11    1    3    3    0    0 -0.11759325894E+02  0.25789220672E+01  0.44356139765E+01  0.12829935936E+02  0.51100000000E-03 0. -1.
        -11    1    3    3    0    0 -0.10552366897E+02  0.18045044566E+02  0.26753072873E+02  0.33951479923E+02  0.51100000000E-03 0.  1.
         12    1    3    3    0    0  0.23068335871E+02 -0.20453081470E+02 -0.30298942021E+02  0.43226178979E+02  0.00000000000E+00 0. -1.
</event>
<event>
 7    1  0.4331547E-015  0.9000773E+02  0.7816164E-02  0.1186339E+00
        -11   -1    0    0    0    0  0.00000000000E+00  0.00000000000E+00  0.45593999997E+02  0.45594000000E+02  0.51100000000E-03 0.  1.
         11   -1    0    0    0    0 -0.00000000000E+00 -0.00000000000E+00 -0.45593999997E+02  0.45594000000E+02  0.51100000000E-03 0. -1.
    9900012    2    1    2    0    0  0.55127853131E+00 -0.12425667961E+00  0.10361909244E+01  0.90007729110E+02  0.89999990334E+02 0.  0.
         12    1    1    2    0    0 -0.55127853131E+00  0.12425667961E+00 -0.10361909244E+01  0.11802708898E+01  0.00000000000E+00 0. -1.
         11    1    3    3    0    0  0.13271079149E+02  0.11724699147E+00  0.67187131960E+01  0.14875362043E+02  0.51100000000E-03 0. -1.
        -11    1    3    3    0    0 -0.23945047464E+01  0.29289482692E+02  0.19247944585E+02  0.35129628810E+02  0.51100000000E-03 0.  1.
         12    1    3    3    0    0 -0.10325295871E+02 -0.29530986363E+02 -0.24930466856E+02  0.40002738257E+02  0.00000000000E+00 0. -1.
</event>
<event>
 7    1  0.4331547E-015  0.9000671E+02  0.7816164E-02  0.1186341E+00
        -11   -1    0    0    0    0  0.00000000000E+00  0.00000000000E+00  0.45593999997E+02  0.45594000000E+02  0.51100000000E-03 0.  1.
         11   -1    0    0    0    0 -0.00000000000E+00 -0.00000000000E+00 -0.45593999997E+02  0.45594000000E+02  0.51100000000E-03 0. -1.
    9900012    2    1    2    0    0  0.12901552045E+00  0.54962373022E+00  0.10376440558E+01  0.90006714075E+02  0.89998961895E+02 0.  0.
         12    1    1    2    0    0 -0.12901552045E+00 -0.54962373022E+00 -0.10376440558E+01  0.11812859247E+01  0.00000000000E+00 0. -1.
         11    1    3    3    0    0 -0.83116999178E+01 -0.34139851700E+01 -0.34716097959E+01  0.96328461578E+01  0.51100000000E-03 0. -1.
        -11    1    3    3    0    0 -0.32768364009E+02 -0.11099328998E+02 -0.63481732629E+01  0.35174708074E+02  0.51100000000E-03 0.  1.
         12    1    3    3    0    0  0.41209079447E+02  0.15062937899E+02  0.10857427115E+02  0.45199159844E+02  0.00000000000E+00 0. -1.
</event>
<event>
 7    1  0.4331547E-015  0.9000777E+02  0.7816164E-02  0.1186339E+00
        -11   -1    0    0    0    0  0.00000000000E+00  0.00000000000E+00  0.45593999997E+02  0.45594000000E+02  0.51100000000E-03 0. -1.
         11   -1    0    0    0    0 -0.00000000000E+00 -0.00000000000E+00 -0.45593999997E+02  0.45594000000E+02  0.51100000000E-03 0.  1.
    9900012    2    1    2    0    0 -0.45272145957E+00 -0.41221275481E+00 -0.10089951424E+01  0.90007768128E+02  0.90000029867E+02 0.  0.
         12    1    1    2    0    0  0.45272145957E+00  0.41221275481E+00  0.10089951424E+01  0.11802318723E+01  0.00000000000E+00 0. -1.
         11    1    3    3    0    0 -0.11038283023E+01  0.50575705378E+01 -0.86695837444E+01  0.10097481826E+02  0.51100000000E-03 0. -1.
        -11    1    3    3    0    0 -0.31520839509E+02 -0.26412850240E+02  0.28668118102E+01  0.41224029296E+02  0.51100000000E-03 0.  1.
         12    1    3    3    0    0  0.32171946351E+02  0.20943066948E+02  0.47937767918E+01  0.38686257006E+02  0.00000000000E+00 0. -1.
</event>
<event>
 7    1  0.4331547E-015  0.9000769E+02  0.7816164E-02  0.1186339E+00
        -11   -1    0    0    0    0  0.00000000000E+00  0.00000000000E+00  0.45593999997E+02  0.45594000000E+02  0.51100000000E-03 0. -1.
         11   -1    0    0    0    0 -0.00000000000E+00 -0.00000000000E+00 -0.45593999997E+02  0.45594000000E+02  0.51100000000E-03 0.  1.
    9900012    2    1    2    0    0 -0.41038074595E+00 -0.10891198715E+01  0.19632804108E+00  0.90007686842E+02  0.89999947508E+02 0.  0.
         12    1    1    2    0    0  0.41038074595E+00  0.10891198715E+01 -0.19632804108E+00  0.11803131580E+01  0.00000000000E+00 0. -1.
         11    1    3    3    0    0 -0.19289137081E+01 -0.23986083878E+01  0.13006447783E+02  0.13365691694E+02  0.51100000000E-03 0. -1.
        -11    1    3    3    0    0 -0.25373167816E+02 -0.23842705191E+02 -0.18429706844E+02  0.39394496195E+02  0.51100000000E-03 0.  1.
         12    1    3    3    0    0  0.26891700778E+02  0.25152193708E+02  0.56195871023E+01  0.37247498953E+02  0.00000000000E+00 0. -1.
</event>
<event>
 7    1  0.5123581E-015  0.9000767E+02  0.7816164E-02  0.1186339E+00
        -11   -1    0    0    0    0  0.00000000000E+00  0.00000000000E+00  0.45593999997E+02  0.45594000000E+02  0.51100000000E-03 0.  1.
         11   -1    0    0    0    0 -0.00000000000E+00 -0.00000000000E+00 -0.45593999997E+02  0.45594000000E+02  0.51100000000E-03 0. -1.
    9900012    2    1    2    0    0  0.60076232187E-01 -0.11569634319E+01 -0.22585818014E+00  0.90007667227E+02  0.89999927635E+02 0.  0.
         12    1    1    2    0    0 -0.60076232187E-01  0.11569634319E+01  0.22585818014E+00  0.11803327725E+01  0.00000000000E+00 0. -1.
         11    1    3    3    0    0  0.45662155059E+01  0.33214250644E+01 -0.77327840759E+01  0.95748701469E+01  0.51100000000E-03 0. -1.
        -11    1    3    3    0    0  0.17238639277E+02  0.32300259621E+02  0.89201690303E+01  0.37683509277E+02  0.51100000000E-03 0.  1.
         12    1    3    3    0    0 -0.21744778551E+02 -0.36778648117E+02 -0.14132431345E+01  0.42749287803E+02  0.00000000000E+00 0. -1.
</event>
<event>
 7    1  0.4331547E-015  0.9000766E+02  0.7816164E-02  0.1186339E+00
        -11   -1    0    0    0    0  0.00000000000E+00  0.00000000000E+00  0.45593999997E+02  0.45594000000E+02  0.51100000000E-03 0.  1.
         11   -1    0    0    0    0 -0.00000000000E+00 -0.00000000000E+00 -0.45593999997E+02  0.45594000000E+02  0.51100000000E-03 0. -1.
    9900012    2    1    2    0    0 -0.32048586528E+00  0.35674080400E+00  0.10785320533E+01  0.90007658278E+02  0.89999918567E+02 0.  0.
         12    1    1    2    0    0  0.32048586528E+00 -0.35674080400E+00 -0.10785320533E+01  0.11803417222E+01  0.00000000000E+00 0. -1.
         11    1    3    3    0    0  0.84465897102E+01  0.58722997856E+01 -0.49310814921E+01  0.11408082549E+02  0.51100000000E-03 0. -1.
        -11    1    3    3    0    0 -0.20240191366E+02  0.31698064125E+02 -0.54607652533E+01  0.38003323187E+02  0.51100000000E-03 0.  1.
         12    1    3    3    0    0  0.11473115791E+02 -0.37213623107E+02  0.11470378799E+02  0.40596252542E+02  0.00000000000E+00 0. -1.
</event>
<event>
 7    1  0.4331547E-015  0.9000853E+02  0.7816164E-02  0.1186337E+00
        -11   -1    0    0    0    0  0.00000000000E+00  0.00000000000E+00  0.45593999997E+02  0.45594000000E+02  0.51100000000E-03 0.  1.
         11   -1    0    0    0    0 -0.00000000000E+00 -0.00000000000E+00 -0.45593999997E+02  0.45594000000E+02  0.51100000000E-03 0. -1.
    9900012    2    1    2    0    0 -0.11345885427E+01 -0.44090852735E-01 -0.31924884848E+00  0.90008527664E+02  0.90000799425E+02 0.  0.
         12    1    1    2    0    0  0.11345885427E+01  0.44090852735E-01  0.31924884848E+00  0.11794723362E+01  0.00000000000E+00 0. -1.
         11    1    3    3    0    0  0.20067179432E+01  0.27525769355E+02 -0.21797245608E+02  0.35168378010E+02  0.51100000000E-03 0. -1.
        -11    1    3    3    0    0  0.54856117922E+01  0.10243224077E+02  0.38858211884E+01  0.12252150130E+02  0.51100000000E-03 0.  1.
        -12    1    3    3    0    0 -0.86269182780E+01 -0.37813084285E+02  0.17592175572E+02  0.42587999524E+02  0.00000000000E+00 0.  1.
</event>
<event>
 7    1  0.4331547E-015  0.9000791E+02  0.7816164E-02  0.1186339E+00
        -11   -1    0    0    0    0  0.00000000000E+00  0.00000000000E+00  0.45593999997E+02  0.45594000000E+02  0.51100000000E-03 0.  1.
         11   -1    0    0    0    0 -0.00000000000E+00 -0.00000000000E+00 -0.45593999997E+02  0.45594000000E+02  0.51100000000E-03 0. -1.
    9900012    2    1    2    0    0  0.23632389364E+00 -0.68966341628E+00  0.92796681817E+00  0.90007912280E+02  0.90000175922E+02 0.  0.
         12    1    1    2    0    0 -0.23632389364E+00  0.68966341628E+00 -0.92796681817E+00  0.11800877197E+01  0.00000000000E+00 0. -1.
         11    1    3    3    0    0 -0.59283203242E+01  0.91927311174E+00  0.88653001622E+01  0.10704372571E+02  0.51100000000E-03 0. -1.
        -11    1    3    3    0    0  0.30951332409E+02  0.10601663065E+02  0.21328357638E+02  0.39054821436E+02  0.51100000000E-03 0.  1.
         12    1    3    3    0    0 -0.24786688191E+02 -0.12210599593E+02 -0.29265690982E+02  0.40248718272E+02  0.00000000000E+00 0. -1.
</event>
<event>
 7    1  0.4331547E-015  0.9000777E+02  0.7816164E-02  0.1186339E+00
        -11   -1    0    0    0    0  0.00000000000E+00  0.00000000000E+00  0.45593999997E+02  0.45594000000E+02  0.51100000000E-03 0. -1.
         11   -1    0    0    0    0 -0.00000000000E+00 -0.00000000000E+00 -0.45593999997E+02  0.45594000000E+02  0.51100000000E-03 0.  1.
    9900012    2    1    2    0    0 -0.83914646180E+00 -0.79223225899E+00 -0.24728127647E+00  0.90007768342E+02  0.90000030084E+02 0.  0.
         12    1    1    2    0    0  0.83914646179E+00  0.79223225899E+00  0.24728127647E+00  0.11802316579E+01  0.00000000000E+00 0. -1.
         11    1    3    3    0    0 -0.32126363284E+02 -0.20940979988E+02 -0.20913776685E+01  0.38405751152E+02  0.51100000000E-03 0. -1.
        -11    1    3    3    0    0 -0.85455242969E+00 -0.24885293339E+01 -0.10161300581E+02  0.10496431196E+02  0.51100000000E-03 0.  1.
        -12    1    3    3    0    0  0.32141769252E+02  0.22637277063E+02  0.12005396973E+02  0.41105585994E+02  0.00000000000E+00 0.  1.
</event>
<event>
 7    1  0.5724237E-015  0.9000784E+02  0.7816164E-02  0.1186339E+00
        -11   -1    0    0    0    0  0.00000000000E+00  0.00000000000E+00  0.45593999997E+02  0.45594000000E+02  0.51100000000E-03 0. -1.
         11   -1    0    0    0    0 -0.00000000000E+00 -0.00000000000E+00 -0.45593999997E+02  0.45594000000E+02  0.51100000000E-03 0.  1.
    9900012    2    1    2    0    0 -0.17380763705E+00 -0.53995934554E+00 -0.10348951120E+01  0.90007841925E+02  0.90000104638E+02 0.  0.
         12    1    1    2    0    0  0.17380763705E+00  0.53995934554E+00  0.10348951120E+01  0.11801580752E+01  0.00000000000E+00 0. -1.
         11    1    3    3    0    0 -0.90336687421E+01 -0.32601028969E+01 -0.24859272682E+01  0.99204473934E+01  0.51100000000E-03 0. -1.
        -11    1    3    3    0    0 -0.19601208449E+02  0.25455247522E+02 -0.19970636622E+02  0.37828604606E+02  0.51100000000E-03 0.  1.
         12    1    3    3    0    0  0.28461069554E+02 -0.22735103971E+02  0.21421668778E+02  0.42258789926E+02  0.00000000000E+00 0. -1.
</event>
<event>
 7    1  0.4331547E-015  0.9000771E+02  0.7816164E-02  0.1186339E+00
        -11   -1    0    0    0    0  0.00000000000E+00  0.00000000000E+00  0.45593999997E+02  0.45594000000E+02  0.51100000000E-03 0.  1.
         11   -1    0    0    0    0 -0.00000000000E+00 -0.00000000000E+00 -0.45593999997E+02  0.45594000000E+02  0.51100000000E-03 0. -1.
    9900012    2    1    2    0    0  0.64962872116E+00 -0.84541094139E+00 -0.50631144444E+00  0.90007708335E+02  0.89999969285E+02 0.  0.
         12    1    1    2    0    0 -0.64962872116E+00  0.84541094139E+00  0.50631144444E+00  0.11802916648E+01  0.00000000000E+00 0. -1.
         11    1    3    3    0    0 -0.65782773327E+01  0.68866508151E+01  0.96708153815E+00  0.95726140148E+01  0.51100000000E-03 0. -1.
        -11    1    3    3    0    0 -0.31422088080E+02  0.79929944786E+01  0.14808525660E+02  0.35644466787E+02  0.51100000000E-03 0.  1.
         12    1    3    3    0    0  0.38649994134E+02 -0.15725056235E+02 -0.16281918643E+02  0.44790627533E+02  0.00000000000E+00 0. -1.
</event>
<event>
 7    1  0.4432289E-015  0.9000765E+02  0.7816164E-02  0.1186339E+00
        -11   -1    0    0    0    0  0.00000000000E+00  0.00000000000E+00  0.45593999997E+02  0.45594000000E+02  0.51100000000E-03 0. -1.
         11   -1    0    0    0    0 -0.00000000000E+00 -0.00000000000E+00 -0.45593999997E+02  0.45594000000E+02  0.51100000000E-03 0.  1.
    9900012    2    1    2    0    0  0.80571052635E+00  0.58125760722E+00 -0.63733899513E+00  0.90007647996E+02  0.89999908150E+02 0.  0.
         12    1    1    2    0    0 -0.80571052635E+00 -0.58125760722E+00  0.63733899513E+00  0.11803520038E+01  0.00000000000E+00 0. -1.
         11    1    3    3    0    0 -0.30270058599E+01  0.98119380114E+01  0.11512323063E+01  0.10332580902E+02  0.51100000000E-03 0. -1.
        -11    1    3    3    0    0  0.17729931557E+02  0.21210013209E+02 -0.26330363670E+02  0.38177260046E+02  0.51100000000E-03 0.  1.
         12    1    3    3    0    0 -0.13897215170E+02 -0.30440693614E+02  0.24541792369E+02  0.41497807048E+02  0.00000000000E+00 0. -1.
</event>
<event>
 7    1  0.4331547E-015  0.9000772E+02  0.7816164E-02  0.1186339E+00
        -11   -1    0    0    0    0  0.00000000000E+00  0.00000000000E+00  0.45593999997E+02  0.45594000000E+02  0.51100000000E-03 0.  1.
         11   -1    0    0    0    0 -0.00000000000E+00 -0.00000000000E+00 -0.45593999997E+02  0.45594000000E+02  0.51100000000E-03 0. -1.
    9900012    2    1    2    0    0 -0.66251537559E+00  0.97668057327E+00 -0.14822689174E-01  0.90007724067E+02  0.89999985225E+02 0.  0.
         12    1    1    2    0    0  0.66251537559E+00 -0.97668057327E+00  0.14822689174E-01  0.11802759327E+01  0.00000000000E+00 0. -1.
         11    1    3    3    0    0 -0.14995499676E+01 -0.34231017631E+02  0.73800756033E+01  0.35049632443E+02  0.51100000000E-03 0. -1.
        -11    1    3    3    0    0 -0.54421494257E+01 -0.77836665777E+01 -0.64863388693E+01  0.11501088990E+02  0.51100000000E-03 0.  1.
        -12    1    3    3    0    0  0.62791840176E+01  0.42991364782E+02 -0.90855942317E+00  0.43457002635E+02  0.00000000000E+00 0.  1.
</event>
<event>
 7    1  0.4331547E-015  0.9000775E+02  0.7816164E-02  0.1186339E+00
        -11   -1    0    0    0    0  0.00000000000E+00  0.00000000000E+00  0.45593999997E+02  0.45594000000E+02  0.51100000000E-03 0.  1.
         11   -1    0    0    0    0 -0.00000000000E+00 -0.00000000000E+00 -0.45593999997E+02  0.45594000000E+02  0.51100000000E-03 0. -1.
    9900012    2    1    2    0    0 -0.81349543865E+00  0.85499714191E+00 -0.13790856784E-01  0.90007752090E+02  0.90000013618E+02 0.  0.
         12    1    1    2    0    0  0.81349543865E+00 -0.85499714191E+00  0.13790856784E-01  0.11802479100E+01  0.00000000000E+00 0. -1.
         11    1    3    3    0    0 -0.57566016823E+01  0.14365706411E+02 -0.17352277934E+01  0.15573149950E+02  0.51100000000E-03 0. -1.
        -11    1    3    3    0    0 -0.28487746055E+02  0.11079252252E+02  0.99126209187E+01  0.32133495912E+02  0.51100000000E-03 0.  1.
        -12    1    3    3    0    0  0.33430852299E+02 -0.24589961521E+02 -0.81911839821E+01  0.42301106228E+02  0.00000000000E+00 0.  1.
</event>
<event>
 7    1  0.5885034E-015  0.9000775E+02  0.7816164E-02  0.1186339E+00
        -11   -1    0    0    0    0  0.00000000000E+00  0.00000000000E+00  0.45593999997E+02  0.45594000000E+02  0.51100000000E-03 0. -1.
         11   -1    0    0    0    0 -0.00000000000E+00 -0.00000000000E+00 -0.45593999997E+02  0.45594000000E+02  0.51100000000E-03 0.  1.
    9900012    2    1    2    0    0  0.39506862378E+00 -0.83049670518E+00 -0.73972065463E+00  0.90007749755E+02  0.90000011251E+02 0.  0.
         12    1    1    2    0    0 -0.39506862378E+00  0.83049670518E+00  0.73972065463E+00  0.11802502454E+01  0.00000000000E+00 0. -1.
         11    1    3    3    0    0  0.12481128302E+01 -0.36309348017E+00 -0.10127086886E+02  0.10210167068E+02  0.51100000000E-03 0. -1.
        -11    1    3    3    0    0 -0.10781397297E+02  0.13684886459E+02 -0.31170659995E+02  0.35708888107E+02  0.51100000000E-03 0.  1.
         12    1    3    3    0    0  0.99283530903E+01 -0.14152289684E+02  0.40558026226E+02  0.44088694579E+02  0.00000000000E+00 0. -1.
</event>
<event>
 7    1  0.4331547E-015  0.9000781E+02  0.7816164E-02  0.1186339E+00
        -11   -1    0    0    0    0  0.00000000000E+00  0.00000000000E+00  0.45593999997E+02  0.45594000000E+02  0.51100000000E-03 0.  1.
         11   -1    0    0    0    0 -0.00000000000E+00 -0.00000000000E+00 -0.45593999997E+02  0.45594000000E+02  0.51100000000E-03 0. -1.
    9900012    2    1    2    0    0 -0.19416032419E+00 -0.10317625572E+01  0.53909290972E+00  0.90007807909E+02  0.90000070174E+02 0.  0.
         12    1    1    2    0    0  0.19416032419E+00  0.10317625572E+01 -0.53909290972E+00  0.11801920909E+01  0.00000000000E+00 0. -1.
         11    1    3    3    0    0 -0.32264674583E+01  0.50011400083E+01 -0.46448538289E+01  0.75495801866E+01  0.51100000000E-03 0. -1.
        -11    1    3    3    0    0  0.29437537900E+02  0.26940323253E+02  0.48957721765E-01  0.39904286132E+02  0.51100000000E-03 0.  1.
         12    1    3    3    0    0 -0.26405230765E+02 -0.32973225819E+02  0.51349890168E+01  0.42553941590E+02  0.00000000000E+00 0. -1.
</event>
<event>
 7    1  0.4331547E-015  0.9000775E+02  0.7816164E-02  0.1186339E+00
        -11   -1    0    0    0    0  0.00000000000E+00  0.00000000000E+00  0.45593999997E+02  0.45594000000E+02  0.51100000000E-03 0.  1.
         11   -1    0    0    0    0 -0.00000000000E+00 -0.00000000000E+00 -0.45593999997E+02  0.45594000000E+02  0.51100000000E-03 0. -1.
    9900012    2    1    2    0    0 -0.29332748631E+00  0.10986218902E+01 -0.31618136761E+00  0.90007753530E+02  0.90000015077E+02 0.  0.
         12    1    1    2    0    0  0.29332748631E+00 -0.10986218902E+01  0.31618136761E+00  0.11802464696E+01  0.00000000000E+00 0. -1.
         11    1    3    3    0    0 -0.80522824144E+01  0.68443392281E+01 -0.36592646292E+02  0.38088134562E+02  0.51100000000E-03 0. -1.
        -11    1    3    3    0    0 -0.65418336763E+01 -0.57980785548E+00 -0.47899276220E+01  0.81286635976E+01  0.51100000000E-03 0.  1.
        -12    1    3    3    0    0  0.14300788604E+02 -0.51659094825E+01  0.41066392546E+02  0.43790955370E+02  0.00000000000E+00 0.  1.
</event>
<event>
 7    1  0.4331547E-015  0.9000775E+02  0.7816164E-02  0.1186339E+00
        -11   -1    0    0    0    0  0.00000000000E+00  0.00000000000E+00  0.45593999997E+02  0.45594000000E+02  0.51100000000E-03 0. -1.
         11   -1    0    0    0    0 -0.00000000000E+00 -0.00000000000E+00 -0.45593999997E+02  0.45594000000E+02  0.51100000000E-03 0.  1.
    9900012    2    1    2    0    0 -0.68454634827E+00  0.96142189659E+00  0.70376573955E-02  0.90007752020E+02  0.90000013546E+02 0.  0.
         12    1    1    2    0    0  0.68454634827E+00 -0.96142189659E+00 -0.70376573955E-02  0.11802479802E+01  0.00000000000E+00 0. -1.
         11    1    3    3    0    0  0.84983242861E+01  0.34359687161E+02 -0.14500714232E+02  0.38250233084E+02  0.51100000000E-03 0. -1.
        -11    1    3    3    0    0  0.50720925584E+01  0.40384082529E+01  0.93357222431E+01  0.11366203157E+02  0.51100000000E-03 0.  1.
        -12    1    3    3    0    0 -0.14254963193E+02 -0.37436673518E+02  0.51720296464E+01  0.40391315779E+02  0.00000000000E+00 0.  1.
</event>
<event>
 7    1  0.4331547E-015  0.9000776E+02  0.7816164E-02  0.1186339E+00
        -11   -1    0    0    0    0  0.00000000000E+00  0.00000000000E+00  0.45593999997E+02  0.45594000000E+02  0.51100000000E-03 0. -1.
         11   -1    0    0    0    0 -0.00000000000E+00 -0.00000000000E+00 -0.45593999997E+02  0.45594000000E+02  0.51100000000E-03 0.  1.
    9900012    2    1    2    0    0  0.67731924393E+00  0.55536637355E+00 -0.79106384758E+00  0.90007756306E+02  0.90000017889E+02 0.  0.
         12    1    1    2    0    0 -0.67731924393E+00 -0.55536637355E+00  0.79106384758E+00  0.11802436943E+01  0.00000000000E+00 0. -1.
         11    1    3    3    0    0  0.14648637507E+01 -0.16529475870E+01  0.89017765385E+01  0.91716785452E+01  0.51100000000E-03 0. -1.
        -11    1    3    3    0    0 -0.18453246798E+02 -0.34691120652E+02 -0.33380375552E+01  0.39435246474E+02  0.51100000000E-03 0.  1.
         12    1    3    3    0    0  0.17665702291E+02  0.36899434613E+02 -0.63548028310E+01  0.41400831286E+02  0.00000000000E+00 0. -1.
</event>
<event>
 7    1  0.4331547E-015  0.9000778E+02  0.7816164E-02  0.1186339E+00
        -11   -1    0    0    0    0  0.00000000000E+00  0.00000000000E+00  0.45593999997E+02  0.45594000000E+02  0.51100000000E-03 0.  1.
         11   -1    0    0    0    0 -0.00000000000E+00 -0.00000000000E+00 -0.45593999997E+02  0.45594000000E+02  0.51100000000E-03 0. -1.
    9900012    2    1    2    0    0 -0.10118470752E+01  0.35174062972E+00  0.49533672859E+00  0.90007782033E+02  0.90000043956E+02 0.  0.
         12    1    1    2    0    0  0.10118470752E+01 -0.35174062972E+00 -0.49533672859E+00  0.11802179667E+01  0.00000000000E+00 0. -1.
         11    1    3    3    0    0 -0.36548761242E+02 -0.10898593417E+00 -0.21099609907E+02  0.42202101426E+02  0.51100000000E-03 0. -1.
        -11    1    3    3    0    0 -0.36557096363E+00  0.28439379725E+01  0.93782419157E+01  0.98067857635E+01  0.51100000000E-03 0.  1.
        -12    1    3    3    0    0  0.35902485131E+02 -0.23832114086E+01  0.12216704719E+02  0.37998894844E+02  0.00000000000E+00 0.  1.
</event>
<event>
 7    1  0.4331547E-015  0.9000786E+02  0.7816164E-02  0.1186339E+00
        -11   -1    0    0    0    0  0.00000000000E+00  0.00000000000E+00  0.45593999997E+02  0.45594000000E+02  0.51100000000E-03 0. -1.
         11   -1    0    0    0    0 -0.00000000000E+00 -0.00000000000E+00 -0.45593999997E+02  0.45594000000E+02  0.51100000000E-03 0.  1.
    9900012    2    1    2    0    0 -0.74661453702E+00 -0.21763342915E+00 -0.88765482479E+00  0.90007860744E+02  0.90000123705E+02 0.  0.
         12    1    1    2    0    0  0.74661453702E+00  0.21763342915E+00  0.88765482479E+00  0.11801392563E+01  0.00000000000E+00 0. -1.
         11    1    3    3    0    0 -0.39432539648E+02 -0.93003054638E+01  0.94975437350E+01  0.41612788925E+02  0.51100000000E-03 0. -1.
        -11    1    3    3    0    0  0.50722120469E+01  0.85394290869E+01  0.53446852765E+01  0.11278955853E+02  0.51100000000E-03 0.  1.
        -12    1    3    3    0    0  0.33613713064E+02  0.54324294773E+00 -0.15729883836E+02  0.37116115966E+02  0.00000000000E+00 0.  1.
</event>
<event>
 7    1  0.4331547E-015  0.9000776E+02  0.7816164E-02  0.1186339E+00
        -11   -1    0    0    0    0  0.00000000000E+00  0.00000000000E+00  0.45593999997E+02  0.45594000000E+02  0.51100000000E-03 0. -1.
         11   -1    0    0    0    0 -0.00000000000E+00 -0.00000000000E+00 -0.45593999997E+02  0.45594000000E+02  0.51100000000E-03 0.  1.
    9900012    2    1    2    0    0 -0.47832651130E+00 -0.73004364079E+00  0.79448624840E+00  0.90007759191E+02  0.90000020812E+02 0.  0.
         12    1    1    2    0    0  0.47832651130E+00  0.73004364079E+00 -0.79448624840E+00  0.11802408092E+01  0.00000000000E+00 0. -1.
         11    1    3    3    0    0 -0.66805684345E+01  0.55089504544E+01 -0.20434685140E+01  0.88968698735E+01  0.51100000000E-03 0. -1.
        -11    1    3    3    0    0 -0.16670119150E+02  0.31834863309E+02 -0.40548668582E+01  0.36163425445E+02  0.51100000000E-03 0.  1.
         12    1    3    3    0    0  0.22872361073E+02 -0.38073857404E+02  0.68928216206E+01  0.44947463873E+02  0.00000000000E+00 0. -1.
</event>
<event>
 7    1  0.4331547E-015  0.9000777E+02  0.7816164E-02  0.1186339E+00
        -11   -1    0    0    0    0  0.00000000000E+00  0.00000000000E+00  0.45593999997E+02  0.45594000000E+02  0.51100000000E-03 0. -1.
         11   -1    0    0    0    0 -0.00000000000E+00 -0.00000000000E+00 -0.45593999997E+02  0.45594000000E+02  0.51100000000E-03 0.  1.
    9900012    2    1    2    0    0 -0.47633548902E+00  0.60089644318E+00 -0.89720438429E+00  0.90007767929E+02  0.90000029666E+02 0.  0.
         12    1    1    2    0    0  0.47633548902E+00 -0.60089644318E+00  0.89720438429E+00  0.11802320707E+01  0.00000000000E+00 0. -1.
         11    1    3    3    0    0 -0.17948219133E+02 -0.31178179155E+02 -0.14799691331E+02  0.38900492146E+02  0.51100000000E-03 0. -1.
        -11    1    3    3    0    0 -0.33143135371E+01  0.58554218017E+01 -0.86425467673E+01  0.10952819435E+02  0.51100000000E-03 0.  1.
        -12    1    3    3    0    0  0.20786197181E+02  0.25923653796E+02  0.22545033714E+02  0.40154456348E+02  0.00000000000E+00 0.  1.
</event>
<event>
 7    1  0.4331547E-015  0.9000766E+02  0.7816164E-02  0.1186339E+00
        -11   -1    0    0    0    0  0.00000000000E+00  0.00000000000E+00  0.45593999997E+02  0.45594000000E+02  0.51100000000E-03 0.  1.
         11   -1    0    0    0    0 -0.00000000000E+00 -0.00000000000E+00 -0.45593999997E+02  0.45594000000E+02  0.51100000000E-03 0. -1.
    9900012    2    1    2    0    0 -0.38261004729E+00 -0.10184695440E+01  0.45774420393E+00  0.90007660889E+02  0.89999921213E+02 0.  0.
         12    1    1    2    0    0  0.38261004729E+00  0.10184695440E+01 -0.45774420393E+00  0.11803391109E+01  0.00000000000E+00 0. -1.
         11    1    3    3    0    0  0.82794555181E+01  0.34944667078E+02 -0.60598013174E+01  0.36419779422E+02  0.51100000000E-03 0. -1.
        -11    1    3    3    0    0 -0.17860531479E+01  0.76771434041E+01  0.50966305893E+01  0.93863816415E+01  0.51100000000E-03 0.  1.
        -12    1    3    3    0    0 -0.68760124175E+01 -0.43640280027E+02  0.14209149320E+01  0.44201499825E+02  0.00000000000E+00 0.  1.
</event>
<event>
 7    1  0.4331547E-015  0.9000782E+02  0.7816164E-02  0.1186339E+00
        -11   -1    0    0    0    0  0.00000000000E+00  0.00000000000E+00  0.45593999997E+02  0.45594000000E+02  0.51100000000E-03 0.  1.
         11   -1    0    0    0    0 -0.00000000000E+00 -0.00000000000E+00 -0.45593999997E+02  0.45594000000E+02  0.51100000000E-03 0. -1.
    9900012    2    1    2    0    0  0.37184394844E+00  0.81672555183E+00  0.76650081657E+00  0.90007816942E+02  0.90000079325E+02 0.  0.
         12    1    1    2    0    0 -0.37184394844E+00 -0.81672555183E+00 -0.76650081657E+00  0.11801830582E+01  0.00000000000E+00 0. -1.
         11    1    3    3    0    0  0.43650293766E+02  0.72505976266E+01 -0.45907877577E+00  0.44250763444E+02  0.51100000000E-03 0. -1.
        -11    1    3    3    0    0 -0.90421820103E+01 -0.51839570945E+00  0.57380112938E+01  0.10721686597E+02  0.51100000000E-03 0.  1.
        -12    1    3    3    0    0 -0.34236267807E+02 -0.59154763653E+01 -0.45124317014E+01  0.35035366901E+02  0.00000000000E+00 0.  1.
</event>
<event>
 7    1  0.4331547E-015  0.9000771E+02  0.7816164E-02  0.1186339E+00
        -11   -1    0    0    0    0  0.00000000000E+00  0.00000000000E+00  0.45593999997E+02  0.45594000000E+02  0.51100000000E-03 0. -1.
         11   -1    0    0    0    0 -0.00000000000E+00 -0.00000000000E+00 -0.45593999997E+02  0.45594000000E+02  0.51100000000E-03 0.  1.
    9900012    2    1    2    0    0 -0.10000355051E+00  0.74807400244E+00 -0.90745635308E+00  0.90007706623E+02  0.89999967550E+02 0.  0.
         12    1    1    2    0    0  0.10000355051E+00 -0.74807400244E+00  0.90745635308E+00  0.11802933771E+01  0.00000000000E+00 0. -1.
         11    1    3    3    0    0  0.36574012357E+01  0.50858372576E+01  0.87148730023E+01  0.10732722680E+02  0.51100000000E-03 0. -1.
        -11    1    3    3    0    0 -0.94612312439E+01  0.35989093878E+02  0.85100531491E+00  0.37221687026E+02  0.51100000000E-03 0.  1.
         12    1    3    3    0    0  0.57038264577E+01 -0.40326857133E+02 -0.10473334670E+02  0.42053296917E+02  0.00000000000E+00 0. -1.
</event>
<event>
 7    1  0.4331547E-015  0.9000774E+02  0.7816164E-02  0.1186339E+00
        -11   -1    0    0    0    0  0.00000000000E+00  0.00000000000E+00  0.45593999997E+02  0.45594000000E+02  0.51100000000E-03 0. -1.
         11   -1    0    0    0    0 -0.00000000000E+00 -0.00000000000E+00 -0.45593999997E+02  0.45594000000E+02  0.51100000000E-03 0.  1.
    9900012    2    1    2    0    0  0.74470134802E+00 -0.29319375321E+00 -0.86745571376E+00  0.90007736432E+02  0.89999997753E+02 0.  0.
         12    1    1    2    0    0 -0.74470134802E+00  0.29319375321E+00  0.86745571376E+00  0.11802635680E+01  0.00000000000E+00 0. -1.
         11    1    3    3    0    0 -0.11323108428E+02 -0.11385828740E+02  0.81808146925E+01  0.18021531840E+02  0.51100000000E-03 0. -1.
        -11    1    3    3    0    0 -0.11896426898E+02 -0.24993582309E+02 -0.73257586622E+01  0.28633387327E+02  0.51100000000E-03 0.  1.
         12    1    3    3    0    0  0.23964236674E+02  0.36086217296E+02 -0.17225117440E+01  0.43352817265E+02  0.00000000000E+00 0. -1.
</event>
<event>
 7    1  0.4331547E-015  0.9000773E+02  0.7816164E-02  0.1186339E+00
        -11   -1    0    0    0    0  0.00000000000E+00  0.00000000000E+00  0.45593999997E+02  0.45594000000E+02  0.51100000000E-03 0. -1.
         11   -1    0    0    0    0 -0.00000000000E+00 -0.00000000000E+00 -0.45593999997E+02  0.45594000000E+02  0.51100000000E-03 0.  1.
    9900012    2    1    2    0    0  0.26843976145E+00 -0.77546913303E-01 -0.11467140966E+01  0.90007734501E+02  0.89999995796E+02 0.  0.
         12    1    1    2    0    0 -0.26843976145E+00  0.77546913303E-01  0.11467140966E+01  0.11802654992E+01  0.00000000000E+00 0. -1.
         11    1    3    3    0    0  0.20593011363E+02  0.27202939377E+02 -0.22550493535E+02  0.40897393397E+02  0.51100000000E-03 0. -1.
        -11    1    3    3    0    0  0.67078247554E+01 -0.70290084389E+01  0.12979819354E+01  0.98023787904E+01  0.51100000000E-03 0.  1.
        -12    1    3    3    0    0 -0.27032396357E+02 -0.20251477851E+02  0.20105797503E+02  0.39307962313E+02  0.00000000000E+00 0.  1.
</event>
<event>
 7    1  0.4331547E-015  0.9000772E+02  0.7816164E-02  0.1186339E+00
        -11   -1    0    0    0    0  0.00000000000E+00  0.00000000000E+00  0.45593999997E+02  0.45594000000E+02  0.51100000000E-03 0. -1.
         11   -1    0    0    0    0 -0.00000000000E+00 -0.00000000000E+00 -0.45593999997E+02  0.45594000000E+02  0.51100000000E-03 0.  1.
    9900012    2    1    2    0    0 -0.30106913138E+00  0.29233695812E+00  0.11031569810E+01  0.90007720862E+02  0.89999981977E+02 0.  0.
         12    1    1    2    0    0  0.30106913138E+00 -0.29233695812E+00 -0.11031569810E+01  0.11802791380E+01  0.00000000000E+00 0. -1.
         11    1    3    3    0    0  0.27548391822E+02  0.35205426916E+01  0.23657938998E+02  0.36482957538E+02  0.51100000000E-03 0. -1.
        -11    1    3    3    0    0  0.64042853845E+01 -0.58586105316E+01  0.45177253385E+01  0.97850922909E+01  0.51100000000E-03 0.  1.
        -12    1    3    3    0    0 -0.34253746338E+02  0.26304047981E+01 -0.27072507355E+02  0.43739671033E+02  0.00000000000E+00 0.  1.
</event>
<event>
 7    1  0.4331547E-015  0.9000769E+02  0.7816164E-02  0.1186339E+00
        -11   -1    0    0    0    0  0.00000000000E+00  0.00000000000E+00  0.45593999997E+02  0.45594000000E+02  0.51100000000E-03 0. -1.
         11   -1    0    0    0    0 -0.00000000000E+00 -0.00000000000E+00 -0.45593999997E+02  0.45594000000E+02  0.51100000000E-03 0.  1.
    9900012    2    1    2    0    0  0.52496543548E+00  0.95477411504E+00  0.45381476175E+00  0.90007690652E+02  0.89999951369E+02 0.  0.
         12    1    1    2    0    0 -0.52496543548E+00 -0.95477411504E+00 -0.45381476175E+00  0.11803093481E+01  0.00000000000E+00 0. -1.
         11    1    3    3    0    0 -0.46849006632E+01  0.36596640915E+02  0.40460639859E+01  0.37116479555E+02  0.51100000000E-03 0. -1.
        -11    1    3    3    0    0 -0.12408509490E+02 -0.51461834404E+00 -0.54208797525E+01  0.13550715013E+02  0.51100000000E-03 0.  1.
        -12    1    3    3    0    0  0.17618375589E+02 -0.35127248456E+02  0.18286305283E+01  0.39340496084E+02  0.00000000000E+00 0.  1.
</event>
<event>
 7    1  0.4331547E-015  0.9000766E+02  0.7816164E-02  0.1186339E+00
        -11   -1    0    0    0    0  0.00000000000E+00  0.00000000000E+00  0.45593999997E+02  0.45594000000E+02  0.51100000000E-03 0. -1.
         11   -1    0    0    0    0 -0.00000000000E+00 -0.00000000000E+00 -0.45593999997E+02  0.45594000000E+02  0.51100000000E-03 0.  1.
    9900012    2    1    2    0    0  0.12756414570E+00  0.11348245334E+01 -0.29849852526E+00  0.90007660768E+02  0.89999921090E+02 0.  0.
         12    1    1    2    0    0 -0.12756414570E+00 -0.11348245334E+01  0.29849852526E+00  0.11803392320E+01  0.00000000000E+00 0. -1.
         11    1    3    3    0    0  0.81842013693E+01  0.20916062037E+01 -0.18240581036E+01  0.86419417257E+01  0.51100000000E-03 0. -1.
        -11    1    3    3    0    0 -0.18640762455E+02  0.36667071956E+02 -0.59847245225E+01  0.41566442217E+02  0.51100000000E-03 0.  1.
         12    1    3    3    0    0  0.10584125231E+02 -0.37623853626E+02  0.75102841009E+01  0.39799276826E+02  0.00000000000E+00 0. -1.
</event>
<event>
 7    1  0.4331547E-015  0.9000781E+02  0.7816164E-02  0.1186339E+00
        -11   -1    0    0    0    0  0.00000000000E+00  0.00000000000E+00  0.45593999997E+02  0.45594000000E+02  0.51100000000E-03 0.  1.
         11   -1    0    0    0    0 -0.00000000000E+00 -0.00000000000E+00 -0.45593999997E+02  0.45594000000E+02  0.51100000000E-03 0. -1.
    9900012    2    1    2    0    0 -0.83294250987E+00 -0.65627543796E+00  0.51804219574E+00  0.90007805782E+02  0.90000068018E+02 0.  0.
         12    1    1    2    0    0  0.83294250987E+00  0.65627543796E+00 -0.51804219574E+00  0.11801942178E+01  0.00000000000E+00 0. -1.
         11    1    3    3    0    0  0.49435558791E+01  0.68909808570E+01 -0.16212261068E+01  0.86343926394E+01  0.51100000000E-03 0. -1.
        -11    1    3    3    0    0  0.29421988965E+02  0.91794676774E+01  0.21773600128E+02  0.37736000375E+02  0.51100000000E-03 0.  1.
         12    1    3    3    0    0 -0.35198487354E+02 -0.16726723972E+02 -0.19634331825E+02  0.43637412768E+02  0.00000000000E+00 0. -1.
</event>
<event>
 7    1  0.4331547E-015  0.9000776E+02  0.7816164E-02  0.1186339E+00
        -11   -1    0    0    0    0  0.00000000000E+00  0.00000000000E+00  0.45593999997E+02  0.45594000000E+02  0.51100000000E-03 0.  1.
         11   -1    0    0    0    0 -0.00000000000E+00 -0.00000000000E+00 -0.45593999997E+02  0.45594000000E+02  0.51100000000E-03 0. -1.
    9900012    2    1    2    0    0 -0.86993524300E+00 -0.34264402193E+00  0.72025489525E+00  0.90007763004E+02  0.90000024676E+02 0.  0.
         12    1    1    2    0    0  0.86993524300E+00  0.34264402193E+00 -0.72025489525E+00  0.11802369961E+01  0.00000000000E+00 0. -1.
         11    1    3    3    0    0 -0.59877228323E+01 -0.31968980188E+02 -0.23556217691E+02  0.40159231954E+02  0.51100000000E-03 0. -1.
        -11    1    3    3    0    0  0.78078008753E+00 -0.48920061470E+01  0.84873774610E+01  0.98273556013E+01  0.51100000000E-03 0.  1.
        -12    1    3    3    0    0  0.43370075017E+01  0.36518342314E+02  0.15789095125E+02  0.40021175448E+02  0.00000000000E+00 0.  1.
</event>
<event>
 7    1  0.4331547E-015  0.9000777E+02  0.7816164E-02  0.1186339E+00
        -11   -1    0    0    0    0  0.00000000000E+00  0.00000000000E+00  0.45593999997E+02  0.45594000000E+02  0.51100000000E-03 0. -1.
         11   -1    0    0    0    0 -0.00000000000E+00 -0.00000000000E+00 -0.45593999997E+02  0.45594000000E+02  0.51100000000E-03 0.  1.
    9900012    2    1    2    0    0 -0.95856209916E+00 -0.88939688349E-01  0.68277609295E+00  0.90007773429E+02  0.90000035238E+02 0.  0.
         12    1    1    2    0    0  0.95856209916E+00  0.88939688349E-01 -0.68277609295E+00  0.11802265711E+01  0.00000000000E+00 0. -1.
         11    1    3    3    0    0  0.47368716281E+00  0.67467280862E+01 -0.47955198375E+01  0.82909426587E+01  0.51100000000E-03 0. -1.
        -11    1    3    3    0    0  0.14290176053E+02  0.74291837787E+01 -0.33590849165E+02  0.37252477114E+02  0.51100000000E-03 0.  1.
         12    1    3    3    0    0 -0.15722425315E+02 -0.14264851553E+02  0.39069145095E+02  0.44464353656E+02  0.00000000000E+00 0. -1.
</event>
<event>
 7    1  0.4331547E-015  0.9000761E+02  0.7816164E-02  0.1186339E+00
        -11   -1    0    0    0    0  0.00000000000E+00  0.00000000000E+00  0.45593999997E+02  0.45594000000E+02  0.51100000000E-03 0.  1.
         11   -1    0    0    0    0 -0.00000000000E+00 -0.00000000000E+00 -0.45593999997E+02  0.45594000000E+02  0.51100000000E-03 0. -1.
    9900012    2    1    2    0    0  0.23090724518E+00 -0.41118875516E+00  0.10820939623E+01  0.90007609517E+02  0.89999869163E+02 0.  0.
         12    1    1    2    0    0 -0.23090724518E+00  0.41118875516E+00 -0.10820939623E+01  0.11803904827E+01  0.00000000000E+00 0. -1.
         11    1    3    3    0    0  0.35778854621E+02 -0.11590062934E+02 -0.78600366933E+01  0.38421818982E+02  0.51100000000E-03 0. -1.
        -11    1    3    3    0    0  0.15221538466E+01  0.19463047397E+01 -0.90336045974E+01  0.93654186642E+01  0.51100000000E-03 0.  1.
        -12    1    3    3    0    0 -0.37070101222E+02  0.92325694395E+01  0.17975735253E+02  0.42220371871E+02  0.00000000000E+00 0.  1.
</event>
<event>
 7    1  0.4331547E-015  0.9000773E+02  0.7816164E-02  0.1186339E+00
        -11   -1    0    0    0    0  0.00000000000E+00  0.00000000000E+00  0.45593999997E+02  0.45594000000E+02  0.51100000000E-03 0.  1.
         11   -1    0    0    0    0 -0.00000000000E+00 -0.00000000000E+00 -0.45593999997E+02  0.45594000000E+02  0.51100000000E-03 0. -1.
    9900012    2    1    2    0    0 -0.11035994895E+01  0.20667347732E+00  0.36387031750E+00  0.90007725724E+02  0.89999986903E+02 0.  0.
         12    1    1    2    0    0  0.11035994895E+01 -0.20667347732E+00 -0.36387031750E+00  0.11802742763E+01  0.00000000000E+00 0. -1.
         11    1    3    3    0    0 -0.17829596052E+02  0.28841414758E+02  0.12353784084E+02  0.36087916011E+02  0.51100000000E-03 0. -1.
        -11    1    3    3    0    0 -0.18715576587E+01  0.95485126273E+01 -0.47791203568E+01  0.10840517197E+02  0.51100000000E-03 0.  1.
        -12    1    3    3    0    0  0.18597554221E+02 -0.38183253908E+02 -0.72107934097E+01  0.43079292515E+02  0.00000000000E+00 0.  1.
</event>
<event>
 7    1  0.4331547E-015  0.9000773E+02  0.7816164E-02  0.1186339E+00
        -11   -1    0    0    0    0  0.00000000000E+00  0.00000000000E+00  0.45593999997E+02  0.45594000000E+02  0.51100000000E-03 0. -1.
         11   -1    0    0    0    0 -0.00000000000E+00 -0.00000000000E+00 -0.45593999997E+02  0.45594000000E+02  0.51100000000E-03 0.  1.
    9900012    2    1    2    0    0  0.88587345566E+00 -0.43109199667E+00 -0.64993375128E+00  0.90007734788E+02  0.89999996087E+02 0.  0.
         12    1    1    2    0    0 -0.88587345566E+00  0.43109199667E+00  0.64993375128E+00  0.11802652118E+01  0.00000000000E+00 0. -1.
         11    1    3    3    0    0 -0.48770111536E+01 -0.70331996939E+01  0.27749274836E+02  0.29039169925E+02  0.51100000000E-03 0. -1.
        -11    1    3    3    0    0  0.18961610309E+02 -0.24040420909E+01  0.83789375606E+01  0.20869323870E+02  0.51100000000E-03 0.  1.
         12    1    3    3    0    0 -0.13198725700E+02  0.90061497882E+01 -0.36778146148E+02  0.40099240993E+02  0.00000000000E+00 0. -1.
</event>
<event>
 7    1  0.4331547E-015  0.9000772E+02  0.7816164E-02  0.1186339E+00
        -11   -1    0    0    0    0  0.00000000000E+00  0.00000000000E+00  0.45593999997E+02  0.45594000000E+02  0.51100000000E-03 0.  1.
         11   -1    0    0    0    0 -0.00000000000E+00 -0.00000000000E+00 -0.45593999997E+02  0.45594000000E+02  0.51100000000E-03 0. -1.
    9900012    2    1    2    0    0  0.54727464388E+00  0.99471143092E+00 -0.32266116287E+00  0.90007715885E+02  0.89999976934E+02 0.  0.
         12    1    1    2    0    0 -0.54727464388E+00 -0.99471143092E+00  0.32266116287E+00  0.11802841152E+01  0.00000000000E+00 0. -1.
         11    1    3    3    0    0 -0.27757001833E+01  0.56511628900E+00  0.75647513662E+01  0.80777058266E+01  0.51100000000E-03 0. -1.
        -11    1    3    3    0    0 -0.73805450039E+01 -0.28568939628E+02  0.23616496234E+02  0.37794121906E+02  0.51100000000E-03 0.  1.
         12    1    3    3    0    0  0.10703519831E+02  0.28998534770E+02 -0.31503908763E+02  0.44135888152E+02  0.00000000000E+00 0. -1.
</event>
<event>
 7    1  0.4331547E-015  0.9000784E+02  0.7816164E-02  0.1186339E+00
        -11   -1    0    0    0    0  0.00000000000E+00  0.00000000000E+00  0.45593999997E+02  0.45594000000E+02  0.51100000000E-03 0.  1.
         11   -1    0    0    0    0 -0.00000000000E+00 -0.00000000000E+00 -0.45593999997E+02  0.45594000000E+02  0.51100000000E-03 0. -1.
    9900012    2    1    2    0    0 -0.34903208473E+00 -0.10130756717E+01  0.49459761157E+00  0.90007842167E+02  0.90000104884E+02 0.  0.
         12    1    1    2    0    0  0.34903208473E+00  0.10130756717E+01 -0.49459761157E+00  0.11801578327E+01  0.00000000000E+00 0. -1.
         11    1    3    3    0    0  0.12540445241E+02  0.24071691019E+02 -0.25102890950E+02  0.36971126703E+02  0.51100000000E-03 0. -1.
        -11    1    3    3    0    0 -0.21271984341E+01 -0.17407932569E+01 -0.92978291383E+01  0.96956155703E+01  0.51100000000E-03 0.  1.
        -12    1    3    3    0    0 -0.10762278892E+02 -0.23343973434E+02  0.34895317700E+02  0.43341099894E+02  0.00000000000E+00 0.  1.
</event>
<event>
 7    1  0.4331547E-015  0.9000786E+02  0.7816164E-02  0.1186339E+00
        -11   -1    0    0    0    0  0.00000000000E+00  0.00000000000E+00  0.45593999997E+02  0.45594000000E+02  0.51100000000E-03 0.  1.
         11   -1    0    0    0    0 -0.00000000000E+00 -0.00000000000E+00 -0.45593999997E+02  0.45594000000E+02  0.51100000000E-03 0. -1.
    9900012    2    1    2    0    0  0.93557019526E+00  0.67055292800E+00 -0.26038653236E+00  0.90007858498E+02  0.90000121430E+02 0.  0.
         12    1    1    2    0    0 -0.93557019526E+00 -0.67055292800E+00  0.26038653236E+00  0.11801415024E+01  0.00000000000E+00 0. -1.
         11    1    3    3    0    0 -0.46296812716E+01 -0.22725949796E+02 -0.19469867498E+02  0.30281652589E+02  0.51100000000E-03 0. -1.
        -11    1    3    3    0    0  0.10423664990E+02 -0.13086036704E+01 -0.14342010977E+02  0.17778034608E+02  0.51100000000E-03 0.  1.
        -12    1    3    3    0    0 -0.48584135235E+01  0.24705106395E+02  0.33551491943E+02  0.41948171301E+02  0.00000000000E+00 0.  1.
</event>
<event>
 7    1  0.4331547E-015  0.9000774E+02  0.7816164E-02  0.1186339E+00
        -11   -1    0    0    0    0  0.00000000000E+00  0.00000000000E+00  0.45593999997E+02  0.45594000000E+02  0.51100000000E-03 0.  1.
         11   -1    0    0    0    0 -0.00000000000E+00 -0.00000000000E+00 -0.45593999997E+02  0.45594000000E+02  0.51100000000E-03 0. -1.
    9900012    2    1    2    0    0  0.11712467369E+01  0.11564943593E+00 -0.88390059691E-01  0.90007743031E+02  0.90000004439E+02 0.  0.
         12    1    1    2    0    0 -0.11712467369E+01 -0.11564943593E+00  0.88390059691E-01  0.11802569692E+01  0.00000000000E+00 0. -1.
         11    1    3    3    0    0  0.28996537911E+02 -0.23055450510E+02 -0.15777986019E+02  0.40265343065E+02  0.51100000000E-03 0. -1.
        -11    1    3    3    0    0 -0.46890899063E+01  0.47515611502E+00 -0.82147234223E+01  0.94707454115E+01  0.51100000000E-03 0.  1.
        -12    1    3    3    0    0 -0.23136201268E+02  0.22695943831E+02  0.23904319381E+02  0.40271654555E+02  0.00000000000E+00 0.  1.
</event>
<event>
 7    1  0.4331547E-015  0.9000768E+02  0.7816164E-02  0.1186339E+00
        -11   -1    0    0    0    0  0.00000000000E+00  0.00000000000E+00  0.45593999997E+02  0.45594000000E+02  0.51100000000E-03 0. -1.
         11   -1    0    0    0    0 -0.00000000000E+00 -0.00000000000E+00 -0.45593999997E+02  0.45594000000E+02  0.51100000000E-03 0.  1.
    9900012    2    1    2    0    0 -0.10281822940E+01  0.57425161408E+00  0.78898424577E-01  0.90007682794E+02  0.89999943407E+02 0.  0.
         12    1    1    2    0    0  0.10281822940E+01 -0.57425161408E+00 -0.78898424577E-01  0.11803172063E+01  0.00000000000E+00 0. -1.
         11    1    3    3    0    0  0.38532589433E+01  0.49499161198E+00 -0.72882224142E+01  0.82589834362E+01  0.51100000000E-03 0. -1.
        -11    1    3    3    0    0  0.31221440255E+02  0.12999179942E+02 -0.15392801013E+02  0.37157708945E+02  0.51100000000E-03 0.  1.
         12    1    3    3    0    0 -0.36102881492E+02 -0.12919919940E+02  0.22759921851E+02  0.44590990413E+02  0.00000000000E+00 0. -1.
</event>
<event>
 7    1  0.4460663E-015  0.9000796E+02  0.7816164E-02  0.1186339E+00
        -11   -1    0    0    0    0  0.00000000000E+00  0.00000000000E+00  0.45593999997E+02  0.45594000000E+02  0.51100000000E-03 0. -1.
         11   -1    0    0    0    0 -0.00000000000E+00 -0.00000000000E+00 -0.45593999997E+02  0.45594000000E+02  0.51100000000E-03 0.  1.
    9900012    2    1    2    0    0  0.11021965406E+00 -0.11018847081E+01 -0.40766030974E+00  0.90007963895E+02  0.90000228218E+02 0.  0.
         12    1    1    2    0    0 -0.11021965406E+00  0.11018847081E+01  0.40766030974E+00  0.11800361054E+01  0.00000000000E+00 0. -1.
         11    1    3    3    0    0 -0.12088756459E+02  0.13287576212E+02  0.36797273166E+02  0.40947979523E+02  0.51100000000E-03 0. -1.
        -11    1    3    3    0    0  0.59637654709E+01 -0.82722233197E+01  0.64209706727E+00  0.10218046102E+02  0.51100000000E-03 0.  1.
        -12    1    3    3    0    0  0.62352106417E+01 -0.61172376001E+01 -0.37847030543E+02  0.38841938269E+02  0.00000000000E+00 0.  1.
</event>
<event>
 7    1  0.4331547E-015  0.9000770E+02  0.7816164E-02  0.1186339E+00
        -11   -1    0    0    0    0  0.00000000000E+00  0.00000000000E+00  0.45593999997E+02  0.45594000000E+02  0.51100000000E-03 0.  1.
         11   -1    0    0    0    0 -0.00000000000E+00 -0.00000000000E+00 -0.45593999997E+02  0.45594000000E+02  0.51100000000E-03 0. -1.
    9900012    2    1    2    0    0  0.89348361102E+00  0.77073751253E+00  0.27542757727E-01  0.90007700089E+02  0.89999960930E+02 0.  0.
         12    1    1    2    0    0 -0.89348361102E+00 -0.77073751253E+00 -0.27542757727E-01  0.11802999110E+01  0.00000000000E+00 0. -1.
         11    1    3    3    0    0  0.13915628507E+02  0.11756299604E+02  0.15816265114E+02  0.24124873876E+02  0.51100000000E-03 0. -1.
        -11    1    3    3    0    0 -0.59575241606E+01 -0.71490150127E+01  0.23764132954E+02  0.25521256338E+02  0.51100000000E-03 0.  1.
         12    1    3    3    0    0 -0.70646207350E+01 -0.38365470785E+01 -0.39552855310E+02  0.40361569875E+02  0.00000000000E+00 0. -1.
</event>
<event>
 7    1  0.4331547E-015  0.9000777E+02  0.7816164E-02  0.1186339E+00
        -11   -1    0    0    0    0  0.00000000000E+00  0.00000000000E+00  0.45593999997E+02  0.45594000000E+02  0.51100000000E-03 0. -1.
         11   -1    0    0    0    0 -0.00000000000E+00 -0.00000000000E+00 -0.45593999997E+02  0.45594000000E+02  0.51100000000E-03 0.  1.
    9900012    2    1    2    0    0  0.17941726055E+00  0.72595108870E-01 -0.11642500303E+01  0.90007771744E+02  0.90000033531E+02 0.  0.
         12    1    1    2    0    0 -0.17941726055E+00 -0.72595108870E-01  0.11642500303E+01  0.11802282560E+01  0.00000000000E+00 0. -1.
         11    1    3    3    0    0 -0.25594026695E+02 -0.44671173757E+01  0.26974795933E+02  0.37451955303E+02  0.51100000000E-03 0. -1.
        -11    1    3    3    0    0 -0.81672475304E+01  0.32310915623E+01 -0.55601451874E+00  0.88007407252E+01  0.51100000000E-03 0.  1.
        -12    1    3    3    0    0  0.33940691486E+02  0.13086209223E+01 -0.27583031444E+02  0.43755075716E+02  0.00000000000E+00 0.  1.
</event>
<event>
 7    1  0.4331547E-015  0.9000797E+02  0.7816164E-02  0.1186339E+00
        -11   -1    0    0    0    0  0.00000000000E+00  0.00000000000E+00  0.45593999997E+02  0.45594000000E+02  0.51100000000E-03 0. -1.
         11   -1    0    0    0    0 -0.00000000000E+00 -0.00000000000E+00 -0.45593999997E+02  0.45594000000E+02  0.51100000000E-03 0.  1.
    9900012    2    1    2    0    0 -0.41009048901E+00 -0.35372170136E+00 -0.10484131790E+01  0.90007973117E+02  0.90000237562E+02 0.  0.
         12    1    1    2    0    0  0.41009048901E+00  0.35372170136E+00  0.10484131790E+01  0.11800268832E+01  0.00000000000E+00 0. -1.
         11    1    3    3    0    0 -0.34572640789E+02  0.13705269779E+02  0.43131401265E+01  0.37439352142E+02  0.51100000000E-03 0. -1.
        -11    1    3    3    0    0 -0.74310954885E+01 -0.56950174380E+01 -0.38277487325E+01  0.10114646034E+02  0.51100000000E-03 0.  1.
        -12    1    3    3    0    0  0.41593645788E+02 -0.83639740425E+01 -0.15338045731E+01  0.42453974940E+02  0.00000000000E+00 0.  1.
</event>
<event>
 7    1  0.4331547E-015  0.9000727E+02  0.7816164E-02  0.1186340E+00
        -11   -1    0    0    0    0  0.00000000000E+00  0.00000000000E+00  0.45593999997E+02  0.45594000000E+02  0.51100000000E-03 0. -1.
         11   -1    0    0    0    0 -0.00000000000E+00 -0.00000000000E+00 -0.45593999997E+02  0.45594000000E+02  0.51100000000E-03 0.  1.
    9900012    2    1    2    0    0  0.11172828429E+01 -0.35678748944E+00 -0.13600298588E+00  0.90007273497E+02  0.89999528706E+02 0.  0.
         12    1    1    2    0    0 -0.11172828429E+01  0.35678748944E+00  0.13600298588E+00  0.11807265034E+01  0.00000000000E+00 0. -1.
         11    1    3    3    0    0  0.31324030686E+01  0.37638430083E+01  0.87405070197E+00  0.49741761193E+01  0.51100000000E-03 0. -1.
        -11    1    3    3    0    0 -0.47101952486E+01  0.20175414728E+02 -0.36481698766E+02  0.41954113551E+02  0.51100000000E-03 0.  1.
         12    1    3    3    0    0  0.26950750229E+01 -0.24296045226E+02  0.35471645078E+02  0.43078983827E+02  0.00000000000E+00 0. -1.
</event>
<event>
 7    1  0.4331547E-015  0.9000772E+02  0.7816164E-02  0.1186339E+00
        -11   -1    0    0    0    0  0.00000000000E+00  0.00000000000E+00  0.45593999997E+02  0.45594000000E+02  0.51100000000E-03 0. -1.
         11   -1    0    0    0    0 -0.00000000000E+00 -0.00000000000E+00 -0.45593999997E+02  0.45594000000E+02  0.51100000000E-03 0.  1.
    9900012    2    1    2    0    0  0.50844838073E+00 -0.10411914554E+01  0.22462425183E+00  0.90007722297E+02  0.89999983431E+02 0.  0.
         12    1    1    2    0    0 -0.50844838073E+00  0.10411914554E+01 -0.22462425183E+00  0.11802777034E+01  0.00000000000E+00 0. -1.
         11    1    3    3    0    0  0.31883193848E+01  0.65277178451E+01 -0.13660293475E+01  0.73920577111E+01  0.51100000000E-03 0. -1.
        -11    1    3    3    0    0 -0.17245826369E+02  0.34088329146E+02 -0.25742753564E+01  0.38289157799E+02  0.51100000000E-03 0.  1.
         12    1    3    3    0    0  0.14565955365E+02 -0.41657238446E+02  0.41649289558E+01  0.44326506786E+02  0.00000000000E+00 0. -1.
</event>
<event>
 7    1  0.4331547E-015  0.9000786E+02  0.7816164E-02  0.1186339E+00
        -11   -1    0    0    0    0  0.00000000000E+00  0.00000000000E+00  0.45593999997E+02  0.45594000000E+02  0.51100000000E-03 0.  1.
         11   -1    0    0    0    0 -0.00000000000E+00 -0.00000000000E+00 -0.45593999997E+02  0.45594000000E+02  0.51100000000E-03 0. -1.
    9900012    2    1    2    0    0  0.85850323960E+00 -0.79335596762E+00 -0.16210451933E+00  0.90007864678E+02  0.90000127691E+02 0.  0.
         12    1    1    2    0    0 -0.85850323960E+00  0.79335596762E+00  0.16210451933E+00  0.11801353223E+01  0.00000000000E+00 0. -1.
         11    1    3    3    0    0 -0.26931236340E+02  0.20131092767E+02 -0.23414774458E+02  0.40973211370E+02  0.51100000000E-03 0. -1.
        -11    1    3    3    0    0  0.66111713494E+01 -0.40432892723E+01 -0.55245326522E+01  0.95171548289E+01  0.51100000000E-03 0.  1.
        -12    1    3    3    0    0  0.21178568230E+02 -0.16881159462E+02  0.28777202591E+02  0.39517498479E+02  0.00000000000E+00 0.  1.
</event>
<event>
 7    1  0.4331547E-015  0.9000770E+02  0.7816164E-02  0.1186339E+00
        -11   -1    0    0    0    0  0.00000000000E+00  0.00000000000E+00  0.45593999997E+02  0.45594000000E+02  0.51100000000E-03 0.  1.
         11   -1    0    0    0    0 -0.00000000000E+00 -0.00000000000E+00 -0.45593999997E+02  0.45594000000E+02  0.51100000000E-03 0. -1.
    9900012    2    1    2    0    0  0.63577316079E+00 -0.57290055962E+00  0.81282705068E+00  0.90007699031E+02  0.89999959858E+02 0.  0.
         12    1    1    2    0    0 -0.63577316079E+00  0.57290055962E+00 -0.81282705068E+00  0.11803009690E+01  0.00000000000E+00 0. -1.
         11    1    3    3    0    0 -0.14096726211E+02  0.36233437032E+02  0.71656413776E+01  0.39533859736E+02  0.51100000000E-03 0. -1.
        -11    1    3    3    0    0  0.85862169287E+01  0.34746238178E+01 -0.21629922790E+01  0.95118172650E+01  0.51100000000E-03 0.  1.
        -12    1    3    3    0    0  0.61462824432E+01 -0.40280961410E+02 -0.41898220479E+01  0.40962022030E+02  0.00000000000E+00 0.  1.
</event>
<event>
 7    1  0.4331547E-015  0.9000772E+02  0.7816164E-02  0.1186339E+00
        -11   -1    0    0    0    0  0.00000000000E+00  0.00000000000E+00  0.45593999997E+02  0.45594000000E+02  0.51100000000E-03 0.  1.
         11   -1    0    0    0    0 -0.00000000000E+00 -0.00000000000E+00 -0.45593999997E+02  0.45594000000E+02  0.51100000000E-03 0. -1.
    9900012    2    1    2    0    0 -0.97551082339E+00 -0.23116406756E+00  0.62289657795E+00  0.90007721076E+02  0.89999982194E+02 0.  0.
         12    1    1    2    0    0  0.97551082339E+00  0.23116406756E+00 -0.62289657795E+00  0.11802789245E+01  0.00000000000E+00 0. -1.
         11    1    3    3    0    0 -0.68577964681E+01 -0.42472427540E+01  0.43604509556E+01  0.91696224680E+01  0.51100000000E-03 0. -1.
        -11    1    3    3    0    0 -0.19766603670E+02 -0.31181273205E+02 -0.50770690728E+01  0.37266164948E+02  0.51100000000E-03 0.  1.
         12    1    3    3    0    0  0.25648889314E+02  0.35197351891E+02  0.13395146951E+01  0.43571933659E+02  0.00000000000E+00 0. -1.
</event>
<event>
 7    1  0.4331547E-015  0.9000848E+02  0.7816164E-02  0.1186338E+00
        -11   -1    0    0    0    0  0.00000000000E+00  0.00000000000E+00  0.45593999997E+02  0.45594000000E+02  0.51100000000E-03 0. -1.
         11   -1    0    0    0    0 -0.00000000000E+00 -0.00000000000E+00 -0.45593999997E+02  0.45594000000E+02  0.51100000000E-03 0.  1.
    9900012    2    1    2    0    0 -0.11625046812E+01 -0.16090253147E+00  0.11817365058E+00  0.90008478160E+02  0.90000749269E+02 0.  0.
         12    1    1    2    0    0  0.11625046812E+01  0.16090253147E+00 -0.11817365058E+00  0.11795218396E+01  0.00000000000E+00 0. -1.
         11    1    3    3    0    0  0.44582280877E+01 -0.25404446713E+02  0.26330048218E+02  0.36858284684E+02  0.51100000000E-03 0. -1.
        -11    1    3    3    0    0  0.59534614940E+01 -0.86035229780E+01 -0.62024921982E+01  0.12162862374E+02  0.51100000000E-03 0.  1.
        -12    1    3    3    0    0 -0.11574194263E+02  0.33847067159E+02 -0.20009382369E+02  0.40987331102E+02  0.00000000000E+00 0.  1.
</event>
<event>
 7    1  0.4331547E-015  0.9000775E+02  0.7816164E-02  0.1186339E+00
        -11   -1    0    0    0    0  0.00000000000E+00  0.00000000000E+00  0.45593999997E+02  0.45594000000E+02  0.51100000000E-03 0.  1.
         11   -1    0    0    0    0 -0.00000000000E+00 -0.00000000000E+00 -0.45593999997E+02  0.45594000000E+02  0.51100000000E-03 0. -1.
    9900012    2    1    2    0    0  0.77355716445E-01  0.11566030701E+01  0.22195841580E+00  0.90007754218E+02  0.90000015773E+02 0.  0.
         12    1    1    2    0    0 -0.77355716445E-01 -0.11566030701E+01 -0.22195841580E+00  0.11802457825E+01  0.00000000000E+00 0. -1.
         11    1    3    3    0    0  0.78885051429E+01 -0.24720626310E+02  0.22851199751E+02  0.34576223173E+02  0.51100000000E-03 0. -1.
        -11    1    3    3    0    0  0.41568573711E+01 -0.11014957910E+02 -0.62571748866E+01  0.13332704106E+02  0.51100000000E-03 0.  1.
        -12    1    3    3    0    0 -0.11968006797E+02  0.36892187290E+02 -0.16372066449E+02  0.42098826938E+02  0.00000000000E+00 0.  1.
</event>
<event>
 7    1  0.4331547E-015  0.9000786E+02  0.7816164E-02  0.1186339E+00
        -11   -1    0    0    0    0  0.00000000000E+00  0.00000000000E+00  0.45593999997E+02  0.45594000000E+02  0.51100000000E-03 0.  1.
         11   -1    0    0    0    0 -0.00000000000E+00 -0.00000000000E+00 -0.45593999997E+02  0.45594000000E+02  0.51100000000E-03 0. -1.
    9900012    2    1    2    0    0 -0.35329871536E+00  0.71139055867E+00  0.87282614011E+00  0.90007863576E+02  0.90000126575E+02 0.  0.
         12    1    1    2    0    0  0.35329871536E+00 -0.71139055867E+00 -0.87282614011E+00  0.11801364244E+01  0.00000000000E+00 0. -1.
         11    1    3    3    0    0 -0.20861629812E+02  0.93997724489E+01 -0.28409148911E+02  0.36477980518E+02  0.51100000000E-03 0. -1.
        -11    1    3    3    0    0  0.10539252657E+02 -0.27584232584E+01 -0.86204072031E+01  0.13892306002E+02  0.51100000000E-03 0.  1.
        -12    1    3    3    0    0  0.99690784402E+01 -0.59299586319E+01  0.37902382255E+02  0.39637577056E+02  0.00000000000E+00 0.  1.
</event>
<event>
 7    1  0.4331547E-015  0.9000777E+02  0.7816164E-02  0.1186339E+00
        -11   -1    0    0    0    0  0.00000000000E+00  0.00000000000E+00  0.45593999997E+02  0.45594000000E+02  0.51100000000E-03 0.  1.
         11   -1    0    0    0    0 -0.00000000000E+00 -0.00000000000E+00 -0.45593999997E+02  0.45594000000E+02  0.51100000000E-03 0. -1.
    9900012    2    1    2    0    0  0.73065701488E+00  0.87578518521E+00  0.30345706365E+00  0.90007768856E+02  0.90000030605E+02 0.  0.
         12    1    1    2    0    0 -0.73065701488E+00 -0.87578518521E+00 -0.30345706365E+00  0.11802311441E+01  0.00000000000E+00 0. -1.
         11    1    3    3    0    0 -0.67593790400E+01  0.32559672083E+02 -0.11626517110E+02  0.35227792317E+02  0.51100000000E-03 0. -1.
        -11    1    3    3    0    0 -0.25918154614E+00  0.10381398437E+02  0.47057683708E+01  0.11401090509E+02  0.51100000000E-03 0.  1.
        -12    1    3    3    0    0  0.77492176010E+01 -0.42065285334E+02  0.72242058030E+01  0.43378886030E+02  0.00000000000E+00 0.  1.
</event>
<event>
 7    1  0.4331547E-015  0.9000768E+02  0.7816164E-02  0.1186339E+00
        -11   -1    0    0    0    0  0.00000000000E+00  0.00000000000E+00  0.45593999997E+02  0.45594000000E+02  0.51100000000E-03 0.  1.
         11   -1    0    0    0    0 -0.00000000000E+00 -0.00000000000E+00 -0.45593999997E+02  0.45594000000E+02  0.51100000000E-03 0. -1.
    9900012    2    1    2    0    0  0.72372434172E+00 -0.73141588576E+00  0.57828550924E+00  0.90007677904E+02  0.89999938452E+02 0.  0.
         12    1    1    2    0    0 -0.72372434172E+00  0.73141588576E+00 -0.57828550924E+00  0.11803220963E+01  0.00000000000E+00 0. -1.
         11    1    3    3    0    0 -0.23962514317E+01  0.56197280862E+01  0.19654271925E+01  0.64176529197E+01  0.51100000000E-03 0. -1.
        -11    1    3    3    0    0 -0.18351842096E+02 -0.22522436759E+02 -0.31751339754E+02  0.43037168149E+02  0.51100000000E-03 0.  1.
         12    1    3    3    0    0  0.21471817870E+02  0.16171292787E+02  0.30364198070E+02  0.40552856835E+02  0.00000000000E+00 0. -1.
</event>
<event>
 7    1  0.4331547E-015  0.9000714E+02  0.7816164E-02  0.1186340E+00
        -11   -1    0    0    0    0  0.00000000000E+00  0.00000000000E+00  0.45593999997E+02  0.45594000000E+02  0.51100000000E-03 0. -1.
         11   -1    0    0    0    0 -0.00000000000E+00 -0.00000000000E+00 -0.45593999997E+02  0.45594000000E+02  0.51100000000E-03 0.  1.
    9900012    2    1    2    0    0 -0.92675798179E-01 -0.90635133156E+00 -0.75123915063E+00  0.90007143615E+02  0.89999397109E+02 0.  0.
         12    1    1    2    0    0  0.92675798179E-01  0.90635133156E+00  0.75123915063E+00  0.11808563847E+01  0.00000000000E+00 0. -1.
         11    1    3    3    0    0  0.39347684905E+01  0.25253171248E+01  0.97813242655E+01  0.10841306854E+02  0.51100000000E-03 0. -1.
        -11    1    3    3    0    0  0.29747229268E+02  0.19560290086E+02 -0.13787736680E+02  0.38178584054E+02  0.51100000000E-03 0.  1.
         12    1    3    3    0    0 -0.33774673557E+02 -0.22991958542E+02  0.32551732641E+01  0.40987252707E+02  0.00000000000E+00 0. -1.
</event>
<event>
 7    1  0.4331547E-015  0.9000779E+02  0.7816164E-02  0.1186339E+00
        -11   -1    0    0    0    0  0.00000000000E+00  0.00000000000E+00  0.45593999997E+02  0.45594000000E+02  0.51100000000E-03 0. -1.
         11   -1    0    0    0    0 -0.00000000000E+00 -0.00000000000E+00 -0.45593999997E+02  0.45594000000E+02  0.51100000000E-03 0.  1.
    9900012    2    1    2    0    0 -0.37301461248E+00 -0.10248342617E+01 -0.45107258019E+00  0.90007791697E+02  0.90000053748E+02 0.  0.
         12    1    1    2    0    0  0.37301461248E+00  0.10248342617E+01  0.45107258019E+00  0.11802083027E+01  0.00000000000E+00 0. -1.
         11    1    3    3    0    0 -0.63105117663E+01  0.31376187905E+01 -0.30538628330E+01  0.76807088795E+01  0.51100000000E-03 0. -1.
        -11    1    3    3    0    0  0.11184285280E+01 -0.11737381749E+02 -0.38494957206E+02  0.40260138391E+02  0.51100000000E-03 0.  1.
         12    1    3    3    0    0  0.48190686258E+01  0.75749286967E+01  0.41097747459E+02  0.42066944427E+02  0.00000000000E+00 0. -1.
</event>
<event>
 7    1  0.4331547E-015  0.9000770E+02  0.7816164E-02  0.1186339E+00
        -11   -1    0    0    0    0  0.00000000000E+00  0.00000000000E+00  0.45593999997E+02  0.45594000000E+02  0.51100000000E-03 0.  1.
         11   -1    0    0    0    0 -0.00000000000E+00 -0.00000000000E+00 -0.45593999997E+02  0.45594000000E+02  0.51100000000E-03 0. -1.
    9900012    2    1    2    0    0  0.88602786948E+00 -0.50684783890E+00  0.59259741445E+00  0.90007698423E+02  0.89999959242E+02 0.  0.
         12    1    1    2    0    0 -0.88602786948E+00  0.50684783890E+00 -0.59259741445E+00  0.11803015771E+01  0.00000000000E+00 0. -1.
         11    1    3    3    0    0 -0.20266920154E+02 -0.20448758290E+02 -0.22027180748E+02  0.36250468412E+02  0.51100000000E-03 0. -1.
        -11    1    3    3    0    0 -0.70449826238E+01 -0.62072301135E+01  0.52194286420E+00  0.94039305860E+01  0.51100000000E-03 0.  1.
        -12    1    3    3    0    0  0.28197930647E+02  0.26149140565E+02  0.22097835298E+02  0.44353299425E+02  0.00000000000E+00 0.  1.
</event>
<event>
 7    1  0.4331547E-015  0.9000771E+02  0.7816164E-02  0.1186339E+00
        -11   -1    0    0    0    0  0.00000000000E+00  0.00000000000E+00  0.45593999997E+02  0.45594000000E+02  0.51100000000E-03 0.  1.
         11   -1    0    0    0    0 -0.00000000000E+00 -0.00000000000E+00 -0.45593999997E+02  0.45594000000E+02  0.51100000000E-03 0. -1.
    9900012    2    1    2    0    0  0.31565612111E+00 -0.78016233710E+00  0.82752413610E+00  0.90007708403E+02  0.89999969354E+02 0.  0.
         12    1    1    2    0    0 -0.31565612111E+00  0.78016233710E+00 -0.82752413610E+00  0.11802915974E+01  0.00000000000E+00 0. -1.
         11    1    3    3    0    0  0.48478919343E+01 -0.31234301876E+01 -0.37748570774E+02  0.38186548261E+02  0.51100000000E-03 0. -1.
        -11    1    3    3    0    0 -0.71950484092E+01 -0.70374786062E+01 -0.18521334035E+01  0.10233534343E+02  0.51100000000E-03 0.  1.
        -12    1    3    3    0    0  0.26628125960E+01  0.93807464568E+01  0.40428228314E+02  0.41587625799E+02  0.00000000000E+00 0.  1.
</event>
<event>
 7    1  0.4331547E-015  0.9000772E+02  0.7816164E-02  0.1186339E+00
        -11   -1    0    0    0    0  0.00000000000E+00  0.00000000000E+00  0.45593999997E+02  0.45594000000E+02  0.51100000000E-03 0.  1.
         11   -1    0    0    0    0 -0.00000000000E+00 -0.00000000000E+00 -0.45593999997E+02  0.45594000000E+02  0.51100000000E-03 0. -1.
    9900012    2    1    2    0    0  0.10572818174E+01 -0.99114224359E-01  0.51516117224E+00  0.90007720582E+02  0.89999981694E+02 0.  0.
         12    1    1    2    0    0 -0.10572818174E+01  0.99114224359E-01 -0.51516117224E+00  0.11802794178E+01  0.00000000000E+00 0. -1.
         11    1    3    3    0    0 -0.31678070526E+00 -0.80008052035E+01 -0.29893630197E+01  0.85469015113E+01  0.51100000000E-03 0. -1.
        -11    1    3    3    0    0  0.25819069748E+02 -0.27816849250E+02  0.41066801055E+01  0.38174157314E+02  0.51100000000E-03 0.  1.
         12    1    3    3    0    0 -0.24445007225E+02  0.35718540229E+02 -0.60215591363E+00  0.43286661757E+02  0.00000000000E+00 0. -1.
</event>
<event>
 7    1  0.4331547E-015  0.9000779E+02  0.7816164E-02  0.1186339E+00
        -11   -1    0    0    0    0  0.00000000000E+00  0.00000000000E+00  0.45593999997E+02  0.45594000000E+02  0.51100000000E-03 0.  1.
         11   -1    0    0    0    0 -0.00000000000E+00 -0.00000000000E+00 -0.45593999997E+02  0.45594000000E+02  0.51100000000E-03 0. -1.
    9900012    2    1    2    0    0 -0.71379818339E+00  0.65071265246E+00  0.67819773044E+00  0.90007793677E+02  0.90000055754E+02 0.  0.
         12    1    1    2    0    0  0.71379818339E+00 -0.65071265246E+00 -0.67819773044E+00  0.11802063227E+01  0.00000000000E+00 0. -1.
         11    1    3    3    0    0 -0.28318442924E+01  0.10295580142E+01  0.89056352818E+01  0.94015781566E+01  0.51100000000E-03 0. -1.
        -11    1    3    3    0    0 -0.20342015650E+02 -0.13087215120E+02  0.27441956208E+02  0.36580510673E+02  0.51100000000E-03 0.  1.
         12    1    3    3    0    0  0.22460061759E+02  0.12708369759E+02 -0.35669393760E+02  0.44025704847E+02  0.00000000000E+00 0. -1.
</event>
<event>
 7    1  0.4331547E-015  0.9000774E+02  0.7816164E-02  0.1186339E+00
        -11   -1    0    0    0    0  0.00000000000E+00  0.00000000000E+00  0.45593999997E+02  0.45594000000E+02  0.51100000000E-03 0.  1.
         11   -1    0    0    0    0 -0.00000000000E+00 -0.00000000000E+00 -0.45593999997E+02  0.45594000000E+02  0.51100000000E-03 0. -1.
    9900012    2    1    2    0    0  0.71103897321E+00 -0.75360462543E+00 -0.56525731598E+00  0.90007740628E+02  0.90000002004E+02 0.  0.
         12    1    1    2    0    0 -0.71103897321E+00  0.75360462543E+00  0.56525731598E+00  0.11802593724E+01  0.00000000000E+00 0. -1.
         11    1    3    3    0    0 -0.35294520840E+02  0.31645598425E+01 -0.86555100592E+00  0.35446675714E+02  0.51100000000E-03 0. -1.
        -11    1    3    3    0    0 -0.76135039436E+01 -0.68308866506E+01 -0.31664722904E+01  0.10707614195E+02  0.51100000000E-03 0.  1.
        -12    1    3    3    0    0  0.43619063757E+02  0.29127221827E+01  0.34667659804E+01  0.43853450718E+02  0.00000000000E+00 0.  1.
</event>
<event>
 7    1  0.4331547E-015  0.9000778E+02  0.7816164E-02  0.1186339E+00
        -11   -1    0    0    0    0  0.00000000000E+00  0.00000000000E+00  0.45593999997E+02  0.45594000000E+02  0.51100000000E-03 0.  1.
         11   -1    0    0    0    0 -0.00000000000E+00 -0.00000000000E+00 -0.45593999997E+02  0.45594000000E+02  0.51100000000E-03 0. -1.
    9900012    2    1    2    0    0  0.28492551121E+00 -0.11267491787E+01 -0.20537008308E+00  0.90007778356E+02  0.90000040230E+02 0.  0.
         12    1    1    2    0    0 -0.28492551121E+00  0.11267491787E+01  0.20537008308E+00  0.11802216443E+01  0.00000000000E+00 0. -1.
         11    1    3    3    0    0  0.63084625577E+01  0.44357915410E+01  0.60496795444E+01  0.98016105457E+01  0.51100000000E-03 0. -1.
        -11    1    3    3    0    0 -0.16300866872E+02 -0.54058840094E+00  0.34347468114E+02  0.38023138517E+02  0.51100000000E-03 0.  1.
         12    1    3    3    0    0  0.10277329825E+02 -0.50219523188E+01 -0.40602517741E+02  0.42183029293E+02  0.00000000000E+00 0. -1.
</event>
<event>
 7    1  0.4331547E-015  0.9000779E+02  0.7816164E-02  0.1186339E+00
        -11   -1    0    0    0    0  0.00000000000E+00  0.00000000000E+00  0.45593999997E+02  0.45594000000E+02  0.51100000000E-03 0.  1.
         11   -1    0    0    0    0 -0.00000000000E+00 -0.00000000000E+00 -0.45593999997E+02  0.45594000000E+02  0.51100000000E-03 0. -1.
    9900012    2    1    2    0    0  0.10387855147E+00 -0.56445157453E+00  0.10312637739E+01  0.90007787602E+02  0.90000049598E+02 0.  0.
         12    1    1    2    0    0 -0.10387855147E+00  0.56445157453E+00 -0.10312637739E+01  0.11802123982E+01  0.00000000000E+00 0. -1.
         11    1    3    3    0    0  0.10206760730E+02 -0.68771050279E+00 -0.20859052717E+02  0.23232541636E+02  0.51100000000E-03 0. -1.
        -11    1    3    3    0    0  0.17948950987E+02  0.21119526420E+02  0.62959045882E+01  0.28422484982E+02  0.51100000000E-03 0.  1.
        -12    1    3    3    0    0 -0.28051833166E+02 -0.20996267491E+02  0.15594411903E+02  0.38352760984E+02  0.00000000000E+00 0.  1.
</event>
<event>
 7    1  0.4331547E-015  0.9000772E+02  0.7816164E-02  0.1186339E+00
        -11   -1    0    0    0    0  0.00000000000E+00  0.00000000000E+00  0.45593999997E+02  0.45594000000E+02  0.51100000000E-03 0. -1.
         11   -1    0    0    0    0 -0.00000000000E+00 -0.00000000000E+00 -0.45593999997E+02  0.45594000000E+02  0.51100000000E-03 0.  1.
    9900012    2    1    2    0    0  0.99437030648E+00  0.21849560723E+00 -0.59710831766E+00  0.90007724193E+02  0.89999985353E+02 0.  0.
         12    1    1    2    0    0 -0.99437030648E+00 -0.21849560723E+00  0.59710831766E+00  0.11802758067E+01  0.00000000000E+00 0. -1.
         11    1    3    3    0    0 -0.55744346316E+01 -0.71588331930E+01  0.76339728883E+01  0.11857518984E+02  0.51100000000E-03 0. -1.
        -11    1    3    3    0    0 -0.11679888323E+02 -0.18649650724E+02 -0.31734582638E+02  0.38617521915E+02  0.51100000000E-03 0.  1.
         12    1    3    3    0    0  0.18248693261E+02  0.26026979525E+02  0.23503501432E+02  0.39532683294E+02  0.00000000000E+00 0. -1.
</event>
<event>
 7    1  0.4331547E-015  0.9000767E+02  0.7816164E-02  0.1186339E+00
        -11   -1    0    0    0    0  0.00000000000E+00  0.00000000000E+00  0.45593999997E+02  0.45594000000E+02  0.51100000000E-03 0. -1.
         11   -1    0    0    0    0 -0.00000000000E+00 -0.00000000000E+00 -0.45593999997E+02  0.45594000000E+02  0.51100000000E-03 0.  1.
    9900012    2    1    2    0    0  0.59242192686E+00  0.10017262367E+01  0.19684854412E+00  0.90007674392E+02  0.89999934893E+02 0.  0.
         12    1    1    2    0    0 -0.59242192686E+00 -0.10017262367E+01 -0.19684854412E+00  0.11803256085E+01  0.00000000000E+00 0. -1.
         11    1    3    3    0    0 -0.67315560537E+01  0.48233300791E+01  0.60893320430E+01  0.10279023540E+02  0.51100000000E-03 0. -1.
        -11    1    3    3    0    0 -0.31392877606E+02  0.16212450673E+02 -0.74448404257E+01  0.36107921159E+02  0.51100000000E-03 0.  1.
         12    1    3    3    0    0  0.38716855586E+02 -0.20034054516E+02  0.15523569268E+01  0.43620729692E+02  0.00000000000E+00 0. -1.
</event>
<event>
 7    1  0.4331547E-015  0.9000757E+02  0.7816164E-02  0.1186339E+00
        -11   -1    0    0    0    0  0.00000000000E+00  0.00000000000E+00  0.45593999997E+02  0.45594000000E+02  0.51100000000E-03 0.  1.
         11   -1    0    0    0    0 -0.00000000000E+00 -0.00000000000E+00 -0.45593999997E+02  0.45594000000E+02  0.51100000000E-03 0. -1.
    9900012    2    1    2    0    0 -0.32515590418E+00  0.26591359491E-01  0.11344521536E+01  0.90007569930E+02  0.89999829053E+02 0.  0.
         12    1    1    2    0    0  0.32515590418E+00 -0.26591359491E-01 -0.11344521536E+01  0.11804300704E+01  0.00000000000E+00 0. -1.
         11    1    3    3    0    0  0.18675879317E+02 -0.21668719615E+02 -0.10115568541E+02  0.30342158875E+02  0.51100000000E-03 0. -1.
        -11    1    3    3    0    0 -0.21973014217E+01  0.75846235296E+01 -0.19987804852E+02  0.21491090961E+02  0.51100000000E-03 0.  1.
        -12    1    3    3    0    0 -0.16803733800E+02  0.14110687445E+02  0.31237825546E+02  0.38174320094E+02  0.00000000000E+00 0.  1.
</event>
<event>
 7    1  0.4331547E-015  0.9000773E+02  0.7816164E-02  0.1186339E+00
        -11   -1    0    0    0    0  0.00000000000E+00  0.00000000000E+00  0.45593999997E+02  0.45594000000E+02  0.51100000000E-03 0.  1.
         11   -1    0    0    0    0 -0.00000000000E+00 -0.00000000000E+00 -0.45593999997E+02  0.45594000000E+02  0.51100000000E-03 0. -1.
    9900012    2    1    2    0    0 -0.39715041215E+00  0.41163197530E+00  0.10324033334E+01  0.90007734786E+02  0.89999996085E+02 0.  0.
         12    1    1    2    0    0  0.39715041215E+00 -0.41163197530E+00 -0.10324033334E+01  0.11802652141E+01  0.00000000000E+00 0. -1.
         11    1    3    3    0    0 -0.98253163343E-01 -0.48015567249E+01 -0.85444584017E+01  0.98016514070E+01  0.51100000000E-03 0. -1.
        -11    1    3    3    0    0  0.69787071653E+01 -0.30886293285E+02  0.24937004191E+02  0.40305330229E+02  0.51100000000E-03 0.  1.
         12    1    3    3    0    0 -0.72776044141E+01  0.36099481985E+02 -0.15360142456E+02  0.39900753149E+02  0.00000000000E+00 0. -1.
</event>
<event>
 7    1  0.4331547E-015  0.9000803E+02  0.7816164E-02  0.1186338E+00
        -11   -1    0    0    0    0  0.00000000000E+00  0.00000000000E+00  0.45593999997E+02  0.45594000000E+02  0.51100000000E-03 0. -1.
         11   -1    0    0    0    0 -0.00000000000E+00 -0.00000000000E+00 -0.45593999997E+02  0.45594000000E+02  0.51100000000E-03 0.  1.
    9900012    2    1    2    0    0 -0.51290979202E+00 -0.85576285760E+00 -0.63001522414E+00  0.90008031481E+02  0.90000296696E+02 0.  0.
         12    1    1    2    0    0  0.51290979202E+00  0.85576285760E+00  0.63001522414E+00  0.11799685190E+01  0.00000000000E+00 0. -1.
         11    1    3    3    0    0  0.21466629248E+01 -0.93049600627E+01 -0.40067846480E+01  0.10355904932E+02  0.51100000000E-03 0. -1.
        -11    1    3    3    0    0  0.20273039360E+02 -0.29070948407E+02  0.40587102635E+01  0.35673369555E+02  0.51100000000E-03 0.  1.
         12    1    3    3    0    0 -0.22932612077E+02  0.37520145612E+02 -0.68194083966E+00  0.43978756994E+02  0.00000000000E+00 0. -1.
</event>
<event>
 7    1  0.4331547E-015  0.9000773E+02  0.7816164E-02  0.1186339E+00
        -11   -1    0    0    0    0  0.00000000000E+00  0.00000000000E+00  0.45593999997E+02  0.45594000000E+02  0.51100000000E-03 0.  1.
         11   -1    0    0    0    0 -0.00000000000E+00 -0.00000000000E+00 -0.45593999997E+02  0.45594000000E+02  0.51100000000E-03 0. -1.
    9900012    2    1    2    0    0  0.88610340386E-01 -0.11768762487E+01  0.11681334966E-01  0.90007734796E+02  0.89999996096E+02 0.  0.
         12    1    1    2    0    0 -0.88610340386E-01  0.11768762487E+01 -0.11681334966E-01  0.11802652036E+01  0.00000000000E+00 0. -1.
         11    1    3    3    0    0  0.24033894434E+01  0.12216286936E+02 -0.33332770196E+02  0.35582123553E+02  0.51100000000E-03 0. -1.
        -11    1    3    3    0    0  0.27675313974E+01 -0.36322878339E+01 -0.93125805855E+01  0.10371928575E+02  0.51100000000E-03 0.  1.
        -12    1    3    3    0    0 -0.50823105004E+01 -0.97608753507E+01  0.42657032117E+02  0.44053682668E+02  0.00000000000E+00 0.  1.
</event>
<event>
 7    1  0.4331547E-015  0.9000771E+02  0.7816164E-02  0.1186339E+00
        -11   -1    0    0    0    0  0.00000000000E+00  0.00000000000E+00  0.45593999997E+02  0.45594000000E+02  0.51100000000E-03 0.  1.
         11   -1    0    0    0    0 -0.00000000000E+00 -0.00000000000E+00 -0.45593999997E+02  0.45594000000E+02  0.51100000000E-03 0. -1.
    9900012    2    1    2    0    0  0.10379749365E+01  0.54623256150E+00  0.13161327841E+00  0.90007710190E+02  0.89999971165E+02 0.  0.
         12    1    1    2    0    0 -0.10379749365E+01 -0.54623256150E+00 -0.13161327841E+00  0.11802898098E+01  0.00000000000E+00 0. -1.
         11    1    3    3    0    0  0.21174263238E+02 -0.25612588505E+02 -0.12464401858E+02  0.35492470012E+02  0.51100000000E-03 0. -1.
        -11    1    3    3    0    0 -0.15286231764E+02 -0.70482973537E+01 -0.36595148224E+01  0.17226126266E+02  0.51100000000E-03 0.  1.
        -12    1    3    3    0    0 -0.48500565378E+01  0.33207118420E+02  0.16255529958E+02  0.37289113913E+02  0.00000000000E+00 0.  1.
</event>
<event>
 7    1  0.4331547E-015  0.9000773E+02  0.7816164E-02  0.1186339E+00
        -11   -1    0    0    0    0  0.00000000000E+00  0.00000000000E+00  0.45593999997E+02  0.45594000000E+02  0.51100000000E-03 0. -1.
         11   -1    0    0    0    0 -0.00000000000E+00 -0.00000000000E+00 -0.45593999997E+02  0.45594000000E+02  0.51100000000E-03 0.  1.
    9900012    2    1    2    0    0  0.91162824539E+00 -0.72461779898E+00 -0.19210327482E+00  0.90007728556E+02  0.89999989773E+02 0.  0.
         12    1    1    2    0    0 -0.91162824539E+00  0.72461779898E+00  0.19210327482E+00  0.11802714436E+01  0.00000000000E+00 0. -1.
         11    1    3    3    0    0 -0.25209344160E+02 -0.10968054109E+02  0.14954765718E+02  0.31296233989E+02  0.51100000000E-03 0. -1.
        -11    1    3    3    0    0  0.22099072861E+02  0.28639451973E+01  0.15362214730E+02  0.27066009034E+02  0.51100000000E-03 0.  1.
        -12    1    3    3    0    0  0.40218995452E+01  0.73794911129E+01 -0.30509083723E+02  0.31645485533E+02  0.00000000000E+00 0.  1.
</event>
<event>
 7    1  0.4331547E-015  0.9000737E+02  0.7816164E-02  0.1186340E+00
        -11   -1    0    0    0    0  0.00000000000E+00  0.00000000000E+00  0.45593999997E+02  0.45594000000E+02  0.51100000000E-03 0. -1.
         11   -1    0    0    0    0 -0.00000000000E+00 -0.00000000000E+00 -0.45593999997E+02  0.45594000000E+02  0.51100000000E-03 0.  1.
    9900012    2    1    2    0    0  0.36627498809E+00 -0.76776155404E+00 -0.81870343717E+00  0.90007368606E+02  0.89999625071E+02 0.  0.
         12    1    1    2    0    0 -0.36627498809E+00  0.76776155404E+00  0.81870343717E+00  0.11806313941E+01  0.00000000000E+00 0. -1.
         11    1    3    3    0    0 -0.61805936246E+01  0.34373974065E+02 -0.12936019978E+02  0.37243931636E+02  0.51100000000E-03 0. -1.
        -11    1    3    3    0    0  0.18212144027E+01  0.65520893659E+01 -0.39117840681E+01  0.78453012572E+01  0.51100000000E-03 0.  1.
        -12    1    3    3    0    0  0.47256542100E+01 -0.41693824985E+02  0.16029100608E+02  0.44918135713E+02  0.00000000000E+00 0.  1.
</event>
<event>
 7    1  0.4331547E-015  0.9000787E+02  0.7816164E-02  0.1186339E+00
        -11   -1    0    0    0    0  0.00000000000E+00  0.00000000000E+00  0.45593999997E+02  0.45594000000E+02  0.51100000000E-03 0.  1.
         11   -1    0    0    0    0 -0.00000000000E+00 -0.00000000000E+00 -0.45593999997E+02  0.45594000000E+02  0.51100000000E-03 0. -1.
    9900012    2    1    2    0    0  0.93969998862E-01 -0.16295469190E+00  0.11650402810E+01  0.90007871427E+02  0.90000134530E+02 0.  0.
         12    1    1    2    0    0 -0.93969998862E-01  0.16295469190E+00 -0.11650402810E+01  0.11801285729E+01  0.00000000000E+00 0. -1.
         11    1    3    3    0    0  0.40144246733E+02 -0.74772835131E+01  0.29385552868E+01  0.40940266510E+02  0.51100000000E-03 0. -1.
        -11    1    3    3    0    0 -0.90008909817E+00  0.60344651090E+01 -0.72940847725E+01  0.95093954837E+01  0.51100000000E-03 0.  1.
        -12    1    3    3    0    0 -0.39150187636E+02  0.12798637122E+01  0.55205697666E+01  0.39558209433E+02  0.00000000000E+00 0.  1.
</event>
<event>
 7    1  0.4331547E-015  0.9000772E+02  0.7816164E-02  0.1186339E+00
        -11   -1    0    0    0    0  0.00000000000E+00  0.00000000000E+00  0.45593999997E+02  0.45594000000E+02  0.51100000000E-03 0. -1.
         11   -1    0    0    0    0 -0.00000000000E+00 -0.00000000000E+00 -0.45593999997E+02  0.45594000000E+02  0.51100000000E-03 0.  1.
    9900012    2    1    2    0    0 -0.11277926815E+01 -0.22015040772E+00 -0.26957867300E+00  0.90007722407E+02  0.89999983543E+02 0.  0.
         12    1    1    2    0    0  0.11277926815E+01  0.22015040772E+00  0.26957867300E+00  0.11802775925E+01  0.00000000000E+00 0. -1.
         11    1    3    3    0    0  0.61413697529E+01 -0.32679754969E+01  0.69444186791E+01  0.98296000602E+01  0.51100000000E-03 0. -1.
        -11    1    3    3    0    0  0.12946785313E+02 -0.34684740585E+02 -0.23712273435E+01  0.37098156272E+02  0.51100000000E-03 0.  1.
         12    1    3    3    0    0 -0.20215947748E+02  0.37732565674E+02 -0.48427700086E+01  0.43079966075E+02  0.00000000000E+00 0. -1.
</event>
<event>
 7    1  0.4331547E-015  0.9000774E+02  0.7816164E-02  0.1186339E+00
        -11   -1    0    0    0    0  0.00000000000E+00  0.00000000000E+00  0.45593999997E+02  0.45594000000E+02  0.51100000000E-03 0.  1.
         11   -1    0    0    0    0 -0.00000000000E+00 -0.00000000000E+00 -0.45593999997E+02  0.45594000000E+02  0.51100000000E-03 0. -1.
    9900012    2    1    2    0    0  0.40563908912E+00  0.83472356947E+00  0.72918126650E+00  0.90007740780E+02  0.90000002158E+02 0.  0.
         12    1    1    2    0    0 -0.40563908912E+00 -0.83472356947E+00 -0.72918126650E+00  0.11802592205E+01  0.00000000000E+00 0. -1.
         11    1    3    3    0    0 -0.32638379415E+02  0.17608742618E+02 -0.79306017914E+01  0.37923951172E+02  0.51100000000E-03 0. -1.
        -11    1    3    3    0    0 -0.39080812480E+01  0.61379434648E+01  0.41368933969E+01  0.83702650051E+01  0.51100000000E-03 0.  1.
        -12    1    3    3    0    0  0.36952099752E+02 -0.22911962514E+02  0.45228896610E+01  0.43713524603E+02  0.00000000000E+00 0.  1.
</event>
<event>
 7    1  0.4331547E-015  0.9000773E+02  0.7816164E-02  0.1186339E+00
        -11   -1    0    0    0    0  0.00000000000E+00  0.00000000000E+00  0.45593999997E+02  0.45594000000E+02  0.51100000000E-03 0. -1.
         11   -1    0    0    0    0 -0.00000000000E+00 -0.00000000000E+00 -0.45593999997E+02  0.45594000000E+02  0.51100000000E-03 0.  1.
    9900012    2    1    2    0    0  0.87486501461E+00 -0.31297866426E+00 -0.72780037148E+00  0.90007729769E+02  0.89999991002E+02 0.  0.
         12    1    1    2    0    0 -0.87486501461E+00  0.31297866426E+00  0.72780037148E+00  0.11802702313E+01  0.00000000000E+00 0. -1.
         11    1    3    3    0    0  0.20279183087E+01 -0.37718279029E+01  0.10790610919E+02  0.11609324815E+02  0.51100000000E-03 0. -1.
        -11    1    3    3    0    0  0.30963214006E+02 -0.18356476279E+02 -0.15853996027E+02  0.39332302669E+02  0.51100000000E-03 0.  1.
         12    1    3    3    0    0 -0.32116267300E+02  0.21815325518E+02  0.43355847367E+01  0.39066102285E+02  0.00000000000E+00 0. -1.
</event>
<event>
 7    1  0.4331547E-015  0.9000781E+02  0.7816164E-02  0.1186339E+00
        -11   -1    0    0    0    0  0.00000000000E+00  0.00000000000E+00  0.45593999997E+02  0.45594000000E+02  0.51100000000E-03 0.  1.
         11   -1    0    0    0    0 -0.00000000000E+00 -0.00000000000E+00 -0.45593999997E+02  0.45594000000E+02  0.51100000000E-03 0. -1.
    9900012    2    1    2    0    0  0.17828898982E+00 -0.40032509235E-01  0.11659570740E+01  0.90007811259E+02  0.90000073568E+02 0.  0.
         12    1    1    2    0    0 -0.17828898982E+00  0.40032509235E-01 -0.11659570740E+01  0.11801887409E+01  0.00000000000E+00 0. -1.
         11    1    3    3    0    0  0.83220940625E+01 -0.56347707805E+01 -0.54972125681E+01  0.11455445762E+02  0.51100000000E-03 0. -1.
        -11    1    3    3    0    0 -0.31084651110E+02 -0.98416928786E+01  0.28510325254E+02  0.43312274239E+02  0.51100000000E-03 0.  1.
         12    1    3    3    0    0  0.22940846037E+02  0.15436431150E+02 -0.21847155612E+02  0.35240091258E+02  0.00000000000E+00 0. -1.
</event>
<event>
 7    1  0.4331547E-015  0.9000765E+02  0.7816164E-02  0.1186339E+00
        -11   -1    0    0    0    0  0.00000000000E+00  0.00000000000E+00  0.45593999997E+02  0.45594000000E+02  0.51100000000E-03 0.  1.
         11   -1    0    0    0    0 -0.00000000000E+00 -0.00000000000E+00 -0.45593999997E+02  0.45594000000E+02  0.51100000000E-03 0. -1.
    9900012    2    1    2    0    0  0.10699376753E+01 -0.39671404464E+00  0.30178774519E+00  0.90007650685E+02  0.89999910874E+02 0.  0.
         12    1    1    2    0    0 -0.10699376753E+01  0.39671404464E+00 -0.30178774519E+00  0.11803493150E+01  0.00000000000E+00 0. -1.
         11    1    3    3    0    0 -0.36767208397E+02 -0.18483311184E+01 -0.12640279159E+02  0.38923265519E+02  0.51100000000E-03 0. -1.
        -11    1    3    3    0    0  0.15073168260E+01  0.61108273195E+01 -0.69725996144E+01  0.93931549645E+01  0.51100000000E-03 0.  1.
        -12    1    3    3    0    0  0.36329829246E+02 -0.46592102457E+01  0.19914666518E+02  0.41691230201E+02  0.00000000000E+00 0.  1.
</event>
<event>
 7    1  0.4331547E-015  0.9000771E+02  0.7816164E-02  0.1186339E+00
        -11   -1    0    0    0    0  0.00000000000E+00  0.00000000000E+00  0.45593999997E+02  0.45594000000E+02  0.51100000000E-03 0. -1.
         11   -1    0    0    0    0 -0.00000000000E+00 -0.00000000000E+00 -0.45593999997E+02  0.45594000000E+02  0.51100000000E-03 0.  1.
    9900012    2    1    2    0    0 -0.11252899249E+00 -0.11741347000E+01  0.42646096302E-01  0.90007714544E+02  0.89999975576E+02 0.  0.
         12    1    1    2    0    0  0.11252899249E+00  0.11741347000E+01 -0.42646096302E-01  0.11802854559E+01  0.00000000000E+00 0. -1.
         11    1    3    3    0    0  0.10717360220E+02 -0.33258774012E+02  0.16654719368E+02  0.38709011049E+02  0.51100000000E-03 0. -1.
        -11    1    3    3    0    0  0.60135896959E+01  0.10451266277E+02  0.79873747434E+01  0.14463415343E+02  0.51100000000E-03 0.  1.
        -12    1    3    3    0    0 -0.16843478908E+02  0.21633373035E+02 -0.24599448015E+02  0.36835288153E+02  0.00000000000E+00 0.  1.
</event>
<event>
 7    1  0.4331547E-015  0.9000773E+02  0.7816164E-02  0.1186339E+00
        -11   -1    0    0    0    0  0.00000000000E+00  0.00000000000E+00  0.45593999997E+02  0.45594000000E+02  0.51100000000E-03 0.  1.
         11   -1    0    0    0    0 -0.00000000000E+00 -0.00000000000E+00 -0.45593999997E+02  0.45594000000E+02  0.51100000000E-03 0. -1.
    9900012    2    1    2    0    0  0.63924109399E+00  0.31957288687E+00  0.93930153940E+00  0.90007727409E+02  0.89999988611E+02 0.  0.
         12    1    1    2    0    0 -0.63924109399E+00 -0.31957288687E+00 -0.93930153940E+00  0.11802725906E+01  0.00000000000E+00 0. -1.
         11    1    3    3    0    0  0.10027770528E+02 -0.13733195092E+02 -0.44992048103E+00  0.17010563127E+02  0.51100000000E-03 0. -1.
        -11    1    3    3    0    0  0.29447094302E+02  0.45391892502E+01 -0.99907639844E+01  0.31425323660E+02  0.51100000000E-03 0.  1.
         12    1    3    3    0    0 -0.38835623736E+02  0.95135787287E+01  0.11379986005E+02  0.41571840622E+02  0.00000000000E+00 0. -1.
</event>
<event>
 7    1  0.4331547E-015  0.9000767E+02  0.7816164E-02  0.1186339E+00
        -11   -1    0    0    0    0  0.00000000000E+00  0.00000000000E+00  0.45593999997E+02  0.45594000000E+02  0.51100000000E-03 0. -1.
         11   -1    0    0    0    0 -0.00000000000E+00 -0.00000000000E+00 -0.45593999997E+02  0.45594000000E+02  0.51100000000E-03 0.  1.
    9900012    2    1    2    0    0 -0.55042986712E+00  0.93608380669E+00 -0.46255380116E+00  0.90007668711E+02  0.89999929138E+02 0.  0.
         12    1    1    2    0    0  0.55042986712E+00 -0.93608380669E+00  0.46255380116E+00  0.11803312886E+01  0.00000000000E+00 0. -1.
         11    1    3    3    0    0 -0.64254834560E+00  0.24847659125E+02  0.73114065454E+01  0.25908988755E+02  0.51100000000E-03 0. -1.
        -11    1    3    3    0    0 -0.23196941616E+02  0.74871222837E+01 -0.79912060880E+00  0.24388392617E+02  0.51100000000E-03 0.  1.
         12    1    3    3    0    0  0.23289060094E+02 -0.31398697602E+02 -0.69748397378E+01  0.39710287339E+02  0.00000000000E+00 0. -1.
</event>
<event>
 7    1  0.4331547E-015  0.9000878E+02  0.7816164E-02  0.1186337E+00
        -11   -1    0    0    0    0  0.00000000000E+00  0.00000000000E+00  0.45593999997E+02  0.45594000000E+02  0.51100000000E-03 0.  1.
         11   -1    0    0    0    0 -0.00000000000E+00 -0.00000000000E+00 -0.45593999997E+02  0.45594000000E+02  0.51100000000E-03 0. -1.
    9900012    2    1    2    0    0 -0.59213409391E+00 -0.18482239071E+00  0.10028899874E+01  0.90008775497E+02  0.90001050528E+02 0.  0.
         12    1    1    2    0    0  0.59213409391E+00  0.18482239071E+00 -0.10028899874E+01  0.11792245029E+01  0.00000000000E+00 0. -1.
         11    1    3    3    0    0 -0.22140735497E+01  0.36721587175E+00 -0.46595079552E+01  0.51718453018E+01  0.51100000000E-03 0. -1.
        -11    1    3    3    0    0  0.31478006758E+02  0.28826408809E+02  0.10326358774E+01  0.42695352106E+02  0.51100000000E-03 0.  1.
         12    1    3    3    0    0 -0.29856067303E+02 -0.29378447071E+02  0.46297620652E+01  0.42141578090E+02  0.00000000000E+00 0. -1.
</event>
<event>
 7    1  0.4331547E-015  0.9000772E+02  0.7816164E-02  0.1186339E+00
        -11   -1    0    0    0    0  0.00000000000E+00  0.00000000000E+00  0.45593999997E+02  0.45594000000E+02  0.51100000000E-03 0.  1.
         11   -1    0    0    0    0 -0.00000000000E+00 -0.00000000000E+00 -0.45593999997E+02  0.45594000000E+02  0.51100000000E-03 0. -1.
    9900012    2    1    2    0    0 -0.11077532978E+01  0.36265977169E+00 -0.18555805288E+00  0.90007715598E+02  0.89999976644E+02 0.  0.
         12    1    1    2    0    0  0.11077532978E+01 -0.36265977169E+00  0.18555805288E+00  0.11802844021E+01  0.00000000000E+00 0. -1.
         11    1    3    3    0    0  0.18161091948E+01  0.78309538417E+01  0.31172112031E+01  0.86220123304E+01  0.51100000000E-03 0. -1.
        -11    1    3    3    0    0  0.22345980658E+01 -0.95353816195E+01  0.38239316254E+02  0.39473563799E+02  0.51100000000E-03 0.  1.
         12    1    3    3    0    0 -0.51584605584E+01  0.20670875495E+01 -0.41542085510E+02  0.41912139468E+02  0.00000000000E+00 0. -1.
</event>
<event>
 7    1  0.4331547E-015  0.9000780E+02  0.7816164E-02  0.1186339E+00
        -11   -1    0    0    0    0  0.00000000000E+00  0.00000000000E+00  0.45593999997E+02  0.45594000000E+02  0.51100000000E-03 0.  1.
         11   -1    0    0    0    0 -0.00000000000E+00 -0.00000000000E+00 -0.45593999997E+02  0.45594000000E+02  0.51100000000E-03 0. -1.
    9900012    2    1    2    0    0  0.37212332096E+00  0.10977104806E+01  0.22233664268E+00  0.90007797624E+02  0.90000059753E+02 0.  0.
         12    1    1    2    0    0 -0.37212332096E+00 -0.10977104806E+01 -0.22233664268E+00  0.11802023759E+01  0.00000000000E+00 0. -1.
         11    1    3    3    0    0  0.27529022037E+02 -0.24577575970E+02  0.65524395437E+01  0.37481178732E+02  0.51100000000E-03 0. -1.
        -11    1    3    3    0    0  0.40410387615E+01 -0.24679092316E+00  0.84387607810E+01  0.93596786169E+01  0.51100000000E-03 0.  1.
        -12    1    3    3    0    0 -0.31197937478E+02  0.25922077374E+02 -0.14768863682E+02  0.43166940275E+02  0.00000000000E+00 0.  1.
</event>
<event>
 7    1  0.4331547E-015  0.9000784E+02  0.7816164E-02  0.1186339E+00
        -11   -1    0    0    0    0  0.00000000000E+00  0.00000000000E+00  0.45593999997E+02  0.45594000000E+02  0.51100000000E-03 0.  1.
         11   -1    0    0    0    0 -0.00000000000E+00 -0.00000000000E+00 -0.45593999997E+02  0.45594000000E+02  0.51100000000E-03 0. -1.
    9900012    2    1    2    0    0  0.17181607730E+00 -0.11316989625E+01  0.28723449470E+00  0.90007844518E+02  0.90000107266E+02 0.  0.
         12    1    1    2    0    0 -0.17181607730E+00  0.11316989625E+01 -0.28723449470E+00  0.11801554818E+01  0.00000000000E+00 0. -1.
         11    1    3    3    0    0 -0.13946093585E+02  0.12094984770E+02 -0.32435821428E+02  0.37321102541E+02  0.51100000000E-03 0. -1.
        -11    1    3    3    0    0  0.62978687170E+01  0.91920822565E+01 -0.12783296782E+01  0.11215687835E+02  0.51100000000E-03 0.  1.
        -12    1    3    3    0    0  0.78200409457E+01 -0.22418765989E+02  0.34001385601E+02  0.41471054142E+02  0.00000000000E+00 0.  1.
</event>
<event>
 7    1  0.4331547E-015  0.9000780E+02  0.7816164E-02  0.1186339E+00
        -11   -1    0    0    0    0  0.00000000000E+00  0.00000000000E+00  0.45593999997E+02  0.45594000000E+02  0.51100000000E-03 0. -1.
         11   -1    0    0    0    0 -0.00000000000E+00 -0.00000000000E+00 -0.45593999997E+02  0.45594000000E+02  0.51100000000E-03 0.  1.
    9900012    2    1    2    0    0  0.75826714818E+00 -0.41603490847E+00 -0.80300931495E+00  0.90007797444E+02  0.90000059570E+02 0.  0.
         12    1    1    2    0    0 -0.75826714818E+00  0.41603490847E+00  0.80300931495E+00  0.11802025559E+01  0.00000000000E+00 0. -1.
         11    1    3    3    0    0 -0.53510417359E+01 -0.94320234350E+01 -0.12116124561E+01  0.10911678090E+02  0.51100000000E-03 0. -1.
        -11    1    3    3    0    0 -0.19139328129E+01 -0.59269727558E+00 -0.38331473249E+02  0.38383802190E+02  0.51100000000E-03 0.  1.
         12    1    3    3    0    0  0.80232416970E+01  0.96086858021E+01  0.38740076390E+02  0.40712317164E+02  0.00000000000E+00 0. -1.
</event>
<event>
 7    1  0.4331547E-015  0.9000793E+02  0.7816164E-02  0.1186339E+00
        -11   -1    0    0    0    0  0.00000000000E+00  0.00000000000E+00  0.45593999997E+02  0.45594000000E+02  0.51100000000E-03 0.  1.
         11   -1    0    0    0    0 -0.00000000000E+00 -0.00000000000E+00 -0.45593999997E+02  0.45594000000E+02  0.51100000000E-03 0. -1.
    9900012    2    1    2    0    0  0.36919334699E-01 -0.69441060149E+00 -0.95341897492E+00  0.90007925061E+02  0.90000188871E+02 0.  0.
         12    1    1    2    0    0 -0.36919334699E-01  0.69441060149E+00  0.95341897492E+00  0.11800749393E+01  0.00000000000E+00 0. -1.
         11    1    3    3    0    0 -0.23180400103E+02  0.14666456656E+02 -0.27906746782E+02  0.39130837150E+02  0.51100000000E-03 0. -1.
        -11    1    3    3    0    0 -0.82837043158E+01 -0.67303449875E+00  0.39877770148E+01  0.92181938800E+01  0.51100000000E-03 0.  1.
        -12    1    3    3    0    0  0.31501023754E+02 -0.14687832759E+02  0.22965550793E+02  0.41658894031E+02  0.00000000000E+00 0.  1.
</event>
<event>
 7    1  0.4331547E-015  0.9000782E+02  0.7816164E-02  0.1186339E+00
        -11   -1    0    0    0    0  0.00000000000E+00  0.00000000000E+00  0.45593999997E+02  0.45594000000E+02  0.51100000000E-03 0. -1.
         11   -1    0    0    0    0 -0.00000000000E+00 -0.00000000000E+00 -0.45593999997E+02  0.45594000000E+02  0.51100000000E-03 0.  1.
    9900012    2    1    2    0    0 -0.10393358482E+01  0.50057658874E+00 -0.24907867581E+00  0.90007815221E+02  0.90000077582E+02 0.  0.
         12    1    1    2    0    0  0.10393358482E+01 -0.50057658874E+00  0.24907867581E+00  0.11801847793E+01  0.00000000000E+00 0. -1.
         11    1    3    3    0    0 -0.82461146319E+01  0.60323680896E+01  0.40732614043E+00  0.10225154578E+02  0.51100000000E-03 0. -1.
        -11    1    3    3    0    0 -0.26761883035E+02 -0.25835806930E+02 -0.11164098465E+02  0.38837152292E+02  0.51100000000E-03 0.  1.
         12    1    3    3    0    0  0.33968661819E+02  0.20304015430E+02  0.10507693649E+02  0.40945508351E+02  0.00000000000E+00 0. -1.
</event>
<event>
 7    1  0.4331547E-015  0.9000752E+02  0.7816164E-02  0.1186339E+00
        -11   -1    0    0    0    0  0.00000000000E+00  0.00000000000E+00  0.45593999997E+02  0.45594000000E+02  0.51100000000E-03 0.  1.
         11   -1    0    0    0    0 -0.00000000000E+00 -0.00000000000E+00 -0.45593999997E+02  0.45594000000E+02  0.51100000000E-03 0. -1.
    9900012    2    1    2    0    0  0.60863733271E+00 -0.97963863590E+00  0.25179858775E+00  0.90007519679E+02  0.89999778138E+02 0.  0.
         12    1    1    2    0    0 -0.60863733271E+00  0.97963863590E+00 -0.25179858775E+00  0.11804803211E+01  0.00000000000E+00 0. -1.
         11    1    3    3    0    0 -0.27841709464E+02  0.17594054304E+02 -0.14120905917E+02  0.35834501767E+02  0.51100000000E-03 0. -1.
        -11    1    3    3    0    0 -0.66323350176E+01 -0.36530335376E+01 -0.71324313665E+01  0.10402119941E+02  0.51100000000E-03 0.  1.
        -12    1    3    3    0    0  0.35082681814E+02 -0.14920659403E+02  0.21505135871E+02  0.43770897970E+02  0.00000000000E+00 0.  1.
</event>
<event>
 7    1  0.4331547E-015  0.9000771E+02  0.7816164E-02  0.1186339E+00
        -11   -1    0    0    0    0  0.00000000000E+00  0.00000000000E+00  0.45593999997E+02  0.45594000000E+02  0.51100000000E-03 0.  1.
         11   -1    0    0    0    0 -0.00000000000E+00 -0.00000000000E+00 -0.45593999997E+02  0.45594000000E+02  0.51100000000E-03 0. -1.
    9900012    2    1    2    0    0  0.20714912079E+00 -0.10930617169E+00  0.11568190982E+01  0.90007708077E+02  0.89999969024E+02 0.  0.
         12    1    1    2    0    0 -0.20714912079E+00  0.10930617169E+00 -0.11568190982E+01  0.11802919230E+01  0.00000000000E+00 0. -1.
         11    1    3    3    0    0  0.53158412963E+00  0.96090258620E+01 -0.13814633930E+01  0.97223660223E+01  0.51100000000E-03 0. -1.
        -11    1    3    3    0    0 -0.13314657378E+01  0.24792044003E+02  0.27973687031E+02  0.37402478704E+02  0.51100000000E-03 0.  1.
         12    1    3    3    0    0  0.10070307290E+01 -0.34510376036E+02 -0.25435404540E+02  0.42882863351E+02  0.00000000000E+00 0. -1.
</event>
<event>
 7    1  0.4331547E-015  0.9000771E+02  0.7816164E-02  0.1186339E+00
        -11   -1    0    0    0    0  0.00000000000E+00  0.00000000000E+00  0.45593999997E+02  0.45594000000E+02  0.51100000000E-03 0.  1.
         11   -1    0    0    0    0 -0.00000000000E+00 -0.00000000000E+00 -0.45593999997E+02  0.45594000000E+02  0.51100000000E-03 0. -1.
    9900012    2    1    2    0    0  0.47972342878E+00  0.46988975419E+00  0.97064001407E+00  0.90007714871E+02  0.89999975907E+02 0.  0.
         12    1    1    2    0    0 -0.47972342878E+00 -0.46988975419E+00 -0.97064001407E+00  0.11802851292E+01  0.00000000000E+00 0. -1.
         11    1    3    3    0    0  0.62502538225E+01 -0.31077143466E+01 -0.55281996010E+01  0.89041873518E+01  0.51100000000E-03 0. -1.
        -11    1    3    3    0    0  0.35604983615E+02 -0.10250012012E+02  0.39096506922E+00  0.37053076235E+02  0.51100000000E-03 0.  1.
         12    1    3    3    0    0 -0.41375514009E+02  0.13827616113E+02  0.61078745459E+01  0.44050451284E+02  0.00000000000E+00 0. -1.
</event>
<event>
 7    1  0.4331547E-015  0.9000786E+02  0.7816164E-02  0.1186339E+00
        -11   -1    0    0    0    0  0.00000000000E+00  0.00000000000E+00  0.45593999997E+02  0.45594000000E+02  0.51100000000E-03 0. -1.
         11   -1    0    0    0    0 -0.00000000000E+00 -0.00000000000E+00 -0.45593999997E+02  0.45594000000E+02  0.51100000000E-03 0.  1.
    9900012    2    1    2    0    0 -0.55820782547E+00 -0.59333243386E+00 -0.85386345351E+00  0.90007863503E+02  0.90000126502E+02 0.  0.
         12    1    1    2    0    0  0.55820782547E+00  0.59333243386E+00  0.85386345351E+00  0.11801364967E+01  0.00000000000E+00 0. -1.
         11    1    3    3    0    0 -0.28446652810E+02  0.25769069066E+02  0.16075816287E+02  0.41613565651E+02  0.51100000000E-03 0. -1.
        -11    1    3    3    0    0 -0.19653916171E+01 -0.64758254552E+00 -0.76357842433E+01  0.79112153701E+01  0.51100000000E-03 0.  1.
        -12    1    3    3    0    0  0.29853836602E+02 -0.25714818955E+02 -0.92938954973E+01  0.40483082482E+02  0.00000000000E+00 0.  1.
</event>
<event>
 7    1  0.4331547E-015  0.9000769E+02  0.7816164E-02  0.1186339E+00
        -11   -1    0    0    0    0  0.00000000000E+00  0.00000000000E+00  0.45593999997E+02  0.45594000000E+02  0.51100000000E-03 0.  1.
         11   -1    0    0    0    0 -0.00000000000E+00 -0.00000000000E+00 -0.45593999997E+02  0.45594000000E+02  0.51100000000E-03 0. -1.
    9900012    2    1    2    0    0 -0.20761385581E+00  0.10684777156E+01  0.45649237374E+00  0.90007689266E+02  0.89999949964E+02 0.  0.
         12    1    1    2    0    0  0.20761385581E+00 -0.10684777156E+01 -0.45649237374E+00  0.11803107341E+01  0.00000000000E+00 0. -1.
         11    1    3    3    0    0 -0.29896382455E+02 -0.20290160053E+02 -0.12308938210E+02  0.38170593903E+02  0.51100000000E-03 0. -1.
        -11    1    3    3    0    0 -0.14801956235E+01  0.13771671533E+01 -0.87737630585E+01  0.90036929601E+01  0.51100000000E-03 0.  1.
        -12    1    3    3    0    0  0.31168964222E+02  0.19981470615E+02  0.21539193642E+02  0.42833402402E+02  0.00000000000E+00 0.  1.
</event>
<event>
 7    1  0.4331547E-015  0.9000772E+02  0.7816164E-02  0.1186339E+00
        -11   -1    0    0    0    0  0.00000000000E+00  0.00000000000E+00  0.45593999997E+02  0.45594000000E+02  0.51100000000E-03 0.  1.
         11   -1    0    0    0    0 -0.00000000000E+00 -0.00000000000E+00 -0.45593999997E+02  0.45594000000E+02  0.51100000000E-03 0. -1.
    9900012    2    1    2    0    0 -0.43125151556E+00  0.10982648308E+01 -0.30061389989E-01  0.90007717324E+02  0.89999978393E+02 0.  0.
         12    1    1    2    0    0  0.43125151556E+00 -0.10982648308E+01  0.30061389989E-01  0.11802826761E+01  0.00000000000E+00 0. -1.
         11    1    3    3    0    0 -0.15812113088E+02 -0.22966359925E+01 -0.30859826364E+02  0.34750918558E+02  0.51100000000E-03 0. -1.
        -11    1    3    3    0    0 -0.10526666455E+02 -0.11801664544E+02  0.10178738082E+02  0.18806825938E+02  0.51100000000E-03 0.  1.
        -12    1    3    3    0    0  0.25907528027E+02  0.15196565368E+02  0.20651026892E+02  0.36449972828E+02  0.00000000000E+00 0.  1.
</event>
<event>
 7    1  0.4331547E-015  0.9000761E+02  0.7816164E-02  0.1186339E+00
        -11   -1    0    0    0    0  0.00000000000E+00  0.00000000000E+00  0.45593999997E+02  0.45594000000E+02  0.51100000000E-03 0. -1.
         11   -1    0    0    0    0 -0.00000000000E+00 -0.00000000000E+00 -0.45593999997E+02  0.45594000000E+02  0.51100000000E-03 0.  1.
    9900012    2    1    2    0    0 -0.85466916908E-01  0.88804236733E+00 -0.77290720193E+00  0.90007614731E+02  0.89999874446E+02 0.  0.
         12    1    1    2    0    0  0.85466916908E-01 -0.88804236733E+00  0.77290720193E+00  0.11803852688E+01  0.00000000000E+00 0. -1.
         11    1    3    3    0    0  0.88612858313E+01  0.35269480840E+02 -0.21501541727E+02  0.42246597049E+02  0.51100000000E-03 0. -1.
        -11    1    3    3    0    0 -0.23999232015E+01 -0.19527663297E+02 -0.20600077446E+01  0.19782135814E+02  0.51100000000E-03 0.  1.
        -12    1    3    3    0    0 -0.65468295467E+01 -0.14853775177E+02  0.22788642269E+02  0.27978881868E+02  0.00000000000E+00 0.  1.
</event>
<event>
 7    1  0.5756910E-015  0.9000901E+02  0.7816164E-02  0.1186336E+00
        -11   -1    0    0    0    0  0.00000000000E+00  0.00000000000E+00  0.45593999997E+02  0.45594000000E+02  0.51100000000E-03 0. -1.
         11   -1    0    0    0    0 -0.00000000000E+00 -0.00000000000E+00 -0.45593999997E+02  0.45594000000E+02  0.51100000000E-03 0.  1.
    9900012    2    1    2    0    0 -0.62507966233E+00  0.56453905231E+00 -0.82497143980E+00  0.90009014503E+02  0.90001292685E+02 0.  0.
         12    1    1    2    0    0  0.62507966233E+00 -0.56453905231E+00  0.82497143980E+00  0.11789854971E+01  0.00000000000E+00 0. -1.
         11    1    3    3    0    0 -0.86640824181E+01 -0.94319960553E+00  0.23345581862E+01  0.90225335594E+01  0.51100000000E-03 0. -1.
        -11    1    3    3    0    0 -0.15240606049E+02 -0.16472885857E+02 -0.32463828742E+02  0.39465582703E+02  0.51100000000E-03 0.  1.
         12    1    3    3    0    0  0.23279608805E+02  0.17980624514E+02  0.29304299116E+02  0.41520898241E+02  0.00000000000E+00 0. -1.
</event>
<event>
 7    1  0.4331547E-015  0.9000787E+02  0.7816164E-02  0.1186339E+00
        -11   -1    0    0    0    0  0.00000000000E+00  0.00000000000E+00  0.45593999997E+02  0.45594000000E+02  0.51100000000E-03 0.  1.
         11   -1    0    0    0    0 -0.00000000000E+00 -0.00000000000E+00 -0.45593999997E+02  0.45594000000E+02  0.51100000000E-03 0. -1.
    9900012    2    1    2    0    0 -0.11202422160E+01  0.25670497591E+00 -0.26807749323E+00  0.90007870512E+02  0.90000133602E+02 0.  0.
         12    1    1    2    0    0  0.11202422160E+01 -0.25670497591E+00  0.26807749323E+00  0.11801294885E+01  0.00000000000E+00 0. -1.
         11    1    3    3    0    0 -0.38076954048E+00 -0.41024346123E+01 -0.42009507401E+02  0.42211060962E+02  0.51100000000E-03 0. -1.
        -11    1    3    3    0    0  0.84614947088E+01  0.14846418698E+00  0.53203658370E+01  0.99962606620E+01  0.51100000000E-03 0.  1.
        -12    1    3    3    0    0 -0.92009673843E+01  0.42106754012E+01  0.36421064071E+02  0.37800548888E+02  0.00000000000E+00 0.  1.
</event>
<event>
 7    1  0.4331547E-015  0.9000772E+02  0.7816164E-02  0.1186339E+00
        -11   -1    0    0    0    0  0.00000000000E+00  0.00000000000E+00  0.45593999997E+02  0.45594000000E+02  0.51100000000E-03 0.  1.
         11   -1    0    0    0    0 -0.00000000000E+00 -0.00000000000E+00 -0.45593999997E+02  0.45594000000E+02  0.51100000000E-03 0. -1.
    9900012    2    1    2    0    0 -0.91312859400E+00  0.74345507725E+00  0.80840828678E-01  0.90007718457E+02  0.89999979541E+02 0.  0.
         12    1    1    2    0    0  0.91312859400E+00 -0.74345507725E+00 -0.80840828678E-01  0.11802815430E+01  0.00000000000E+00 0. -1.
         11    1    3    3    0    0 -0.52238259561E+01 -0.47139360127E+00  0.75751614775E+01  0.92137745370E+01  0.51100000000E-03 0. -1.
        -11    1    3    3    0    0  0.26423804504E+01 -0.14745036340E+02  0.33540185853E+02  0.36733395411E+02  0.51100000000E-03 0.  1.
         12    1    3    3    0    0  0.16683169118E+01  0.15959885018E+02 -0.41034506502E+02  0.44060548509E+02  0.00000000000E+00 0. -1.
</event>
<event>
 7    1  0.4331547E-015  0.9000778E+02  0.7816164E-02  0.1186339E+00
        -11   -1    0    0    0    0  0.00000000000E+00  0.00000000000E+00  0.45593999997E+02  0.45594000000E+02  0.51100000000E-03 0.  1.
         11   -1    0    0    0    0 -0.00000000000E+00 -0.00000000000E+00 -0.45593999997E+02  0.45594000000E+02  0.51100000000E-03 0. -1.
    9900012    2    1    2    0    0  0.26129331139E+00  0.32213414345E+00  0.11049365003E+01  0.90007775754E+02  0.90000037594E+02 0.  0.
         12    1    1    2    0    0 -0.26129331139E+00 -0.32213414345E+00 -0.11049365003E+01  0.11802242459E+01  0.00000000000E+00 0. -1.
         11    1    3    3    0    0 -0.17087687072E+02 -0.16175831627E+02 -0.85118680876E+01  0.25021959893E+02  0.51100000000E-03 0. -1.
        -11    1    3    3    0    0 -0.16697272242E+02  0.11115530021E+00 -0.12811289800E+02  0.21046149349E+02  0.51100000000E-03 0.  1.
         12    1    3    3    0    0  0.34046252626E+02  0.16386810470E+02  0.22428094388E+02  0.43939666511E+02  0.00000000000E+00 0. -1.
</event>
<event>
 7    1  0.4331547E-015  0.9000769E+02  0.7816164E-02  0.1186339E+00
        -11   -1    0    0    0    0  0.00000000000E+00  0.00000000000E+00  0.45593999997E+02  0.45594000000E+02  0.51100000000E-03 0. -1.
         11   -1    0    0    0    0 -0.00000000000E+00 -0.00000000000E+00 -0.45593999997E+02  0.45594000000E+02  0.51100000000E-03 0.  1.
    9900012    2    1    2    0    0  0.10888881556E+01  0.45422936651E+00  0.33784818118E-01  0.90007685149E+02  0.89999945793E+02 0.  0.
         12    1    1    2    0    0 -0.10888881556E+01 -0.45422936651E+00 -0.33784818118E-01  0.11803148506E+01  0.00000000000E+00 0. -1.
         11    1    3    3    0    0  0.90069158463E+01 -0.35081175172E+02  0.46248631912E+01  0.36513048959E+02  0.51100000000E-03 0. -1.
        -11    1    3    3    0    0 -0.27487178549E+01 -0.68032207106E+01  0.60775033913E+01  0.95276077593E+01  0.51100000000E-03 0.  1.
        -12    1    3    3    0    0 -0.51693098359E+01  0.42338625249E+02 -0.10668581764E+02  0.43967028431E+02  0.00000000000E+00 0.  1.
</event>
<event>
 7    1  0.4331547E-015  0.9000775E+02  0.7816164E-02  0.1186339E+00
        -11   -1    0    0    0    0  0.00000000000E+00  0.00000000000E+00  0.45593999997E+02  0.45594000000E+02  0.51100000000E-03 0.  1.
         11   -1    0    0    0    0 -0.00000000000E+00 -0.00000000000E+00 -0.45593999997E+02  0.45594000000E+02  0.51100000000E-03 0. -1.
    9900012    2    1    2    0    0 -0.50771059418E-01 -0.10117302882E+01  0.60564679899E+00  0.90007752602E+02  0.90000014136E+02 0.  0.
         12    1    1    2    0    0  0.50771059418E-01  0.10117302882E+01 -0.60564679899E+00  0.11802473985E+01  0.00000000000E+00 0. -1.
         11    1    3    3    0    0 -0.12084712321E+02  0.28333271639E+02 -0.30171893556E+02  0.43117951188E+02  0.51100000000E-03 0. -1.
        -11    1    3    3    0    0  0.23266141674E+01 -0.63989754086E+00  0.96559092354E+01  0.99528481235E+01  0.51100000000E-03 0.  1.
        -12    1    3    3    0    0  0.97073270944E+01 -0.28705104386E+02  0.21121631120E+02  0.36936953290E+02  0.00000000000E+00 0.  1.
</event>
<event>
 7    1  0.4331547E-015  0.9000778E+02  0.7816164E-02  0.1186339E+00
        -11   -1    0    0    0    0  0.00000000000E+00  0.00000000000E+00  0.45593999997E+02  0.45594000000E+02  0.51100000000E-03 0.  1.
         11   -1    0    0    0    0 -0.00000000000E+00 -0.00000000000E+00 -0.45593999997E+02  0.45594000000E+02  0.51100000000E-03 0. -1.
    9900012    2    1    2    0    0  0.21954977923E+00 -0.54422545589E+00  0.10239839693E+01  0.90007776876E+02  0.90000038731E+02 0.  0.
         12    1    1    2    0    0 -0.21954977923E+00  0.54422545589E+00 -0.10239839693E+01  0.11802231237E+01  0.00000000000E+00 0. -1.
         11    1    3    3    0    0 -0.11855473045E+02 -0.22971007176E+02 -0.25369605973E+02  0.36219281044E+02  0.51100000000E-03 0. -1.
        -11    1    3    3    0    0 -0.52150410544E+01 -0.80978739548E+01 -0.40838305162E+00  0.96404871643E+01  0.51100000000E-03 0.  1.
        -12    1    3    3    0    0  0.17290063879E+02  0.30524655675E+02  0.26801972994E+02  0.44148008668E+02  0.00000000000E+00 0.  1.
</event>
<event>
 7    1  0.4331547E-015  0.9000770E+02  0.7816164E-02  0.1186339E+00
        -11   -1    0    0    0    0  0.00000000000E+00  0.00000000000E+00  0.45593999997E+02  0.45594000000E+02  0.51100000000E-03 0.  1.
         11   -1    0    0    0    0 -0.00000000000E+00 -0.00000000000E+00 -0.45593999997E+02  0.45594000000E+02  0.51100000000E-03 0. -1.
    9900012    2    1    2    0    0 -0.23769392619E-01  0.10161469351E+01  0.59998743417E+00  0.90007701521E+02  0.89999962381E+02 0.  0.
         12    1    1    2    0    0  0.23769392619E-01 -0.10161469351E+01 -0.59998743417E+00  0.11802984787E+01  0.00000000000E+00 0. -1.
         11    1    3    3    0    0 -0.54490160512E+01 -0.10971973931E+01 -0.74920473064E+01  0.93287936599E+01  0.51100000000E-03 0. -1.
        -11    1    3    3    0    0 -0.29832197716E+02 -0.16877105042E+02 -0.11425403643E+02  0.36129441510E+02  0.51100000000E-03 0.  1.
         12    1    3    3    0    0  0.35257444375E+02  0.18990449371E+02  0.19517438383E+02  0.44549466351E+02  0.00000000000E+00 0. -1.
</event>
<event>
 7    1  0.4331547E-015  0.9000770E+02  0.7816164E-02  0.1186339E+00
        -11   -1    0    0    0    0  0.00000000000E+00  0.00000000000E+00  0.45593999997E+02  0.45594000000E+02  0.51100000000E-03 0. -1.
         11   -1    0    0    0    0 -0.00000000000E+00 -0.00000000000E+00 -0.45593999997E+02  0.45594000000E+02  0.51100000000E-03 0.  1.
    9900012    2    1    2    0    0  0.72351836542E+00 -0.67531446846E-03 -0.93253286140E+00  0.90007704775E+02  0.89999965678E+02 0.  0.
         12    1    1    2    0    0 -0.72351836542E+00  0.67531446846E-03  0.93253286140E+00  0.11802952252E+01  0.00000000000E+00 0. -1.
         11    1    3    3    0    0  0.27665426337E+02 -0.56615035140E+01  0.22553196735E+02  0.36139661311E+02  0.51100000000E-03 0. -1.
        -11    1    3    3    0    0  0.26693568308E+01 -0.81124571485E+01  0.55365550311E+01  0.10177959950E+02  0.51100000000E-03 0.  1.
        -12    1    3    3    0    0 -0.29611264802E+02  0.13773285348E+02 -0.29022284627E+02  0.43690083514E+02  0.00000000000E+00 0.  1.
</event>
<event>
 7    1  0.4331547E-015  0.9000779E+02  0.7816164E-02  0.1186339E+00
        -11   -1    0    0    0    0  0.00000000000E+00  0.00000000000E+00  0.45593999997E+02  0.45594000000E+02  0.51100000000E-03 0. -1.
         11   -1    0    0    0    0 -0.00000000000E+00 -0.00000000000E+00 -0.45593999997E+02  0.45594000000E+02  0.51100000000E-03 0.  1.
    9900012    2    1    2    0    0 -0.99557975460E+00 -0.42134633049E+00 -0.47348986632E+00  0.90007786277E+02  0.90000048256E+02 0.  0.
         12    1    1    2    0    0  0.99557975460E+00  0.42134633049E+00  0.47348986632E+00  0.11802137228E+01  0.00000000000E+00 0. -1.
         11    1    3    3    0    0 -0.22158391565E+02 -0.31340761380E+02  0.98026028374E+01  0.39614753101E+02  0.51100000000E-03 0. -1.
        -11    1    3    3    0    0  0.42648634935E+01 -0.59513222859E+01 -0.62657492494E+01  0.96367479726E+01  0.51100000000E-03 0.  1.
        -12    1    3    3    0    0  0.16897948317E+02  0.36870737335E+02 -0.40103434543E+01  0.40756285203E+02  0.00000000000E+00 0.  1.
</event>
<event>
 7    1  0.4331547E-015  0.9000776E+02  0.7816164E-02  0.1186339E+00
        -11   -1    0    0    0    0  0.00000000000E+00  0.00000000000E+00  0.45593999997E+02  0.45594000000E+02  0.51100000000E-03 0.  1.
         11   -1    0    0    0    0 -0.00000000000E+00 -0.00000000000E+00 -0.45593999997E+02  0.45594000000E+02  0.51100000000E-03 0. -1.
    9900012    2    1    2    0    0 -0.40408893492E+00 -0.10844465424E+01  0.23165211265E+00  0.90007756435E+02  0.90000018020E+02 0.  0.
         12    1    1    2    0    0  0.40408893492E+00  0.10844465424E+01 -0.23165211265E+00  0.11802435647E+01  0.00000000000E+00 0. -1.
         11    1    3    3    0    0  0.35039701774E+01  0.35182107392E+02 -0.13604996651E+02  0.37883432021E+02  0.51100000000E-03 0. -1.
        -11    1    3    3    0    0 -0.91052343296E+00  0.61974403458E+01  0.63159717061E+01  0.88954380789E+01  0.51100000000E-03 0.  1.
        -12    1    3    3    0    0 -0.29975356793E+01 -0.42463994280E+02  0.75206770576E+01  0.43228886335E+02  0.00000000000E+00 0.  1.
</event>
<event>
 7    1  0.4331547E-015  0.9000771E+02  0.7816164E-02  0.1186339E+00
        -11   -1    0    0    0    0  0.00000000000E+00  0.00000000000E+00  0.45593999997E+02  0.45594000000E+02  0.51100000000E-03 0. -1.
         11   -1    0    0    0    0 -0.00000000000E+00 -0.00000000000E+00 -0.45593999997E+02  0.45594000000E+02  0.51100000000E-03 0.  1.
    9900012    2    1    2    0    0 -0.90887171443E+00 -0.14129054926E+00 -0.73963725152E+00  0.90007714409E+02  0.89999975439E+02 0.  0.
         12    1    1    2    0    0  0.90887171443E+00  0.14129054926E+00  0.73963725152E+00  0.11802855910E+01  0.00000000000E+00 0. -1.
         11    1    3    3    0    0 -0.50089211033E+01  0.67884900754E+01 -0.15401626864E+02  0.17560837066E+02  0.51100000000E-03 0. -1.
        -11    1    3    3    0    0  0.74807506690E+01 -0.36444584507E+02 -0.39135661568E+01  0.37409696213E+02  0.51100000000E-03 0.  1.
         12    1    3    3    0    0 -0.33807012801E+01  0.29514803882E+02  0.18575555770E+02  0.35037181130E+02  0.00000000000E+00 0. -1.
</event>
<event>
 7    1  0.4582505E-015  0.9000774E+02  0.7816164E-02  0.1186339E+00
        -11   -1    0    0    0    0  0.00000000000E+00  0.00000000000E+00  0.45593999997E+02  0.45594000000E+02  0.51100000000E-03 0. -1.
         11   -1    0    0    0    0 -0.00000000000E+00 -0.00000000000E+00 -0.45593999997E+02  0.45594000000E+02  0.51100000000E-03 0.  1.
    9900012    2    1    2    0    0 -0.63769395552E+00  0.34263036376E+00 -0.93218347477E+00  0.90007739360E+02  0.90000000720E+02 0.  0.
         12    1    1    2    0    0  0.63769395552E+00 -0.34263036376E+00  0.93218347477E+00  0.11802606397E+01  0.00000000000E+00 0. -1.
         11    1    3    3    0    0 -0.35997722484E+00 -0.55508268160E+01  0.73150630637E+01  0.91897448186E+01  0.51100000000E-03 0. -1.
        -11    1    3    3    0    0  0.98860514410E+01 -0.17732848142E+02 -0.37022407156E+02  0.42223767575E+02  0.51100000000E-03 0.  1.
         12    1    3    3    0    0 -0.10163768172E+02  0.23626305321E+02  0.28775160618E+02  0.38594226967E+02  0.00000000000E+00 0. -1.
</event>
<event>
 7    1  0.4331547E-015  0.9000772E+02  0.7816164E-02  0.1186339E+00
        -11   -1    0    0    0    0  0.00000000000E+00  0.00000000000E+00  0.45593999997E+02  0.45594000000E+02  0.51100000000E-03 0.  1.
         11   -1    0    0    0    0 -0.00000000000E+00 -0.00000000000E+00 -0.45593999997E+02  0.45594000000E+02  0.51100000000E-03 0. -1.
    9900012    2    1    2    0    0 -0.60730225123E+00  0.10098683301E+01 -0.66338621230E-01  0.90007724235E+02  0.89999985395E+02 0.  0.
         12    1    1    2    0    0  0.60730225123E+00 -0.10098683301E+01  0.66338621230E-01  0.11802757649E+01  0.00000000000E+00 0. -1.
         11    1    3    3    0    0  0.14206604036E+02  0.36543185174E+02  0.30856282913E+00  0.39208764227E+02  0.51100000000E-03 0. -1.
        -11    1    3    3    0    0  0.85816386661E+01 -0.13594597026E+01 -0.32682310029E+01  0.92829945076E+01  0.51100000000E-03 0.  1.
        -12    1    3    3    0    0 -0.23395544954E+02 -0.34173857141E+02  0.28933295526E+01  0.41515965501E+02  0.00000000000E+00 0.  1.
</event>
<event>
 7    1  0.4331547E-015  0.9000782E+02  0.7816164E-02  0.1186339E+00
        -11   -1    0    0    0    0  0.00000000000E+00  0.00000000000E+00  0.45593999997E+02  0.45594000000E+02  0.51100000000E-03 0.  1.
         11   -1    0    0    0    0 -0.00000000000E+00 -0.00000000000E+00 -0.45593999997E+02  0.45594000000E+02  0.51100000000E-03 0. -1.
    9900012    2    1    2    0    0 -0.75808821290E+00 -0.18125003393E+00  0.88616432470E+00  0.90007815047E+02  0.90000077405E+02 0.  0.
         12    1    1    2    0    0  0.75808821290E+00  0.18125003393E+00 -0.88616432470E+00  0.11801849532E+01  0.00000000000E+00 0. -1.
         11    1    3    3    0    0 -0.15502051599E+01  0.94735790753E+01  0.71145274382E+01  0.11948570520E+02  0.51100000000E-03 0. -1.
        -11    1    3    3    0    0 -0.13760016691E+01 -0.40654559764E+02  0.11513386273E+02  0.42275816655E+02  0.51100000000E-03 0.  1.
         12    1    3    3    0    0  0.21681186162E+01  0.30999730654E+02 -0.17741749386E+02  0.35783427872E+02  0.00000000000E+00 0. -1.
</event>
<event>
 7    1  0.4331547E-015  0.9000776E+02  0.7816164E-02  0.1186339E+00
        -11   -1    0    0    0    0  0.00000000000E+00  0.00000000000E+00  0.45593999997E+02  0.45594000000E+02  0.51100000000E-03 0. -1.
         11   -1    0    0    0    0 -0.00000000000E+00 -0.00000000000E+00 -0.45593999997E+02  0.45594000000E+02  0.51100000000E-03 0.  1.
    9900012    2    1    2    0    0  0.68339968817E+00 -0.29371278838E-02 -0.96224624922E+00  0.90007762056E+02  0.90000023715E+02 0.  0.
         12    1    1    2    0    0 -0.68339968817E+00  0.29371278838E-02  0.96224624922E+00  0.11802379441E+01  0.00000000000E+00 0. -1.
         11    1    3    3    0    0  0.46717204433E+01 -0.82660655651E+01 -0.21616876067E+01  0.97378491156E+01  0.51100000000E-03 0. -1.
        -11    1    3    3    0    0  0.28243001422E+02  0.25709449448E+02 -0.13883716750E+02  0.40637427469E+02  0.51100000000E-03 0.  1.
         12    1    3    3    0    0 -0.32231322177E+02 -0.17446321011E+02  0.15083158107E+02  0.39632485471E+02  0.00000000000E+00 0. -1.
</event>
<event>
 7    1  0.4331547E-015  0.9000771E+02  0.7816164E-02  0.1186339E+00
        -11   -1    0    0    0    0  0.00000000000E+00  0.00000000000E+00  0.45593999997E+02  0.45594000000E+02  0.51100000000E-03 0.  1.
         11   -1    0    0    0    0 -0.00000000000E+00 -0.00000000000E+00 -0.45593999997E+02  0.45594000000E+02  0.51100000000E-03 0. -1.
    9900012    2    1    2    0    0 -0.99741589618E+00  0.18978849725E+00  0.60184810005E+00  0.90007712205E+02  0.89999973206E+02 0.  0.
         12    1    1    2    0    0  0.99741589618E+00 -0.18978849725E+00 -0.60184810005E+00  0.11802877951E+01  0.00000000000E+00 0. -1.
         11    1    3    3    0    0 -0.22432198030E+02 -0.19040118414E+02 -0.23393789856E+02  0.37589879246E+02  0.51100000000E-03 0. -1.
        -11    1    3    3    0    0  0.37549092403E+01 -0.91329972809E+01 -0.20012724144E+01  0.10075518561E+02  0.51100000000E-03 0.  1.
        -12    1    3    3    0    0  0.17679872894E+02  0.28362904192E+02  0.25996910370E+02  0.42342314398E+02  0.00000000000E+00 0.  1.
</event>
<event>
 7    1  0.4331547E-015  0.9000774E+02  0.7816164E-02  0.1186339E+00
        -11   -1    0    0    0    0  0.00000000000E+00  0.00000000000E+00  0.45593999997E+02  0.45594000000E+02  0.51100000000E-03 0. -1.
         11   -1    0    0    0    0 -0.00000000000E+00 -0.00000000000E+00 -0.45593999997E+02  0.45594000000E+02  0.51100000000E-03 0.  1.
    9900012    2    1    2    0    0 -0.62219119485E+00 -0.82812018242E+00 -0.56577136124E+00  0.90007744878E+02  0.90000006311E+02 0.  0.
         12    1    1    2    0    0  0.62219119485E+00  0.82812018242E+00  0.56577136124E+00  0.11802551219E+01  0.00000000000E+00 0. -1.
         11    1    3    3    0    0 -0.12725006544E+01  0.51693053662E+00  0.63869693410E+01  0.65329819164E+01  0.51100000000E-03 0. -1.
        -11    1    3    3    0    0  0.24157474324E+02  0.32447313332E+02  0.46172961776E+01  0.40715244472E+02  0.51100000000E-03 0.  1.
         12    1    3    3    0    0 -0.23507164864E+02 -0.33792364051E+02 -0.11570036880E+02  0.42759518490E+02  0.00000000000E+00 0. -1.
</event>
<event>
 7    1  0.4868542E-015  0.9000781E+02  0.7816164E-02  0.1186339E+00
        -11   -1    0    0    0    0  0.00000000000E+00  0.00000000000E+00  0.45593999997E+02  0.45594000000E+02  0.51100000000E-03 0.  1.
         11   -1    0    0    0    0 -0.00000000000E+00 -0.00000000000E+00 -0.45593999997E+02  0.45594000000E+02  0.51100000000E-03 0. -1.
    9900012    2    1    2    0    0  0.71892394626E+00  0.91020900807E+00  0.21800889271E+00  0.90007805119E+02  0.90000067347E+02 0.  0.
         12    1    1    2    0    0 -0.71892394626E+00 -0.91020900807E+00 -0.21800889271E+00  0.11801948806E+01  0.00000000000E+00 0. -1.
         11    1    3    3    0    0 -0.33998779497E+01 -0.46677562412E+01  0.79272303583E+01  0.98075532022E+01  0.51100000000E-03 0. -1.
        -11    1    3    3    0    0  0.87101823504E+01 -0.15799639695E+02  0.30927820249E+02  0.35805390051E+02  0.51100000000E-03 0.  1.
         12    1    3    3    0    0 -0.45913804544E+01  0.21377604945E+02 -0.38637041715E+02  0.44394861866E+02  0.00000000000E+00 0. -1.
</event>
<event>
 7    1  0.4331547E-015  0.9000766E+02  0.7816164E-02  0.1186339E+00
        -11   -1    0    0    0    0  0.00000000000E+00  0.00000000000E+00  0.45593999997E+02  0.45594000000E+02  0.51100000000E-03 0. -1.
         11   -1    0    0    0    0 -0.00000000000E+00 -0.00000000000E+00 -0.45593999997E+02  0.45594000000E+02  0.51100000000E-03 0.  1.
    9900012    2    1    2    0    0 -0.90389447201E+00 -0.74896604631E+00  0.12338987089E+00  0.90007660890E+02  0.89999921213E+02 0.  0.
         12    1    1    2    0    0  0.90389447201E+00  0.74896604631E+00 -0.12338987089E+00  0.11803391103E+01  0.00000000000E+00 0. -1.
         11    1    3    3    0    0 -0.32615704097E+02  0.13641633024E+02  0.14386842963E+02  0.38168829639E+02  0.51100000000E-03 0. -1.
        -11    1    3    3    0    0 -0.51690699210E+01  0.46857606377E+01 -0.66222240719E+01  0.96192249439E+01  0.51100000000E-03 0.  1.
        -12    1    3    3    0    0  0.36880879546E+02 -0.19076359708E+02 -0.76412290202E+01  0.42219606307E+02  0.00000000000E+00 0.  1.
</event>
<event>
 7    1  0.4331547E-015  0.9000770E+02  0.7816164E-02  0.1186339E+00
        -11   -1    0    0    0    0  0.00000000000E+00  0.00000000000E+00  0.45593999997E+02  0.45594000000E+02  0.51100000000E-03 0.  1.
         11   -1    0    0    0    0 -0.00000000000E+00 -0.00000000000E+00 -0.45593999997E+02  0.45594000000E+02  0.51100000000E-03 0. -1.
    9900012    2    1    2    0    0 -0.44642226455E-02 -0.24932271372E+00  0.11536536063E+01  0.90007704110E+02  0.89999965004E+02 0.  0.
         12    1    1    2    0    0  0.44642226455E-02  0.24932271372E+00 -0.11536536063E+01  0.11802958901E+01  0.00000000000E+00 0. -1.
         11    1    3    3    0    0 -0.16068310236E+02 -0.22544443887E+02  0.12558124057E+02  0.30399819474E+02  0.51100000000E-03 0. -1.
        -11    1    3    3    0    0 -0.89670426516E+00 -0.79696998238E+01  0.14323473137E+02  0.16415909259E+02  0.51100000000E-03 0.  1.
        -12    1    3    3    0    0  0.16960550278E+02  0.30264820997E+02 -0.25727943587E+02  0.43191975377E+02  0.00000000000E+00 0.  1.
</event>
<event>
 7    1  0.4331547E-015  0.9000779E+02  0.7816164E-02  0.1186339E+00
        -11   -1    0    0    0    0  0.00000000000E+00  0.00000000000E+00  0.45593999997E+02  0.45594000000E+02  0.51100000000E-03 0. -1.
         11   -1    0    0    0    0 -0.00000000000E+00 -0.00000000000E+00 -0.45593999997E+02  0.45594000000E+02  0.51100000000E-03 0.  1.
    9900012    2    1    2    0    0  0.73788347892E+00 -0.51551668058E+00 -0.76332069149E+00  0.90007793258E+02  0.90000055329E+02 0.  0.
         12    1    1    2    0    0 -0.73788347892E+00  0.51551668058E+00  0.76332069149E+00  0.11802067423E+01  0.00000000000E+00 0. -1.
         11    1    3    3    0    0  0.15948004868E+02  0.35723835397E+02  0.10466329185E+02  0.40497843420E+02  0.51100000000E-03 0. -1.
        -11    1    3    3    0    0  0.30398583768E+01 -0.39726626084E+01  0.66757342284E+01  0.83419551007E+01  0.51100000000E-03 0.  1.
        -12    1    3    3    0    0 -0.18249979766E+02 -0.32266689469E+02 -0.17905384105E+02  0.41167994738E+02  0.00000000000E+00 0.  1.
</event>
<event>
 7    1  0.4331547E-015  0.9000778E+02  0.7816164E-02  0.1186339E+00
        -11   -1    0    0    0    0  0.00000000000E+00  0.00000000000E+00  0.45593999997E+02  0.45594000000E+02  0.51100000000E-03 0.  1.
         11   -1    0    0    0    0 -0.00000000000E+00 -0.00000000000E+00 -0.45593999997E+02  0.45594000000E+02  0.51100000000E-03 0. -1.
    9900012    2    1    2    0    0  0.10005951349E+01  0.47507517401E+00  0.40745954540E+00  0.90007783780E+02  0.90000045726E+02 0.  0.
         12    1    1    2    0    0 -0.10005951349E+01 -0.47507517401E+00 -0.40745954540E+00  0.11802162201E+01  0.00000000000E+00 0. -1.
         11    1    3    3    0    0 -0.15279603870E+02 -0.33688216883E+02  0.95437351629E+01  0.38202684884E+02  0.51100000000E-03 0. -1.
        -11    1    3    3    0    0  0.42039501183E+01 -0.46856023365E-01  0.99571962769E+01  0.10808383322E+02  0.51100000000E-03 0.  1.
        -12    1    3    3    0    0  0.12076248886E+02  0.34210148081E+02 -0.19093471894E+02  0.40996715574E+02  0.00000000000E+00 0.  1.
</event>
<event>
 7    1  0.4331547E-015  0.9000757E+02  0.7816164E-02  0.1186339E+00
        -11   -1    0    0    0    0  0.00000000000E+00  0.00000000000E+00  0.45593999997E+02  0.45594000000E+02  0.51100000000E-03 0. -1.
         11   -1    0    0    0    0 -0.00000000000E+00 -0.00000000000E+00 -0.45593999997E+02  0.45594000000E+02  0.51100000000E-03 0.  1.
    9900012    2    1    2    0    0  0.86371161423E+00  0.80403012722E+00  0.31013183868E-01  0.90007566175E+02  0.89999825248E+02 0.  0.
         12    1    1    2    0    0 -0.86371161423E+00 -0.80403012722E+00 -0.31013183868E-01  0.11804338252E+01  0.00000000000E+00 0. -1.
         11    1    3    3    0    0  0.25465270187E+01  0.17294251120E+01  0.62093149181E+01  0.69304619679E+01  0.51100000000E-03 0. -1.
        -11    1    3    3    0    0  0.16624464012E+02  0.36615900659E+02 -0.90232251050E+01  0.41213051044E+02  0.51100000000E-03 0.  1.
         12    1    3    3    0    0 -0.18307279416E+02 -0.37541295644E+02  0.28449233707E+01  0.41864053163E+02  0.00000000000E+00 0. -1.
</event>
<event>
 7    1  0.4331547E-015  0.9000772E+02  0.7816164E-02  0.1186339E+00
        -11   -1    0    0    0    0  0.00000000000E+00  0.00000000000E+00  0.45593999997E+02  0.45594000000E+02  0.51100000000E-03 0.  1.
         11   -1    0    0    0    0 -0.00000000000E+00 -0.00000000000E+00 -0.45593999997E+02  0.45594000000E+02  0.51100000000E-03 0. -1.
    9900012    2    1    2    0    0 -0.11284219886E+01  0.12998679614E+00  0.32065478188E+00  0.90007723659E+02  0.89999984811E+02 0.  0.
         12    1    1    2    0    0  0.11284219886E+01 -0.12998679614E+00 -0.32065478188E+00  0.11802763408E+01  0.00000000000E+00 0. -1.
         11    1    3    3    0    0 -0.40459008139E+01  0.47585152982E+01  0.43061551153E+01  0.75865508221E+01  0.51100000000E-03 0. -1.
        -11    1    3    3    0    0  0.41559754413E+02  0.65154092396E+01 -0.33267228807E+01  0.42198706494E+02  0.51100000000E-03 0.  1.
         12    1    3    3    0    0 -0.38642275587E+02 -0.11143937742E+02 -0.65877745271E+00  0.40222466343E+02  0.00000000000E+00 0. -1.
</event>
<event>
 7    1  0.4331547E-015  0.9000779E+02  0.7816164E-02  0.1186339E+00
        -11   -1    0    0    0    0  0.00000000000E+00  0.00000000000E+00  0.45593999997E+02  0.45594000000E+02  0.51100000000E-03 0.  1.
         11   -1    0    0    0    0 -0.00000000000E+00 -0.00000000000E+00 -0.45593999997E+02  0.45594000000E+02  0.51100000000E-03 0. -1.
    9900012    2    1    2    0    0 -0.38377066199E+00 -0.36256489305E+00  0.10555410598E+01  0.90007788090E+02  0.90000050093E+02 0.  0.
         12    1    1    2    0    0  0.38377066199E+00  0.36256489305E+00 -0.10555410598E+01  0.11802119096E+01  0.00000000000E+00 0. -1.
         11    1    3    3    0    0 -0.12491375106E+02  0.23750240204E+02 -0.28341087921E+02  0.39029804337E+02  0.51100000000E-03 0. -1.
        -11    1    3    3    0    0  0.20280832817E+02 -0.95532074516E+01  0.79234641975E+01  0.23777242009E+02  0.51100000000E-03 0.  1.
        -12    1    3    3    0    0 -0.81732283730E+01 -0.14559597645E+02  0.21473164783E+02  0.27200741744E+02  0.00000000000E+00 0.  1.
</event>
<event>
 7    1  0.4331547E-015  0.9000769E+02  0.7816164E-02  0.1186339E+00
        -11   -1    0    0    0    0  0.00000000000E+00  0.00000000000E+00  0.45593999997E+02  0.45594000000E+02  0.51100000000E-03 0.  1.
         11   -1    0    0    0    0 -0.00000000000E+00 -0.00000000000E+00 -0.45593999997E+02  0.45594000000E+02  0.51100000000E-03 0. -1.
    9900012    2    1    2    0    0 -0.57501581446E+00 -0.86420791926E+00  0.56181829117E+00  0.90007687200E+02  0.89999947871E+02 0.  0.
         12    1    1    2    0    0  0.57501581446E+00  0.86420791926E+00 -0.56181829117E+00  0.11803128004E+01  0.00000000000E+00 0. -1.
         11    1    3    3    0    0  0.65942011963E+01  0.17506885555E+02 -0.32289526712E+02  0.37317396302E+02  0.51100000000E-03 0. -1.
        -11    1    3    3    0    0 -0.65345445091E+01  0.65801285432E+01 -0.23231777103E+01  0.95601003406E+01  0.51100000000E-03 0.  1.
        -12    1    3    3    0    0 -0.63467250165E+00 -0.24951222018E+02  0.35174522713E+02  0.43130190557E+02  0.00000000000E+00 0.  1.
</event>
<event>
 7    1  0.4331547E-015  0.9000707E+02  0.7816164E-02  0.1186340E+00
        -11   -1    0    0    0    0  0.00000000000E+00  0.00000000000E+00  0.45593999997E+02  0.45594000000E+02  0.51100000000E-03 0.  1.
         11   -1    0    0    0    0 -0.00000000000E+00 -0.00000000000E+00 -0.45593999997E+02  0.45594000000E+02  0.51100000000E-03 0. -1.
    9900012    2    1    2    0    0  0.10368012348E+01 -0.50738628940E+00  0.24941110405E+00  0.90007066663E+02  0.89999319141E+02 0.  0.
         12    1    1    2    0    0 -0.10368012348E+01  0.50738628940E+00 -0.24941110405E+00  0.11809333368E+01  0.00000000000E+00 0. -1.
         11    1    3    3    0    0 -0.40888445595E+01  0.18440720020E+01 -0.91594921020E+01  0.10198801263E+02  0.51100000000E-03 0. -1.
        -11    1    3    3    0    0 -0.19104345599E+02  0.29832366234E+02  0.16201899415E+02  0.38954430310E+02  0.51100000000E-03 0.  1.
         12    1    3    3    0    0  0.24229991394E+02 -0.32183824525E+02 -0.67929962087E+01  0.40853835089E+02  0.00000000000E+00 0. -1.
</event>
<event>
 7    1  0.4331547E-015  0.9000785E+02  0.7816164E-02  0.1186339E+00
        -11   -1    0    0    0    0  0.00000000000E+00  0.00000000000E+00  0.45593999997E+02  0.45594000000E+02  0.51100000000E-03 0. -1.
         11   -1    0    0    0    0 -0.00000000000E+00 -0.00000000000E+00 -0.45593999997E+02  0.45594000000E+02  0.51100000000E-03 0.  1.
    9900012    2    1    2    0    0 -0.96003607204E+00  0.50676973606E+00 -0.46288256797E+00  0.90007853782E+02  0.90000116651E+02 0.  0.
         12    1    1    2    0    0  0.96003607204E+00 -0.50676973606E+00  0.46288256797E+00  0.11801462184E+01  0.00000000000E+00 0. -1.
         11    1    3    3    0    0 -0.21708924467E+00  0.17080670202E+01 -0.93376536519E+01  0.94950722309E+01  0.51100000000E-03 0. -1.
        -11    1    3    3    0    0 -0.12424901470E+02 -0.13840936555E+02 -0.31523107867E+02  0.36601311877E+02  0.51100000000E-03 0.  1.
         12    1    3    3    0    0  0.11681954643E+02  0.12639639271E+02  0.40397878951E+02  0.43911469674E+02  0.00000000000E+00 0. -1.
</event>
<event>
 7    1  0.4331547E-015  0.9000766E+02  0.7816164E-02  0.1186339E+00
        -11   -1    0    0    0    0  0.00000000000E+00  0.00000000000E+00  0.45593999997E+02  0.45594000000E+02  0.51100000000E-03 0.  1.
         11   -1    0    0    0    0 -0.00000000000E+00 -0.00000000000E+00 -0.45593999997E+02  0.45594000000E+02  0.51100000000E-03 0. -1.
    9900012    2    1    2    0    0 -0.11474555862E+00 -0.35292120553E+00  0.11204789736E+01  0.90007664009E+02  0.89999924374E+02 0.  0.
         12    1    1    2    0    0  0.11474555862E+00  0.35292120553E+00 -0.11204789736E+01  0.11803359907E+01  0.00000000000E+00 0. -1.
         11    1    3    3    0    0  0.32016161608E+01 -0.37515168402E+02 -0.74569919277E+01  0.38382872940E+02  0.51100000000E-03 0. -1.
        -11    1    3    3    0    0 -0.59826352732E+01 -0.52915847783E+01  0.37200414080E+01  0.88108741119E+01  0.51100000000E-03 0.  1.
        -12    1    3    3    0    0  0.26662735538E+01  0.42453831974E+02  0.48574294933E+01  0.42813916958E+02  0.00000000000E+00 0.  1.
</event>
<event>
 7    1  0.4331547E-015  0.9000774E+02  0.7816164E-02  0.1186339E+00
        -11   -1    0    0    0    0  0.00000000000E+00  0.00000000000E+00  0.45593999997E+02  0.45594000000E+02  0.51100000000E-03 0.  1.
         11   -1    0    0    0    0 -0.00000000000E+00 -0.00000000000E+00 -0.45593999997E+02  0.45594000000E+02  0.51100000000E-03 0. -1.
    9900012    2    1    2    0    0  0.60005041780E+00  0.56249787570E+00  0.84649813818E+00  0.90007735851E+02  0.89999997164E+02 0.  0.
         12    1    1    2    0    0 -0.60005041780E+00 -0.56249787570E+00 -0.84649813818E+00  0.11802641492E+01  0.00000000000E+00 0. -1.
         11    1    3    3    0    0  0.66308712925E+01  0.28203035563E+01  0.47034653166E+01  0.86049493022E+01  0.51100000000E-03 0. -1.
        -11    1    3    3    0    0  0.96773684142E+01 -0.65015333103E+01  0.36272465146E+02  0.38100040982E+02  0.51100000000E-03 0.  1.
         12    1    3    3    0    0 -0.15708189289E+02  0.42437276297E+01 -0.40129432324E+02  0.43302745567E+02  0.00000000000E+00 0. -1.
</event>
<event>
 7    1  0.4331547E-015  0.9000774E+02  0.7816164E-02  0.1186339E+00
        -11   -1    0    0    0    0  0.00000000000E+00  0.00000000000E+00  0.45593999997E+02  0.45594000000E+02  0.51100000000E-03 0. -1.
         11   -1    0    0    0    0 -0.00000000000E+00 -0.00000000000E+00 -0.45593999997E+02  0.45594000000E+02  0.51100000000E-03 0.  1.
    9900012    2    1    2    0    0  0.12189871791E-01  0.23129981821E-01 -0.11799746392E+01  0.90007735734E+02  0.89999997045E+02 0.  0.
         12    1    1    2    0    0 -0.12189871791E-01 -0.23129981821E-01  0.11799746392E+01  0.11802642663E+01  0.00000000000E+00 0. -1.
         11    1    3    3    0    0 -0.15617378689E+01  0.67005155149E+01 -0.97819628732E+01  0.11959211147E+02  0.51100000000E-03 0. -1.
        -11    1    3    3    0    0 -0.22210840444E+02  0.14127713556E+02 -0.21814997580E+02  0.34187831801E+02  0.51100000000E-03 0.  1.
         12    1    3    3    0    0  0.23784768185E+02 -0.20805099089E+02  0.30416985814E+02  0.43860692786E+02  0.00000000000E+00 0. -1.
</event>
<event>
 7    1  0.4331547E-015  0.9000775E+02  0.7816164E-02  0.1186339E+00
        -11   -1    0    0    0    0  0.00000000000E+00  0.00000000000E+00  0.45593999997E+02  0.45594000000E+02  0.51100000000E-03 0.  1.
         11   -1    0    0    0    0 -0.00000000000E+00 -0.00000000000E+00 -0.45593999997E+02  0.45594000000E+02  0.51100000000E-03 0. -1.
    9900012    2    1    2    0    0  0.78693792814E+00 -0.74397343920E+00  0.46927771087E+00  0.90007750301E+02  0.90000011805E+02 0.  0.
         12    1    1    2    0    0 -0.78693792814E+00  0.74397343920E+00 -0.46927771087E+00  0.11802496985E+01  0.00000000000E+00 0. -1.
         11    1    3    3    0    0  0.30740106690E+01 -0.32664784710E+02 -0.22342242200E+02  0.39693998142E+02  0.51100000000E-03 0. -1.
        -11    1    3    3    0    0 -0.37239920186E+01 -0.58531257635E+01  0.48332094941E+01  0.84550051468E+01  0.51100000000E-03 0.  1.
        -12    1    3    3    0    0  0.14369192777E+01  0.37773937034E+02  0.17978310417E+02  0.41858747013E+02  0.00000000000E+00 0.  1.
</event>
<event>
 7    1  0.8450604E-015  0.9000771E+02  0.7816164E-02  0.1186339E+00
        -11   -1    0    0    0    0  0.00000000000E+00  0.00000000000E+00  0.45593999997E+02  0.45594000000E+02  0.51100000000E-03 0. -1.
         11   -1    0    0    0    0 -0.00000000000E+00 -0.00000000000E+00 -0.45593999997E+02  0.45594000000E+02  0.51100000000E-03 0.  1.
    9900012    2    1    2    0    0 -0.90496343700E+00  0.14389738153E+00 -0.74392019240E+00  0.90007710827E+02  0.89999971810E+02 0.  0.
         12    1    1    2    0    0  0.90496343700E+00 -0.14389738153E+00  0.74392019240E+00  0.11802891728E+01  0.00000000000E+00 0. -1.
         11    1    3    3    0    0 -0.21496442106E+02 -0.15348756621E+02  0.28314270721E+02  0.38721819169E+02  0.51100000000E-03 0. -1.
        -11    1    3    3    0    0 -0.70975538920E+01 -0.42066101435E+01 -0.49551084194E+01  0.96241332004E+01  0.51100000000E-03 0.  1.
        -12    1    3    3    0    0  0.27689032561E+02  0.19699264147E+02 -0.24103082494E+02  0.41661758458E+02  0.00000000000E+00 0.  1.
</event>
<event>
 7    1  0.4331547E-015  0.9000775E+02  0.7816164E-02  0.1186339E+00
        -11   -1    0    0    0    0  0.00000000000E+00  0.00000000000E+00  0.45593999997E+02  0.45594000000E+02  0.51100000000E-03 0. -1.
         11   -1    0    0    0    0 -0.00000000000E+00 -0.00000000000E+00 -0.45593999997E+02  0.45594000000E+02  0.51100000000E-03 0.  1.
    9900012    2    1    2    0    0  0.11633041964E+01  0.96833764940E-01 -0.17418216247E+00  0.90007748816E+02  0.90000010300E+02 0.  0.
         12    1    1    2    0    0 -0.11633041964E+01 -0.96833764940E-01  0.17418216247E+00  0.11802511839E+01  0.00000000000E+00 0. -1.
         11    1    3    3    0    0 -0.17441158404E+02 -0.30047413316E+02  0.16616781135E+02  0.38511796491E+02  0.51100000000E-03 0. -1.
        -11    1    3    3    0    0 -0.36545939974E+01 -0.44325009849E+01 -0.73062658955E+01  0.92943339656E+01  0.51100000000E-03 0.  1.
        -12    1    3    3    0    0  0.22259056597E+02  0.34576748065E+02 -0.94846974016E+01  0.42201618360E+02  0.00000000000E+00 0.  1.
</event>
<event>
 7    1  0.4331547E-015  0.9000775E+02  0.7816164E-02  0.1186339E+00
        -11   -1    0    0    0    0  0.00000000000E+00  0.00000000000E+00  0.45593999997E+02  0.45594000000E+02  0.51100000000E-03 0. -1.
         11   -1    0    0    0    0 -0.00000000000E+00 -0.00000000000E+00 -0.45593999997E+02  0.45594000000E+02  0.51100000000E-03 0.  1.
    9900012    2    1    2    0    0 -0.88133650758E+00  0.78040336762E+00  0.84943313028E-01  0.90007746289E+02  0.90000007740E+02 0.  0.
         12    1    1    2    0    0  0.88133650758E+00 -0.78040336762E+00 -0.84943313028E-01  0.11802537110E+01  0.00000000000E+00 0. -1.
         11    1    3    3    0    0  0.35012723172E+01  0.63664198312E+01 -0.55214699576E+01  0.91256145031E+01  0.51100000000E-03 0. -1.
        -11    1    3    3    0    0  0.56458410968E+01  0.36608388994E+02 -0.75144919488E+00  0.37048810272E+02  0.51100000000E-03 0.  1.
         12    1    3    3    0    0 -0.10028449922E+02 -0.42194405458E+02  0.63578624655E+01  0.43833321513E+02  0.00000000000E+00 0. -1.
</event>
<event>
 7    1  0.4331547E-015  0.9000774E+02  0.7816164E-02  0.1186339E+00
        -11   -1    0    0    0    0  0.00000000000E+00  0.00000000000E+00  0.45593999997E+02  0.45594000000E+02  0.51100000000E-03 0.  1.
         11   -1    0    0    0    0 -0.00000000000E+00 -0.00000000000E+00 -0.45593999997E+02  0.45594000000E+02  0.51100000000E-03 0. -1.
    9900012    2    1    2    0    0 -0.19478232360E+00  0.48252636065E+00  0.10593539717E+01  0.90007744655E+02  0.90000006084E+02 0.  0.
         12    1    1    2    0    0  0.19478232360E+00 -0.48252636065E+00 -0.10593539717E+01  0.11802553451E+01  0.00000000000E+00 0. -1.
         11    1    3    3    0    0 -0.30562716746E+02 -0.27588044190E+02  0.32232807182E+01  0.41298539635E+02  0.51100000000E-03 0. -1.
        -11    1    3    3    0    0 -0.21770096605E+01  0.53590736477E+01  0.58447027701E+01  0.82231132885E+01  0.51100000000E-03 0.  1.
        -12    1    3    3    0    0  0.32544944083E+02  0.22711496903E+02 -0.80086295166E+01  0.40486091731E+02  0.00000000000E+00 0.  1.
</event>
<event>
 7    1  0.4331547E-015  0.9000791E+02  0.7816164E-02  0.1186339E+00
        -11   -1    0    0    0    0  0.00000000000E+00  0.00000000000E+00  0.45593999997E+02  0.45594000000E+02  0.51100000000E-03 0. -1.
         11   -1    0    0    0    0 -0.00000000000E+00 -0.00000000000E+00 -0.45593999997E+02  0.45594000000E+02  0.51100000000E-03 0.  1.
    9900012    2    1    2    0    0  0.10308319411E+01 -0.37811977655E+00  0.43245855694E+00  0.90007911249E+02  0.90000174878E+02 0.  0.
         12    1    1    2    0    0 -0.10308319411E+01  0.37811977655E+00 -0.43245855694E+00  0.11800887508E+01  0.00000000000E+00 0. -1.
         11    1    3    3    0    0  0.78644960307E+01  0.55171097170E+01  0.17800362958E+01  0.97702265543E+01  0.51100000000E-03 0. -1.
        -11    1    3    3    0    0  0.12737718186E+02  0.32294652860E+02 -0.10680559220E+02  0.36321734726E+02  0.51100000000E-03 0.  1.
         12    1    3    3    0    0 -0.19571382276E+02 -0.38189882354E+02  0.93329814815E+01  0.43915949969E+02  0.00000000000E+00 0. -1.
</event>
<event>
 7    1  0.4331547E-015  0.9000767E+02  0.7816164E-02  0.1186339E+00
        -11   -1    0    0    0    0  0.00000000000E+00  0.00000000000E+00  0.45593999997E+02  0.45594000000E+02  0.51100000000E-03 0. -1.
         11   -1    0    0    0    0 -0.00000000000E+00 -0.00000000000E+00 -0.45593999997E+02  0.45594000000E+02  0.51100000000E-03 0.  1.
    9900012    2    1    2    0    0 -0.23074900979E+00 -0.10463454854E+01  0.49508083147E+00  0.90007665721E+02  0.89999926109E+02 0.  0.
         12    1    1    2    0    0  0.23074900979E+00  0.10463454854E+01 -0.49508083147E+00  0.11803342789E+01  0.00000000000E+00 0. -1.
         11    1    3    3    0    0 -0.64366484451E+01 -0.22405599716E+01  0.29406195941E+01  0.74227889672E+01  0.51100000000E-03 0. -1.
        -11    1    3    3    0    0 -0.99231766372E+01 -0.18221310220E+02 -0.35425538003E+02  0.41054285084E+02  0.51100000000E-03 0.  1.
         12    1    3    3    0    0  0.16129076073E+02  0.19415524706E+02  0.32979999240E+02  0.41530591670E+02  0.00000000000E+00 0. -1.
</event>
<event>
 7    1  0.4331547E-015  0.9000770E+02  0.7816164E-02  0.1186339E+00
        -11   -1    0    0    0    0  0.00000000000E+00  0.00000000000E+00  0.45593999997E+02  0.45594000000E+02  0.51100000000E-03 0.  1.
         11   -1    0    0    0    0 -0.00000000000E+00 -0.00000000000E+00 -0.45593999997E+02  0.45594000000E+02  0.51100000000E-03 0. -1.
    9900012    2    1    2    0    0 -0.23490252029E+00  0.10856127424E+01 -0.39921675120E+00  0.90007699939E+02  0.89999960778E+02 0.  0.
         12    1    1    2    0    0  0.23490252029E+00 -0.10856127424E+01  0.39921675120E+00  0.11803000614E+01  0.00000000000E+00 0. -1.
         11    1    3    3    0    0 -0.14070706111E+02  0.68371590474E+01 -0.22944809024E+02  0.27770411875E+02  0.51100000000E-03 0. -1.
        -11    1    3    3    0    0 -0.41485701497E+01 -0.45703392707E+01 -0.17373898425E+02  0.18437759682E+02  0.51100000000E-03 0.  1.
        -12    1    3    3    0    0  0.17984373741E+02 -0.11812070343E+01  0.39919490698E+02  0.43799528382E+02  0.00000000000E+00 0.  1.
</event>
<event>
 7    1  0.4331547E-015  0.9000759E+02  0.7816164E-02  0.1186339E+00
        -11   -1    0    0    0    0  0.00000000000E+00  0.00000000000E+00  0.45593999997E+02  0.45594000000E+02  0.51100000000E-03 0.  1.
         11   -1    0    0    0    0 -0.00000000000E+00 -0.00000000000E+00 -0.45593999997E+02  0.45594000000E+02  0.51100000000E-03 0. -1.
    9900012    2    1    2    0    0 -0.75800115851E+00 -0.81227345820E+00  0.39875399993E+00  0.90007593850E+02  0.89999853288E+02 0.  0.
         12    1    1    2    0    0  0.75800115851E+00  0.81227345820E+00 -0.39875399993E+00  0.11804061503E+01  0.00000000000E+00 0. -1.
         11    1    3    3    0    0  0.31708673908E+02  0.21780004336E+02 -0.10864721828E+01  0.38483620047E+02  0.51100000000E-03 0. -1.
        -11    1    3    3    0    0  0.25193799734E+01 -0.64454342956E+00  0.91551883185E+01  0.95173622970E+01  0.51100000000E-03 0.  1.
        -12    1    3    3    0    0 -0.34986055040E+02 -0.21947734364E+02 -0.76699621358E+01  0.42006611505E+02  0.00000000000E+00 0.  1.
</event>
<event>
 7    1  0.4331547E-015  0.9000773E+02  0.7816164E-02  0.1186339E+00
        -11   -1    0    0    0    0  0.00000000000E+00  0.00000000000E+00  0.45593999997E+02  0.45594000000E+02  0.51100000000E-03 0.  1.
         11   -1    0    0    0    0 -0.00000000000E+00 -0.00000000000E+00 -0.45593999997E+02  0.45594000000E+02  0.51100000000E-03 0. -1.
    9900012    2    1    2    0    0 -0.37569219885E-01 -0.88796868636E+00  0.77661866044E+00  0.90007730379E+02  0.89999991620E+02 0.  0.
         12    1    1    2    0    0  0.37569219885E-01  0.88796868636E+00 -0.77661866044E+00  0.11802696209E+01  0.00000000000E+00 0. -1.
         11    1    3    3    0    0  0.45556585144E+01 -0.66608964854E+01 -0.37193913689E+01  0.88856873063E+01  0.51100000000E-03 0. -1.
        -11    1    3    3    0    0  0.10378808739E+02 -0.26261847120E+02  0.27112551237E+02  0.39147090822E+02  0.51100000000E-03 0.  1.
         12    1    3    3    0    0 -0.14972036473E+02  0.32034774919E+02 -0.22616541207E+02  0.41974952251E+02  0.00000000000E+00 0. -1.
</event>
<event>
 7    1  0.4331547E-015  0.9000772E+02  0.7816164E-02  0.1186339E+00
        -11   -1    0    0    0    0  0.00000000000E+00  0.00000000000E+00  0.45593999997E+02  0.45594000000E+02  0.51100000000E-03 0.  1.
         11   -1    0    0    0    0 -0.00000000000E+00 -0.00000000000E+00 -0.45593999997E+02  0.45594000000E+02  0.51100000000E-03 0. -1.
    9900012    2    1    2    0    0  0.14442717898E+00 -0.68808285226E+00  0.94802239540E+00  0.90007718812E+02  0.89999979900E+02 0.  0.
         12    1    1    2    0    0 -0.14442717898E+00  0.68808285226E+00 -0.94802239540E+00  0.11802811884E+01  0.00000000000E+00 0. -1.
         11    1    3    3    0    0  0.17383417822E+01  0.21226762389E+01  0.80873181444E+01  0.85400410769E+01  0.51100000000E-03 0. -1.
        -11    1    3    3    0    0 -0.29440739301E+02  0.14444834909E+02  0.20442191209E+02  0.38643156805E+02  0.51100000000E-03 0.  1.
         12    1    3    3    0    0  0.27846824698E+02 -0.17255594000E+02 -0.27581486958E+02  0.42824520930E+02  0.00000000000E+00 0. -1.
</event>
<event>
 7    1  0.4331547E-015  0.9000751E+02  0.7816164E-02  0.1186340E+00
        -11   -1    0    0    0    0  0.00000000000E+00  0.00000000000E+00  0.45593999997E+02  0.45594000000E+02  0.51100000000E-03 0.  1.
         11   -1    0    0    0    0 -0.00000000000E+00 -0.00000000000E+00 -0.45593999997E+02  0.45594000000E+02  0.51100000000E-03 0. -1.
    9900012    2    1    2    0    0  0.10469370082E+01  0.41443522975E+00 -0.35458911242E+00  0.90007505571E+02  0.89999763844E+02 0.  0.
         12    1    1    2    0    0 -0.10469370082E+01 -0.41443522975E+00  0.35458911242E+00  0.11804944293E+01  0.00000000000E+00 0. -1.
         11    1    3    3    0    0  0.33479870261E+02  0.15865628136E+02 -0.14354031685E+02  0.39732330598E+02  0.51100000000E-03 0.  1.
        -11    1    3    3    0    0 -0.31477208530E+01 -0.91560329413E+01 -0.84431151553E+01  0.12846294391E+02  0.51100000000E-03 0. -1.
         12    1    3    3    0    0 -0.29285212399E+02 -0.62951599649E+01  0.22442557728E+02  0.37428880582E+02  0.00000000000E+00 0. -1.
</event>
<event>
 7    1  0.4331547E-015  0.9000772E+02  0.7816164E-02  0.1186339E+00
        -11   -1    0    0    0    0  0.00000000000E+00  0.00000000000E+00  0.45593999997E+02  0.45594000000E+02  0.51100000000E-03 0.  1.
         11   -1    0    0    0    0 -0.00000000000E+00 -0.00000000000E+00 -0.45593999997E+02  0.45594000000E+02  0.51100000000E-03 0. -1.
    9900012    2    1    2    0    0  0.79014944128E+00  0.43961282463E-01  0.87566381761E+00  0.90007722128E+02  0.89999983260E+02 0.  0.
         12    1    1    2    0    0 -0.79014944128E+00 -0.43961282463E-01 -0.87566381761E+00  0.11802778721E+01  0.00000000000E+00 0. -1.
         11    1    3    3    0    0 -0.25699234698E+02  0.25502342718E+02 -0.88914874419E+01  0.37281076934E+02  0.51100000000E-03 0. -1.
        -11    1    3    3    0    0  0.40933910291E+01  0.68219466470E+01 -0.64308373631E+01  0.10229881506E+02  0.51100000000E-03 0.  1.
        -12    1    3    3    0    0  0.22395993110E+02 -0.32280328083E+02  0.16197988623E+02  0.42496763688E+02  0.00000000000E+00 0.  1.
</event>
<event>
 7    1  0.4480230E-015  0.9000769E+02  0.7816164E-02  0.1186339E+00
        -11   -1    0    0    0    0  0.00000000000E+00  0.00000000000E+00  0.45593999997E+02  0.45594000000E+02  0.51100000000E-03 0. -1.
         11   -1    0    0    0    0 -0.00000000000E+00 -0.00000000000E+00 -0.45593999997E+02  0.45594000000E+02  0.51100000000E-03 0.  1.
    9900012    2    1    2    0    0  0.40512004578E+00  0.11670721350E+00 -0.11024451056E+01  0.90007691551E+02  0.89999952279E+02 0.  0.
         12    1    1    2    0    0 -0.40512004578E+00 -0.11670721350E+00  0.11024451056E+01  0.11803084495E+01  0.00000000000E+00 0. -1.
         11    1    3    3    0    0  0.28640647770E+01  0.70435077760E+01 -0.61331094664E+01  0.97687717153E+01  0.51100000000E-03 0. -1.
        -11    1    3    3    0    0 -0.17028836101E+02  0.51577234709E+00 -0.33938530299E+02  0.37974611507E+02  0.51100000000E-03 0.  1.
         12    1    3    3    0    0  0.14569891369E+02 -0.74425729096E+01  0.38969194659E+02  0.42264308328E+02  0.00000000000E+00 0. -1.
</event>
<event>
 7    1  0.4331547E-015  0.9000772E+02  0.7816164E-02  0.1186339E+00
        -11   -1    0    0    0    0  0.00000000000E+00  0.00000000000E+00  0.45593999997E+02  0.45594000000E+02  0.51100000000E-03 0.  1.
         11   -1    0    0    0    0 -0.00000000000E+00 -0.00000000000E+00 -0.45593999997E+02  0.45594000000E+02  0.51100000000E-03 0. -1.
    9900012    2    1    2    0    0 -0.43905123562E+00 -0.92901838632E+00 -0.58070634832E+00  0.90007719943E+02  0.89999981046E+02 0.  0.
         12    1    1    2    0    0  0.43905123562E+00  0.92901838632E+00  0.58070634832E+00  0.11802800568E+01  0.00000000000E+00 0. -1.
         11    1    3    3    0    0 -0.28886548207E+02  0.53454693973E+01  0.23282334506E+02  0.37484314196E+02  0.51100000000E-03 0. -1.
        -11    1    3    3    0    0 -0.54296275500E+01 -0.68137499374E+01  0.30739122251E+01  0.92388841409E+01  0.51100000000E-03 0.  1.
        -12    1    3    3    0    0  0.33877124522E+02  0.53926215373E+00 -0.26936953079E+02  0.43284521607E+02  0.00000000000E+00 0.  1.
</event>
<event>
 7    1  0.4331547E-015  0.9000779E+02  0.7816164E-02  0.1186339E+00
        -11   -1    0    0    0    0  0.00000000000E+00  0.00000000000E+00  0.45593999997E+02  0.45594000000E+02  0.51100000000E-03 0. -1.
         11   -1    0    0    0    0 -0.00000000000E+00 -0.00000000000E+00 -0.45593999997E+02  0.45594000000E+02  0.51100000000E-03 0.  1.
    9900012    2    1    2    0    0 -0.72908374878E-01 -0.59371052175E+00 -0.10173966796E+01  0.90007786537E+02  0.90000048519E+02 0.  0.
         12    1    1    2    0    0  0.72908374878E-01  0.59371052175E+00  0.10173966796E+01  0.11802134630E+01  0.00000000000E+00 0. -1.
         11    1    3    3    0    0 -0.71887974350E+01 -0.29325356395E+01  0.70210751647E+01  0.10467763399E+02  0.51100000000E-03 0. -1.
        -11    1    3    3    0    0 -0.23566537670E+02  0.19833637433E+02 -0.25640444218E+02  0.40077266019E+02  0.51100000000E-03 0.  1.
         12    1    3    3    0    0  0.30682426730E+02 -0.17494812315E+02  0.17601972374E+02  0.39462757119E+02  0.00000000000E+00 0. -1.
</event>
<event>
 7    1  0.4331547E-015  0.9000763E+02  0.7816164E-02  0.1186339E+00
        -11   -1    0    0    0    0  0.00000000000E+00  0.00000000000E+00  0.45593999997E+02  0.45594000000E+02  0.51100000000E-03 0. -1.
         11   -1    0    0    0    0 -0.00000000000E+00 -0.00000000000E+00 -0.45593999997E+02  0.45594000000E+02  0.51100000000E-03 0.  1.
    9900012    2    1    2    0    0  0.60686527103E+00 -0.86199331047E+00  0.53099619928E+00  0.90007629343E+02  0.89999889250E+02 0.  0.
         12    1    1    2    0    0 -0.60686527103E+00  0.86199331047E+00 -0.53099619928E+00  0.11803706571E+01  0.00000000000E+00 0. -1.
         11    1    3    3    0    0  0.80695316296E+01  0.13213188638E+00 -0.37709526988E+01  0.89081358360E+01  0.51100000000E-03 0. -1.
        -11    1    3    3    0    0  0.35525729054E+02 -0.99019241001E+01  0.48292568819E+01  0.37194720701E+02  0.51100000000E-03 0.  1.
         12    1    3    3    0    0 -0.42988395413E+02  0.89077989032E+01 -0.52730798386E+00  0.43904772806E+02  0.00000000000E+00 0. -1.
</event>
<event>
 7    1  0.4331547E-015  0.9000780E+02  0.7816164E-02  0.1186339E+00
        -11   -1    0    0    0    0  0.00000000000E+00  0.00000000000E+00  0.45593999997E+02  0.45594000000E+02  0.51100000000E-03 0.  1.
         11   -1    0    0    0    0 -0.00000000000E+00 -0.00000000000E+00 -0.45593999997E+02  0.45594000000E+02  0.51100000000E-03 0. -1.
    9900012    2    1    2    0    0  0.57250769115E+00  0.10313214023E+01  0.38503838894E-01  0.90007800255E+02  0.90000062419E+02 0.  0.
         12    1    1    2    0    0 -0.57250769115E+00 -0.10313214023E+01 -0.38503838894E-01  0.11801997445E+01  0.00000000000E+00 0. -1.
         11    1    3    3    0    0  0.74346944990E+01  0.31982834651E+01  0.38271015161E+01  0.89526758956E+01  0.51100000000E-03 0. -1.
        -11    1    3    3    0    0  0.13931309690E+02  0.26490641625E+02  0.22089858448E+02  0.37199426473E+02  0.51100000000E-03 0.  1.
         12    1    3    3    0    0 -0.20793496497E+02 -0.28657603688E+02 -0.25878456126E+02  0.43855697887E+02  0.00000000000E+00 0. -1.
</event>
<event>
 7    1  0.4331547E-015  0.9000761E+02  0.7816164E-02  0.1186339E+00
        -11   -1    0    0    0    0  0.00000000000E+00  0.00000000000E+00  0.45593999997E+02  0.45594000000E+02  0.51100000000E-03 0.  1.
         11   -1    0    0    0    0 -0.00000000000E+00 -0.00000000000E+00 -0.45593999997E+02  0.45594000000E+02  0.51100000000E-03 0. -1.
    9900012    2    1    2    0    0 -0.59689002387E+00 -0.10127230686E+01 -0.10693668519E+00  0.90007609739E+02  0.89999869387E+02 0.  0.
         12    1    1    2    0    0  0.59689002387E+00  0.10127230686E+01  0.10693668519E+00  0.11803902613E+01  0.00000000000E+00 0. -1.
         11    1    3    3    0    0  0.13567768656E+02  0.31060666299E+01 -0.48192483526E+01  0.14729465406E+02  0.51100000000E-03 0. -1.
        -11    1    3    3    0    0  0.16116394651E+02 -0.75161370049E+01  0.30535810338E+02  0.35336471319E+02  0.51100000000E-03 0.  1.
         12    1    3    3    0    0 -0.30281053330E+02  0.33973473065E+01 -0.25823498671E+02  0.39941673013E+02  0.00000000000E+00 0. -1.
</event>
<event>
 7    1  0.4331547E-015  0.9000771E+02  0.7816164E-02  0.1186339E+00
        -11   -1    0    0    0    0  0.00000000000E+00  0.00000000000E+00  0.45593999997E+02  0.45594000000E+02  0.51100000000E-03 0. -1.
         11   -1    0    0    0    0 -0.00000000000E+00 -0.00000000000E+00 -0.45593999997E+02  0.45594000000E+02  0.51100000000E-03 0.  1.
    9900012    2    1    2    0    0  0.47025800837E+00 -0.52384771632E+00 -0.94737228132E+00  0.90007714753E+02  0.89999975788E+02 0.  0.
         12    1    1    2    0    0 -0.47025800837E+00  0.52384771632E+00  0.94737228132E+00  0.11802852468E+01  0.00000000000E+00 0. -1.
         11    1    3    3    0    0 -0.14103933710E+02 -0.10349146316E+01  0.26316728429E+02  0.29875779318E+02  0.51100000000E-03 0. -1.
        -11    1    3    3    0    0 -0.90581566292E+01 -0.75138208085E+01  0.98905726866E+01  0.15373065179E+02  0.51100000000E-03 0.  1.
        -12    1    3    3    0    0  0.23632348347E+02  0.80248877238E+01 -0.37154673397E+02  0.44758870256E+02  0.00000000000E+00 0.  1.
</event>
<event>
 7    1  0.4331547E-015  0.9000778E+02  0.7816164E-02  0.1186339E+00
        -11   -1    0    0    0    0  0.00000000000E+00  0.00000000000E+00  0.45593999997E+02  0.45594000000E+02  0.51100000000E-03 0.  1.
         11   -1    0    0    0    0 -0.00000000000E+00 -0.00000000000E+00 -0.45593999997E+02  0.45594000000E+02  0.51100000000E-03 0. -1.
    9900012    2    1    2    0    0 -0.84863313762E+00 -0.39764766903E+00  0.71736706569E+00  0.90007780792E+02  0.90000042699E+02 0.  0.
         12    1    1    2    0    0  0.84863313762E+00  0.39764766903E+00 -0.71736706569E+00  0.11802192076E+01  0.00000000000E+00 0. -1.
         11    1    3    3    0    0  0.70578315998E+01 -0.32192963937E+01  0.34126546917E+01  0.84748491708E+01  0.51100000000E-03 0. -1.
        -11    1    3    3    0    0  0.10894910572E+02  0.15244245596E+02  0.33797000618E+02  0.38643542167E+02  0.51100000000E-03 0.  1.
         12    1    3    3    0    0 -0.18801375309E+02 -0.12422596871E+02 -0.36492288244E+02  0.42889389455E+02  0.00000000000E+00 0. -1.
</event>
<event>
 7    1  0.4331547E-015  0.9000771E+02  0.7816164E-02  0.1186339E+00
        -11   -1    0    0    0    0  0.00000000000E+00  0.00000000000E+00  0.45593999997E+02  0.45594000000E+02  0.51100000000E-03 0.  1.
         11   -1    0    0    0    0 -0.00000000000E+00 -0.00000000000E+00 -0.45593999997E+02  0.45594000000E+02  0.51100000000E-03 0. -1.
    9900012    2    1    2    0    0 -0.84128051572E+00 -0.61257891095E+00  0.55685755363E+00  0.90007705052E+02  0.89999965959E+02 0.  0.
         12    1    1    2    0    0  0.84128051572E+00  0.61257891095E+00 -0.55685755363E+00  0.11802949476E+01  0.00000000000E+00 0. -1.
         11    1    3    3    0    0  0.36781716597E+01  0.68420769865E+01 -0.46407823314E+01  0.90487471595E+01  0.51100000000E-03 0. -1.
        -11    1    3    3    0    0  0.26253934539E+02  0.15839629838E+02  0.23123175993E+02  0.38403700609E+02  0.51100000000E-03 0.  1.
         12    1    3    3    0    0 -0.30773386714E+02 -0.23294285736E+02 -0.17925536108E+02  0.42555257284E+02  0.00000000000E+00 0. -1.
</event>
<event>
 7    1  0.4331547E-015  0.9000759E+02  0.7816164E-02  0.1186339E+00
        -11   -1    0    0    0    0  0.00000000000E+00  0.00000000000E+00  0.45593999997E+02  0.45594000000E+02  0.51100000000E-03 0. -1.
         11   -1    0    0    0    0 -0.00000000000E+00 -0.00000000000E+00 -0.45593999997E+02  0.45594000000E+02  0.51100000000E-03 0.  1.
    9900012    2    1    2    0    0 -0.51762962303E+00 -0.89850367485E+00  0.56402582324E+00  0.90007587187E+02  0.89999846538E+02 0.  0.
         12    1    1    2    0    0  0.51762962303E+00  0.89850367485E+00 -0.56402582324E+00  0.11804128132E+01  0.00000000000E+00 0. -1.
         11    1    3    3    0    0  0.21759902713E+02 -0.31606384654E+02 -0.13050460751E+02  0.40531116972E+02  0.51100000000E-03 0. -1.
        -11    1    3    3    0    0  0.66300199209E+01  0.99696954323E+01  0.28642100584E+01  0.12310795697E+02  0.51100000000E-03 0.  1.
        -12    1    3    3    0    0 -0.28907552256E+02  0.20738185547E+02  0.10750276516E+02  0.37165674518E+02  0.00000000000E+00 0.  1.
</event>
<event>
 7    1  0.4331547E-015  0.9000762E+02  0.7816164E-02  0.1186339E+00
        -11   -1    0    0    0    0  0.00000000000E+00  0.00000000000E+00  0.45593999997E+02  0.45594000000E+02  0.51100000000E-03 0. -1.
         11   -1    0    0    0    0 -0.00000000000E+00 -0.00000000000E+00 -0.45593999997E+02  0.45594000000E+02  0.51100000000E-03 0.  1.
    9900012    2    1    2    0    0 -0.27564640768E+00 -0.10504340421E+01 -0.46248992100E+00  0.90007623134E+02  0.89999882959E+02 0.  0.
         12    1    1    2    0    0  0.27564640768E+00  0.10504340421E+01  0.46248992100E+00  0.11803768660E+01  0.00000000000E+00 0. -1.
         11    1    3    3    0    0 -0.66339650317E+01 -0.13051498381E+00  0.77963144603E+01  0.10237628906E+02  0.51100000000E-03 0. -1.
        -11    1    3    3    0    0 -0.21656041375E+02 -0.25401976268E+02 -0.22145535664E+02  0.40058323435E+02  0.51100000000E-03 0.  1.
         12    1    3    3    0    0  0.28014359999E+02  0.24482057210E+02  0.13886731282E+02  0.39711670792E+02  0.00000000000E+00 0. -1.
</event>
<event>
 7    1  0.4331547E-015  0.9000780E+02  0.7816164E-02  0.1186339E+00
        -11   -1    0    0    0    0  0.00000000000E+00  0.00000000000E+00  0.45593999997E+02  0.45594000000E+02  0.51100000000E-03 0.  1.
         11   -1    0    0    0    0 -0.00000000000E+00 -0.00000000000E+00 -0.45593999997E+02  0.45594000000E+02  0.51100000000E-03 0. -1.
    9900012    2    1    2    0    0  0.23661723970E+00 -0.38582206933E-01  0.11555934537E+01  0.90007799790E+02  0.90000061948E+02 0.  0.
         12    1    1    2    0    0 -0.23661723970E+00  0.38582206933E-01 -0.11555934537E+01  0.11802002097E+01  0.00000000000E+00 0. -1.
         11    1    3    3    0    0  0.20739089126E+02 -0.22538461995E+02 -0.23166137534E+02  0.38402630319E+02  0.51100000000E-03 0. -1.
        -11    1    3    3    0    0  0.76516518787E+01  0.52698326521E+01 -0.18589272887E+01  0.94749418773E+01  0.51100000000E-03 0.  1.
        -12    1    3    3    0    0 -0.28154123765E+02  0.17230047136E+02  0.26180658276E+02  0.42130227594E+02  0.00000000000E+00 0.  1.
</event>
<event>
 7    1  0.4331547E-015  0.9000718E+02  0.7816164E-02  0.1186340E+00
        -11   -1    0    0    0    0  0.00000000000E+00  0.00000000000E+00  0.45593999997E+02  0.45594000000E+02  0.51100000000E-03 0. -1.
         11   -1    0    0    0    0 -0.00000000000E+00 -0.00000000000E+00 -0.45593999997E+02  0.45594000000E+02  0.51100000000E-03 0.  1.
    9900012    2    1    2    0    0  0.69304047313E-01 -0.20693985047E+00 -0.11604823084E+01  0.90007175567E+02  0.89999429483E+02 0.  0.
         12    1    1    2    0    0 -0.69304047313E-01  0.20693985047E+00  0.11604823084E+01  0.11808244327E+01  0.00000000000E+00 0. -1.
         11    1    3    3    0    0 -0.30031132907E+02 -0.18187287932E+02 -0.20927104917E+02  0.40872852928E+02  0.51100000000E-03 0. -1.
        -11    1    3    3    0    0 -0.13772876239E+00  0.59365050757E+01 -0.53726401201E+01  0.80078913483E+01  0.51100000000E-03 0.  1.
        -12    1    3    3    0    0  0.30238165716E+02  0.12043843006E+02  0.25139262729E+02  0.41126431291E+02  0.00000000000E+00 0.  1.
</event>
<event>
 7    1  0.5933043E-015  0.9000777E+02  0.7816164E-02  0.1186339E+00
        -11   -1    0    0    0    0  0.00000000000E+00  0.00000000000E+00  0.45593999997E+02  0.45594000000E+02  0.51100000000E-03 0.  1.
         11   -1    0    0    0    0 -0.00000000000E+00 -0.00000000000E+00 -0.45593999997E+02  0.45594000000E+02  0.51100000000E-03 0. -1.
    9900012    2    1    2    0    0 -0.11184857155E+01  0.19010564614E+00  0.32526370399E+00  0.90007768273E+02  0.90000030014E+02 0.  0.
         12    1    1    2    0    0  0.11184857155E+01 -0.19010564614E+00 -0.32526370399E+00  0.11802317271E+01  0.00000000000E+00 0. -1.
         11    1    3    3    0    0 -0.33553769826E+01  0.93458557295E+01  0.79257962706E+00  0.99615137775E+01  0.51100000000E-03 0. -1.
        -11    1    3    3    0    0 -0.15730528815E+02  0.10947788231E+02  0.32333075559E+02  0.37586319044E+02  0.51100000000E-03 0.  1.
         12    1    3    3    0    0  0.17967420082E+02 -0.20103538315E+02 -0.32800391482E+02  0.42459935451E+02  0.00000000000E+00 0. -1.
</event>
<event>
 7    1  0.4331547E-015  0.9000783E+02  0.7816164E-02  0.1186339E+00
        -11   -1    0    0    0    0  0.00000000000E+00  0.00000000000E+00  0.45593999997E+02  0.45594000000E+02  0.51100000000E-03 0.  1.
         11   -1    0    0    0    0 -0.00000000000E+00 -0.00000000000E+00 -0.45593999997E+02  0.45594000000E+02  0.51100000000E-03 0. -1.
    9900012    2    1    2    0    0  0.43167597021E+00  0.10015698692E+01  0.45090761076E+00  0.90007828818E+02  0.90000091358E+02 0.  0.
         12    1    1    2    0    0 -0.43167597021E+00 -0.10015698692E+01 -0.45090761076E+00  0.11801711823E+01  0.00000000000E+00 0. -1.
         11    1    3    3    0    0  0.26368361631E+02 -0.18697627010E+02 -0.26267175998E+02  0.41651606044E+02  0.51100000000E-03 0. -1.
        -11    1    3    3    0    0  0.27414139878E+01  0.88221429749E+01  0.34653229631E+01  0.98668141171E+01  0.51100000000E-03 0.  1.
        -12    1    3    3    0    0 -0.28678099649E+02  0.10877053904E+02  0.23252760645E+02  0.38489408656E+02  0.00000000000E+00 0.  1.
</event>
<event>
 7    1  0.4331547E-015  0.9000794E+02  0.7816164E-02  0.1186339E+00
        -11   -1    0    0    0    0  0.00000000000E+00  0.00000000000E+00  0.45593999997E+02  0.45594000000E+02  0.51100000000E-03 0.  1.
         11   -1    0    0    0    0 -0.00000000000E+00 -0.00000000000E+00 -0.45593999997E+02  0.45594000000E+02  0.51100000000E-03 0. -1.
    9900012    2    1    2    0    0 -0.88218304097E+00  0.50156671819E+00  0.60226320443E+00  0.90007941926E+02  0.90000205959E+02 0.  0.
         12    1    1    2    0    0  0.88218304097E+00 -0.50156671819E+00 -0.60226320443E+00  0.11800580740E+01  0.00000000000E+00 0. -1.
         11    1    3    3    0    0  0.80813066036E+01 -0.32085620011E+01 -0.84212036100E+00  0.87356484304E+01  0.51100000000E-03 0. -1.
        -11    1    3    3    0    0  0.17858345274E+02  0.49548509072E+01  0.34211629755E+02  0.38908953394E+02  0.51100000000E-03 0.  1.
         12    1    3    3    0    0 -0.26821834918E+02 -0.12447221879E+01 -0.32767246190E+02  0.42363340102E+02  0.00000000000E+00 0. -1.
</event>
<event>
 7    1  0.4331547E-015  0.9000777E+02  0.7816164E-02  0.1186339E+00
        -11   -1    0    0    0    0  0.00000000000E+00  0.00000000000E+00  0.45593999997E+02  0.45594000000E+02  0.51100000000E-03 0. -1.
         11   -1    0    0    0    0 -0.00000000000E+00 -0.00000000000E+00 -0.45593999997E+02  0.45594000000E+02  0.51100000000E-03 0.  1.
    9900012    2    1    2    0    0  0.12530599765E+00 -0.84589936805E+00 -0.81345301668E+00  0.90007765640E+02  0.90000027347E+02 0.  0.
         12    1    1    2    0    0 -0.12530599765E+00  0.84589936805E+00  0.81345301668E+00  0.11802343599E+01  0.00000000000E+00 0. -1.
         11    1    3    3    0    0 -0.23837851233E+02  0.10633826787E+02  0.23309446019E+02  0.34995023896E+02  0.51100000000E-03 0. -1.
        -11    1    3    3    0    0  0.41721522655E+00  0.15519194642E+01  0.10802688184E+02  0.10921565586E+02  0.51100000000E-03 0.  1.
        -12    1    3    3    0    0  0.23545942004E+02 -0.13031645619E+02 -0.34925587220E+02  0.44091176158E+02  0.00000000000E+00 0.  1.
</event>
<event>
 7    1  0.4331547E-015  0.9000778E+02  0.7816164E-02  0.1186339E+00
        -11   -1    0    0    0    0  0.00000000000E+00  0.00000000000E+00  0.45593999997E+02  0.45594000000E+02  0.51100000000E-03 0.  1.
         11   -1    0    0    0    0 -0.00000000000E+00 -0.00000000000E+00 -0.45593999997E+02  0.45594000000E+02  0.51100000000E-03 0. -1.
    9900012    2    1    2    0    0  0.10468511080E+01 -0.40169296416E+00  0.36832684152E+00  0.90007780045E+02  0.90000041942E+02 0.  0.
         12    1    1    2    0    0 -0.10468511080E+01  0.40169296416E+00 -0.36832684152E+00  0.11802199549E+01  0.00000000000E+00 0. -1.
         11    1    3    3    0    0  0.38074260983E+02 -0.98504102670E+01 -0.19164650224E+01  0.39374519303E+02  0.51100000000E-03 0. -1.
        -11    1    3    3    0    0  0.27062794048E+01  0.21920278578E+01  0.90342697098E+01  0.96823015754E+01  0.51100000000E-03 0.  1.
        -12    1    3    3    0    0 -0.39733689280E+02  0.72566894450E+01 -0.67494778459E+01  0.40950959167E+02  0.00000000000E+00 0.  1.
</event>
<event>
 7    1  0.4331547E-015  0.9000774E+02  0.7816164E-02  0.1186339E+00
        -11   -1    0    0    0    0  0.00000000000E+00  0.00000000000E+00  0.45593999997E+02  0.45594000000E+02  0.51100000000E-03 0.  1.
         11   -1    0    0    0    0 -0.00000000000E+00 -0.00000000000E+00 -0.45593999997E+02  0.45594000000E+02  0.51100000000E-03 0. -1.
    9900012    2    1    2    0    0 -0.35679748823E+00 -0.49798663361E+00  0.10088161433E+01  0.90007743610E+02  0.90000005026E+02 0.  0.
         12    1    1    2    0    0  0.35679748823E+00  0.49798663361E+00 -0.10088161433E+01  0.11802563899E+01  0.00000000000E+00 0. -1.
         11    1    3    3    0    0 -0.64030329006E+01 -0.56844463512E+01 -0.35196442942E+02  0.36222939647E+02  0.51100000000E-03 0. -1.
        -11    1    3    3    0    0  0.35200389695E+01 -0.55791473376E+01 -0.67445419447E+01  0.94343206256E+01  0.51100000000E-03 0.  1.
        -12    1    3    3    0    0  0.25261964429E+01  0.10765607055E+02  0.42949801030E+02  0.44350483337E+02  0.00000000000E+00 0.  1.
</event>
<event>
 7    1  0.4331547E-015  0.9000771E+02  0.7816164E-02  0.1186339E+00
        -11   -1    0    0    0    0  0.00000000000E+00  0.00000000000E+00  0.45593999997E+02  0.45594000000E+02  0.51100000000E-03 0.  1.
         11   -1    0    0    0    0 -0.00000000000E+00 -0.00000000000E+00 -0.45593999997E+02  0.45594000000E+02  0.51100000000E-03 0. -1.
    9900012    2    1    2    0    0  0.84109057786E+00  0.49816499433E+00  0.66141909020E+00  0.90007713198E+02  0.89999974212E+02 0.  0.
         12    1    1    2    0    0 -0.84109057786E+00 -0.49816499433E+00 -0.66141909020E+00  0.11802868019E+01  0.00000000000E+00 0. -1.
         11    1    3    3    0    0 -0.17654226745E+02  0.25698411004E+02 -0.10559576704E+02  0.32917847902E+02  0.51100000000E-03 0. -1.
        -11    1    3    3    0    0  0.18517594363E+01  0.11165466497E+02 -0.68217623950E+01  0.13214881670E+02  0.51100000000E-03 0.  1.
        -12    1    3    3    0    0  0.16643557886E+02 -0.36365712506E+02  0.18042758189E+02  0.43874983627E+02  0.00000000000E+00 0.  1.
</event>
<event>
 7    1  0.4331547E-015  0.9000773E+02  0.7816164E-02  0.1186339E+00
        -11   -1    0    0    0    0  0.00000000000E+00  0.00000000000E+00  0.45593999997E+02  0.45594000000E+02  0.51100000000E-03 0. -1.
         11   -1    0    0    0    0 -0.00000000000E+00 -0.00000000000E+00 -0.45593999997E+02  0.45594000000E+02  0.51100000000E-03 0.  1.
    9900012    2    1    2    0    0  0.49570259531E+00 -0.11471922391E+00 -0.10649631274E+01  0.90007733917E+02  0.89999995205E+02 0.  0.
         12    1    1    2    0    0 -0.49570259531E+00  0.11471922391E+00  0.10649631274E+01  0.11802660828E+01  0.00000000000E+00 0. -1.
         11    1    3    3    0    0  0.16669503165E+02 -0.30744362492E+02 -0.26601475651E+01  0.35073701631E+02  0.51100000000E-03 0. -1.
        -11    1    3    3    0    0 -0.26465606536E+00 -0.96283244086E+01 -0.54653830054E+01  0.11074524162E+02  0.51100000000E-03 0.  1.
        -12    1    3    3    0    0 -0.15909144504E+02  0.40257967676E+02  0.70605674431E+01  0.43859508124E+02  0.00000000000E+00 0.  1.
</event>
<event>
 7    1  0.4331547E-015  0.9000700E+02  0.7816164E-02  0.1186341E+00
        -11   -1    0    0    0    0  0.00000000000E+00  0.00000000000E+00  0.45593999997E+02  0.45594000000E+02  0.51100000000E-03 0. -1.
         11   -1    0    0    0    0 -0.00000000000E+00 -0.00000000000E+00 -0.45593999997E+02  0.45594000000E+02  0.51100000000E-03 0.  1.
    9900012    2    1    2    0    0 -0.99047372181E+00  0.59854509196E+00  0.23552748840E+00  0.90006997198E+02  0.89999248758E+02 0.  0.
         12    1    1    2    0    0  0.99047372181E+00 -0.59854509196E+00 -0.23552748840E+00  0.11810028021E+01  0.00000000000E+00 0. -1.
         11    1    3    3    0    0 -0.28724673158E+02 -0.21141474548E+02  0.12561032420E+02  0.37813335344E+02  0.51100000000E-03 0. -1.
        -11    1    3    3    0    0 -0.52134266906E+01  0.31504459451E+01  0.73554504660E+01  0.95502764007E+01  0.51100000000E-03 0.  1.
        -12    1    3    3    0    0  0.32947626127E+02  0.18589573695E+02 -0.19680955398E+02  0.42643385453E+02  0.00000000000E+00 0.  1.
</event>
<event>
 7    1  0.4331547E-015  0.9000772E+02  0.7816164E-02  0.1186339E+00
        -11   -1    0    0    0    0  0.00000000000E+00  0.00000000000E+00  0.45593999997E+02  0.45594000000E+02  0.51100000000E-03 0.  1.
         11   -1    0    0    0    0 -0.00000000000E+00 -0.00000000000E+00 -0.45593999997E+02  0.45594000000E+02  0.51100000000E-03 0. -1.
    9900012    2    1    2    0    0 -0.95950423747E+00 -0.68714113145E+00  0.15790689423E-01  0.90007720092E+02  0.89999981197E+02 0.  0.
         12    1    1    2    0    0  0.95950423747E+00  0.68714113145E+00 -0.15790689423E-01  0.11802799084E+01  0.00000000000E+00 0. -1.
         11    1    3    3    0    0 -0.22839212109E+02  0.25811244911E+02 -0.12176632039E+02  0.36552979929E+02  0.51100000000E-03 0. -1.
        -11    1    3    3    0    0  0.22459999699E+01  0.10183454935E+02  0.19908410743E+01  0.10616530447E+02  0.51100000000E-03 0.  1.
        -12    1    3    3    0    0  0.19633707901E+02 -0.36681840978E+02  0.10201581654E+02  0.42838209716E+02  0.00000000000E+00 0.  1.
</event>
<event>
 7    1  0.4331547E-015  0.9000790E+02  0.7816164E-02  0.1186339E+00
        -11   -1    0    0    0    0  0.00000000000E+00  0.00000000000E+00  0.45593999997E+02  0.45594000000E+02  0.51100000000E-03 0. -1.
         11   -1    0    0    0    0 -0.00000000000E+00 -0.00000000000E+00 -0.45593999997E+02  0.45594000000E+02  0.51100000000E-03 0.  1.
    9900012    2    1    2    0    0 -0.37232169564E+00 -0.11176296301E+01  0.70126548844E-01  0.90007899509E+02  0.90000162983E+02 0.  0.
         12    1    1    2    0    0  0.37232169564E+00  0.11176296301E+01 -0.70126548844E-01  0.11801004906E+01  0.00000000000E+00 0. -1.
         11    1    3    3    0    0  0.84048470228E+01 -0.21160220640E+01 -0.41273435411E+01  0.95996858188E+01  0.51100000000E-03 0. -1.
        -11    1    3    3    0    0  0.27501630969E+02  0.24646937429E+02  0.35171821314E+01  0.37096924414E+02  0.51100000000E-03 0.  1.
         12    1    3    3    0    0 -0.36278799687E+02 -0.23648544995E+02  0.68028795850E+00  0.43311289277E+02  0.00000000000E+00 0. -1.
</event>
<event>
 7    1  0.4331547E-015  0.9000768E+02  0.7816164E-02  0.1186339E+00
        -11   -1    0    0    0    0  0.00000000000E+00  0.00000000000E+00  0.45593999997E+02  0.45594000000E+02  0.51100000000E-03 0.  1.
         11   -1    0    0    0    0 -0.00000000000E+00 -0.00000000000E+00 -0.45593999997E+02  0.45594000000E+02  0.51100000000E-03 0. -1.
    9900012    2    1    2    0    0 -0.75717594642E+00 -0.77911869948E+00  0.46130615591E+00  0.90007684478E+02  0.89999945113E+02 0.  0.
         12    1    1    2    0    0  0.75717594642E+00  0.77911869948E+00 -0.46130615591E+00  0.11803155219E+01  0.00000000000E+00 0. -1.
         11    1    3    3    0    0 -0.13551713662E+01 -0.18444688061E+01 -0.11179287300E+02  0.11411179580E+02  0.51100000000E-03 0. -1.
        -11    1    3    3    0    0  0.29887057900E+02  0.25587114814E+02  0.31829292516E+01  0.39472366452E+02  0.51100000000E-03 0.  1.
         12    1    3    3    0    0 -0.29289062481E+02 -0.24521764707E+02  0.84576642045E+01  0.39124138446E+02  0.00000000000E+00 0. -1.
</event>
<event>
 7    1  0.4331547E-015  0.9000759E+02  0.7816164E-02  0.1186339E+00
        -11   -1    0    0    0    0  0.00000000000E+00  0.00000000000E+00  0.45593999997E+02  0.45594000000E+02  0.51100000000E-03 0.  1.
         11   -1    0    0    0    0 -0.00000000000E+00 -0.00000000000E+00 -0.45593999997E+02  0.45594000000E+02  0.51100000000E-03 0. -1.
    9900012    2    1    2    0    0 -0.45126395666E+00 -0.10551120961E+01  0.27653528655E+00  0.90007588013E+02  0.89999847375E+02 0.  0.
         12    1    1    2    0    0  0.45126395666E+00  0.10551120961E+01 -0.27653528655E+00  0.11804119868E+01  0.00000000000E+00 0. -1.
         11    1    3    3    0    0 -0.26394291867E+02  0.14917751784E+02 -0.13549799656E+02  0.33208357870E+02  0.51100000000E-03 0. -1.
        -11    1    3    3    0    0 -0.12612037849E+02 -0.97401280722E+01  0.24662039046E+01  0.16125004047E+02  0.51100000000E-03 0.  1.
        -12    1    3    3    0    0  0.38555065759E+02 -0.62327358081E+01  0.11360131038E+02  0.40674226096E+02  0.00000000000E+00 0.  1.
</event>
<event>
 7    1  0.4331547E-015  0.9000775E+02  0.7816164E-02  0.1186339E+00
        -11   -1    0    0    0    0  0.00000000000E+00  0.00000000000E+00  0.45593999997E+02  0.45594000000E+02  0.51100000000E-03 0.  1.
         11   -1    0    0    0    0 -0.00000000000E+00 -0.00000000000E+00 -0.45593999997E+02  0.45594000000E+02  0.51100000000E-03 0. -1.
    9900012    2    1    2    0    0 -0.38187567158E+00 -0.82414441923E+00 -0.75362874425E+00  0.90007746071E+02  0.90000007519E+02 0.  0.
         12    1    1    2    0    0  0.38187567158E+00  0.82414441923E+00  0.75362874425E+00  0.11802539288E+01  0.00000000000E+00 0. -1.
         11    1    3    3    0    0  0.28286209065E+02  0.17006312767E+02 -0.20046705575E+02  0.38615990235E+02  0.51100000000E-03 0. -1.
        -11    1    3    3    0    0  0.76402050787E+01 -0.14198597524E+01  0.26435965895E+01  0.82083700300E+01  0.51100000000E-03 0.  1.
        -12    1    3    3    0    0 -0.36308289815E+02 -0.16410597433E+02  0.16649480241E+02  0.43183385806E+02  0.00000000000E+00 0.  1.
</event>
<event>
 7    1  0.4331547E-015  0.9000749E+02  0.7816164E-02  0.1186340E+00
        -11   -1    0    0    0    0  0.00000000000E+00  0.00000000000E+00  0.45593999997E+02  0.45594000000E+02  0.51100000000E-03 0.  1.
         11   -1    0    0    0    0 -0.00000000000E+00 -0.00000000000E+00 -0.45593999997E+02  0.45594000000E+02  0.51100000000E-03 0. -1.
    9900012    2    1    2    0    0 -0.82579333801E+00 -0.79782060182E+00  0.27413992254E+00  0.90007489497E+02  0.89999747558E+02 0.  0.
         12    1    1    2    0    0  0.82579333801E+00  0.79782060182E+00 -0.27413992254E+00  0.11805105027E+01  0.00000000000E+00 0. -1.
         11    1    3    3    0    0 -0.45480128263E+01  0.50896858856E+01  0.96143392143E+01  0.11790879605E+02  0.51100000000E-03 0. -1.
        -11    1    3    3    0    0 -0.36120779761E+02  0.39549186872E+01 -0.10786844680E+01  0.36352657025E+02  0.51100000000E-03 0.  1.
         12    1    3    3    0    0  0.39842999249E+02 -0.98424251746E+01 -0.82615148238E+01  0.41863952867E+02  0.00000000000E+00 0. -1.
</event>
<event>
 7    1  0.4331547E-015  0.9000774E+02  0.7816164E-02  0.1186339E+00
        -11   -1    0    0    0    0  0.00000000000E+00  0.00000000000E+00  0.45593999997E+02  0.45594000000E+02  0.51100000000E-03 0.  1.
         11   -1    0    0    0    0 -0.00000000000E+00 -0.00000000000E+00 -0.45593999997E+02  0.45594000000E+02  0.51100000000E-03 0. -1.
    9900012    2    1    2    0    0  0.84705680139E-01 -0.86318899393E+00  0.80047065844E+00  0.90007735806E+02  0.89999997119E+02 0.  0.
         12    1    1    2    0    0 -0.84705680139E-01  0.86318899393E+00 -0.80047065844E+00  0.11802641935E+01  0.00000000000E+00 0. -1.
         11    1    3    3    0    0 -0.37081344417E+01  0.29388331548E+02 -0.25346611890E+02  0.38985574599E+02  0.51100000000E-03 0. -1.
        -11    1    3    3    0    0  0.71747980006E+01  0.45135919065E+01  0.24865515334E+01  0.88336389465E+01  0.51100000000E-03 0.  1.
        -12    1    3    3    0    0 -0.33819578788E+01 -0.34765112449E+02  0.23660531015E+02  0.42188522261E+02  0.00000000000E+00 0.  1.
</event>
<event>
 7    1  0.4331547E-015  0.9000770E+02  0.7816164E-02  0.1186339E+00
        -11   -1    0    0    0    0  0.00000000000E+00  0.00000000000E+00  0.45593999997E+02  0.45594000000E+02  0.51100000000E-03 0.  1.
         11   -1    0    0    0    0 -0.00000000000E+00 -0.00000000000E+00 -0.45593999997E+02  0.45594000000E+02  0.51100000000E-03 0. -1.
    9900012    2    1    2    0    0 -0.11117088061E+01 -0.39637515584E+00  0.96605971830E-02  0.90007702130E+02  0.89999962999E+02 0.  0.
         12    1    1    2    0    0  0.11117088061E+01  0.39637515584E+00 -0.96605971830E-02  0.11802978695E+01  0.00000000000E+00 0. -1.
         11    1    3    3    0    0  0.80061286556E+01 -0.84196726032E+01 -0.30983704993E+01  0.12024511749E+02  0.51100000000E-03 0. -1.
        -11    1    3    3    0    0  0.67838287911E+01 -0.33086976214E+02 -0.25881616949E+00  0.33776253701E+02  0.51100000000E-03 0.  1.
         12    1    3    3    0    0 -0.15901666253E+02  0.41110273661E+02  0.33668472659E+01  0.44206936680E+02  0.00000000000E+00 0. -1.
</event>
<event>
 7    1  0.4331547E-015  0.9000776E+02  0.7816164E-02  0.1186339E+00
        -11   -1    0    0    0    0  0.00000000000E+00  0.00000000000E+00  0.45593999997E+02  0.45594000000E+02  0.51100000000E-03 0.  1.
         11   -1    0    0    0    0 -0.00000000000E+00 -0.00000000000E+00 -0.45593999997E+02  0.45594000000E+02  0.51100000000E-03 0. -1.
    9900012    2    1    2    0    0  0.18641893521E+00 -0.18683914916E+00  0.11503542419E+01  0.90007756055E+02  0.90000017635E+02 0.  0.
         12    1    1    2    0    0 -0.18641893521E+00  0.18683914916E+00 -0.11503542419E+01  0.11802439447E+01  0.00000000000E+00 0. -1.
         11    1    3    3    0    0  0.73133999670E+01 -0.60595243312E+01  0.78027473272E+01  0.12291725685E+02  0.51100000000E-03 0. -1.
        -11    1    3    3    0    0 -0.34338574334E+02 -0.17744705698E+02  0.68178970244E+01  0.39249152701E+02  0.51100000000E-03 0.  1.
         12    1    3    3    0    0  0.27211593302E+02  0.23617390880E+02 -0.13470290110E+02  0.38466877670E+02  0.00000000000E+00 0. -1.
</event>
<event>
 7    1  0.4331547E-015  0.9000779E+02  0.7816164E-02  0.1186339E+00
        -11   -1    0    0    0    0  0.00000000000E+00  0.00000000000E+00  0.45593999997E+02  0.45594000000E+02  0.51100000000E-03 0.  1.
         11   -1    0    0    0    0 -0.00000000000E+00 -0.00000000000E+00 -0.45593999997E+02  0.45594000000E+02  0.51100000000E-03 0. -1.
    9900012    2    1    2    0    0  0.11133463183E+01 -0.25191510997E+00 -0.29983288648E+00  0.90007787728E+02  0.90000049726E+02 0.  0.
         12    1    1    2    0    0 -0.11133463183E+01  0.25191510997E+00  0.29983288648E+00  0.11802122719E+01  0.00000000000E+00 0. -1.
         11    1    3    3    0    0 -0.44986976650E+01 -0.76580907686E+01 -0.53567611458E+01  0.10372055010E+02  0.51100000000E-03 0. -1.
        -11    1    3    3    0    0 -0.32733626894E+02 -0.13162408346E+02 -0.29018803762E+01  0.35400003292E+02  0.51100000000E-03 0.  1.
         12    1    3    3    0    0  0.38345670877E+02  0.20568584004E+02  0.79588086356E+01  0.44235729426E+02  0.00000000000E+00 0. -1.
</event>
<event>
 7    1  0.4331547E-015  0.9000773E+02  0.7816164E-02  0.1186339E+00
        -11   -1    0    0    0    0  0.00000000000E+00  0.00000000000E+00  0.45593999997E+02  0.45594000000E+02  0.51100000000E-03 0.  1.
         11   -1    0    0    0    0 -0.00000000000E+00 -0.00000000000E+00 -0.45593999997E+02  0.45594000000E+02  0.51100000000E-03 0. -1.
    9900012    2    1    2    0    0 -0.75986745235E+00 -0.28015964213E+00  0.85857069762E+00  0.90007732398E+02  0.89999993665E+02 0.  0.
         12    1    1    2    0    0  0.75986745235E+00  0.28015964213E+00 -0.85857069762E+00  0.11802676023E+01  0.00000000000E+00 0. -1.
         11    1    3    3    0    0  0.33855937005E+01 -0.11851436655E+02 -0.66228783173E+01  0.13992187568E+02  0.51100000000E-03 0. -1.
        -11    1    3    3    0    0 -0.12813758502E+02  0.96484140369E+01  0.39582593148E+02  0.42709085462E+02  0.51100000000E-03 0.  1.
         12    1    3    3    0    0  0.86682973495E+01  0.19228629756E+01 -0.32101144133E+02  0.33306459368E+02  0.00000000000E+00 0. -1.
</event>
<event>
 7    1  0.4331547E-015  0.9000771E+02  0.7816164E-02  0.1186339E+00
        -11   -1    0    0    0    0  0.00000000000E+00  0.00000000000E+00  0.45593999997E+02  0.45594000000E+02  0.51100000000E-03 0.  1.
         11   -1    0    0    0    0 -0.00000000000E+00 -0.00000000000E+00 -0.45593999997E+02  0.45594000000E+02  0.51100000000E-03 0. -1.
    9900012    2    1    2    0    0 -0.92734015023E+00  0.58741620280E+00  0.43367793064E+00  0.90007705928E+02  0.89999966846E+02 0.  0.
         12    1    1    2    0    0  0.92734015023E+00 -0.58741620280E+00 -0.43367793064E+00  0.11802940723E+01  0.00000000000E+00 0. -1.
         11    1    3    3    0    0  0.15623901846E+02 -0.32565894691E+02 -0.48350579680E+01  0.36442030565E+02  0.51100000000E-03 0. -1.
        -11    1    3    3    0    0 -0.14354369926E+01 -0.34217605275E+01 -0.10368750205E+02  0.11012715630E+02  0.51100000000E-03 0.  1.
        -12    1    3    3    0    0 -0.15115805004E+02  0.36575071421E+02  0.15637486104E+02  0.42552959733E+02  0.00000000000E+00 0.  1.
</event>
<event>
 7    1  0.4331547E-015  0.9000766E+02  0.7816164E-02  0.1186339E+00
        -11   -1    0    0    0    0  0.00000000000E+00  0.00000000000E+00  0.45593999997E+02  0.45594000000E+02  0.51100000000E-03 0. -1.
         11   -1    0    0    0    0 -0.00000000000E+00 -0.00000000000E+00 -0.45593999997E+02  0.45594000000E+02  0.51100000000E-03 0.  1.
    9900012    2    1    2    0    0  0.11485498401E+01  0.21462555311E+00 -0.16724894165E+00  0.90007659764E+02  0.89999920073E+02 0.  0.
         12    1    1    2    0    0 -0.11485498401E+01 -0.21462555311E+00  0.16724894165E+00  0.11803402355E+01  0.00000000000E+00 0. -1.
         11    1    3    3    0    0 -0.38119941868E+00  0.45435322319E+01  0.70408964879E+01  0.83882788314E+01  0.51100000000E-03 0. -1.
        -11    1    3    3    0    0 -0.39496071458E+02 -0.37599060146E+00  0.13647137624E+01  0.39521430559E+02  0.51100000000E-03 0.  1.
         12    1    3    3    0    0  0.41025820716E+02 -0.39529160773E+01 -0.85728591920E+01  0.42097950374E+02  0.00000000000E+00 0. -1.
</event>
<event>
 7    1  0.4331547E-015  0.9000784E+02  0.7816164E-02  0.1186339E+00
        -11   -1    0    0    0    0  0.00000000000E+00  0.00000000000E+00  0.45593999997E+02  0.45594000000E+02  0.51100000000E-03 0. -1.
         11   -1    0    0    0    0 -0.00000000000E+00 -0.00000000000E+00 -0.45593999997E+02  0.45594000000E+02  0.51100000000E-03 0.  1.
    9900012    2    1    2    0    0  0.70393088200E+00 -0.48560757656E+00 -0.81329361829E+00  0.90007839030E+02  0.90000101705E+02 0.  0.
         12    1    1    2    0    0 -0.70393088200E+00  0.48560757656E+00  0.81329361829E+00  0.11801609698E+01  0.00000000000E+00 0. -1.
         11    1    3    3    0    0  0.15122747843E+02  0.92968313437E+01  0.30841078872E+02  0.35585119385E+02  0.51100000000E-03 0. -1.
        -11    1    3    3    0    0  0.20926420380E+01  0.45603318633E+01  0.78217814378E+01  0.92927951943E+01  0.51100000000E-03 0.  1.
        -12    1    3    3    0    0 -0.16511458999E+02 -0.14342770783E+02 -0.39476153928E+02  0.45129924451E+02  0.00000000000E+00 0.  1.
</event>
<event>
 7    1  0.4331547E-015  0.9000774E+02  0.7816164E-02  0.1186339E+00
        -11   -1    0    0    0    0  0.00000000000E+00  0.00000000000E+00  0.45593999997E+02  0.45594000000E+02  0.51100000000E-03 0. -1.
         11   -1    0    0    0    0 -0.00000000000E+00 -0.00000000000E+00 -0.45593999997E+02  0.45594000000E+02  0.51100000000E-03 0.  1.
    9900012    2    1    2    0    0 -0.90580011714E+00  0.78215823176E-01 -0.75261425518E+00  0.90007737409E+02  0.89999998743E+02 0.  0.
         12    1    1    2    0    0  0.90580011714E+00 -0.78215823176E-01  0.75261425518E+00  0.11802625913E+01  0.00000000000E+00 0. -1.
         11    1    3    3    0    0 -0.36671096026E+02  0.20165329834E+02 -0.54006943922E+01  0.42196887460E+02  0.51100000000E-03 0. -1.
        -11    1    3    3    0    0  0.35338336065E+01 -0.54910396881E+01 -0.79180437586E+01  0.10263279887E+02  0.51100000000E-03 0.  1.
        -12    1    3    3    0    0  0.32231462303E+02 -0.14596074323E+02  0.12566123896E+02  0.37547570062E+02  0.00000000000E+00 0.  1.
</event>
<event>
 7    1  0.4331547E-015  0.9000793E+02  0.7816164E-02  0.1186339E+00
        -11   -1    0    0    0    0  0.00000000000E+00  0.00000000000E+00  0.45593999997E+02  0.45594000000E+02  0.51100000000E-03 0. -1.
         11   -1    0    0    0    0 -0.00000000000E+00 -0.00000000000E+00 -0.45593999997E+02  0.45594000000E+02  0.51100000000E-03 0.  1.
    9900012    2    1    2    0    0 -0.13479508282E+00 -0.92872520584E+00 -0.71544239709E+00  0.90007933033E+02  0.90000196949E+02 0.  0.
         12    1    1    2    0    0  0.13479508282E+00  0.92872520584E+00  0.71544239709E+00  0.11800669667E+01  0.00000000000E+00 0. -1.
         11    1    3    3    0    0 -0.27310173834E+01 -0.89231840904E+01 -0.34170860448E+01  0.99377133969E+01  0.51100000000E-03 0. -1.
        -11    1    3    3    0    0  0.14894756076E+02 -0.14361621998E+02 -0.31323775067E+02  0.37540495864E+02  0.51100000000E-03 0.  1.
         12    1    3    3    0    0 -0.12298533776E+02  0.22356080882E+02  0.34025418715E+02  0.42529723773E+02  0.00000000000E+00 0. -1.
</event>
<event>
 7    1  0.4331547E-015  0.9000790E+02  0.7816164E-02  0.1186339E+00
        -11   -1    0    0    0    0  0.00000000000E+00  0.00000000000E+00  0.45593999997E+02  0.45594000000E+02  0.51100000000E-03 0.  1.
         11   -1    0    0    0    0 -0.00000000000E+00 -0.00000000000E+00 -0.45593999997E+02  0.45594000000E+02  0.51100000000E-03 0. -1.
    9900012    2    1    2    0    0 -0.86162116984E+00  0.23150713384E+00  0.77242509729E+00  0.90007903765E+02  0.90000167294E+02 0.  0.
         12    1    1    2    0    0  0.86162116984E+00 -0.23150713384E+00 -0.77242509729E+00  0.11800962352E+01  0.00000000000E+00 0. -1.
         11    1    3    3    0    0 -0.14489020590E+02 -0.28456532901E+02 -0.25775354588E+02  0.41037481488E+02  0.51100000000E-03 0. -1.
        -11    1    3    3    0    0  0.96549499161E+01 -0.22785697450E+01  0.59569007075E+01  0.11571283605E+02  0.51100000000E-03 0.  1.
        -12    1    3    3    0    0  0.39724495040E+01  0.30966609780E+02  0.20590878978E+02  0.37399138672E+02  0.00000000000E+00 0.  1.
</event>
<event>
 7    1  0.4331547E-015  0.9000771E+02  0.7816164E-02  0.1186339E+00
        -11   -1    0    0    0    0  0.00000000000E+00  0.00000000000E+00  0.45593999997E+02  0.45594000000E+02  0.51100000000E-03 0.  1.
         11   -1    0    0    0    0 -0.00000000000E+00 -0.00000000000E+00 -0.45593999997E+02  0.45594000000E+02  0.51100000000E-03 0. -1.
    9900012    2    1    2    0    0  0.90529873542E+00  0.65516629734E+00  0.37982699859E+00  0.90007713075E+02  0.89999974087E+02 0.  0.
         12    1    1    2    0    0 -0.90529873542E+00 -0.65516629734E+00 -0.37982699859E+00  0.11802869255E+01  0.00000000000E+00 0. -1.
         11    1    3    3    0    0 -0.13068829959E+02  0.35525526690E+02  0.20556484224E+01  0.37908878298E+02  0.51100000000E-03 0. -1.
        -11    1    3    3    0    0 -0.54863661267E+01  0.34752927737E+01 -0.60499210038E+01  0.88757770112E+01  0.51100000000E-03 0.  1.
        -12    1    3    3    0    0  0.19460494821E+02 -0.38345653166E+02  0.43740995800E+01  0.43223057765E+02  0.00000000000E+00 0.  1.
</event>
<event>
 7    1  0.4331547E-015  0.9000771E+02  0.7816164E-02  0.1186339E+00
        -11   -1    0    0    0    0  0.00000000000E+00  0.00000000000E+00  0.45593999997E+02  0.45594000000E+02  0.51100000000E-03 0.  1.
         11   -1    0    0    0    0 -0.00000000000E+00 -0.00000000000E+00 -0.45593999997E+02  0.45594000000E+02  0.51100000000E-03 0. -1.
    9900012    2    1    2    0    0  0.19542903070E+00 -0.11615961494E+01  0.74739792525E-01  0.90007710139E+02  0.89999971112E+02 0.  0.
         12    1    1    2    0    0 -0.19542903070E+00  0.11615961494E+01 -0.74739792525E-01  0.11802898614E+01  0.00000000000E+00 0. -1.
         11    1    3    3    0    0 -0.96967440320E+01  0.35712716673E+02  0.43308166637E+01  0.37258300420E+02  0.51100000000E-03 0. -1.
        -11    1    3    3    0    0 -0.20113471011E+01  0.63758739337E+01 -0.41917364275E+01  0.78910037459E+01  0.51100000000E-03 0.  1.
        -12    1    3    3    0    0  0.11903520164E+02 -0.43250186756E+02 -0.64340443648E-01  0.44858405972E+02  0.00000000000E+00 0.  1.
</event>
<event>
 7    1  0.4331547E-015  0.9000776E+02  0.7816164E-02  0.1186339E+00
        -11   -1    0    0    0    0  0.00000000000E+00  0.00000000000E+00  0.45593999997E+02  0.45594000000E+02  0.51100000000E-03 0.  1.
         11   -1    0    0    0    0 -0.00000000000E+00 -0.00000000000E+00 -0.45593999997E+02  0.45594000000E+02  0.51100000000E-03 0. -1.
    9900012    2    1    2    0    0 -0.11056974300E+01  0.41240431969E+00 -0.17683324566E-01  0.90007764079E+02  0.90000025765E+02 0.  0.
         12    1    1    2    0    0  0.11056974300E+01 -0.41240431969E+00  0.17683324566E-01  0.11802359212E+01  0.00000000000E+00 0. -1.
         11    1    3    3    0    0  0.35655743020E+02  0.49682564308E+01 -0.23139382796E+02  0.42795404177E+02  0.51100000000E-03 0. -1.
        -11    1    3    3    0    0 -0.85084360995E+01  0.49458556968E+01  0.61299201818E+00  0.98605645329E+01  0.51100000000E-03 0.  1.
        -12    1    3    3    0    0 -0.28253004350E+02 -0.95017078078E+01  0.22508707453E+02  0.37351795369E+02  0.00000000000E+00 0.  1.
</event>
<event>
 7    1  0.4331547E-015  0.9000776E+02  0.7816164E-02  0.1186339E+00
        -11   -1    0    0    0    0  0.00000000000E+00  0.00000000000E+00  0.45593999997E+02  0.45594000000E+02  0.51100000000E-03 0.  1.
         11   -1    0    0    0    0 -0.00000000000E+00 -0.00000000000E+00 -0.45593999997E+02  0.45594000000E+02  0.51100000000E-03 0. -1.
    9900012    2    1    2    0    0  0.17198565971E+00  0.38802681875E+00  0.11012799589E+01  0.90007762131E+02  0.90000023791E+02 0.  0.
         12    1    1    2    0    0 -0.17198565971E+00 -0.38802681875E+00 -0.11012799589E+01  0.11802378689E+01  0.00000000000E+00 0. -1.
         11    1    3    3    0    0  0.45288608880E+01  0.31977994552E+02 -0.25118542981E+02  0.40915081794E+02  0.51100000000E-03 0. -1.
        -11    1    3    3    0    0 -0.87118096401E+01 -0.18171196668E+01 -0.41374949109E+00  0.89089135135E+01  0.51100000000E-03 0.  1.
        -12    1    3    3    0    0  0.43549344118E+01 -0.29772848066E+02  0.26633572431E+02  0.40183766823E+02  0.00000000000E+00 0.  1.
</event>
<event>
 7    1  0.4331547E-015  0.9000775E+02  0.7816164E-02  0.1186339E+00
        -11   -1    0    0    0    0  0.00000000000E+00  0.00000000000E+00  0.45593999997E+02  0.45594000000E+02  0.51100000000E-03 0.  1.
         11   -1    0    0    0    0 -0.00000000000E+00 -0.00000000000E+00 -0.45593999997E+02  0.45594000000E+02  0.51100000000E-03 0. -1.
    9900012    2    1    2    0    0 -0.10466601481E+01 -0.11322950035E+00  0.53355701979E+00  0.90007745164E+02  0.90000006600E+02 0.  0.
         12    1    1    2    0    0  0.10466601481E+01  0.11322950035E+00 -0.53355701979E+00  0.11802548364E+01  0.00000000000E+00 0. -1.
         11    1    3    3    0    0 -0.12365577559E+01  0.23120730204E+02 -0.34115142672E+02  0.41230331069E+02  0.51100000000E-03 0. -1.
        -11    1    3    3    0    0 -0.62234867833E+01  0.32381648108E+01  0.58087527488E+01  0.91081890539E+01  0.51100000000E-03 0.  1.
        -12    1    3    3    0    0  0.64133843911E+01 -0.26472124515E+02  0.28839946943E+02  0.39669225041E+02  0.00000000000E+00 0.  1.
</event>
<event>
 7    1  0.4331547E-015  0.9000775E+02  0.7816164E-02  0.1186339E+00
        -11   -1    0    0    0    0  0.00000000000E+00  0.00000000000E+00  0.45593999997E+02  0.45594000000E+02  0.51100000000E-03 0.  1.
         11   -1    0    0    0    0 -0.00000000000E+00 -0.00000000000E+00 -0.45593999997E+02  0.45594000000E+02  0.51100000000E-03 0. -1.
    9900012    2    1    2    0    0  0.32626492031E+00  0.82753072328E+00  0.77571413273E+00  0.90007750742E+02  0.90000012251E+02 0.  0.
         12    1    1    2    0    0 -0.32626492031E+00 -0.82753072328E+00 -0.77571413273E+00  0.11802492584E+01  0.00000000000E+00 0. -1.
         11    1    3    3    0    0 -0.50981537987E+01  0.44794357489E+01 -0.56503986252E+01  0.88308279152E+01  0.51100000000E-03 0. -1.
        -11    1    3    3    0    0  0.39193206641E+02  0.12256757174E+02  0.13413263283E+02  0.43200129345E+02  0.51100000000E-03 0.  1.
         12    1    3    3    0    0 -0.33768787922E+02 -0.15908662200E+02 -0.69871505248E+01  0.37976793482E+02  0.00000000000E+00 0. -1.
</event>
<event>
 7    1  0.4331547E-015  0.9000784E+02  0.7816164E-02  0.1186339E+00
        -11   -1    0    0    0    0  0.00000000000E+00  0.00000000000E+00  0.45593999997E+02  0.45594000000E+02  0.51100000000E-03 0.  1.
         11   -1    0    0    0    0 -0.00000000000E+00 -0.00000000000E+00 -0.45593999997E+02  0.45594000000E+02  0.51100000000E-03 0. -1.
    9900012    2    1    2    0    0  0.14390810610E+00  0.30380788576E+00  0.11312664038E+01  0.90007842192E+02  0.90000104909E+02 0.  0.
         12    1    1    2    0    0 -0.14390810610E+00 -0.30380788576E+00 -0.11312664038E+01  0.11801578076E+01  0.00000000000E+00 0. -1.
         11    1    3    3    0    0 -0.17242854022E+02 -0.28493658580E+02 -0.70995695037E+01  0.34053024557E+02  0.51100000000E-03 0.  1.
        -11    1    3    3    0    0  0.15167741931E+02 -0.88854476446E+01  0.19296298225E+01  0.17684316403E+02  0.51100000000E-03 0. -1.
         12    1    3    3    0    0  0.22190201970E+01  0.37682914110E+02  0.63012060850E+01  0.38270501233E+02  0.00000000000E+00 0. -1.
</event>
<event>
 7    1  0.4331547E-015  0.9000780E+02  0.7816164E-02  0.1186339E+00
        -11   -1    0    0    0    0  0.00000000000E+00  0.00000000000E+00  0.45593999997E+02  0.45594000000E+02  0.51100000000E-03 0. -1.
         11   -1    0    0    0    0 -0.00000000000E+00 -0.00000000000E+00 -0.45593999997E+02  0.45594000000E+02  0.51100000000E-03 0.  1.
    9900012    2    1    2    0    0  0.67649283246E+00  0.87037991966E+00 -0.42150735802E+00  0.90007799928E+02  0.90000062087E+02 0.  0.
         12    1    1    2    0    0 -0.67649283246E+00 -0.87037991966E+00  0.42150735802E+00  0.11802000719E+01  0.00000000000E+00 0. -1.
         11    1    3    3    0    0  0.21419833455E+02  0.22977186620E+00 -0.13674617093E+01  0.21464668927E+02  0.51100000000E-03 0. -1.
        -11    1    3    3    0    0  0.16177284232E+02 -0.20007968145E+02  0.43863502012E+01  0.26101022638E+02  0.51100000000E-03 0.  1.
         12    1    3    3    0    0 -0.36920624855E+02  0.20648576198E+02 -0.34403958500E+01  0.42442108363E+02  0.00000000000E+00 0. -1.
</event>
<event>
 7    1  0.4331547E-015  0.9000784E+02  0.7816164E-02  0.1186339E+00
        -11   -1    0    0    0    0  0.00000000000E+00  0.00000000000E+00  0.45593999997E+02  0.45594000000E+02  0.51100000000E-03 0.  1.
         11   -1    0    0    0    0 -0.00000000000E+00 -0.00000000000E+00 -0.45593999997E+02  0.45594000000E+02  0.51100000000E-03 0. -1.
    9900012    2    1    2    0    0  0.10434670223E+01 -0.54220830646E+00  0.99773007597E-01  0.90007844109E+02  0.90000106851E+02 0.  0.
         12    1    1    2    0    0 -0.10434670223E+01  0.54220830646E+00 -0.99773007597E-01  0.11801558911E+01  0.00000000000E+00 0. -1.
         11    1    3    3    0    0 -0.10358681587E+02  0.31792074796E+02 -0.20149955813E+02  0.39039198552E+02  0.51100000000E-03 0. -1.
        -11    1    3    3    0    0 -0.84378443872E+01  0.30907829732E+00  0.22353302325E+01  0.87343831383E+01  0.51100000000E-03 0.  1.
        -12    1    3    3    0    0  0.19839992996E+02 -0.32643361400E+02  0.18014398588E+02  0.42234262419E+02  0.00000000000E+00 0.  1.
</event>
<event>
 7    1  0.4331547E-015  0.9000760E+02  0.7816164E-02  0.1186339E+00
        -11   -1    0    0    0    0  0.00000000000E+00  0.00000000000E+00  0.45593999997E+02  0.45594000000E+02  0.51100000000E-03 0.  1.
         11   -1    0    0    0    0 -0.00000000000E+00 -0.00000000000E+00 -0.45593999997E+02  0.45594000000E+02  0.51100000000E-03 0. -1.
    9900012    2    1    2    0    0 -0.41088277756E+00  0.11058483365E+01 -0.40276706744E-01  0.90007598622E+02  0.89999858124E+02 0.  0.
         12    1    1    2    0    0  0.41088277756E+00 -0.11058483365E+01  0.40276706744E-01  0.11804013781E+01  0.00000000000E+00 0. -1.
         11    1    3    3    0    0  0.28739236755E+02  0.56536220949E+01  0.26643674511E+02  0.39595360382E+02  0.51100000000E-03 0. -1.
        -11    1    3    3    0    0 -0.14884147315E+01 -0.91476848059E+01  0.28404188450E+01  0.96934769406E+01  0.51100000000E-03 0.  1.
        -12    1    3    3    0    0 -0.27661704801E+02  0.45999110475E+01 -0.29524370063E+02  0.40718761299E+02  0.00000000000E+00 0.  1.
</event>
<event>
 7    1  0.4331547E-015  0.9000771E+02  0.7816164E-02  0.1186339E+00
        -11   -1    0    0    0    0  0.00000000000E+00  0.00000000000E+00  0.45593999997E+02  0.45594000000E+02  0.51100000000E-03 0. -1.
         11   -1    0    0    0    0 -0.00000000000E+00 -0.00000000000E+00 -0.45593999997E+02  0.45594000000E+02  0.51100000000E-03 0.  1.
    9900012    2    1    2    0    0  0.63206039150E+00 -0.72785554650E+00 -0.68102923874E+00  0.90007714077E+02  0.89999975103E+02 0.  0.
         12    1    1    2    0    0 -0.63206039150E+00  0.72785554650E+00  0.68102923874E+00  0.11802859226E+01  0.00000000000E+00 0. -1.
         11    1    3    3    0    0 -0.87093015262E+01 -0.33022256111E+02  0.14804353656E+02  0.37222173757E+02  0.51100000000E-03 0. -1.
        -11    1    3    3    0    0 -0.85735056312E+01 -0.18200054266E+01  0.39681829915E+01  0.96210132043E+01  0.51100000000E-03 0.  1.
        -12    1    3    3    0    0  0.17914867549E+02  0.34114405991E+02 -0.19453565887E+02  0.43164527116E+02  0.00000000000E+00 0.  1.
</event>
<event>
 7    1  0.4331547E-015  0.9000781E+02  0.7816164E-02  0.1186339E+00
        -11   -1    0    0    0    0  0.00000000000E+00  0.00000000000E+00  0.45593999997E+02  0.45594000000E+02  0.51100000000E-03 0. -1.
         11   -1    0    0    0    0 -0.00000000000E+00 -0.00000000000E+00 -0.45593999997E+02  0.45594000000E+02  0.51100000000E-03 0.  1.
    9900012    2    1    2    0    0 -0.60487628544E-02 -0.97866061589E+00 -0.65957704567E+00  0.90007807190E+02  0.90000069445E+02 0.  0.
         12    1    1    2    0    0  0.60487628544E-02  0.97866061589E+00  0.65957704567E+00  0.11801928096E+01  0.00000000000E+00 0. -1.
         11    1    3    3    0    0  0.29816571071E+01 -0.29659980722E+01 -0.73940023029E+01  0.85063913609E+01  0.51100000000E-03 0. -1.
        -11    1    3    3    0    0  0.37317488155E+02 -0.21070642132E+01 -0.83029672364E+01  0.38288038694E+02  0.51100000000E-03 0.  1.
         12    1    3    3    0    0 -0.40305194025E+02  0.40944016695E+01  0.15037392494E+02  0.43213377136E+02  0.00000000000E+00 0. -1.
</event>
<event>
 7    1  0.5930032E-015  0.9000839E+02  0.7816164E-02  0.1186338E+00
        -11   -1    0    0    0    0  0.00000000000E+00  0.00000000000E+00  0.45593999997E+02  0.45594000000E+02  0.51100000000E-03 0. -1.
         11   -1    0    0    0    0 -0.00000000000E+00 -0.00000000000E+00 -0.45593999997E+02  0.45594000000E+02  0.51100000000E-03 0.  1.
    9900012    2    1    2    0    0  0.23092569054E-02 -0.62893371189E+00 -0.99795359388E+00  0.90008392302E+02  0.90000662278E+02 0.  0.
         12    1    1    2    0    0 -0.23092569054E-02  0.62893371189E+00  0.99795359388E+00  0.11796076984E+01  0.00000000000E+00 0. -1.
         11    1    3    3    0    0  0.26804145355E+02 -0.45771822319E+01  0.22653345295E+02  0.35391903858E+02  0.51100000000E-03 0. -1.
        -11    1    3    3    0    0  0.82086518592E+01  0.42779021114E+01  0.39194114373E+01  0.10052074318E+02  0.51100000000E-03 0.  1.
        -12    1    3    3    0    0 -0.35010487957E+02 -0.32965359137E+00 -0.27570710326E+02  0.44564414126E+02  0.00000000000E+00 0.  1.
</event>
<event>
 7    1  0.4331547E-015  0.9000771E+02  0.7816164E-02  0.1186339E+00
        -11   -1    0    0    0    0  0.00000000000E+00  0.00000000000E+00  0.45593999997E+02  0.45594000000E+02  0.51100000000E-03 0.  1.
         11   -1    0    0    0    0 -0.00000000000E+00 -0.00000000000E+00 -0.45593999997E+02  0.45594000000E+02  0.51100000000E-03 0. -1.
    9900012    2    1    2    0    0 -0.83126817688E+00 -0.56021517995E+00 -0.62308046272E+00  0.90007713131E+02  0.89999974144E+02 0.  0.
         12    1    1    2    0    0  0.83126817688E+00  0.56021517995E+00  0.62308046272E+00  0.11802868688E+01  0.00000000000E+00 0. -1.
         11    1    3    3    0    0 -0.43215110489E+01 -0.17717629523E+02 -0.37158913292E+02  0.41392930447E+02  0.51100000000E-03 0. -1.
        -11    1    3    3    0    0 -0.45538010003E+01 -0.58497008459E+01  0.59506493797E+01  0.95061207566E+01  0.51100000000E-03 0.  1.
        -12    1    3    3    0    0  0.80440438723E+01  0.23007115189E+02  0.30585183449E+02  0.39108661928E+02  0.00000000000E+00 0.  1.
</event>
<event>
 7    1  0.4331547E-015  0.9000772E+02  0.7816164E-02  0.1186339E+00
        -11   -1    0    0    0    0  0.00000000000E+00  0.00000000000E+00  0.45593999997E+02  0.45594000000E+02  0.51100000000E-03 0. -1.
         11   -1    0    0    0    0 -0.00000000000E+00 -0.00000000000E+00 -0.45593999997E+02  0.45594000000E+02  0.51100000000E-03 0.  1.
    9900012    2    1    2    0    0 -0.68334381844E+00  0.23068530612E+00 -0.93428614882E+00  0.90007718215E+02  0.89999979295E+02 0.  0.
         12    1    1    2    0    0  0.68334381844E+00 -0.23068530612E+00  0.93428614882E+00  0.11802817852E+01  0.00000000000E+00 0. -1.
         11    1    3    3    0    0 -0.71672115078E+01 -0.59286749443E+01 -0.61358199240E+01  0.11142997523E+02  0.51100000000E-03 0. -1.
        -11    1    3    3    0    0  0.35584439883E+02 -0.72751786050E+01 -0.16769822068E+02  0.40005093650E+02  0.51100000000E-03 0.  1.
         12    1    3    3    0    0 -0.29100572194E+02  0.13434538855E+02  0.21971355843E+02  0.38859627042E+02  0.00000000000E+00 0. -1.
</event>
<event>
 7    1  0.4331547E-015  0.9000765E+02  0.7816164E-02  0.1186339E+00
        -11   -1    0    0    0    0  0.00000000000E+00  0.00000000000E+00  0.45593999997E+02  0.45594000000E+02  0.51100000000E-03 0. -1.
         11   -1    0    0    0    0 -0.00000000000E+00 -0.00000000000E+00 -0.45593999997E+02  0.45594000000E+02  0.51100000000E-03 0.  1.
    9900012    2    1    2    0    0 -0.37008248330E+00  0.33416562600E+00 -0.10698555494E+01  0.90007653184E+02  0.89999913406E+02 0.  0.
         12    1    1    2    0    0  0.37008248330E+00 -0.33416562600E+00  0.10698555494E+01  0.11803468162E+01  0.00000000000E+00 0. -1.
         11    1    3    3    0    0 -0.66941572638E+01 -0.49777872680E+01 -0.38002655370E+01  0.91669038377E+01  0.51100000000E-03 0. -1.
        -11    1    3    3    0    0  0.28930144378E+02 -0.27596219940E+02 -0.46122305805E+01  0.40246456737E+02  0.51100000000E-03 0.  1.
         12    1    3    3    0    0 -0.22606069598E+02  0.32908172834E+02  0.73426405681E+01  0.40594292609E+02  0.00000000000E+00 0. -1.
</event>
<event>
 7    1  0.4331547E-015  0.9000799E+02  0.7816164E-02  0.1186339E+00
        -11   -1    0    0    0    0  0.00000000000E+00  0.00000000000E+00  0.45593999997E+02  0.45594000000E+02  0.51100000000E-03 0. -1.
         11   -1    0    0    0    0 -0.00000000000E+00 -0.00000000000E+00 -0.45593999997E+02  0.45594000000E+02  0.51100000000E-03 0.  1.
    9900012    2    1    2    0    0  0.63895799244E-01  0.91473658158E+00 -0.74269930404E+00  0.90007988160E+02  0.90000252803E+02 0.  0.
         12    1    1    2    0    0 -0.63895799244E-01 -0.91473658158E+00  0.74269930404E+00  0.11800118402E+01  0.00000000000E+00 0. -1.
         11    1    3    3    0    0 -0.25802353969E+02  0.21953325959E+02  0.21230280625E+02  0.39980430297E+02  0.51100000000E-03 0. -1.
        -11    1    3    3    0    0 -0.63736582296E+01 -0.78393870859E+01 -0.46933758874E+01  0.11140344994E+02  0.51100000000E-03 0.  1.
        -12    1    3    3    0    0  0.32239907998E+02 -0.13199202292E+02 -0.17279604042E+02  0.38887212869E+02  0.00000000000E+00 0.  1.
</event>
<event>
 7    1  0.6300469E-015  0.9000778E+02  0.7816164E-02  0.1186339E+00
        -11   -1    0    0    0    0  0.00000000000E+00  0.00000000000E+00  0.45593999997E+02  0.45594000000E+02  0.51100000000E-03 0. -1.
         11   -1    0    0    0    0 -0.00000000000E+00 -0.00000000000E+00 -0.45593999997E+02  0.45594000000E+02  0.51100000000E-03 0.  1.
    9900012    2    1    2    0    0  0.75784086010E+00 -0.38004216118E+00 -0.82106842214E+00  0.90007784694E+02  0.90000046652E+02 0.  0.
         12    1    1    2    0    0 -0.75784086010E+00  0.38004216118E+00  0.82106842214E+00  0.11802153055E+01  0.00000000000E+00 0. -1.
         11    1    3    3    0    0 -0.87518576733E+00 -0.90515756563E+01 -0.40048438578E+01  0.99365862636E+01  0.51100000000E-03 0. -1.
        -11    1    3    3    0    0  0.24317283470E+02 -0.28027732933E+01 -0.29712610758E+02  0.38497078484E+02  0.51100000000E-03 0.  1.
         12    1    3    3    0    0 -0.22684256842E+02  0.11474306788E+02  0.32896386194E+02  0.41574119947E+02  0.00000000000E+00 0. -1.
</event>
<event>
 7    1  0.4331547E-015  0.9000779E+02  0.7816164E-02  0.1186339E+00
        -11   -1    0    0    0    0  0.00000000000E+00  0.00000000000E+00  0.45593999997E+02  0.45594000000E+02  0.51100000000E-03 0.  1.
         11   -1    0    0    0    0 -0.00000000000E+00 -0.00000000000E+00 -0.45593999997E+02  0.45594000000E+02  0.51100000000E-03 0. -1.
    9900012    2    1    2    0    0 -0.27396050520E+00 -0.44778343935E+00  0.10570443246E+01  0.90007785159E+02  0.90000047123E+02 0.  0.
         12    1    1    2    0    0  0.27396050520E+00  0.44778343935E+00 -0.10570443246E+01  0.11802148411E+01  0.00000000000E+00 0. -1.
         11    1    3    3    0    0  0.16535610962E+00 -0.73113798210E+01 -0.37219032810E+01  0.82058626496E+01  0.51100000000E-03 0. -1.
        -11    1    3    3    0    0  0.20467062271E+02  0.84044289842E+01  0.37147875605E+02  0.43237711859E+02  0.51100000000E-03 0.  1.
         12    1    3    3    0    0 -0.20906378886E+02 -0.15408326026E+01 -0.32368928000E+02  0.38564210650E+02  0.00000000000E+00 0. -1.
</event>
<event>
 7    1  0.4331547E-015  0.9000770E+02  0.7816164E-02  0.1186339E+00
        -11   -1    0    0    0    0  0.00000000000E+00  0.00000000000E+00  0.45593999997E+02  0.45594000000E+02  0.51100000000E-03 0. -1.
         11   -1    0    0    0    0 -0.00000000000E+00 -0.00000000000E+00 -0.45593999997E+02  0.45594000000E+02  0.51100000000E-03 0.  1.
    9900012    2    1    2    0    0  0.94666888174E-03 -0.14706618945E+00 -0.11711064518E+01  0.90007695090E+02  0.89999955865E+02 0.  0.
         12    1    1    2    0    0 -0.94666888173E-03  0.14706618945E+00  0.11711064518E+01  0.11803049105E+01  0.00000000000E+00 0. -1.
         11    1    3    3    0    0 -0.21830069699E+01 -0.81649010966E+01 -0.22400568993E+01  0.87435109951E+01  0.51100000000E-03 0. -1.
        -11    1    3    3    0    0 -0.29069360863E+02 -0.18208601677E+02  0.15959504151E+02  0.37832349769E+02  0.51100000000E-03 0.  1.
         12    1    3    3    0    0  0.31253314502E+02  0.26226436584E+02 -0.14890553703E+02  0.43431834325E+02  0.00000000000E+00 0. -1.
</event>
<event>
 7    1  0.4331547E-015  0.9000842E+02  0.7816164E-02  0.1186338E+00
        -11   -1    0    0    0    0  0.00000000000E+00  0.00000000000E+00  0.45593999997E+02  0.45594000000E+02  0.51100000000E-03 0. -1.
         11   -1    0    0    0    0 -0.00000000000E+00 -0.00000000000E+00 -0.45593999997E+02  0.45594000000E+02  0.51100000000E-03 0.  1.
    9900012    2    1    2    0    0 -0.70402082716E-01  0.11188781540E+01 -0.36683320820E+00  0.90008418981E+02  0.90000689309E+02 0.  0.
         12    1    1    2    0    0  0.70402082716E-01 -0.11188781540E+01  0.36683320820E+00  0.11795810186E+01  0.00000000000E+00 0. -1.
         11    1    3    3    0    0 -0.28480981409E+02  0.22953261931E+02  0.19130746258E+02  0.41279583185E+02  0.51100000000E-03 0. -1.
        -11    1    3    3    0    0 -0.48098852491E+01 -0.63601237087E+01 -0.42475549381E+01  0.90348155993E+01  0.51100000000E-03 0.  1.
        -12    1    3    3    0    0  0.33220464576E+02 -0.15474260068E+02 -0.15250024528E+02  0.39694020197E+02  0.00000000000E+00 0.  1.
</event>
<event>
 7    1  0.4331547E-015  0.9000774E+02  0.7816164E-02  0.1186339E+00
        -11   -1    0    0    0    0  0.00000000000E+00  0.00000000000E+00  0.45593999997E+02  0.45594000000E+02  0.51100000000E-03 0. -1.
         11   -1    0    0    0    0 -0.00000000000E+00 -0.00000000000E+00 -0.45593999997E+02  0.45594000000E+02  0.51100000000E-03 0.  1.
    9900012    2    1    2    0    0  0.94017660185E+00  0.31304064795E+00 -0.64115971418E+00  0.90007740592E+02  0.90000001968E+02 0.  0.
         12    1    1    2    0    0 -0.94017660185E+00 -0.31304064795E+00  0.64115971418E+00  0.11802594075E+01  0.00000000000E+00 0. -1.
         11    1    3    3    0    0 -0.16346260115E+02  0.36627782188E+02  0.97834314948E+01  0.41285713992E+02  0.51100000000E-03 0. -1.
        -11    1    3    3    0    0  0.37080019204E+01 -0.40303483266E+01  0.75722063418E+01  0.93451214555E+01  0.51100000000E-03 0.  1.
        -12    1    3    3    0    0  0.13578434796E+02 -0.32284393214E+02 -0.17996797551E+02  0.39376905145E+02  0.00000000000E+00 0.  1.
</event>
<event>
 7    1  0.4331547E-015  0.9000775E+02  0.7816164E-02  0.1186339E+00
        -11   -1    0    0    0    0  0.00000000000E+00  0.00000000000E+00  0.45593999997E+02  0.45594000000E+02  0.51100000000E-03 0.  1.
         11   -1    0    0    0    0 -0.00000000000E+00 -0.00000000000E+00 -0.45593999997E+02  0.45594000000E+02  0.51100000000E-03 0. -1.
    9900012    2    1    2    0    0 -0.30716691516E+00 -0.11113766401E+01  0.25195435600E+00  0.90007749795E+02  0.90000011292E+02 0.  0.
         12    1    1    2    0    0  0.30716691516E+00  0.11113766401E+01 -0.25195435600E+00  0.11802502054E+01  0.00000000000E+00 0. -1.
         11    1    3    3    0    0  0.56202246298E+01  0.21125924064E+02 -0.11477712287E+02  0.24690675812E+02  0.51100000000E-03 0. -1.
        -11    1    3    3    0    0  0.44699743039E+01  0.18429464395E+02  0.13542756870E+02  0.23303048987E+02  0.51100000000E-03 0.  1.
        -12    1    3    3    0    0 -0.10397365849E+02 -0.40666765099E+02 -0.18130902271E+01  0.42014024996E+02  0.00000000000E+00 0.  1.
</event>
<event>
 7    1  0.4331547E-015  0.9000789E+02  0.7816164E-02  0.1186339E+00
        -11   -1    0    0    0    0  0.00000000000E+00  0.00000000000E+00  0.45593999997E+02  0.45594000000E+02  0.51100000000E-03 0.  1.
         11   -1    0    0    0    0 -0.00000000000E+00 -0.00000000000E+00 -0.45593999997E+02  0.45594000000E+02  0.51100000000E-03 0. -1.
    9900012    2    1    2    0    0 -0.29488533801E+00  0.83414218185E+00  0.78096125419E+00  0.90007893639E+02  0.90000157035E+02 0.  0.
         12    1    1    2    0    0  0.29488533801E+00 -0.83414218185E+00 -0.78096125419E+00  0.11801063607E+01  0.00000000000E+00 0. -1.
         11    1    3    3    0    0  0.29784929386E+01  0.36384129434E+02  0.36171185368E+01  0.36684599516E+02  0.51100000000E-03 0. -1.
        -11    1    3    3    0    0  0.69865025237E+01  0.61433389550E+01  0.34621904071E+01  0.99266607530E+01  0.51100000000E-03 0.  1.
        -12    1    3    3    0    0 -0.10259880800E+02 -0.41693326207E+02 -0.62983476897E+01  0.43396633370E+02  0.00000000000E+00 0.  1.
</event>
<event>
 7    1  0.4331547E-015  0.9000731E+02  0.7816164E-02  0.1186340E+00
        -11   -1    0    0    0    0  0.00000000000E+00  0.00000000000E+00  0.45593999997E+02  0.45594000000E+02  0.51100000000E-03 0. -1.
         11   -1    0    0    0    0 -0.00000000000E+00 -0.00000000000E+00 -0.45593999997E+02  0.45594000000E+02  0.51100000000E-03 0.  1.
    9900012    2    1    2    0    0  0.69061896673E+00 -0.67498776265E+00 -0.67932085469E+00  0.90007305348E+02  0.89999560978E+02 0.  0.
         12    1    1    2    0    0 -0.69061896673E+00  0.67498776265E+00  0.67932085469E+00  0.11806946517E+01  0.00000000000E+00 0. -1.
         11    1    3    3    0    0  0.30417478339E+00  0.94029827494E+01 -0.25256896792E+01  0.97410325686E+01  0.51100000000E-03 0. -1.
        -11    1    3    3    0    0 -0.78000578375E+01  0.32569436153E+02 -0.10537328864E+02  0.35109035496E+02  0.51100000000E-03 0.  1.
         12    1    3    3    0    0  0.81865020209E+01 -0.42647406665E+02  0.12383697689E+02  0.45157237284E+02  0.00000000000E+00 0. -1.
</event>
<event>
 7    1  0.4331547E-015  0.9000763E+02  0.7816164E-02  0.1186339E+00
        -11   -1    0    0    0    0  0.00000000000E+00  0.00000000000E+00  0.45593999997E+02  0.45594000000E+02  0.51100000000E-03 0.  1.
         11   -1    0    0    0    0 -0.00000000000E+00 -0.00000000000E+00 -0.45593999997E+02  0.45594000000E+02  0.51100000000E-03 0. -1.
    9900012    2    1    2    0    0 -0.34892544143E+00  0.78908602380E+00  0.80552399436E+00  0.90007629456E+02  0.89999889364E+02 0.  0.
         12    1    1    2    0    0  0.34892544143E+00 -0.78908602380E+00 -0.80552399436E+00  0.11803705444E+01  0.00000000000E+00 0. -1.
         11    1    3    3    0    0  0.16658389441E+02 -0.82538636649E+01  0.38564139960E+02  0.42811459859E+02  0.51100000000E-03 0. -1.
        -11    1    3    3    0    0  0.10363942432E+01 -0.51961131533E+01 -0.79708060551E+01  0.95711783161E+01  0.51100000000E-03 0.  1.
        -12    1    3    3    0    0 -0.18043709125E+02  0.14239062842E+02 -0.29787809910E+02  0.37624991281E+02  0.00000000000E+00 0.  1.
</event>
<event>
 7    1  0.4331547E-015  0.9000808E+02  0.7816164E-02  0.1186338E+00
        -11   -1    0    0    0    0  0.00000000000E+00  0.00000000000E+00  0.45593999997E+02  0.45594000000E+02  0.51100000000E-03 0.  1.
         11   -1    0    0    0    0 -0.00000000000E+00 -0.00000000000E+00 -0.45593999997E+02  0.45594000000E+02  0.51100000000E-03 0. -1.
    9900012    2    1    2    0    0 -0.15752009400E-01  0.91902963839E+00 -0.73983527874E+00  0.90008076341E+02  0.90000342148E+02 0.  0.
         12    1    1    2    0    0  0.15752009400E-01 -0.91902963839E+00  0.73983527874E+00  0.11799236593E+01  0.00000000000E+00 0. -1.
         11    1    3    3    0    0  0.88248830247E+00  0.30190595810E+02 -0.23832783994E+02  0.38474049099E+02  0.51100000000E-03 0. -1.
        -11    1    3    3    0    0 -0.56021794157E+01  0.59839442864E+01 -0.14444368193E+01  0.83233647892E+01  0.51100000000E-03 0.  1.
        -12    1    3    3    0    0  0.47039391038E+01 -0.35255510458E+02  0.24537385534E+02  0.43210662452E+02  0.00000000000E+00 0.  1.
</event>
<event>
 7    1  0.4331547E-015  0.9000766E+02  0.7816164E-02  0.1186339E+00
        -11   -1    0    0    0    0  0.00000000000E+00  0.00000000000E+00  0.45593999997E+02  0.45594000000E+02  0.51100000000E-03 0.  1.
         11   -1    0    0    0    0 -0.00000000000E+00 -0.00000000000E+00 -0.45593999997E+02  0.45594000000E+02  0.51100000000E-03 0. -1.
    9900012    2    1    2    0    0 -0.81017082921E+00 -0.32449311218E+00 -0.79469176858E+00  0.90007657863E+02  0.89999918147E+02 0.  0.
         12    1    1    2    0    0  0.81017082921E+00  0.32449311218E+00  0.79469176858E+00  0.11803421366E+01  0.00000000000E+00 0. -1.
         11    1    3    3    0    0  0.17525864841E+01  0.10434556079E+02  0.37122554736E+01  0.11213044230E+02  0.51100000000E-03 0. -1.
        -11    1    3    3    0    0  0.58195381568E+01 -0.19685684673E+02  0.33264053205E+02  0.39088239168E+02  0.51100000000E-03 0.  1.
         12    1    3    3    0    0 -0.83822954701E+01  0.89266354820E+01 -0.37771000447E+02  0.39706374465E+02  0.00000000000E+00 0. -1.
</event>
<event>
 7    1  0.4331547E-015  0.9000790E+02  0.7816164E-02  0.1186339E+00
        -11   -1    0    0    0    0  0.00000000000E+00  0.00000000000E+00  0.45593999997E+02  0.45594000000E+02  0.51100000000E-03 0. -1.
         11   -1    0    0    0    0 -0.00000000000E+00 -0.00000000000E+00 -0.45593999997E+02  0.45594000000E+02  0.51100000000E-03 0.  1.
    9900012    2    1    2    0    0  0.20810019716E+00 -0.73115659998E+00 -0.90263599507E+00  0.90007895172E+02  0.90000158588E+02 0.  0.
         12    1    1    2    0    0 -0.20810019716E+00  0.73115659998E+00  0.90263599507E+00  0.11801048281E+01  0.00000000000E+00 0. -1.
         11    1    3    3    0    0 -0.37264671701E+02  0.49103640908E+01  0.10572048224E+01  0.37601663723E+02  0.51100000000E-03 0. -1.
        -11    1    3    3    0    0 -0.48934957228E+01 -0.55436428321E+01  0.57209966597E+01  0.93492288067E+01  0.51100000000E-03 0.  1.
        -12    1    3    3    0    0  0.42366267620E+02 -0.97877858681E-01 -0.76808374772E+01  0.43057002642E+02  0.00000000000E+00 0.  1.
</event>
<event>
 7    1  0.4331547E-015  0.9000752E+02  0.7816164E-02  0.1186339E+00
        -11   -1    0    0    0    0  0.00000000000E+00  0.00000000000E+00  0.45593999997E+02  0.45594000000E+02  0.51100000000E-03 0. -1.
         11   -1    0    0    0    0 -0.00000000000E+00 -0.00000000000E+00 -0.45593999997E+02  0.45594000000E+02  0.51100000000E-03 0.  1.
    9900012    2    1    2    0    0 -0.87093523608E+00 -0.15862284927E+00 -0.78092099377E+00  0.90007522557E+02  0.89999781055E+02 0.  0.
         12    1    1    2    0    0  0.87093523608E+00  0.15862284927E+00  0.78092099377E+00  0.11804774425E+01  0.00000000000E+00 0. -1.
         11    1    3    3    0    0  0.30475365925E+02 -0.60626482911E+01 -0.26293509707E+02  0.40704450439E+02  0.51100000000E-03 0. -1.
        -11    1    3    3    0    0  0.13711205701E+01  0.86610977340E+01  0.22167302337E+01  0.90448039651E+01  0.51100000000E-03 0.  1.
        -12    1    3    3    0    0 -0.32717421732E+02 -0.27570722922E+01  0.23295858480E+02  0.40258268153E+02  0.00000000000E+00 0.  1.
</event>
<event>
 7    1  0.4331547E-015  0.9000775E+02  0.7816164E-02  0.1186339E+00
        -11   -1    0    0    0    0  0.00000000000E+00  0.00000000000E+00  0.45593999997E+02  0.45594000000E+02  0.51100000000E-03 0.  1.
         11   -1    0    0    0    0 -0.00000000000E+00 -0.00000000000E+00 -0.45593999997E+02  0.45594000000E+02  0.51100000000E-03 0. -1.
    9900012    2    1    2    0    0  0.83323627314E-01 -0.11761913747E+01 -0.51239621609E-01  0.90007748130E+02  0.90000009606E+02 0.  0.
         12    1    1    2    0    0 -0.83323627314E-01  0.11761913747E+01  0.51239621609E-01  0.11802518696E+01  0.00000000000E+00 0. -1.
         11    1    3    3    0    0  0.73988356909E+01 -0.28206554623E+02 -0.22432096437E+02  0.36790643432E+02  0.51100000000E-03 0. -1.
        -11    1    3    3    0    0  0.93163948127E+00 -0.97466339475E+01  0.89292760979E+00  0.98316908722E+01  0.51100000000E-03 0.  1.
        -12    1    3    3    0    0 -0.82471515449E+01  0.36776997196E+02  0.21487929205E+02  0.43385413827E+02  0.00000000000E+00 0.  1.
</event>
<event>
 7    1  0.4331547E-015  0.9000776E+02  0.7816164E-02  0.1186339E+00
        -11   -1    0    0    0    0  0.00000000000E+00  0.00000000000E+00  0.45593999997E+02  0.45594000000E+02  0.51100000000E-03 0.  1.
         11   -1    0    0    0    0 -0.00000000000E+00 -0.00000000000E+00 -0.45593999997E+02  0.45594000000E+02  0.51100000000E-03 0. -1.
    9900012    2    1    2    0    0  0.90592667223E+00 -0.90196186013E-01  0.75108570740E+00  0.90007759250E+02  0.90000020872E+02 0.  0.
         12    1    1    2    0    0 -0.90592667223E+00  0.90196186013E-01 -0.75108570740E+00  0.11802407497E+01  0.00000000000E+00 0. -1.
         11    1    3    3    0    0  0.21394761974E+01  0.91045135532E+01  0.27791146394E+01  0.97566902113E+01  0.51100000000E-03 0. -1.
        -11    1    3    3    0    0  0.99119676263E+01 -0.56933438234E+01  0.37410889774E+02  0.39118230278E+02  0.51100000000E-03 0.  1.
         12    1    3    3    0    0 -0.11145517152E+02 -0.35013659158E+01 -0.39438918706E+02  0.41132838761E+02  0.00000000000E+00 0. -1.
</event>
<event>
 7    1  0.4331547E-015  0.9000778E+02  0.7816164E-02  0.1186339E+00
        -11   -1    0    0    0    0  0.00000000000E+00  0.00000000000E+00  0.45593999997E+02  0.45594000000E+02  0.51100000000E-03 0. -1.
         11   -1    0    0    0    0 -0.00000000000E+00 -0.00000000000E+00 -0.45593999997E+02  0.45594000000E+02  0.51100000000E-03 0.  1.
    9900012    2    1    2    0    0 -0.21349763114E+00 -0.42891756521E+00 -0.10785926727E+01  0.90007782363E+02  0.90000044291E+02 0.  0.
         12    1    1    2    0    0  0.21349763114E+00  0.42891756521E+00  0.10785926727E+01  0.11802176366E+01  0.00000000000E+00 0. -1.
         11    1    3    3    0    0 -0.27857153001E+01 -0.13461096127E+02  0.37871987093E+02  0.40289560996E+02  0.51100000000E-03 0. -1.
        -11    1    3    3    0    0 -0.23156108486E+00  0.76210451171E+01  0.23437004114E+01  0.79766459801E+01  0.51100000000E-03 0.  1.
        -12    1    3    3    0    0  0.28037787539E+01  0.54111334449E+01 -0.41294280177E+02  0.41741575387E+02  0.00000000000E+00 0.  1.
</event>
<event>
 7    1  0.4331547E-015  0.9000773E+02  0.7816164E-02  0.1186339E+00
        -11   -1    0    0    0    0  0.00000000000E+00  0.00000000000E+00  0.45593999997E+02  0.45594000000E+02  0.51100000000E-03 0. -1.
         11   -1    0    0    0    0 -0.00000000000E+00 -0.00000000000E+00 -0.45593999997E+02  0.45594000000E+02  0.51100000000E-03 0.  1.
    9900012    2    1    2    0    0  0.37899846522E+00 -0.11038819582E+01 -0.17558963631E+00  0.90007734380E+02  0.89999995673E+02 0.  0.
         12    1    1    2    0    0 -0.37899846522E+00  0.11038819582E+01  0.17558963631E+00  0.11802656203E+01  0.00000000000E+00 0. -1.
         11    1    3    3    0    0 -0.50303382935E+01 -0.35997339107E+01 -0.74068283167E+01  0.96500514791E+01  0.51100000000E-03 0. -1.
        -11    1    3    3    0    0  0.36914731154E+02  0.18219631481E+01 -0.16926023882E+02  0.40651041937E+02  0.51100000000E-03 0.  1.
         12    1    3    3    0    0 -0.31505394395E+02  0.67388880441E+00  0.24157262563E+02  0.39706640963E+02  0.00000000000E+00 0. -1.
</event>
<event>
 7    1  0.4331547E-015  0.9000770E+02  0.7816164E-02  0.1186339E+00
        -11   -1    0    0    0    0  0.00000000000E+00  0.00000000000E+00  0.45593999997E+02  0.45594000000E+02  0.51100000000E-03 0.  1.
         11   -1    0    0    0    0 -0.00000000000E+00 -0.00000000000E+00 -0.45593999997E+02  0.45594000000E+02  0.51100000000E-03 0. -1.
    9900012    2    1    2    0    0 -0.32518131666E+00  0.11028033389E+01  0.26683507081E+00  0.90007695358E+02  0.89999956137E+02 0.  0.
         12    1    1    2    0    0  0.32518131666E+00 -0.11028033389E+01 -0.26683507081E+00  0.11803046420E+01  0.00000000000E+00 0. -1.
         11    1    3    3    0    0  0.37826934621E+02 -0.46303591216E+01 -0.12648191779E+02  0.40153380480E+02  0.51100000000E-03 0. -1.
        -11    1    3    3    0    0 -0.31224431311E+00 -0.64971772162E+01  0.71587754717E+01  0.96725836675E+01  0.51100000000E-03 0.  1.
        -12    1    3    3    0    0 -0.37839871625E+02  0.12230339677E+02  0.57562513780E+01  0.40181731211E+02  0.00000000000E+00 0.  1.
</event>
<event>
 7    1  0.4331547E-015  0.9000767E+02  0.7816164E-02  0.1186339E+00
        -11   -1    0    0    0    0  0.00000000000E+00  0.00000000000E+00  0.45593999997E+02  0.45594000000E+02  0.51100000000E-03 0.  1.
         11   -1    0    0    0    0 -0.00000000000E+00 -0.00000000000E+00 -0.45593999997E+02  0.45594000000E+02  0.51100000000E-03 0. -1.
    9900012    2    1    2    0    0  0.11447409815E+01 -0.28459639136E+00  0.41793168506E-01  0.90007672211E+02  0.89999932684E+02 0.  0.
         12    1    1    2    0    0 -0.11447409815E+01  0.28459639136E+00 -0.41793168506E-01  0.11803277891E+01  0.00000000000E+00 0. -1.
         11    1    3    3    0    0 -0.10765936172E+02 -0.20744388419E+02 -0.36625382725E+02  0.43447136759E+02  0.51100000000E-03 0. -1.
        -11    1    3    3    0    0 -0.36847533967E+01  0.14461844966E+01  0.35919377870E+01  0.53451730112E+01  0.51100000000E-03 0.  1.
        -12    1    3    3    0    0  0.15595430550E+02  0.19013607531E+02  0.33075238106E+02  0.41215362441E+02  0.00000000000E+00 0.  1.
</event>
<event>
 7    1  0.4331547E-015  0.9000773E+02  0.7816164E-02  0.1186339E+00
        -11   -1    0    0    0    0  0.00000000000E+00  0.00000000000E+00  0.45593999997E+02  0.45594000000E+02  0.51100000000E-03 0.  1.
         11   -1    0    0    0    0 -0.00000000000E+00 -0.00000000000E+00 -0.45593999997E+02  0.45594000000E+02  0.51100000000E-03 0. -1.
    9900012    2    1    2    0    0 -0.10697094208E+01  0.48378378903E-01  0.49640271430E+00  0.90007731231E+02  0.89999992483E+02 0.  0.
         12    1    1    2    0    0  0.10697094208E+01 -0.48378378903E-01 -0.49640271430E+00  0.11802687691E+01  0.00000000000E+00 0. -1.
         11    1    3    3    0    0 -0.15855130526E+02 -0.18719502618E+02  0.35307701308E+02  0.42993472925E+02  0.51100000000E-03 0. -1.
        -11    1    3    3    0    0 -0.52863583983E+01  0.30491106074E+01 -0.69518941226E+01  0.92504860826E+01  0.51100000000E-03 0.  1.
        -12    1    3    3    0    0  0.20071779504E+02  0.15718770389E+02 -0.27859404471E+02  0.37763772223E+02  0.00000000000E+00 0.  1.
</event>
<event>
 7    1  0.4331547E-015  0.9000778E+02  0.7816164E-02  0.1186339E+00
        -11   -1    0    0    0    0  0.00000000000E+00  0.00000000000E+00  0.45593999997E+02  0.45594000000E+02  0.51100000000E-03 0.  1.
         11   -1    0    0    0    0 -0.00000000000E+00 -0.00000000000E+00 -0.45593999997E+02  0.45594000000E+02  0.51100000000E-03 0. -1.
    9900012    2    1    2    0    0 -0.70683036780E+00  0.46159871927E+00  0.82476757494E+00  0.90007777945E+02  0.90000039814E+02 0.  0.
         12    1    1    2    0    0  0.70683036780E+00 -0.46159871927E+00 -0.82476757494E+00  0.11802220550E+01  0.00000000000E+00 0. -1.
         11    1    3    3    0    0 -0.19528946511E+02  0.36875839599E+02  0.41497985126E+01  0.41933615703E+02  0.51100000000E-03 0. -1.
        -11    1    3    3    0    0  0.11738002470E+02 -0.15932511262E+01  0.23868736839E+01  0.12083721173E+02  0.51100000000E-03 0.  1.
        -12    1    3    3    0    0  0.70841136724E+01 -0.34820989754E+02 -0.57119046216E+01  0.35990441069E+02  0.00000000000E+00 0.  1.
</event>
<event>
 7    1  0.8485346E-015  0.9000783E+02  0.7816164E-02  0.1186339E+00
        -11   -1    0    0    0    0  0.00000000000E+00  0.00000000000E+00  0.45593999997E+02  0.45594000000E+02  0.51100000000E-03 0. -1.
         11   -1    0    0    0    0 -0.00000000000E+00 -0.00000000000E+00 -0.45593999997E+02  0.45594000000E+02  0.51100000000E-03 0.  1.
    9900012    2    1    2    0    0 -0.43212448904E+00  0.13445048624E-01 -0.10981276943E+01  0.90007831886E+02  0.90000094467E+02 0.  0.
         12    1    1    2    0    0  0.43212448904E+00 -0.13445048624E-01  0.10981276943E+01  0.11801681136E+01  0.00000000000E+00 0. -1.
         11    1    3    3    0    0 -0.94641588138E+01  0.85156730913E+00 -0.62637263360E-01  0.95025992561E+01  0.51100000000E-03 0. -1.
        -11    1    3    3    0    0  0.32348300592E+02  0.89843200172E+01 -0.27863228539E+02  0.43629004828E+02  0.51100000000E-03 0.  1.
         12    1    3    3    0    0 -0.23316266267E+02 -0.98224422777E+01  0.26827738108E+02  0.36876227803E+02  0.00000000000E+00 0. -1.
</event>
<event>
 7    1  0.4331547E-015  0.9000772E+02  0.7816164E-02  0.1186339E+00
        -11   -1    0    0    0    0  0.00000000000E+00  0.00000000000E+00  0.45593999997E+02  0.45594000000E+02  0.51100000000E-03 0.  1.
         11   -1    0    0    0    0 -0.00000000000E+00 -0.00000000000E+00 -0.45593999997E+02  0.45594000000E+02  0.51100000000E-03 0. -1.
    9900012    2    1    2    0    0 -0.46313553565E+00  0.10853594558E+01 -0.23551601597E-01  0.90007722765E+02  0.89999983906E+02 0.  0.
         12    1    1    2    0    0  0.46313553565E+00 -0.10853594558E+01  0.23551601597E-01  0.11802772347E+01  0.00000000000E+00 0. -1.
         11    1    3    3    0    0 -0.33250419605E+02  0.15275555246E+01 -0.21240121249E+02  0.39485017168E+02  0.51100000000E-03 0. -1.
        -11    1    3    3    0    0 -0.31257911315E+00 -0.10287915745E+02  0.61456556175E+00  0.10310994480E+02  0.51100000000E-03 0.  1.
        -12    1    3    3    0    0  0.33099863183E+02  0.98457196759E+01  0.20602004086E+02  0.40211711118E+02  0.00000000000E+00 0.  1.
</event>
<event>
 7    1  0.4331547E-015  0.9000776E+02  0.7816164E-02  0.1186339E+00
        -11   -1    0    0    0    0  0.00000000000E+00  0.00000000000E+00  0.45593999997E+02  0.45594000000E+02  0.51100000000E-03 0.  1.
         11   -1    0    0    0    0 -0.00000000000E+00 -0.00000000000E+00 -0.45593999997E+02  0.45594000000E+02  0.51100000000E-03 0. -1.
    9900012    2    1    2    0    0 -0.80595894385E+00  0.31635907500E+00  0.80207080112E+00  0.90007758307E+02  0.90000019917E+02 0.  0.
         12    1    1    2    0    0  0.80595894385E+00 -0.31635907500E+00 -0.80207080112E+00  0.11802416928E+01  0.00000000000E+00 0. -1.
         11    1    3    3    0    0  0.17367419750E+02 -0.21667037341E+02 -0.27412958396E+02  0.39019970069E+02  0.51100000000E-03 0. -1.
        -11    1    3    3    0    0  0.27490181914E+01 -0.65251867170E+01  0.53940154538E+01  0.89011553006E+01  0.51100000000E-03 0.  1.
        -12    1    3    3    0    0 -0.20922396886E+02  0.28508583133E+02  0.22821013744E+02  0.42086632937E+02  0.00000000000E+00 0.  1.
</event>
<event>
 7    1  0.4331547E-015  0.9000775E+02  0.7816164E-02  0.1186339E+00
        -11   -1    0    0    0    0  0.00000000000E+00  0.00000000000E+00  0.45593999997E+02  0.45594000000E+02  0.51100000000E-03 0. -1.
         11   -1    0    0    0    0 -0.00000000000E+00 -0.00000000000E+00 -0.45593999997E+02  0.45594000000E+02  0.51100000000E-03 0.  1.
    9900012    2    1    2    0    0 -0.27454717521E+00 -0.11131595395E+01  0.28014063191E+00  0.90007754650E+02  0.90000016212E+02 0.  0.
         12    1    1    2    0    0  0.27454717521E+00  0.11131595395E+01 -0.28014063191E+00  0.11802453497E+01  0.00000000000E+00 0. -1.
         11    1    3    3    0    0  0.62057368672E+01 -0.13252950608E+01 -0.64474511499E-01  0.63460014408E+01  0.51100000000E-03 0. -1.
        -11    1    3    3    0    0  0.38416374191E+02  0.93637182816E+00 -0.35458418764E+01  0.38591029956E+02  0.51100000000E-03 0.  1.
         12    1    3    3    0    0 -0.44896658234E+02 -0.72423630684E+00  0.38904570198E+01  0.45070723253E+02  0.00000000000E+00 0. -1.
</event>
<event>
 7    1  0.4331547E-015  0.9000780E+02  0.7816164E-02  0.1186339E+00
        -11   -1    0    0    0    0  0.00000000000E+00  0.00000000000E+00  0.45593999997E+02  0.45594000000E+02  0.51100000000E-03 0. -1.
         11   -1    0    0    0    0 -0.00000000000E+00 -0.00000000000E+00 -0.45593999997E+02  0.45594000000E+02  0.51100000000E-03 0.  1.
    9900012    2    1    2    0    0 -0.54388948934E+00 -0.82902011780E+00 -0.64014528882E+00  0.90007798270E+02  0.90000060407E+02 0.  0.
         12    1    1    2    0    0  0.54388948934E+00  0.82902011780E+00  0.64014528882E+00  0.11802017298E+01  0.00000000000E+00 0. -1.
         11    1    3    3    0    0 -0.50703828057E+00 -0.52600008013E+01 -0.63499388095E+01  0.82611391099E+01  0.51100000000E-03 0. -1.
        -11    1    3    3    0    0  0.15266963808E+02 -0.34455801436E+02 -0.64256041699E+01  0.38230496017E+02  0.51100000000E-03 0.  1.
         12    1    3    3    0    0 -0.15303815017E+02  0.38886782119E+02  0.12135397691E+02  0.43516163144E+02  0.00000000000E+00 0. -1.
</event>
<event>
 7    1  0.4331547E-015  0.9000774E+02  0.7816164E-02  0.1186339E+00
        -11   -1    0    0    0    0  0.00000000000E+00  0.00000000000E+00  0.45593999997E+02  0.45594000000E+02  0.51100000000E-03 0. -1.
         11   -1    0    0    0    0 -0.00000000000E+00 -0.00000000000E+00 -0.45593999997E+02  0.45594000000E+02  0.51100000000E-03 0.  1.
    9900012    2    1    2    0    0 -0.11082478983E+01  0.34812888740E+00  0.20880410637E+00  0.90007743129E+02  0.90000004539E+02 0.  0.
         12    1    1    2    0    0  0.11082478983E+01 -0.34812888740E+00 -0.20880410637E+00  0.11802568708E+01  0.00000000000E+00 0. -1.
         11    1    3    3    0    0  0.32589009625E+01 -0.89531547750E+01  0.18213733201E+01  0.97003513823E+01  0.51100000000E-03 0. -1.
        -11    1    3    3    0    0 -0.40669672910E+01 -0.22215524684E+02 -0.30230481573E+02  0.37735285561E+02  0.51100000000E-03 0.  1.
         12    1    3    3    0    0 -0.30018156981E+00  0.31516808347E+02  0.28617912359E+02  0.42572106186E+02  0.00000000000E+00 0. -1.
</event>
<event>
 7    1  0.4331547E-015  0.9000782E+02  0.7816164E-02  0.1186339E+00
        -11   -1    0    0    0    0  0.00000000000E+00  0.00000000000E+00  0.45593999997E+02  0.45594000000E+02  0.51100000000E-03 0. -1.
         11   -1    0    0    0    0 -0.00000000000E+00 -0.00000000000E+00 -0.45593999997E+02  0.45594000000E+02  0.51100000000E-03 0.  1.
    9900012    2    1    2    0    0 -0.58702616819E+00  0.94947993522E+00 -0.38303272753E+00  0.90007819531E+02  0.90000081949E+02 0.  0.
         12    1    1    2    0    0  0.58702616819E+00 -0.94947993522E+00  0.38303272753E+00  0.11801804692E+01  0.00000000000E+00 0. -1.
         11    1    3    3    0    0 -0.70904701349E+01  0.73311954116E-01 -0.56645328782E+01  0.90756307971E+01  0.51100000000E-03 0. -1.
        -11    1    3    3    0    0 -0.34950915541E+02 -0.11981698534E+02 -0.16256774413E+01  0.36983380379E+02  0.51100000000E-03 0.  1.
         12    1    3    3    0    0  0.41454359507E+02  0.12857866515E+02  0.69071775921E+01  0.43948808354E+02  0.00000000000E+00 0. -1.
</event>
<event>
 7    1  0.4331547E-015  0.9000700E+02  0.7816164E-02  0.1186341E+00
        -11   -1    0    0    0    0  0.00000000000E+00  0.00000000000E+00  0.45593999997E+02  0.45594000000E+02  0.51100000000E-03 0. -1.
         11   -1    0    0    0    0 -0.00000000000E+00 -0.00000000000E+00 -0.45593999997E+02  0.45594000000E+02  0.51100000000E-03 0.  1.
    9900012    2    1    2    0    0  0.11771261339E+01 -0.95313311258E-01  0.66822237873E-02  0.90007002449E+02  0.89999254079E+02 0.  0.
         12    1    1    2    0    0 -0.11771261339E+01  0.95313311258E-01 -0.66822237873E-02  0.11809975506E+01  0.00000000000E+00 0. -1.
         11    1    3    3    0    0  0.26181372828E+01 -0.11033954501E+02  0.25937357176E+02  0.28308113542E+02  0.51100000000E-03 0. -1.
        -11    1    3    3    0    0  0.17833778815E+02 -0.14613276213E+02 -0.54213499591E+01  0.23685070068E+02  0.51100000000E-03 0.  1.
        -12    1    3    3    0    0 -0.19274789964E+02  0.25551917403E+02 -0.20509324993E+02  0.38013818840E+02  0.00000000000E+00 0.  1.
</event>
<event>
 7    1  0.4331547E-015  0.9000770E+02  0.7816164E-02  0.1186339E+00
        -11   -1    0    0    0    0  0.00000000000E+00  0.00000000000E+00  0.45593999997E+02  0.45594000000E+02  0.51100000000E-03 0.  1.
         11   -1    0    0    0    0 -0.00000000000E+00 -0.00000000000E+00 -0.45593999997E+02  0.45594000000E+02  0.51100000000E-03 0. -1.
    9900012    2    1    2    0    0 -0.10365202342E+01  0.18131571361E-01  0.56426848202E+00  0.90007702635E+02  0.89999963510E+02 0.  0.
         12    1    1    2    0    0  0.10365202342E+01 -0.18131571361E-01 -0.56426848202E+00  0.11802973649E+01  0.00000000000E+00 0. -1.
         11    1    3    3    0    0  0.50208596733E+01  0.37677362794E+01  0.74955550097E+01  0.97769225063E+01  0.51100000000E-03 0. -1.
        -11    1    3    3    0    0 -0.23621496438E+02  0.11615482551E+02 -0.34958187713E+02  0.43760363542E+02  0.51100000000E-03 0.  1.
         12    1    3    3    0    0  0.17564116531E+02 -0.15365087259E+02  0.28026901186E+02  0.36470416587E+02  0.00000000000E+00 0. -1.
</event>
<event>
 7    1  0.4331547E-015  0.9000771E+02  0.7816164E-02  0.1186339E+00
        -11   -1    0    0    0    0  0.00000000000E+00  0.00000000000E+00  0.45593999997E+02  0.45594000000E+02  0.51100000000E-03 0.  1.
         11   -1    0    0    0    0 -0.00000000000E+00 -0.00000000000E+00 -0.45593999997E+02  0.45594000000E+02  0.51100000000E-03 0. -1.
    9900012    2    1    2    0    0  0.45003899023E+00  0.23081671612E-02  0.10911176021E+01  0.90007712729E+02  0.89999973737E+02 0.  0.
         12    1    1    2    0    0 -0.45003899023E+00 -0.23081671612E-02 -0.10911176021E+01  0.11802872710E+01  0.00000000000E+00 0. -1.
         11    1    3    3    0    0  0.22098319168E+02  0.31534072225E+02 -0.10774193667E+02  0.39985205647E+02  0.51100000000E-03 0. -1.
        -11    1    3    3    0    0 -0.78052546288E+01  0.86092473232E+00 -0.65925718541E+01  0.10253057843E+02  0.51100000000E-03 0.  1.
        -12    1    3    3    0    0 -0.13843025549E+02 -0.32392688790E+02  0.18457883124E+02  0.39769449240E+02  0.00000000000E+00 0.  1.
</event>
<event>
 7    1  0.4331547E-015  0.9000777E+02  0.7816164E-02  0.1186339E+00
        -11   -1    0    0    0    0  0.00000000000E+00  0.00000000000E+00  0.45593999997E+02  0.45594000000E+02  0.51100000000E-03 0. -1.
         11   -1    0    0    0    0 -0.00000000000E+00 -0.00000000000E+00 -0.45593999997E+02  0.45594000000E+02  0.51100000000E-03 0.  1.
    9900012    2    1    2    0    0  0.58144573959E+00 -0.10256396801E+01  0.54101875502E-01  0.90007769974E+02  0.90000031738E+02 0.  0.
         12    1    1    2    0    0 -0.58144573959E+00  0.10256396801E+01 -0.54101875502E-01  0.11802300261E+01  0.00000000000E+00 0. -1.
         11    1    3    3    0    0 -0.38016909894E+01  0.11036639749E+02  0.93388132220E+00  0.11710354645E+02  0.51100000000E-03 0. -1.
        -11    1    3    3    0    0 -0.43910191253E+01 -0.16667525918E+02 -0.37013281789E+02  0.40829774654E+02  0.51100000000E-03 0.  1.
         12    1    3    3    0    0  0.87741558543E+01  0.46052464888E+01  0.36133502343E+02  0.37467640675E+02  0.00000000000E+00 0. -1.
</event>
<event>
 7    1  0.4331547E-015  0.9000777E+02  0.7816164E-02  0.1186339E+00
        -11   -1    0    0    0    0  0.00000000000E+00  0.00000000000E+00  0.45593999997E+02  0.45594000000E+02  0.51100000000E-03 0. -1.
         11   -1    0    0    0    0 -0.00000000000E+00 -0.00000000000E+00 -0.45593999997E+02  0.45594000000E+02  0.51100000000E-03 0.  1.
    9900012    2    1    2    0    0 -0.49015068216E+00 -0.78399677619E+00 -0.73351481459E+00  0.90007770099E+02  0.90000031864E+02 0.  0.
         12    1    1    2    0    0  0.49015068216E+00  0.78399677619E+00  0.73351481459E+00  0.11802299011E+01  0.00000000000E+00 0. -1.
         11    1    3    3    0    0  0.32535141866E+02  0.12594923276E+02  0.85967285420E+01  0.35931480494E+02  0.51100000000E-03 0. -1.
        -11    1    3    3    0    0  0.78265462755E+01 -0.13965521361E+01 -0.82966777975E+01  0.11490867992E+02  0.51100000000E-03 0.  1.
        -12    1    3    3    0    0 -0.40851838824E+02 -0.11982367916E+02 -0.10335655591E+01  0.42585421613E+02  0.00000000000E+00 0.  1.
</event>
<event>
 7    1  0.4331547E-015  0.9000801E+02  0.7816164E-02  0.1186339E+00
        -11   -1    0    0    0    0  0.00000000000E+00  0.00000000000E+00  0.45593999997E+02  0.45594000000E+02  0.51100000000E-03 0.  1.
         11   -1    0    0    0    0 -0.00000000000E+00 -0.00000000000E+00 -0.45593999997E+02  0.45594000000E+02  0.51100000000E-03 0. -1.
    9900012    2    1    2    0    0 -0.88295299414E+00  0.78240742089E+00 -0.24820317329E-01  0.90008007030E+02  0.90000271922E+02 0.  0.
         12    1    1    2    0    0  0.88295299414E+00 -0.78240742089E+00  0.24820317329E-01  0.11799929704E+01  0.00000000000E+00 0. -1.
         11    1    3    3    0    0  0.20808978285E+01  0.97043238808E+01  0.22785240291E+01  0.10183109042E+02  0.51100000000E-03 0. -1.
        -11    1    3    3    0    0  0.33221218520E+02  0.25071918521E+01 -0.19015768517E+02  0.38360589458E+02  0.51100000000E-03 0.  1.
         12    1    3    3    0    0 -0.36185069343E+02 -0.11429108312E+02  0.16712424171E+02  0.41464308530E+02  0.00000000000E+00 0. -1.
</event>
<event>
 7    1  0.4331547E-015  0.9000777E+02  0.7816164E-02  0.1186339E+00
        -11   -1    0    0    0    0  0.00000000000E+00  0.00000000000E+00  0.45593999997E+02  0.45594000000E+02  0.51100000000E-03 0. -1.
         11   -1    0    0    0    0 -0.00000000000E+00 -0.00000000000E+00 -0.45593999997E+02  0.45594000000E+02  0.51100000000E-03 0.  1.
    9900012    2    1    2    0    0 -0.47085897434E+00 -0.10643751580E+01  0.19582611232E+00  0.90007766753E+02  0.90000028474E+02 0.  0.
         12    1    1    2    0    0  0.47085897434E+00  0.10643751580E+01 -0.19582611232E+00  0.11802332468E+01  0.00000000000E+00 0. -1.
         11    1    3    3    0    0  0.89601210914E+01 -0.23714852305E+01 -0.40193786613E+01  0.10102629225E+02  0.51100000000E-03 0. -1.
        -11    1    3    3    0    0  0.19288131933E+02 -0.27744665832E+02 -0.12135439332E+02  0.35903584830E+02  0.51100000000E-03 0.  1.
         12    1    3    3    0    0 -0.28719111999E+02  0.29051775904E+02  0.16350644106E+02  0.44001552698E+02  0.00000000000E+00 0. -1.
</event>
<event>
 7    1  0.4331547E-015  0.9000774E+02  0.7816164E-02  0.1186339E+00
        -11   -1    0    0    0    0  0.00000000000E+00  0.00000000000E+00  0.45593999997E+02  0.45594000000E+02  0.51100000000E-03 0.  1.
         11   -1    0    0    0    0 -0.00000000000E+00 -0.00000000000E+00 -0.45593999997E+02  0.45594000000E+02  0.51100000000E-03 0. -1.
    9900012    2    1    2    0    0 -0.36268934740E+00  0.11217785048E+01  0.55625923685E-01  0.90007735276E+02  0.89999996581E+02 0.  0.
         12    1    1    2    0    0  0.36268934740E+00 -0.11217785048E+01 -0.55625923685E-01  0.11802647245E+01  0.00000000000E+00 0. -1.
         11    1    3    3    0    0  0.82955452542E+01  0.41680754298E+01 -0.38046796590E+01  0.10033170557E+02  0.51100000000E-03 0. -1.
        -11    1    3    3    0    0  0.34278739392E+02  0.86763898295E+01  0.98939021216E+00  0.35373586304E+02  0.51100000000E-03 0.  1.
         12    1    3    3    0    0 -0.42936973994E+02 -0.11722686755E+02  0.28709153705E+01  0.44600978414E+02  0.00000000000E+00 0. -1.
</event>
<event>
 7    1  0.4331547E-015  0.9000788E+02  0.7816164E-02  0.1186339E+00
        -11   -1    0    0    0    0  0.00000000000E+00  0.00000000000E+00  0.45593999997E+02  0.45594000000E+02  0.51100000000E-03 0.  1.
         11   -1    0    0    0    0 -0.00000000000E+00 -0.00000000000E+00 -0.45593999997E+02  0.45594000000E+02  0.51100000000E-03 0. -1.
    9900012    2    1    2    0    0 -0.34836466214E+00  0.10896505518E+01  0.28980048152E+00  0.90007881115E+02  0.90000144346E+02 0.  0.
         12    1    1    2    0    0  0.34836466214E+00 -0.10896505518E+01 -0.28980048152E+00  0.11801188847E+01  0.00000000000E+00 0. -1.
         11    1    3    3    0    0 -0.56179530064E+01 -0.78359274268E+01 -0.15122570859E+02  0.17934751302E+02  0.51100000000E-03 0. -1.
        -11    1    3    3    0    0  0.50487097244E+01  0.20869283942E+02 -0.23226099480E+02  0.31630178302E+02  0.51100000000E-03 0.  1.
         12    1    3    3    0    0  0.22087861990E+00 -0.11943705964E+02  0.38638470821E+02  0.40442951510E+02  0.00000000000E+00 0. -1.
</event>
<event>
 7    1  0.4331547E-015  0.9000752E+02  0.7816164E-02  0.1186339E+00
        -11   -1    0    0    0    0  0.00000000000E+00  0.00000000000E+00  0.45593999997E+02  0.45594000000E+02  0.51100000000E-03 0.  1.
         11   -1    0    0    0    0 -0.00000000000E+00 -0.00000000000E+00 -0.45593999997E+02  0.45594000000E+02  0.51100000000E-03 0. -1.
    9900012    2    1    2    0    0 -0.31521772889E+00 -0.52750446813E+00  0.10079288520E+01  0.90007515459E+02  0.89999773863E+02 0.  0.
         12    1    1    2    0    0  0.31521772889E+00  0.52750446813E+00 -0.10079288520E+01  0.11804845408E+01  0.00000000000E+00 0. -1.
         11    1    3    3    0    0  0.15250033592E+02  0.13874757840E+02 -0.36955602086E+02  0.42317714441E+02  0.51100000000E-03 0. -1.
        -11    1    3    3    0    0  0.28015796477E+01 -0.75390552547E+01  0.54285505020E+01  0.97033686661E+01  0.51100000000E-03 0.  1.
        -12    1    3    3    0    0 -0.18366830968E+02 -0.68632070535E+01  0.32534980436E+02  0.37986432352E+02  0.00000000000E+00 0.  1.
</event>
<event>
 7    1  0.4331547E-015  0.9000856E+02  0.7816164E-02  0.1186337E+00
        -11   -1    0    0    0    0  0.00000000000E+00  0.00000000000E+00  0.45593999997E+02  0.45594000000E+02  0.51100000000E-03 0.  1.
         11   -1    0    0    0    0 -0.00000000000E+00 -0.00000000000E+00 -0.45593999997E+02  0.45594000000E+02  0.51100000000E-03 0. -1.
    9900012    2    1    2    0    0 -0.11770040073E+00  0.10645884759E+01 -0.49383924310E+00  0.90008559792E+02  0.90000831977E+02 0.  0.
         12    1    1    2    0    0  0.11770040073E+00 -0.10645884759E+01  0.49383924310E+00  0.11794402085E+01  0.00000000000E+00 0. -1.
         11    1    3    3    0    0 -0.49988159952E+01  0.57309937039E+01 -0.58060420148E+01  0.95677883718E+01  0.51100000000E-03 0. -1.
        -11    1    3    3    0    0 -0.23117951035E+02  0.24960429525E+02  0.17002759340E+02  0.38033623644E+02  0.51100000000E-03 0.  1.
         12    1    3    3    0    0  0.27999066629E+02 -0.29626834753E+02 -0.11690556568E+02  0.42407147775E+02  0.00000000000E+00 0. -1.
</event>
<event>
 7    1  0.4331547E-015  0.9000781E+02  0.7816164E-02  0.1186339E+00
        -11   -1    0    0    0    0  0.00000000000E+00  0.00000000000E+00  0.45593999997E+02  0.45594000000E+02  0.51100000000E-03 0. -1.
         11   -1    0    0    0    0 -0.00000000000E+00 -0.00000000000E+00 -0.45593999997E+02  0.45594000000E+02  0.51100000000E-03 0.  1.
    9900012    2    1    2    0    0 -0.98530836685E+00  0.36493960599E+00  0.53743077247E+00  0.90007811316E+02  0.90000073626E+02 0.  0.
         12    1    1    2    0    0  0.98530836685E+00 -0.36493960599E+00 -0.53743077247E+00  0.11801886836E+01  0.00000000000E+00 0. -1.
         11    1    3    3    0    0 -0.14710025352E+01  0.49697662540E+01 -0.62833100828E+01  0.81450850784E+01  0.51100000000E-03 0. -1.
        -11    1    3    3    0    0  0.14910515013E+02 -0.20463521764E+02 -0.29999588902E+02  0.39256267213E+02  0.51100000000E-03 0.  1.
         12    1    3    3    0    0 -0.14424820844E+02  0.15858695116E+02  0.36820329758E+02  0.42606459025E+02  0.00000000000E+00 0. -1.
</event>
<event>
 7    1  0.4331547E-015  0.9000774E+02  0.7816164E-02  0.1186339E+00
        -11   -1    0    0    0    0  0.00000000000E+00  0.00000000000E+00  0.45593999997E+02  0.45594000000E+02  0.51100000000E-03 0.  1.
         11   -1    0    0    0    0 -0.00000000000E+00 -0.00000000000E+00 -0.45593999997E+02  0.45594000000E+02  0.51100000000E-03 0. -1.
    9900012    2    1    2    0    0 -0.79639094462E+00  0.79033391469E+00 -0.36627378741E+00  0.90007736165E+02  0.89999997482E+02 0.  0.
         12    1    1    2    0    0  0.79639094462E+00 -0.79033391469E+00  0.36627378741E+00  0.11802638352E+01  0.00000000000E+00 0. -1.
         11    1    3    3    0    0 -0.17006039047E+02  0.30755550602E+02 -0.25567483505E+02  0.43460389666E+02  0.51100000000E-03 0. -1.
        -11    1    3    3    0    0  0.60036077235E+01 -0.54890617357E+01 -0.21878709609E+01  0.84237689925E+01  0.51100000000E-03 0.  1.
        -12    1    3    3    0    0  0.10206040378E+02 -0.24476154952E+02  0.27389080678E+02  0.38123577506E+02  0.00000000000E+00 0.  1.
</event>
<event>
 7    1  0.4331547E-015  0.9000775E+02  0.7816164E-02  0.1186339E+00
        -11   -1    0    0    0    0  0.00000000000E+00  0.00000000000E+00  0.45593999997E+02  0.45594000000E+02  0.51100000000E-03 0. -1.
         11   -1    0    0    0    0 -0.00000000000E+00 -0.00000000000E+00 -0.45593999997E+02  0.45594000000E+02  0.51100000000E-03 0.  1.
    9900012    2    1    2    0    0 -0.16660113222E+00 -0.95418411856E+00 -0.67436110429E+00  0.90007751650E+02  0.90000013171E+02 0.  0.
         12    1    1    2    0    0  0.16660113222E+00  0.95418411856E+00  0.67436110429E+00  0.11802483503E+01  0.00000000000E+00 0. -1.
         11    1    3    3    0    0 -0.70423128033E+01 -0.10999102423E+02  0.30440551069E+02  0.33124033169E+02  0.51100000000E-03 0. -1.
        -11    1    3    3    0    0  0.92659162061E+01  0.13055018027E+01  0.10632902802E+02  0.14164044632E+02  0.51100000000E-03 0.  1.
        -12    1    3    3    0    0 -0.23902045351E+01  0.87394165015E+01 -0.41747814975E+02  0.42719673848E+02  0.00000000000E+00 0.  1.
</event>
<event>
 7    1  0.4331547E-015  0.9000770E+02  0.7816164E-02  0.1186339E+00
        -11   -1    0    0    0    0  0.00000000000E+00  0.00000000000E+00  0.45593999997E+02  0.45594000000E+02  0.51100000000E-03 0.  1.
         11   -1    0    0    0    0 -0.00000000000E+00 -0.00000000000E+00 -0.45593999997E+02  0.45594000000E+02  0.51100000000E-03 0. -1.
    9900012    2    1    2    0    0  0.88227158543E+00 -0.76784033191E+00 -0.15850906594E+00  0.90007700441E+02  0.89999961286E+02 0.  0.
         12    1    1    2    0    0 -0.88227158543E+00  0.76784033191E+00  0.15850906594E+00  0.11802995593E+01  0.00000000000E+00 0. -1.
         11    1    3    3    0    0 -0.19073784522E+02  0.10041987099E+02 -0.11176002365E+02  0.24280728779E+02  0.51100000000E-03 0. -1.
        -11    1    3    3    0    0 -0.21563677408E+02 -0.69580737350E+01  0.75576527543E+01  0.23885667018E+02  0.51100000000E-03 0.  1.
         12    1    3    3    0    0  0.41519733516E+02 -0.38517536958E+01  0.34598405445E+01  0.41841304645E+02  0.00000000000E+00 0. -1.
</event>
<event>
 7    1  0.4331547E-015  0.9000775E+02  0.7816164E-02  0.1186339E+00
        -11   -1    0    0    0    0  0.00000000000E+00  0.00000000000E+00  0.45593999997E+02  0.45594000000E+02  0.51100000000E-03 0.  1.
         11   -1    0    0    0    0 -0.00000000000E+00 -0.00000000000E+00 -0.45593999997E+02  0.45594000000E+02  0.51100000000E-03 0. -1.
    9900012    2    1    2    0    0  0.40658071481E+00 -0.54053859173E+00  0.96720984997E+00  0.90007752255E+02  0.90000013784E+02 0.  0.
         12    1    1    2    0    0 -0.40658071481E+00  0.54053859173E+00 -0.96720984997E+00  0.11802477455E+01  0.00000000000E+00 0. -1.
         11    1    3    3    0    0  0.91761288689E+01  0.48078136941E+01 -0.23363035743E+01  0.10619544632E+02  0.51100000000E-03 0. -1.
        -11    1    3    3    0    0  0.20064481921E+02 -0.27002470470E+02  0.20545142799E+02  0.39418520256E+02  0.51100000000E-03 0.  1.
         12    1    3    3    0    0 -0.28834030075E+02  0.21654118184E+02 -0.17241629374E+02  0.39969687367E+02  0.00000000000E+00 0. -1.
</event>
<event>
 7    1  0.4331547E-015  0.9000772E+02  0.7816164E-02  0.1186339E+00
        -11   -1    0    0    0    0  0.00000000000E+00  0.00000000000E+00  0.45593999997E+02  0.45594000000E+02  0.51100000000E-03 0.  1.
         11   -1    0    0    0    0 -0.00000000000E+00 -0.00000000000E+00 -0.45593999997E+02  0.45594000000E+02  0.51100000000E-03 0. -1.
    9900012    2    1    2    0    0  0.10084758878E+01  0.18658485085E+00  0.58414892277E+00  0.90007717201E+02  0.89999978268E+02 0.  0.
         12    1    1    2    0    0 -0.10084758878E+01 -0.18658485085E+00 -0.58414892277E+00  0.11802827995E+01  0.00000000000E+00 0. -1.
         11    1    3    3    0    0  0.16210949345E+02  0.74724664414E+01 -0.35638952587E+02  0.39859347400E+02  0.51100000000E-03 0. -1.
        -11    1    3    3    0    0  0.46132293599E+01 -0.87099908509E+01  0.12618705391E+01  0.99367068624E+01  0.51100000000E-03 0.  1.
        -12    1    3    3    0    0 -0.19815702817E+02  0.14241092604E+01  0.34961230971E+02  0.40211662939E+02  0.00000000000E+00 0.  1.
</event>
<event>
 7    1  0.4331547E-015  0.9000774E+02  0.7816164E-02  0.1186339E+00
        -11   -1    0    0    0    0  0.00000000000E+00  0.00000000000E+00  0.45593999997E+02  0.45594000000E+02  0.51100000000E-03 0.  1.
         11   -1    0    0    0    0 -0.00000000000E+00 -0.00000000000E+00 -0.45593999997E+02  0.45594000000E+02  0.51100000000E-03 0. -1.
    9900012    2    1    2    0    0 -0.71882145066E+00 -0.37269660467E+00  0.85871871077E+00  0.90007743731E+02  0.90000005148E+02 0.  0.
         12    1    1    2    0    0  0.71882145066E+00  0.37269660467E+00 -0.85871871077E+00  0.11802562693E+01  0.00000000000E+00 0. -1.
         11    1    3    3    0    0  0.30547966463E+00 -0.55020886656E+01  0.79152542470E+01  0.96445605169E+01  0.51100000000E-03 0. -1.
        -11    1    3    3    0    0  0.18353651498E+02  0.12390360116E+02  0.30376299976E+02  0.37591184440E+02  0.51100000000E-03 0.  1.
         12    1    3    3    0    0 -0.19377952613E+02 -0.72609680554E+01 -0.37432835513E+02  0.42771998773E+02  0.00000000000E+00 0. -1.
</event>
<event>
 7    1  0.5888983E-015  0.9000777E+02  0.7816164E-02  0.1186339E+00
        -11   -1    0    0    0    0  0.00000000000E+00  0.00000000000E+00  0.45593999997E+02  0.45594000000E+02  0.51100000000E-03 0. -1.
         11   -1    0    0    0    0 -0.00000000000E+00 -0.00000000000E+00 -0.45593999997E+02  0.45594000000E+02  0.51100000000E-03 0.  1.
    9900012    2    1    2    0    0  0.37376384381E+00 -0.84811949360E+00 -0.73070899888E+00  0.90007770477E+02  0.90000032247E+02 0.  0.
         12    1    1    2    0    0 -0.37376384381E+00  0.84811949360E+00  0.73070899888E+00  0.11802295232E+01  0.00000000000E+00 0. -1.
         11    1    3    3    0    0  0.11849629914E+02 -0.16861464962E+02  0.31888156829E+02  0.37968108670E+02  0.51100000000E-03 0. -1.
        -11    1    3    3    0    0 -0.84577373929E+00 -0.97125127469E+01 -0.82742913935E+00  0.97843178770E+01  0.51100000000E-03 0.  1.
        -12    1    3    3    0    0 -0.10630092331E+02  0.25725858215E+02 -0.31791436689E+02  0.42255343930E+02  0.00000000000E+00 0.  1.
</event>
<event>
 7    1  0.4331547E-015  0.9000769E+02  0.7816164E-02  0.1186339E+00
        -11   -1    0    0    0    0  0.00000000000E+00  0.00000000000E+00  0.45593999997E+02  0.45594000000E+02  0.51100000000E-03 0.  1.
         11   -1    0    0    0    0 -0.00000000000E+00 -0.00000000000E+00 -0.45593999997E+02  0.45594000000E+02  0.51100000000E-03 0. -1.
    9900012    2    1    2    0    0 -0.83484027649E+00  0.25013857222E+00 -0.79599055147E+00  0.90007691332E+02  0.89999952058E+02 0.  0.
         12    1    1    2    0    0  0.83484027649E+00 -0.25013857222E+00  0.79599055147E+00  0.11803086675E+01  0.00000000000E+00 0. -1.
         11    1    3    3    0    0 -0.58557428083E+01 -0.67876674311E+01 -0.26647518170E+01  0.93521684918E+01  0.51100000000E-03 0. -1.
        -11    1    3    3    0    0  0.28083237697E+02  0.57040523524E+01  0.31825636446E+02  0.42826108721E+02  0.51100000000E-03 0.  1.
         12    1    3    3    0    0 -0.23062335165E+02  0.13337536509E+01 -0.29956875180E+02  0.37829414119E+02  0.00000000000E+00 0. -1.
</event>
<event>
 7    1  0.4331547E-015  0.9000778E+02  0.7816164E-02  0.1186339E+00
        -11   -1    0    0    0    0  0.00000000000E+00  0.00000000000E+00  0.45593999997E+02  0.45594000000E+02  0.51100000000E-03 0. -1.
         11   -1    0    0    0    0 -0.00000000000E+00 -0.00000000000E+00 -0.45593999997E+02  0.45594000000E+02  0.51100000000E-03 0.  1.
    9900012    2    1    2    0    0  0.11561394578E+01 -0.14634953833E+00  0.18669133913E+00  0.90007775322E+02  0.90000037157E+02 0.  0.
         12    1    1    2    0    0 -0.11561394578E+01  0.14634953833E+00 -0.18669133913E+00  0.11802246775E+01  0.00000000000E+00 0. -1.
         11    1    3    3    0    0 -0.14230697359E+02  0.26951887677E+01 -0.43730177267E+01  0.15129443946E+02  0.51100000000E-03 0. -1.
        -11    1    3    3    0    0 -0.19734953773E+02 -0.23689754812E+02  0.12499559145E+02  0.33270284979E+02  0.51100000000E-03 0.  1.
         12    1    3    3    0    0  0.35121790590E+02  0.20848216506E+02 -0.79398500793E+01  0.41608046397E+02  0.00000000000E+00 0. -1.
</event>
<event>
 7    1  0.4331547E-015  0.9000768E+02  0.7816164E-02  0.1186339E+00
        -11   -1    0    0    0    0  0.00000000000E+00  0.00000000000E+00  0.45593999997E+02  0.45594000000E+02  0.51100000000E-03 0.  1.
         11   -1    0    0    0    0 -0.00000000000E+00 -0.00000000000E+00 -0.45593999997E+02  0.45594000000E+02  0.51100000000E-03 0. -1.
    9900012    2    1    2    0    0 -0.16697564791E+00  0.11633128355E+01 -0.10944581059E+00  0.90007679702E+02  0.89999940274E+02 0.  0.
         12    1    1    2    0    0  0.16697564791E+00 -0.11633128355E+01  0.10944581059E+00  0.11803202980E+01  0.00000000000E+00 0. -1.
         11    1    3    3    0    0 -0.22162811121E+02 -0.18503681386E+02 -0.25033779892E+02  0.38213434255E+02  0.51100000000E-03 0. -1.
        -11    1    3    3    0    0 -0.71410217980E+01  0.79433724630E+01 -0.14534232341E+01  0.10779786536E+02  0.51100000000E-03 0.  1.
        -12    1    3    3    0    0  0.29136857271E+02  0.11723621758E+02  0.26377757316E+02  0.41014458911E+02  0.00000000000E+00 0.  1.
</event>
<event>
 7    1  0.4331547E-015  0.9000777E+02  0.7816164E-02  0.1186339E+00
        -11   -1    0    0    0    0  0.00000000000E+00  0.00000000000E+00  0.45593999997E+02  0.45594000000E+02  0.51100000000E-03 0. -1.
         11   -1    0    0    0    0 -0.00000000000E+00 -0.00000000000E+00 -0.45593999997E+02  0.45594000000E+02  0.51100000000E-03 0.  1.
    9900012    2    1    2    0    0  0.11476086909E+01  0.26162686800E+00 -0.86474765107E-01  0.90007774509E+02  0.90000036332E+02 0.  0.
         12    1    1    2    0    0 -0.11476086909E+01 -0.26162686800E+00  0.86474765107E-01  0.11802254914E+01  0.00000000000E+00 0. -1.
         11    1    3    3    0    0 -0.19062119597E+02  0.33262541802E+02 -0.17744880184E+02  0.42245021762E+02  0.51100000000E-03 0. -1.
        -11    1    3    3    0    0 -0.19345378208E+01 -0.12261372539E+02 -0.46580682236E+00  0.12421782053E+02  0.51100000000E-03 0.  1.
        -12    1    3    3    0    0  0.22144266108E+02 -0.20739542395E+02  0.18124212241E+02  0.35340970694E+02  0.00000000000E+00 0.  1.
</event>
<event>
 7    1  0.4331547E-015  0.9000769E+02  0.7816164E-02  0.1186339E+00
        -11   -1    0    0    0    0  0.00000000000E+00  0.00000000000E+00  0.45593999997E+02  0.45594000000E+02  0.51100000000E-03 0. -1.
         11   -1    0    0    0    0 -0.00000000000E+00 -0.00000000000E+00 -0.45593999997E+02  0.45594000000E+02  0.51100000000E-03 0.  1.
    9900012    2    1    2    0    0 -0.79626112211E+00 -0.30356976776E-01 -0.87073519276E+00  0.90007689407E+02  0.89999950107E+02 0.  0.
         12    1    1    2    0    0  0.79626112211E+00  0.30356976776E-01  0.87073519276E+00  0.11803105932E+01  0.00000000000E+00 0. -1.
         11    1    3    3    0    0 -0.58771390328E+01  0.44000749118E+01 -0.77603694073E+01  0.10682918891E+02  0.51100000000E-03 0. -1.
        -11    1    3    3    0    0 -0.30186795884E+02 -0.19426492309E+02  0.16956981453E+02  0.39701013456E+02  0.51100000000E-03 0.  1.
         12    1    3    3    0    0  0.35267673795E+02  0.14996060421E+02 -0.10067347239E+02  0.39623757059E+02  0.00000000000E+00 0. -1.
</event>
<event>
 7    1  0.4331547E-015  0.9000763E+02  0.7816164E-02  0.1186339E+00
        -11   -1    0    0    0    0  0.00000000000E+00  0.00000000000E+00  0.45593999997E+02  0.45594000000E+02  0.51100000000E-03 0. -1.
         11   -1    0    0    0    0 -0.00000000000E+00 -0.00000000000E+00 -0.45593999997E+02  0.45594000000E+02  0.51100000000E-03 0.  1.
    9900012    2    1    2    0    0 -0.12652903194E+00 -0.28583685742E+00 -0.11382230809E+01  0.90007633918E+02  0.89999893886E+02 0.  0.
         12    1    1    2    0    0  0.12652903194E+00  0.28583685742E+00  0.11382230809E+01  0.11803660817E+01  0.00000000000E+00 0. -1.
         11    1    3    3    0    0  0.91488884586E+01 -0.26164411876E+02  0.30942654648E+02  0.41541864255E+02  0.51100000000E-03 0. -1.
        -11    1    3    3    0    0  0.12927205091E+01 -0.37702631607E+01 -0.76315141085E+01  0.86096468258E+01  0.51100000000E-03 0.  1.
        -12    1    3    3    0    0 -0.10568138000E+02  0.29648838179E+02 -0.24449363621E+02  0.39856122837E+02  0.00000000000E+00 0.  1.
</event>
<event>
 7    1  0.4331547E-015  0.9000785E+02  0.7816164E-02  0.1186339E+00
        -11   -1    0    0    0    0  0.00000000000E+00  0.00000000000E+00  0.45593999997E+02  0.45594000000E+02  0.51100000000E-03 0.  1.
         11   -1    0    0    0    0 -0.00000000000E+00 -0.00000000000E+00 -0.45593999997E+02  0.45594000000E+02  0.51100000000E-03 0. -1.
    9900012    2    1    2    0    0 -0.85370726240E+00 -0.68843351765E+00  0.43587366546E+00  0.90007854818E+02  0.90000117702E+02 0.  0.
         12    1    1    2    0    0  0.85370726240E+00  0.68843351765E+00 -0.43587366546E+00  0.11801451819E+01  0.00000000000E+00 0. -1.
         11    1    3    3    0    0  0.59768975678E+01  0.62926769989E+01 -0.74140174303E+01  0.11414409449E+02  0.51100000000E-03 0. -1.
        -11    1    3    3    0    0 -0.24212210195E+02  0.26863145693E+02  0.16222739402E+02  0.39636309024E+02  0.51100000000E-03 0.  1.
         12    1    3    3    0    0  0.17381605365E+02 -0.33844256210E+02 -0.83728483066E+01  0.38957136345E+02  0.00000000000E+00 0. -1.
</event>
<event>
 7    1  0.4331547E-015  0.9000776E+02  0.7816164E-02  0.1186339E+00
        -11   -1    0    0    0    0  0.00000000000E+00  0.00000000000E+00  0.45593999997E+02  0.45594000000E+02  0.51100000000E-03 0. -1.
         11   -1    0    0    0    0 -0.00000000000E+00 -0.00000000000E+00 -0.45593999997E+02  0.45594000000E+02  0.51100000000E-03 0.  1.
    9900012    2    1    2    0    0 -0.57053490748E+00  0.28890999562E+00 -0.99196437568E+00  0.90007757487E+02  0.90000019086E+02 0.  0.
         12    1    1    2    0    0  0.57053490748E+00 -0.28890999562E+00  0.99196437568E+00  0.11802425127E+01  0.00000000000E+00 0. -1.
         11    1    3    3    0    0 -0.45540643277E+01 -0.73384245065E+01  0.23077420402E+01  0.89396672043E+01  0.51100000000E-03 0. -1.
        -11    1    3    3    0    0 -0.31773985628E+02 -0.18263605455E+02 -0.43681958480E+01  0.36908353826E+02  0.51100000000E-03 0.  1.
         12    1    3    3    0    0  0.35757515048E+02  0.25890939957E+02  0.10684894321E+01  0.44159736457E+02  0.00000000000E+00 0. -1.
</event>
<event>
 7    1  0.4331547E-015  0.9000798E+02  0.7816164E-02  0.1186339E+00
        -11   -1    0    0    0    0  0.00000000000E+00  0.00000000000E+00  0.45593999997E+02  0.45594000000E+02  0.51100000000E-03 0.  1.
         11   -1    0    0    0    0 -0.00000000000E+00 -0.00000000000E+00 -0.45593999997E+02  0.45594000000E+02  0.51100000000E-03 0. -1.
    9900012    2    1    2    0    0 -0.76414640879E+00  0.26358840291E+00  0.85968036127E+00  0.90007979278E+02  0.90000243804E+02 0.  0.
         12    1    1    2    0    0  0.76414640879E+00 -0.26358840291E+00 -0.85968036127E+00  0.11800207218E+01  0.00000000000E+00 0. -1.
         11    1    3    3    0    0 -0.70217961773E+01  0.24007906557E+01 -0.63104071010E+01  0.97411834687E+01  0.51100000000E-03 0. -1.
        -11    1    3    3    0    0 -0.35568519578E+02 -0.10916493762E+02  0.36371091253E+01  0.37383391822E+02  0.51100000000E-03 0.  1.
         12    1    3    3    0    0  0.41826169347E+02  0.87792915094E+01  0.35329783369E+01  0.42883403988E+02  0.00000000000E+00 0. -1.
</event>
<event>
 7    1  0.4331547E-015  0.9000776E+02  0.7816164E-02  0.1186339E+00
        -11   -1    0    0    0    0  0.00000000000E+00  0.00000000000E+00  0.45593999997E+02  0.45594000000E+02  0.51100000000E-03 0. -1.
         11   -1    0    0    0    0 -0.00000000000E+00 -0.00000000000E+00 -0.45593999997E+02  0.45594000000E+02  0.51100000000E-03 0.  1.
    9900012    2    1    2    0    0  0.40585556053E+00 -0.10857723770E+01 -0.22212898345E+00  0.90007762026E+02  0.90000023684E+02 0.  0.
         12    1    1    2    0    0 -0.40585556053E+00  0.10857723770E+01  0.22212898345E+00  0.11802379743E+01  0.00000000000E+00 0. -1.
         11    1    3    3    0    0 -0.39625599214E+01  0.19113691530E+02  0.32602597907E+02  0.37999532571E+02  0.51100000000E-03 0. -1.
        -11    1    3    3    0    0 -0.39319298826E+01  0.22587565010E+00  0.61071629388E+01  0.72669479035E+01  0.51100000000E-03 0.  1.
        -12    1    3    3    0    0  0.83003453645E+01 -0.20425339557E+02 -0.38931889829E+02  0.44741281552E+02  0.00000000000E+00 0.  1.
</event>
<event>
 7    1  0.4331547E-015  0.9000775E+02  0.7816164E-02  0.1186339E+00
        -11   -1    0    0    0    0  0.00000000000E+00  0.00000000000E+00  0.45593999997E+02  0.45594000000E+02  0.51100000000E-03 0.  1.
         11   -1    0    0    0    0 -0.00000000000E+00 -0.00000000000E+00 -0.45593999997E+02  0.45594000000E+02  0.51100000000E-03 0. -1.
    9900012    2    1    2    0    0  0.38628078772E+00 -0.93261776921E+00 -0.61154818780E+00  0.90007754290E+02  0.90000015846E+02 0.  0.
         12    1    1    2    0    0 -0.38628078772E+00  0.93261776921E+00  0.61154818780E+00  0.11802457102E+01  0.00000000000E+00 0. -1.
         11    1    3    3    0    0  0.11287306522E+02  0.18903616956E+01 -0.18905167861E+02  0.22099369402E+02  0.51100000000E-03 0. -1.
        -11    1    3    3    0    0  0.24469169772E+02  0.35466742214E+01 -0.48035531734E+01  0.25187165198E+02  0.51100000000E-03 0.  1.
        -12    1    3    3    0    0 -0.35370195506E+02 -0.63696536861E+01  0.23097172847E+02  0.42721219689E+02  0.00000000000E+00 0.  1.
</event>
<event>
 7    1  0.4331547E-015  0.9000762E+02  0.7816164E-02  0.1186339E+00
        -11   -1    0    0    0    0  0.00000000000E+00  0.00000000000E+00  0.45593999997E+02  0.45594000000E+02  0.51100000000E-03 0. -1.
         11   -1    0    0    0    0 -0.00000000000E+00 -0.00000000000E+00 -0.45593999997E+02  0.45594000000E+02  0.51100000000E-03 0.  1.
    9900012    2    1    2    0    0  0.52257588779E+00 -0.78991922249E+00 -0.70444263157E+00  0.90007619825E+02  0.89999879607E+02 0.  0.
         12    1    1    2    0    0 -0.52257588779E+00  0.78991922249E+00  0.70444263157E+00  0.11803801751E+01  0.00000000000E+00 0. -1.
         11    1    3    3    0    0  0.20550404841E+02  0.55989325928E+01  0.36397748489E+02  0.42171830416E+02  0.51100000000E-03 0. -1.
        -11    1    3    3    0    0  0.46570091864E+01 -0.19338717212E+01 -0.74657884812E+01  0.90091948755E+01  0.51100000000E-03 0.  1.
        -12    1    3    3    0    0 -0.24684838140E+02 -0.44549800941E+01 -0.29636402640E+02  0.38826594533E+02  0.00000000000E+00 0.  1.
</event>
<event>
 7    1  0.4331547E-015  0.9000772E+02  0.7816164E-02  0.1186339E+00
        -11   -1    0    0    0    0  0.00000000000E+00  0.00000000000E+00  0.45593999997E+02  0.45594000000E+02  0.51100000000E-03 0. -1.
         11   -1    0    0    0    0 -0.00000000000E+00 -0.00000000000E+00 -0.45593999997E+02  0.45594000000E+02  0.51100000000E-03 0.  1.
    9900012    2    1    2    0    0  0.88172039665E+00  0.41167242868E+00 -0.66795304245E+00  0.90007717698E+02  0.89999978771E+02 0.  0.
         12    1    1    2    0    0 -0.88172039665E+00 -0.41167242868E+00  0.66795304245E+00  0.11802823024E+01  0.00000000000E+00 0. -1.
         11    1    3    3    0    0 -0.73401921343E+00 -0.31263370134E+02 -0.26014186739E+02  0.40677696694E+02  0.51100000000E-03 0. -1.
        -11    1    3    3    0    0 -0.40477189907E+01 -0.16302473256E+01  0.12409538120E+02  0.13154405041E+02  0.51100000000E-03 0.  1.
        -12    1    3    3    0    0  0.56634586008E+01  0.33305289888E+02  0.12936695577E+02  0.36175615963E+02  0.00000000000E+00 0.  1.
</event>
<event>
 7    1  0.4331547E-015  0.9000775E+02  0.7816164E-02  0.1186339E+00
        -11   -1    0    0    0    0  0.00000000000E+00  0.00000000000E+00  0.45593999997E+02  0.45594000000E+02  0.51100000000E-03 0.  1.
         11   -1    0    0    0    0 -0.00000000000E+00 -0.00000000000E+00 -0.45593999997E+02  0.45594000000E+02  0.51100000000E-03 0. -1.
    9900012    2    1    2    0    0  0.18796702784E+00 -0.64115120343E+00  0.97292176991E+00  0.90007752890E+02  0.90000014429E+02 0.  0.
         12    1    1    2    0    0 -0.18796702784E+00  0.64115120343E+00 -0.97292176991E+00  0.11802471095E+01  0.00000000000E+00 0. -1.
         11    1    3    3    0    0  0.26533372892E+01  0.60594655778E+01 -0.53096531877E+01  0.84823192049E+01  0.51100000000E-03 0. -1.
        -11    1    3    3    0    0  0.14514992981E+02  0.33864352181E+02  0.71972119097E+01  0.37540367998E+02  0.51100000000E-03 0.  1.
         12    1    3    3    0    0 -0.16980363243E+02 -0.40564968962E+02 -0.91463695217E+00  0.43985065687E+02  0.00000000000E+00 0. -1.
</event>
<event>
 7    1  0.4814616E-015  0.9000777E+02  0.7816164E-02  0.1186339E+00
        -11   -1    0    0    0    0  0.00000000000E+00  0.00000000000E+00  0.45593999997E+02  0.45594000000E+02  0.51100000000E-03 0.  1.
         11   -1    0    0    0    0 -0.00000000000E+00 -0.00000000000E+00 -0.45593999997E+02  0.45594000000E+02  0.51100000000E-03 0. -1.
    9900012    2    1    2    0    0  0.11103568104E+01  0.23278449307E+00  0.32536702999E+00  0.90007769272E+02  0.90000031027E+02 0.  0.
         12    1    1    2    0    0 -0.11103568104E+01 -0.23278449307E+00 -0.32536702999E+00  0.11802307278E+01  0.00000000000E+00 0. -1.
         11    1    3    3    0    0 -0.87254179486E+01  0.12665339010E+01  0.41259162480E+01  0.97344856899E+01  0.51100000000E-03 0. -1.
        -11    1    3    3    0    0 -0.10600293907E+02  0.12304218769E+02  0.32616201345E+02  0.36435924866E+02  0.51100000000E-03 0.  1.
         12    1    3    3    0    0  0.20436068666E+02 -0.13337968177E+02 -0.36416750563E+02  0.43837358716E+02  0.00000000000E+00 0. -1.
</event>
<event>
 7    1  0.4331547E-015  0.9000757E+02  0.7816164E-02  0.1186339E+00
        -11   -1    0    0    0    0  0.00000000000E+00  0.00000000000E+00  0.45593999997E+02  0.45594000000E+02  0.51100000000E-03 0. -1.
         11   -1    0    0    0    0 -0.00000000000E+00 -0.00000000000E+00 -0.45593999997E+02  0.45594000000E+02  0.51100000000E-03 0.  1.
    9900012    2    1    2    0    0 -0.81497594086E-01  0.11641352458E+01  0.17762730880E+00  0.90007574573E+02  0.89999833757E+02 0.  0.
         12    1    1    2    0    0  0.81497594086E-01 -0.11641352458E+01 -0.17762730880E+00  0.11804254272E+01  0.00000000000E+00 0. -1.
         11    1    3    3    0    0  0.97338532023E+01 -0.66263525743E+01 -0.15616297051E+01  0.11878347284E+02  0.51100000000E-03 0. -1.
        -11    1    3    3    0    0 -0.14322156005E+02 -0.21776570476E+02 -0.26375365034E+02  0.37081033633E+02  0.51100000000E-03 0.  1.
         12    1    3    3    0    0  0.45068052087E+01  0.29567058296E+02  0.28114622048E+02  0.41048193656E+02  0.00000000000E+00 0. -1.
</event>
<event>
 7    1  0.4331547E-015  0.9000774E+02  0.7816164E-02  0.1186339E+00
        -11   -1    0    0    0    0  0.00000000000E+00  0.00000000000E+00  0.45593999997E+02  0.45594000000E+02  0.51100000000E-03 0.  1.
         11   -1    0    0    0    0 -0.00000000000E+00 -0.00000000000E+00 -0.45593999997E+02  0.45594000000E+02  0.51100000000E-03 0. -1.
    9900012    2    1    2    0    0 -0.67309127094E+00  0.89728693390E+00  0.36721001651E+00  0.90007737785E+02  0.89999999123E+02 0.  0.
         12    1    1    2    0    0  0.67309127094E+00 -0.89728693390E+00 -0.36721001651E+00  0.11802622154E+01  0.00000000000E+00 0. -1.
         11    1    3    3    0    0 -0.32149579150E+02 -0.10956573385E+00 -0.27317288049E+02  0.42188169796E+02  0.51100000000E-03 0. -1.
        -11    1    3    3    0    0 -0.16112610604E+01  0.27895613367E+01  0.94800224668E+01  0.10012424326E+02  0.51100000000E-03 0.  1.
        -12    1    3    3    0    0  0.33087748939E+02 -0.17827086690E+01  0.18204475598E+02  0.37807143662E+02  0.00000000000E+00 0.  1.
</event>
<event>
 7    1  0.4331547E-015  0.9000774E+02  0.7816164E-02  0.1186339E+00
        -11   -1    0    0    0    0  0.00000000000E+00  0.00000000000E+00  0.45593999997E+02  0.45594000000E+02  0.51100000000E-03 0. -1.
         11   -1    0    0    0    0 -0.00000000000E+00 -0.00000000000E+00 -0.45593999997E+02  0.45594000000E+02  0.51100000000E-03 0.  1.
    9900012    2    1    2    0    0 -0.11661870856E+01  0.66732608025E-01 -0.16903190992E+00  0.90007738442E+02  0.89999999789E+02 0.  0.
         12    1    1    2    0    0  0.11661870856E+01 -0.66732608025E-01  0.16903190992E+00  0.11802615584E+01  0.00000000000E+00 0. -1.
         11    1    3    3    0    0  0.14358050272E+02 -0.10203439658E+02 -0.31775264857E+02  0.36330858034E+02  0.51100000000E-03 0. -1.
        -11    1    3    3    0    0 -0.56676023517E+00 -0.85810996541E+01 -0.49412440858E+01  0.99182852254E+01  0.51100000000E-03 0.  1.
        -12    1    3    3    0    0 -0.14957477122E+02  0.18851271920E+02  0.36547477033E+02  0.43758595183E+02  0.00000000000E+00 0.  1.
</event>
<event>
 7    1  0.4331547E-015  0.9000769E+02  0.7816164E-02  0.1186339E+00
        -11   -1    0    0    0    0  0.00000000000E+00  0.00000000000E+00  0.45593999997E+02  0.45594000000E+02  0.51100000000E-03 0. -1.
         11   -1    0    0    0    0 -0.00000000000E+00 -0.00000000000E+00 -0.45593999997E+02  0.45594000000E+02  0.51100000000E-03 0.  1.
    9900012    2    1    2    0    0  0.19879482528E+00 -0.11506654433E+01  0.17198737415E+00  0.90007690718E+02  0.89999951435E+02 0.  0.
         12    1    1    2    0    0 -0.19879482528E+00  0.11506654433E+01 -0.17198737415E+00  0.11803092823E+01  0.00000000000E+00 0. -1.
         11    1    3    3    0    0  0.63255688445E+01 -0.26217783054E+02  0.31303881086E+02  0.41319704026E+02  0.51100000000E-03 0. -1.
        -11    1    3    3    0    0 -0.10180496065E+02  0.55464389524E+01  0.14833969683E+00  0.11594286960E+02  0.51100000000E-03 0.  1.
        -12    1    3    3    0    0  0.40537220458E+01  0.19520678659E+02 -0.31280233408E+02  0.37093699732E+02  0.00000000000E+00 0.  1.
</event>
<event>
 7    1  0.4331547E-015  0.9000773E+02  0.7816164E-02  0.1186339E+00
        -11   -1    0    0    0    0  0.00000000000E+00  0.00000000000E+00  0.45593999997E+02  0.45594000000E+02  0.51100000000E-03 0. -1.
         11   -1    0    0    0    0 -0.00000000000E+00 -0.00000000000E+00 -0.45593999997E+02  0.45594000000E+02  0.51100000000E-03 0.  1.
    9900012    2    1    2    0    0 -0.14363024356E+00  0.11444371715E+01 -0.25035104924E+00  0.90007728110E+02  0.89999989321E+02 0.  0.
         12    1    1    2    0    0  0.14363024356E+00 -0.11444371715E+01  0.25035104924E+00  0.11802718900E+01  0.00000000000E+00 0. -1.
         11    1    3    3    0    0  0.32519983999E+01  0.94050923517E+01 -0.22844675645E+01  0.10210291281E+02  0.51100000000E-03 0. -1.
        -11    1    3    3    0    0 -0.29539065092E+02 -0.31244330074E+02  0.98721382592E+01  0.44116024780E+02  0.51100000000E-03 0.  1.
         12    1    3    3    0    0  0.26143436448E+02  0.22983674894E+02 -0.78380217440E+01  0.35681412049E+02  0.00000000000E+00 0. -1.
</event>
<event>
 7    1  0.4331547E-015  0.9000781E+02  0.7816164E-02  0.1186339E+00
        -11   -1    0    0    0    0  0.00000000000E+00  0.00000000000E+00  0.45593999997E+02  0.45594000000E+02  0.51100000000E-03 0.  1.
         11   -1    0    0    0    0 -0.00000000000E+00 -0.00000000000E+00 -0.45593999997E+02  0.45594000000E+02  0.51100000000E-03 0. -1.
    9900012    2    1    2    0    0 -0.80298750512E+00 -0.75306024443E+00  0.42540251021E+00  0.90007806812E+02  0.90000069062E+02 0.  0.
         12    1    1    2    0    0  0.80298750512E+00  0.75306024443E+00 -0.42540251021E+00  0.11801931879E+01  0.00000000000E+00 0. -1.
         11    1    3    3    0    0 -0.59166473704E+01  0.49922533996E+01  0.62390674794E+01  0.99425989251E+01  0.51100000000E-03 0. -1.
        -11    1    3    3    0    0  0.17601353387E+02 -0.20764816564E+02  0.29232100300E+02  0.39943722112E+02  0.51100000000E-03 0.  1.
         12    1    3    3    0    0 -0.12487693522E+02  0.15019502920E+02 -0.35045765269E+02  0.40121485775E+02  0.00000000000E+00 0. -1.
</event>
<event>
 7    1  0.4331547E-015  0.9000785E+02  0.7816164E-02  0.1186339E+00
        -11   -1    0    0    0    0  0.00000000000E+00  0.00000000000E+00  0.45593999997E+02  0.45594000000E+02  0.51100000000E-03 0.  1.
         11   -1    0    0    0    0 -0.00000000000E+00 -0.00000000000E+00 -0.45593999997E+02  0.45594000000E+02  0.51100000000E-03 0. -1.
    9900012    2    1    2    0    0 -0.11740768359E+01 -0.34443410131E-01  0.11453921512E+00  0.90007846621E+02  0.90000109397E+02 0.  0.
         12    1    1    2    0    0  0.11740768359E+01  0.34443410131E-01 -0.11453921512E+00  0.11801533786E+01  0.00000000000E+00 0. -1.
         11    1    3    3    0    0  0.23446761010E+02  0.28703694247E+02 -0.14084523468E+02  0.39648788971E+02  0.51100000000E-03 0. -1.
        -11    1    3    3    0    0  0.66165883876E+01 -0.60760187685E+01 -0.65500121223E+00  0.90070124245E+01  0.51100000000E-03 0.  1.
        -12    1    3    3    0    0 -0.31237426234E+02 -0.22662118888E+02  0.14854063895E+02  0.41352045226E+02  0.00000000000E+00 0.  1.
</event>
<event>
 7    1  0.4331547E-015  0.9000775E+02  0.7816164E-02  0.1186339E+00
        -11   -1    0    0    0    0  0.00000000000E+00  0.00000000000E+00  0.45593999997E+02  0.45594000000E+02  0.51100000000E-03 0.  1.
         11   -1    0    0    0    0 -0.00000000000E+00 -0.00000000000E+00 -0.45593999997E+02  0.45594000000E+02  0.51100000000E-03 0. -1.
    9900012    2    1    2    0    0 -0.10960820823E+01  0.74084275391E-01  0.43139256268E+00  0.90007752588E+02  0.90000014122E+02 0.  0.
         12    1    1    2    0    0  0.10960820823E+01 -0.74084275391E-01 -0.43139256268E+00  0.11802474122E+01  0.00000000000E+00 0. -1.
         11    1    3    3    0    0 -0.58164032433E+01  0.97867385803E+00 -0.90034889452E+01  0.10763417796E+02  0.51100000000E-03 0. -1.
        -11    1    3    3    0    0 -0.32188428717E+02 -0.15564561330E+02 -0.67032694817E+01  0.36376975337E+02  0.51100000000E-03 0.  1.
         12    1    3    3    0    0  0.36908749878E+02  0.14659971748E+02  0.16138150990E+02  0.42867359454E+02  0.00000000000E+00 0. -1.
</event>
<event>
 7    1  0.4331547E-015  0.9000771E+02  0.7816164E-02  0.1186339E+00
        -11   -1    0    0    0    0  0.00000000000E+00  0.00000000000E+00  0.45593999997E+02  0.45594000000E+02  0.51100000000E-03 0.  1.
         11   -1    0    0    0    0 -0.00000000000E+00 -0.00000000000E+00 -0.45593999997E+02  0.45594000000E+02  0.51100000000E-03 0. -1.
    9900012    2    1    2    0    0  0.10653187393E+01 -0.27174410665E-01  0.50739890221E+00  0.90007705075E+02  0.89999965982E+02 0.  0.
         12    1    1    2    0    0 -0.10653187393E+01  0.27174410665E-01 -0.50739890221E+00  0.11802949253E+01  0.00000000000E+00 0. -1.
         11    1    3    3    0    0  0.30062831121E+01  0.85668888705E+01 -0.66953160943E+01  0.11280805864E+02  0.51100000000E-03 0. -1.
        -11    1    3    3    0    0  0.29665486264E+02  0.20931674110E+01 -0.19864927123E+02  0.35763637328E+02  0.51100000000E-03 0.  1.
         12    1    3    3    0    0 -0.31606450637E+02 -0.10687230692E+02  0.27067642119E+02  0.42963261883E+02  0.00000000000E+00 0. -1.
</event>
<event>
 7    1  0.4331547E-015  0.9000775E+02  0.7816164E-02  0.1186339E+00
        -11   -1    0    0    0    0  0.00000000000E+00  0.00000000000E+00  0.45593999997E+02  0.45594000000E+02  0.51100000000E-03 0.  1.
         11   -1    0    0    0    0 -0.00000000000E+00 -0.00000000000E+00 -0.45593999997E+02  0.45594000000E+02  0.51100000000E-03 0. -1.
    9900012    2    1    2    0    0  0.40491907115E+00  0.61355540283E+00  0.92335507691E+00  0.90007748211E+02  0.90000009688E+02 0.  0.
         12    1    1    2    0    0 -0.40491907115E+00 -0.61355540283E+00 -0.92335507691E+00  0.11802517886E+01  0.00000000000E+00 0. -1.
         11    1    3    3    0    0 -0.30150817884E+02  0.15699766839E+02  0.16213494701E+02  0.37662075202E+02  0.51100000000E-03 0. -1.
        -11    1    3    3    0    0 -0.78662052248E+01  0.16474004249E+01 -0.38082778022E+01  0.88934859801E+01  0.51100000000E-03 0.  1.
        -12    1    3    3    0    0  0.38421942180E+02 -0.16733611861E+02 -0.11481861821E+02  0.43452187029E+02  0.00000000000E+00 0.  1.
</event>
<event>
 7    1  0.4331547E-015  0.9000770E+02  0.7816164E-02  0.1186339E+00
        -11   -1    0    0    0    0  0.00000000000E+00  0.00000000000E+00  0.45593999997E+02  0.45594000000E+02  0.51100000000E-03 0. -1.
         11   -1    0    0    0    0 -0.00000000000E+00 -0.00000000000E+00 -0.45593999997E+02  0.45594000000E+02  0.51100000000E-03 0.  1.
    9900012    2    1    2    0    0 -0.37290510770E+00  0.20873322745E+00 -0.11002173346E+01  0.90007700901E+02  0.89999961753E+02 0.  0.
         12    1    1    2    0    0  0.37290510770E+00 -0.20873322745E+00  0.11002173346E+01  0.11802990989E+01  0.00000000000E+00 0. -1.
         11    1    3    3    0    0  0.28216775352E+02  0.10003059715E+02  0.15550591446E+02  0.33735271001E+02  0.51100000000E-03 0. -1.
        -11    1    3    3    0    0  0.34538294927E+01  0.86224079762E+01  0.76559076233E+01  0.12036933965E+02  0.51100000000E-03 0.  1.
         12    1    3    3    0    0 -0.32043509952E+02 -0.18416734464E+02 -0.24306716403E+02  0.44235495936E+02  0.00000000000E+00 0. -1.
</event>
<event>
 7    1  0.4331547E-015  0.9000761E+02  0.7816164E-02  0.1186339E+00
        -11   -1    0    0    0    0  0.00000000000E+00  0.00000000000E+00  0.45593999997E+02  0.45594000000E+02  0.51100000000E-03 0. -1.
         11   -1    0    0    0    0 -0.00000000000E+00 -0.00000000000E+00 -0.45593999997E+02  0.45594000000E+02  0.51100000000E-03 0.  1.
    9900012    2    1    2    0    0 -0.20628543554E+00 -0.11401711818E+01  0.22531119282E+00  0.90007614835E+02  0.89999874550E+02 0.  0.
         12    1    1    2    0    0  0.20628543554E+00  0.11401711818E+01 -0.22531119282E+00  0.11803851652E+01  0.00000000000E+00 0. -1.
         11    1    3    3    0    0  0.40627097072E+01 -0.12637324613E+01 -0.83678868359E+01  0.93874469510E+01  0.51100000000E-03 0. -1.
        -11    1    3    3    0    0  0.23598718293E+02  0.13552410115E+02 -0.23565156959E+02  0.35998388127E+02  0.51100000000E-03 0.  1.
         12    1    3    3    0    0 -0.27867713436E+02 -0.13428848835E+02  0.32158354987E+02  0.44621779757E+02  0.00000000000E+00 0. -1.
</event>
<event>
 7    1  0.4331547E-015  0.9000776E+02  0.7816164E-02  0.1186339E+00
        -11   -1    0    0    0    0  0.00000000000E+00  0.00000000000E+00  0.45593999997E+02  0.45594000000E+02  0.51100000000E-03 0. -1.
         11   -1    0    0    0    0 -0.00000000000E+00 -0.00000000000E+00 -0.45593999997E+02  0.45594000000E+02  0.51100000000E-03 0.  1.
    9900012    2    1    2    0    0  0.37958972275E-01  0.11746830355E+01 -0.10796077643E+00  0.90007755684E+02  0.90000017259E+02 0.  0.
         12    1    1    2    0    0 -0.37958972275E-01 -0.11746830355E+01  0.10796077643E+00  0.11802443165E+01  0.00000000000E+00 0. -1.
         11    1    3    3    0    0  0.90123265416E+01  0.19503694949E+01  0.31656830698E+01  0.97492317861E+01  0.51100000000E-03 0. -1.
        -11    1    3    3    0    0  0.10134241736E+02  0.36724001875E+02 -0.21028720521E+01  0.38154649001E+02  0.51100000000E-03 0.  1.
         12    1    3    3    0    0 -0.19108609305E+02 -0.37499688334E+02 -0.11707717942E+01  0.42103874897E+02  0.00000000000E+00 0. -1.
</event>
<event>
 7    1  0.4331547E-015  0.9000774E+02  0.7816164E-02  0.1186339E+00
        -11   -1    0    0    0    0  0.00000000000E+00  0.00000000000E+00  0.45593999997E+02  0.45594000000E+02  0.51100000000E-03 0. -1.
         11   -1    0    0    0    0 -0.00000000000E+00 -0.00000000000E+00 -0.45593999997E+02  0.45594000000E+02  0.51100000000E-03 0.  1.
    9900012    2    1    2    0    0 -0.86040951928E+00  0.79252710299E+00  0.15685674352E+00  0.90007742491E+02  0.90000003892E+02 0.  0.
         12    1    1    2    0    0  0.86040951928E+00 -0.79252710299E+00 -0.15685674352E+00  0.11802575091E+01  0.00000000000E+00 0. -1.
         11    1    3    3    0    0 -0.21622216535E+02  0.64386566882E+01  0.32354399156E+02  0.39443423949E+02  0.51100000000E-03 0. -1.
        -11    1    3    3    0    0  0.23349366458E+01 -0.61431349002E+01  0.55204480199E+01  0.85828539626E+01  0.51100000000E-03 0.  1.
        -12    1    3    3    0    0  0.18426870370E+02  0.49700531499E+00 -0.37717990433E+02  0.41981464579E+02  0.00000000000E+00 0.  1.
</event>
<event>
 7    1  0.4331547E-015  0.9000763E+02  0.7816164E-02  0.1186339E+00
        -11   -1    0    0    0    0  0.00000000000E+00  0.00000000000E+00  0.45593999997E+02  0.45594000000E+02  0.51100000000E-03 0.  1.
         11   -1    0    0    0    0 -0.00000000000E+00 -0.00000000000E+00 -0.45593999997E+02  0.45594000000E+02  0.51100000000E-03 0. -1.
    9900012    2    1    2    0    0  0.57380066303E+00  0.53294201724E+00  0.88317364472E+00  0.90007631379E+02  0.89999891313E+02 0.  0.
         12    1    1    2    0    0 -0.57380066303E+00 -0.53294201724E+00 -0.88317364472E+00  0.11803686210E+01  0.00000000000E+00 0. -1.
         11    1    3    3    0    0 -0.14941675554E+02 -0.19055440570E+02 -0.32944370479E+02  0.40886367290E+02  0.51100000000E-03 0. -1.
        -11    1    3    3    0    0  0.10534904936E+02  0.16229230472E+01  0.18767088845E+00  0.10660831199E+02  0.51100000000E-03 0.  1.
        -12    1    3    3    0    0  0.49805712810E+01  0.17965459540E+02  0.33639873235E+02  0.38460432889E+02  0.00000000000E+00 0.  1.
</event>
<event>
 7    1  0.4331547E-015  0.9000781E+02  0.7816164E-02  0.1186339E+00
        -11   -1    0    0    0    0  0.00000000000E+00  0.00000000000E+00  0.45593999997E+02  0.45594000000E+02  0.51100000000E-03 0. -1.
         11   -1    0    0    0    0 -0.00000000000E+00 -0.00000000000E+00 -0.45593999997E+02  0.45594000000E+02  0.51100000000E-03 0.  1.
    9900012    2    1    2    0    0  0.23318511887E+00 -0.10539340383E+01  0.47716748388E+00  0.90007813123E+02  0.90000075456E+02 0.  0.
         12    1    1    2    0    0 -0.23318511887E+00  0.10539340383E+01 -0.47716748388E+00  0.11801868769E+01  0.00000000000E+00 0. -1.
         11    1    3    3    0    0  0.10050254571E+02 -0.70027080894E+00 -0.35197688377E+01  0.10671774411E+02  0.51100000000E-03 0. -1.
        -11    1    3    3    0    0  0.13569364058E+02  0.32116623053E+02 -0.11065693827E+02  0.36579429977E+02  0.51100000000E-03 0.  1.
         12    1    3    3    0    0 -0.23386433509E+02 -0.32470286283E+02  0.15062630149E+02  0.42756608736E+02  0.00000000000E+00 0. -1.
</event>
<event>
 7    1  0.4331547E-015  0.9000779E+02  0.7816164E-02  0.1186339E+00
        -11   -1    0    0    0    0  0.00000000000E+00  0.00000000000E+00  0.45593999997E+02  0.45594000000E+02  0.51100000000E-03 0.  1.
         11   -1    0    0    0    0 -0.00000000000E+00 -0.00000000000E+00 -0.45593999997E+02  0.45594000000E+02  0.51100000000E-03 0. -1.
    9900012    2    1    2    0    0 -0.12242360464E+00 -0.16252008760E+00  0.11625402269E+01  0.90007788114E+02  0.90000050117E+02 0.  0.
         12    1    1    2    0    0  0.12242360464E+00  0.16252008760E+00 -0.11625402269E+01  0.11802118865E+01  0.00000000000E+00 0. -1.
         11    1    3    3    0    0  0.29416631395E+02 -0.22227163877E+02 -0.27127024717E+01  0.36969497855E+02  0.51100000000E-03 0. -1.
        -11    1    3    3    0    0  0.34170403638E+01 -0.67194569100E+01 -0.40690878660E+01  0.85664894990E+01  0.51100000000E-03 0.  1.
        -12    1    3    3    0    0 -0.32956095364E+02  0.28784100700E+02  0.79443305646E+01  0.44471800760E+02  0.00000000000E+00 0.  1.
</event>
<event>
 7    1  0.4331547E-015  0.9000773E+02  0.7816164E-02  0.1186339E+00
        -11   -1    0    0    0    0  0.00000000000E+00  0.00000000000E+00  0.45593999997E+02  0.45594000000E+02  0.51100000000E-03 0.  1.
         11   -1    0    0    0    0 -0.00000000000E+00 -0.00000000000E+00 -0.45593999997E+02  0.45594000000E+02  0.51100000000E-03 0. -1.
    9900012    2    1    2    0    0  0.25571839531E+00 -0.11305990020E+01  0.22223847955E+00  0.90007730564E+02  0.89999991807E+02 0.  0.
         12    1    1    2    0    0 -0.25571839531E+00  0.11305990020E+01 -0.22223847955E+00  0.11802694365E+01  0.00000000000E+00 0. -1.
         11    1    3    3    0    0 -0.86111780652E+01 -0.28656034615E+02 -0.27516824351E+02  0.40650908110E+02  0.51100000000E-03 0. -1.
        -11    1    3    3    0    0 -0.66638861852E+01  0.71312811741E+01 -0.21360298887E+01  0.99912548871E+01  0.51100000000E-03 0.  1.
        -12    1    3    3    0    0  0.15530782646E+02  0.20394154439E+02  0.29875092719E+02  0.39365567567E+02  0.00000000000E+00 0.  1.
</event>
<event>
 7    1  0.4331547E-015  0.9000767E+02  0.7816164E-02  0.1186339E+00
        -11   -1    0    0    0    0  0.00000000000E+00  0.00000000000E+00  0.45593999997E+02  0.45594000000E+02  0.51100000000E-03 0.  1.
         11   -1    0    0    0    0 -0.00000000000E+00 -0.00000000000E+00 -0.45593999997E+02  0.45594000000E+02  0.51100000000E-03 0. -1.
    9900012    2    1    2    0    0 -0.29212736095E+00  0.38971195807E+00  0.10751539535E+01  0.90007673846E+02  0.89999934341E+02 0.  0.
         12    1    1    2    0    0  0.29212736095E+00 -0.38971195807E+00 -0.10751539535E+01  0.11803261536E+01  0.00000000000E+00 0. -1.
         11    1    3    3    0    0  0.37408152521E+02  0.14027575555E+01 -0.14761180791E+02  0.40239657831E+02  0.51100000000E-03 0. -1.
        -11    1    3    3    0    0 -0.20590192443E+01  0.86342834516E+01 -0.14568812853E+01  0.89951606051E+01  0.51100000000E-03 0.  1.
        -12    1    3    3    0    0 -0.35641260638E+02 -0.96473290490E+01  0.17293216030E+02  0.40772855410E+02  0.00000000000E+00 0.  1.
</event>
<event>
 7    1  0.4331547E-015  0.9000776E+02  0.7816164E-02  0.1186339E+00
        -11   -1    0    0    0    0  0.00000000000E+00  0.00000000000E+00  0.45593999997E+02  0.45594000000E+02  0.51100000000E-03 0.  1.
         11   -1    0    0    0    0 -0.00000000000E+00 -0.00000000000E+00 -0.45593999997E+02  0.45594000000E+02  0.51100000000E-03 0. -1.
    9900012    2    1    2    0    0 -0.43507872295E+00 -0.37183221536E-01  0.10964937290E+01  0.90007756557E+02  0.90000018143E+02 0.  0.
         12    1    1    2    0    0  0.43507872295E+00  0.37183221536E-01 -0.10964937290E+01  0.11802434431E+01  0.00000000000E+00 0. -1.
         11    1    3    3    0    0 -0.13856612553E+01  0.72600681470E+01 -0.68830634992E+01  0.10099762869E+02  0.51100000000E-03 0. -1.
        -11    1    3    3    0    0 -0.58306016771E+01  0.32788009919E+02  0.18251130069E+02  0.37975693007E+02  0.51100000000E-03 0.  1.
         12    1    3    3    0    0  0.67811842094E+01 -0.40085261287E+02 -0.10271572840E+02  0.41932300681E+02  0.00000000000E+00 0. -1.
</event>
<event>
 7    1  0.4331547E-015  0.9000755E+02  0.7816164E-02  0.1186339E+00
        -11   -1    0    0    0    0  0.00000000000E+00  0.00000000000E+00  0.45593999997E+02  0.45594000000E+02  0.51100000000E-03 0. -1.
         11   -1    0    0    0    0 -0.00000000000E+00 -0.00000000000E+00 -0.45593999997E+02  0.45594000000E+02  0.51100000000E-03 0.  1.
    9900012    2    1    2    0    0  0.37587395549E+00  0.11172468932E+01 -0.62863857371E-01  0.90007545124E+02  0.89999803919E+02 0.  0.
         12    1    1    2    0    0 -0.37587395549E+00 -0.11172468932E+01  0.62863857371E-01  0.11804548765E+01  0.00000000000E+00 0. -1.
         11    1    3    3    0    0 -0.26605946967E+02  0.18515138420E+02  0.17961291284E+02  0.37057991710E+02  0.51100000000E-03 0. -1.
        -11    1    3    3    0    0 -0.81260215726E+01  0.32512000559E+01 -0.10166864444E+01  0.88111395398E+01  0.51100000000E-03 0.  1.
        -12    1    3    3    0    0  0.35107842495E+02 -0.20649091583E+02 -0.17007468697E+02  0.44138413874E+02  0.00000000000E+00 0.  1.
</event>
<event>
 7    1  0.4331547E-015  0.9000778E+02  0.7816164E-02  0.1186339E+00
        -11   -1    0    0    0    0  0.00000000000E+00  0.00000000000E+00  0.45593999997E+02  0.45594000000E+02  0.51100000000E-03 0.  1.
         11   -1    0    0    0    0 -0.00000000000E+00 -0.00000000000E+00 -0.45593999997E+02  0.45594000000E+02  0.51100000000E-03 0. -1.
    9900012    2    1    2    0    0  0.11350809182E+01  0.14306717774E+00  0.28989467780E+00  0.90007781447E+02  0.90000043362E+02 0.  0.
         12    1    1    2    0    0 -0.11350809182E+01 -0.14306717774E+00 -0.28989467780E+00  0.11802185528E+01  0.00000000000E+00 0. -1.
         11    1    3    3    0    0 -0.37943909714E+01 -0.84684801451E+01 -0.26201725216E+01  0.96425029488E+01  0.51100000000E-03 0. -1.
        -11    1    3    3    0    0  0.16358982904E+02  0.53942425377E+01  0.38859253584E+02  0.42505949743E+02  0.51100000000E-03 0.  1.
         12    1    3    3    0    0 -0.11429511015E+02  0.32173047852E+01 -0.35949186384E+02  0.37859328755E+02  0.00000000000E+00 0. -1.
</event>
<event>
 7    1  0.4331547E-015  0.9000772E+02  0.7816164E-02  0.1186339E+00
        -11   -1    0    0    0    0  0.00000000000E+00  0.00000000000E+00  0.45593999997E+02  0.45594000000E+02  0.51100000000E-03 0. -1.
         11   -1    0    0    0    0 -0.00000000000E+00 -0.00000000000E+00 -0.45593999997E+02  0.45594000000E+02  0.51100000000E-03 0.  1.
    9900012    2    1    2    0    0 -0.11569134705E+01 -0.22521861385E+00 -0.62386818374E-01  0.90007718543E+02  0.89999979628E+02 0.  0.
         12    1    1    2    0    0  0.11569134705E+01  0.22521861385E+00  0.62386818374E-01  0.11802814569E+01  0.00000000000E+00 0. -1.
         11    1    3    3    0    0  0.23459391386E+02  0.25413143007E+02  0.87623722023E+01  0.35678425534E+02  0.51100000000E-03 0. -1.
        -11    1    3    3    0    0  0.55019585680E+01  0.70595604883E+01 -0.32672991074E+01  0.95280735771E+01  0.51100000000E-03 0.  1.
        -12    1    3    3    0    0 -0.30118263424E+02 -0.32697922109E+02 -0.55574599133E+01  0.44801219432E+02  0.00000000000E+00 0.  1.
</event>
<event>
 7    1  0.4331547E-015  0.9000774E+02  0.7816164E-02  0.1186339E+00
        -11   -1    0    0    0    0  0.00000000000E+00  0.00000000000E+00  0.45593999997E+02  0.45594000000E+02  0.51100000000E-03 0.  1.
         11   -1    0    0    0    0 -0.00000000000E+00 -0.00000000000E+00 -0.45593999997E+02  0.45594000000E+02  0.51100000000E-03 0. -1.
    9900012    2    1    2    0    0  0.53040076402E+00  0.67079443575E+00  0.81346753427E+00  0.90007737497E+02  0.89999998832E+02 0.  0.
         12    1    1    2    0    0 -0.53040076402E+00 -0.67079443575E+00 -0.81346753427E+00  0.11802625025E+01  0.00000000000E+00 0. -1.
         11    1    3    3    0    0 -0.95041931755E+01  0.60026477538E+01 -0.72388052276E+01  0.13370182099E+02  0.51100000000E-03 0. -1.
        -11    1    3    3    0    0 -0.10592159406E+02 -0.24044968388E+02 -0.23004521727E+02  0.34922233116E+02  0.51100000000E-03 0.  1.
         12    1    3    3    0    0  0.20626753346E+02  0.18713115070E+02  0.31056794489E+02  0.41715322283E+02  0.00000000000E+00 0. -1.
</event>
<event>
 7    1  0.4331547E-015  0.9000773E+02  0.7816164E-02  0.1186339E+00
        -11   -1    0    0    0    0  0.00000000000E+00  0.00000000000E+00  0.45593999997E+02  0.45594000000E+02  0.51100000000E-03 0.  1.
         11   -1    0    0    0    0 -0.00000000000E+00 -0.00000000000E+00 -0.45593999997E+02  0.45594000000E+02  0.51100000000E-03 0. -1.
    9900012    2    1    2    0    0  0.77808772562E+00  0.68850453613E+00  0.55997710305E+00  0.90007731657E+02  0.89999992915E+02 0.  0.
         12    1    1    2    0    0 -0.77808772562E+00 -0.68850453613E+00 -0.55997710305E+00  0.11802683428E+01  0.00000000000E+00 0. -1.
         11    1    3    3    0    0 -0.81112615877E+01 -0.12417411778E+02 -0.27957884115E+01  0.15093081625E+02  0.51100000000E-03 0. -1.
        -11    1    3    3    0    0  0.38451289311E+02 -0.52207337576E+01 -0.50505915751E+01  0.39131396425E+02  0.51100000000E-03 0.  1.
         12    1    3    3    0    0 -0.29561939997E+02  0.18326650072E+02  0.84063570897E+01  0.35783253608E+02  0.00000000000E+00 0. -1.
</event>
<event>
 7    1  0.4331547E-015  0.9000770E+02  0.7816164E-02  0.1186339E+00
        -11   -1    0    0    0    0  0.00000000000E+00  0.00000000000E+00  0.45593999997E+02  0.45594000000E+02  0.51100000000E-03 0.  1.
         11   -1    0    0    0    0 -0.00000000000E+00 -0.00000000000E+00 -0.45593999997E+02  0.45594000000E+02  0.51100000000E-03 0. -1.
    9900012    2    1    2    0    0 -0.32339155037E+00 -0.11335298325E+01 -0.60333753097E-01  0.90007698285E+02  0.89999959103E+02 0.  0.
         12    1    1    2    0    0  0.32339155037E+00  0.11335298325E+01  0.60333753097E-01  0.11803017147E+01  0.00000000000E+00 0. -1.
         11    1    3    3    0    0 -0.11487618135E+01 -0.33040789649E+01 -0.91171303322E+01  0.97651757417E+01  0.51100000000E-03 0. -1.
        -11    1    3    3    0    0  0.76182681907E+01  0.39054476711E+02 -0.51814098351E+01  0.40126514545E+02  0.51100000000E-03 0.  1.
         12    1    3    3    0    0 -0.67928979276E+01 -0.36883927578E+02  0.14238206414E+02  0.40116007999E+02  0.00000000000E+00 0. -1.
</event>
<event>
 7    1  0.4331547E-015  0.9000772E+02  0.7816164E-02  0.1186339E+00
        -11   -1    0    0    0    0  0.00000000000E+00  0.00000000000E+00  0.45593999997E+02  0.45594000000E+02  0.51100000000E-03 0.  1.
         11   -1    0    0    0    0 -0.00000000000E+00 -0.00000000000E+00 -0.45593999997E+02  0.45594000000E+02  0.51100000000E-03 0. -1.
    9900012    2    1    2    0    0  0.20422581982E+00 -0.61531323959E+00  0.98627506758E+00  0.90007721610E+02  0.89999982736E+02 0.  0.
         12    1    1    2    0    0 -0.20422581982E+00  0.61531323959E+00 -0.98627506758E+00  0.11802783897E+01  0.00000000000E+00 0. -1.
         11    1    3    3    0    0  0.17642535292E+01  0.35385000498E+02 -0.17973863602E+02  0.39727454283E+02  0.51100000000E-03 0. -1.
        -11    1    3    3    0    0  0.55881874578E+01 -0.55381169677E+01 -0.62902284572E+01  0.10073011115E+02  0.51100000000E-03 0.  1.
        -12    1    3    3    0    0 -0.71482151672E+01 -0.30462196770E+02  0.25250367127E+02  0.40207256213E+02  0.00000000000E+00 0.  1.
</event>
<event>
 7    1  0.4331547E-015  0.9000766E+02  0.7816164E-02  0.1186339E+00
        -11   -1    0    0    0    0  0.00000000000E+00  0.00000000000E+00  0.45593999997E+02  0.45594000000E+02  0.51100000000E-03 0. -1.
         11   -1    0    0    0    0 -0.00000000000E+00 -0.00000000000E+00 -0.45593999997E+02  0.45594000000E+02  0.51100000000E-03 0.  1.
    9900012    2    1    2    0    0  0.11317564829E+01  0.12494524071E+00 -0.31099152584E+00  0.90007661159E+02  0.89999921487E+02 0.  0.
         12    1    1    2    0    0 -0.11317564829E+01 -0.12494524071E+00  0.31099152584E+00  0.11803388408E+01  0.00000000000E+00 0. -1.
         11    1    3    3    0    0  0.17005515151E+02 -0.27586600496E+01  0.34099251562E+02  0.38204145170E+02  0.51100000000E-03 0. -1.
        -11    1    3    3    0    0  0.62322160049E+01  0.41852255207E+01  0.31981613657E+01  0.81599549860E+01  0.51100000000E-03 0.  1.
        -12    1    3    3    0    0 -0.22105974673E+02 -0.13016202304E+01 -0.37608404454E+02  0.43643561003E+02  0.00000000000E+00 0.  1.
</event>
<event>
 7    1  0.4331547E-015  0.9000763E+02  0.7816164E-02  0.1186339E+00
        -11   -1    0    0    0    0  0.00000000000E+00  0.00000000000E+00  0.45593999997E+02  0.45594000000E+02  0.51100000000E-03 0.  1.
         11   -1    0    0    0    0 -0.00000000000E+00 -0.00000000000E+00 -0.45593999997E+02  0.45594000000E+02  0.51100000000E-03 0. -1.
    9900012    2    1    2    0    0 -0.51052331269E+00  0.73956364537E+00  0.76530572170E+00  0.90007626633E+02  0.89999886504E+02 0.  0.
         12    1    1    2    0    0  0.51052331269E+00 -0.73956364537E+00 -0.76530572170E+00  0.11803733672E+01  0.00000000000E+00 0. -1.
         11    1    3    3    0    0 -0.65232882137E+01 -0.74512732018E+01 -0.62960611741E+01  0.11735209756E+02  0.51100000000E-03 0. -1.
        -11    1    3    3    0    0  0.36122008784E+01  0.32915751143E+02 -0.22216835962E+02  0.39875838160E+02  0.51100000000E-03 0.  1.
         12    1    3    3    0    0  0.24005640226E+01 -0.24724914296E+02  0.29278202858E+02  0.38396578717E+02  0.00000000000E+00 0. -1.
</event>
<event>
 7    1  0.4331547E-015  0.9000773E+02  0.7816164E-02  0.1186339E+00
        -11   -1    0    0    0    0  0.00000000000E+00  0.00000000000E+00  0.45593999997E+02  0.45594000000E+02  0.51100000000E-03 0.  1.
         11   -1    0    0    0    0 -0.00000000000E+00 -0.00000000000E+00 -0.45593999997E+02  0.45594000000E+02  0.51100000000E-03 0. -1.
    9900012    2    1    2    0    0 -0.71883783217E+00 -0.33692303422E+00  0.87338274480E+00  0.90007727837E+02  0.89999989044E+02 0.  0.
         12    1    1    2    0    0  0.71883783217E+00  0.33692303422E+00 -0.87338274480E+00  0.11802721630E+01  0.00000000000E+00 0. -1.
         11    1    3    3    0    0 -0.30691170394E-01  0.72689797387E+01  0.73728288545E+01  0.10353628058E+02  0.51100000000E-03 0. -1.
        -11    1    3    3    0    0  0.83867884989E-01  0.35188340482E+02 -0.10352797535E+02  0.36679786760E+02  0.51100000000E-03 0.  1.
         12    1    3    3    0    0 -0.77201454677E+00 -0.42794243255E+02  0.38533514257E+01  0.42974313019E+02  0.00000000000E+00 0. -1.
</event>
<event>
 7    1  0.4331547E-015  0.9000771E+02  0.7816164E-02  0.1186339E+00
        -11   -1    0    0    0    0  0.00000000000E+00  0.00000000000E+00  0.45593999997E+02  0.45594000000E+02  0.51100000000E-03 0. -1.
         11   -1    0    0    0    0 -0.00000000000E+00 -0.00000000000E+00 -0.45593999997E+02  0.45594000000E+02  0.51100000000E-03 0.  1.
    9900012    2    1    2    0    0  0.15446939256E+00 -0.47444471331E+00 -0.10696433668E+01  0.90007705329E+02  0.89999966239E+02 0.  0.
         12    1    1    2    0    0 -0.15446939256E+00  0.47444471331E+00  0.10696433668E+01  0.11802946714E+01  0.00000000000E+00 0. -1.
         11    1    3    3    0    0 -0.28530092161E+02  0.23484099909E+02 -0.51990939369E+01  0.37316212098E+02  0.51100000000E-03 0. -1.
        -11    1    3    3    0    0  0.41736655840E+01  0.90440699946E+01  0.58407281091E+01  0.11546808718E+02  0.51100000000E-03 0.  1.
        -12    1    3    3    0    0  0.24510895970E+02 -0.33002614617E+02 -0.17112775390E+01  0.41144684513E+02  0.00000000000E+00 0.  1.
</event>
<event>
 7    1  0.4331547E-015  0.9000773E+02  0.7816164E-02  0.1186339E+00
        -11   -1    0    0    0    0  0.00000000000E+00  0.00000000000E+00  0.45593999997E+02  0.45594000000E+02  0.51100000000E-03 0.  1.
         11   -1    0    0    0    0 -0.00000000000E+00 -0.00000000000E+00 -0.45593999997E+02  0.45594000000E+02  0.51100000000E-03 0. -1.
    9900012    2    1    2    0    0 -0.59072546401E+00 -0.10217352342E+01  0.12131687869E-01  0.90007726032E+02  0.89999987215E+02 0.  0.
         12    1    1    2    0    0  0.59072546401E+00  0.10217352342E+01 -0.12131687869E-01  0.11802739684E+01  0.00000000000E+00 0. -1.
         11    1    3    3    0    0 -0.21786382346E+02 -0.14012516452E+02 -0.10557927888E+01  0.25925118548E+02  0.51100000000E-03 0. -1.
        -11    1    3    3    0    0  0.27888119647E+02  0.88094563910E+01 -0.23980293915E+02  0.37820738172E+02  0.51100000000E-03 0.  1.
        -12    1    3    3    0    0 -0.66924627649E+01  0.41813248271E+01  0.25048218392E+02  0.26261869312E+02  0.00000000000E+00 0.  1.
</event>
<event>
 7    1  0.4331547E-015  0.9000774E+02  0.7816164E-02  0.1186339E+00
        -11   -1    0    0    0    0  0.00000000000E+00  0.00000000000E+00  0.45593999997E+02  0.45594000000E+02  0.51100000000E-03 0.  1.
         11   -1    0    0    0    0 -0.00000000000E+00 -0.00000000000E+00 -0.45593999997E+02  0.45594000000E+02  0.51100000000E-03 0. -1.
    9900012    2    1    2    0    0  0.11622786060E+01  0.18588218366E+00  0.87035572369E-01  0.90007737769E+02  0.89999999107E+02 0.  0.
         12    1    1    2    0    0 -0.11622786060E+01 -0.18588218366E+00 -0.87035572369E-01  0.11802622314E+01  0.00000000000E+00 0. -1.
         11    1    3    3    0    0 -0.14606241992E+01 -0.38370848942E+02 -0.10258588630E+02  0.39745365926E+02  0.51100000000E-03 0. -1.
        -11    1    3    3    0    0  0.99336374041E+01  0.56688286589E+01 -0.58887514718E+01  0.12864298061E+02  0.51100000000E-03 0.  1.
        -12    1    3    3    0    0 -0.73107345989E+01  0.32887902467E+02  0.16234375675E+02  0.37398073782E+02  0.00000000000E+00 0.  1.
</event>
<event>
 7    1  0.4331547E-015  0.9000767E+02  0.7816164E-02  0.1186339E+00
        -11   -1    0    0    0    0  0.00000000000E+00  0.00000000000E+00  0.45593999997E+02  0.45594000000E+02  0.51100000000E-03 0.  1.
         11   -1    0    0    0    0 -0.00000000000E+00 -0.00000000000E+00 -0.45593999997E+02  0.45594000000E+02  0.51100000000E-03 0. -1.
    9900012    2    1    2    0    0  0.10456716223E+01 -0.33427387773E+00  0.43360736356E+00  0.90007668050E+02  0.89999928468E+02 0.  0.
         12    1    1    2    0    0 -0.10456716223E+01  0.33427387773E+00 -0.43360736356E+00  0.11803319502E+01  0.00000000000E+00 0. -1.
         11    1    3    3    0    0 -0.20068441662E+01 -0.83238319936E+01  0.76777921595E+00  0.85966905116E+01  0.51100000000E-03 0. -1.
        -11    1    3    3    0    0  0.28485092752E+02  0.28968443842E+02 -0.17506050395E+02  0.44238366250E+02  0.51100000000E-03 0.  1.
         12    1    3    3    0    0 -0.25432576964E+02 -0.20978885726E+02  0.17171878543E+02  0.37172611289E+02  0.00000000000E+00 0. -1.
</event>
<event>
 7    1  0.4331547E-015  0.9000769E+02  0.7816164E-02  0.1186339E+00
        -11   -1    0    0    0    0  0.00000000000E+00  0.00000000000E+00  0.45593999997E+02  0.45594000000E+02  0.51100000000E-03 0.  1.
         11   -1    0    0    0    0 -0.00000000000E+00 -0.00000000000E+00 -0.45593999997E+02  0.45594000000E+02  0.51100000000E-03 0. -1.
    9900012    2    1    2    0    0  0.37290329533E+00  0.73293226659E+00 -0.84669153797E+00  0.90007689390E+02  0.89999950090E+02 0.  0.
         12    1    1    2    0    0 -0.37290329533E+00 -0.73293226659E+00  0.84669153797E+00  0.11803106098E+01  0.00000000000E+00 0. -1.
         11    1    3    3    0    0  0.94700309500E+01  0.37466174528E+02  0.81225177573E+00  0.38653013765E+02  0.51100000000E-03 0. -1.
        -11    1    3    3    0    0 -0.69848221957E+01  0.55925485495E+01 -0.13833579468E+00  0.89489372239E+01  0.51100000000E-03 0.  1.
        -12    1    3    3    0    0 -0.21123054589E+01 -0.42325790811E+02 -0.15206075190E+01  0.42405738401E+02  0.00000000000E+00 0.  1.
</event>
<event>
 7    1  0.4331547E-015  0.9000775E+02  0.7816164E-02  0.1186339E+00
        -11   -1    0    0    0    0  0.00000000000E+00  0.00000000000E+00  0.45593999997E+02  0.45594000000E+02  0.51100000000E-03 0. -1.
         11   -1    0    0    0    0 -0.00000000000E+00 -0.00000000000E+00 -0.45593999997E+02  0.45594000000E+02  0.51100000000E-03 0.  1.
    9900012    2    1    2    0    0 -0.93959834563E+00 -0.42310098056E+00 -0.57543855947E+00  0.90007750439E+02  0.90000011945E+02 0.  0.
         12    1    1    2    0    0  0.93959834563E+00  0.42310098056E+00  0.57543855947E+00  0.11802495611E+01  0.00000000000E+00 0. -1.
         11    1    3    3    0    0 -0.15438411155E+01  0.33656353287E+01  0.65470885329E+01  0.75216564049E+01  0.51100000000E-03 0. -1.
        -11    1    3    3    0    0 -0.15044970389E+02  0.34032890977E+02 -0.16162068760E+02  0.40568476298E+02  0.51100000000E-03 0.  1.
         12    1    3    3    0    0  0.15649213159E+02 -0.37821627286E+02  0.90395416678E+01  0.41917617736E+02  0.00000000000E+00 0. -1.
</event>
<event>
 7    1  0.4331547E-015  0.9000770E+02  0.7816164E-02  0.1186339E+00
        -11   -1    0    0    0    0  0.00000000000E+00  0.00000000000E+00  0.45593999997E+02  0.45594000000E+02  0.51100000000E-03 0.  1.
         11   -1    0    0    0    0 -0.00000000000E+00 -0.00000000000E+00 -0.45593999997E+02  0.45594000000E+02  0.51100000000E-03 0. -1.
    9900012    2    1    2    0    0 -0.17146362186E+00 -0.71542635480E+00  0.92297566037E+00  0.90007695500E+02  0.89999956281E+02 0.  0.
         12    1    1    2    0    0  0.17146362186E+00  0.71542635480E+00 -0.92297566037E+00  0.11803044999E+01  0.00000000000E+00 0. -1.
         11    1    3    3    0    0  0.11872790580E+02  0.49775385437E+01 -0.33229337841E+02  0.35636048318E+02  0.51100000000E-03 0. -1.
        -11    1    3    3    0    0 -0.11668973283E+01  0.65268112673E+01 -0.72678005365E+01  0.98377761508E+01  0.51100000000E-03 0.  1.
        -12    1    3    3    0    0 -0.10877356873E+02 -0.12219776166E+02  0.41420114038E+02  0.44533871031E+02  0.00000000000E+00 0.  1.
</event>
<event>
 7    1  0.4331547E-015  0.9000773E+02  0.7816164E-02  0.1186339E+00
        -11   -1    0    0    0    0  0.00000000000E+00  0.00000000000E+00  0.45593999997E+02  0.45594000000E+02  0.51100000000E-03 0. -1.
         11   -1    0    0    0    0 -0.00000000000E+00 -0.00000000000E+00 -0.45593999997E+02  0.45594000000E+02  0.51100000000E-03 0.  1.
    9900012    2    1    2    0    0  0.34878284991E+00 -0.11051298748E+01  0.22375475154E+00  0.90007734053E+02  0.89999995343E+02 0.  0.
         12    1    1    2    0    0 -0.34878284991E+00  0.11051298748E+01 -0.22375475154E+00  0.11802659469E+01  0.00000000000E+00 0. -1.
         11    1    3    3    0    0  0.34906412790E+02 -0.14548067094E+02  0.24721841237E+01  0.37897435330E+02  0.51100000000E-03 0. -1.
        -11    1    3    3    0    0  0.63064462479E+01 -0.23398043963E+01 -0.47473463243E+01  0.82330581362E+01  0.51100000000E-03 0.  1.
        -12    1    3    3    0    0 -0.40864076188E+02  0.15782741615E+02  0.24989169521E+01  0.43877240587E+02  0.00000000000E+00 0.  1.
</event>
<event>
 7    1  0.4331547E-015  0.9000776E+02  0.7816164E-02  0.1186339E+00
        -11   -1    0    0    0    0  0.00000000000E+00  0.00000000000E+00  0.45593999997E+02  0.45594000000E+02  0.51100000000E-03 0.  1.
         11   -1    0    0    0    0 -0.00000000000E+00 -0.00000000000E+00 -0.45593999997E+02  0.45594000000E+02  0.51100000000E-03 0. -1.
    9900012    2    1    2    0    0  0.52785245707E+00 -0.10384817404E+01 -0.18945526308E+00  0.90007760262E+02  0.90000021898E+02 0.  0.
         12    1    1    2    0    0 -0.52785245707E+00  0.10384817404E+01  0.18945526308E+00  0.11802397376E+01  0.00000000000E+00 0. -1.
         11    1    3    3    0    0 -0.61149855144E+01  0.29074231149E+02 -0.21700563432E+02  0.36791553627E+02  0.51100000000E-03 0. -1.
        -11    1    3    3    0    0 -0.54745290144E+01 -0.16670153969E+01 -0.84215175379E+01  0.10181913679E+02  0.51100000000E-03 0.  1.
        -12    1    3    3    0    0  0.12117366986E+02 -0.28445697493E+02  0.29932625707E+02  0.43034292956E+02  0.00000000000E+00 0.  1.
</event>
<event>
 7    1  0.4331547E-015  0.9000765E+02  0.7816164E-02  0.1186339E+00
        -11   -1    0    0    0    0  0.00000000000E+00  0.00000000000E+00  0.45593999997E+02  0.45594000000E+02  0.51100000000E-03 0.  1.
         11   -1    0    0    0    0 -0.00000000000E+00 -0.00000000000E+00 -0.45593999997E+02  0.45594000000E+02  0.51100000000E-03 0. -1.
    9900012    2    1    2    0    0  0.10559679867E+01 -0.21674312568E+00  0.48080200053E+00  0.90007654061E+02  0.89999914295E+02 0.  0.
         12    1    1    2    0    0 -0.10559679867E+01  0.21674312568E+00 -0.48080200053E+00  0.11803459388E+01  0.00000000000E+00 0. -1.
         11    1    3    3    0    0 -0.15226058903E+01  0.33976303559E+02 -0.55502420087E+01  0.34460306424E+02  0.51100000000E-03 0. -1.
        -11    1    3    3    0    0 -0.12331522112E+02  0.47038839265E+01 -0.12568282230E+01  0.13257925141E+02  0.51100000000E-03 0.  1.
        -12    1    3    3    0    0  0.14910095989E+02 -0.38896930611E+02  0.72878722322E+01  0.42289422496E+02  0.00000000000E+00 0.  1.
</event>
<event>
 7    1  0.4331547E-015  0.9000776E+02  0.7816164E-02  0.1186339E+00
        -11   -1    0    0    0    0  0.00000000000E+00  0.00000000000E+00  0.45593999997E+02  0.45594000000E+02  0.51100000000E-03 0.  1.
         11   -1    0    0    0    0 -0.00000000000E+00 -0.00000000000E+00 -0.45593999997E+02  0.45594000000E+02  0.51100000000E-03 0. -1.
    9900012    2    1    2    0    0 -0.98880478922E+00  0.17391937108E+00  0.62046886825E+00  0.90007760840E+02  0.90000022483E+02 0.  0.
         12    1    1    2    0    0  0.98880478922E+00 -0.17391937108E+00 -0.62046886825E+00  0.11802391602E+01  0.00000000000E+00 0. -1.
         11    1    3    3    0    0  0.35778109656E+02 -0.69624054108E+00  0.79184307153E+01  0.36650503771E+02  0.51100000000E-03 0. -1.
        -11    1    3    3    0    0  0.16132854615E+01 -0.94150875475E+01 -0.96174856636E+01  0.13555168544E+02  0.51100000000E-03 0.  1.
        -12    1    3    3    0    0 -0.38380199907E+02  0.10285247460E+02  0.23195238166E+01  0.39802088524E+02  0.00000000000E+00 0.  1.
</event>
<event>
 7    1  0.4331547E-015  0.9000778E+02  0.7816164E-02  0.1186339E+00
        -11   -1    0    0    0    0  0.00000000000E+00  0.00000000000E+00  0.45593999997E+02  0.45594000000E+02  0.51100000000E-03 0. -1.
         11   -1    0    0    0    0 -0.00000000000E+00 -0.00000000000E+00 -0.45593999997E+02  0.45594000000E+02  0.51100000000E-03 0.  1.
    9900012    2    1    2    0    0  0.10492638948E+01  0.47011854279E-01 -0.53827756424E+00  0.90007784947E+02  0.90000046908E+02 0.  0.
         12    1    1    2    0    0 -0.10492638948E+01 -0.47011854279E-01  0.53827756424E+00  0.11802150531E+01  0.00000000000E+00 0. -1.
         11    1    3    3    0    0 -0.24118813936E+01 -0.74330694794E+01 -0.36131007447E+01  0.86094245449E+01  0.51100000000E-03 0. -1.
        -11    1    3    3    0    0  0.25954033301E+02 -0.97910082781E+01 -0.27940925604E+02  0.39372211159E+02  0.51100000000E-03 0.  1.
         12    1    3    3    0    0 -0.22492888012E+02  0.17271089612E+02  0.31015748784E+02  0.42026149243E+02  0.00000000000E+00 0. -1.
</event>
<event>
 7    1  0.4331547E-015  0.9000775E+02  0.7816164E-02  0.1186339E+00
        -11   -1    0    0    0    0  0.00000000000E+00  0.00000000000E+00  0.45593999997E+02  0.45594000000E+02  0.51100000000E-03 0.  1.
         11   -1    0    0    0    0 -0.00000000000E+00 -0.00000000000E+00 -0.45593999997E+02  0.45594000000E+02  0.51100000000E-03 0. -1.
    9900012    2    1    2    0    0  0.10908522269E+01  0.10628155076E+00  0.43788555246E+00  0.90007746592E+02  0.90000008047E+02 0.  0.
         12    1    1    2    0    0 -0.10908522269E+01 -0.10628155076E+00 -0.43788555246E+00  0.11802534075E+01  0.00000000000E+00 0. -1.
         11    1    3    3    0    0 -0.83587929235E+01 -0.42010198740E+01  0.75052920268E+01  0.11993639806E+02  0.51100000000E-03 0. -1.
        -11    1    3    3    0    0 -0.30603976290E+02  0.83051366113E+01  0.11439085378E+02  0.33710997219E+02  0.51100000000E-03 0.  1.
         12    1    3    3    0    0  0.40053621441E+02 -0.39978351865E+01 -0.18506491853E+02  0.44303109568E+02  0.00000000000E+00 0. -1.
</event>
<event>
 7    1  0.4331547E-015  0.9000741E+02  0.7816164E-02  0.1186340E+00
        -11   -1    0    0    0    0  0.00000000000E+00  0.00000000000E+00  0.45593999997E+02  0.45594000000E+02  0.51100000000E-03 0.  1.
         11   -1    0    0    0    0 -0.00000000000E+00 -0.00000000000E+00 -0.45593999997E+02  0.45594000000E+02  0.51100000000E-03 0. -1.
    9900012    2    1    2    0    0 -0.11276053465E+01  0.14925185225E+00  0.31626010569E+00  0.90007411000E+02  0.89999668024E+02 0.  0.
         12    1    1    2    0    0  0.11276053465E+01 -0.14925185225E+00 -0.31626010569E+00  0.11805890002E+01  0.00000000000E+00 0. -1.
         11    1    3    3    0    0 -0.36082214867E+02  0.21440125617E+02 -0.12674899890E+02  0.43843566274E+02  0.51100000000E-03 0. -1.
        -11    1    3    3    0    0  0.73658938090E+01 -0.13001872075E+01 -0.35629852984E+01  0.82850312539E+01  0.51100000000E-03 0.  1.
        -12    1    3    3    0    0  0.27588715711E+02 -0.19990686557E+02  0.16554145294E+02  0.37878813472E+02  0.00000000000E+00 0.  1.
</event>
<event>
 7    1  0.4331547E-015  0.9000779E+02  0.7816164E-02  0.1186339E+00
        -11   -1    0    0    0    0  0.00000000000E+00  0.00000000000E+00  0.45593999997E+02  0.45594000000E+02  0.51100000000E-03 0.  1.
         11   -1    0    0    0    0 -0.00000000000E+00 -0.00000000000E+00 -0.45593999997E+02  0.45594000000E+02  0.51100000000E-03 0. -1.
    9900012    2    1    2    0    0  0.73524119953E+00  0.52125456137E+00 -0.76198361280E+00  0.90007786051E+02  0.90000048027E+02 0.  0.
         12    1    1    2    0    0 -0.73524119953E+00 -0.52125456137E+00  0.76198361280E+00  0.11802139490E+01  0.00000000000E+00 0. -1.
         11    1    3    3    0    0 -0.99904778764E+00  0.26100398771E+02  0.18623103661E+02  0.32078792102E+02  0.51100000000E-03 0.  1.
        -11    1    3    3    0    0 -0.16947633388E+02 -0.18157690929E+02  0.59962165406E+01  0.25551489788E+02  0.51100000000E-03 0. -1.
         12    1    3    3    0    0  0.18681922375E+02 -0.74214532807E+01 -0.25381303814E+02  0.32377504162E+02  0.00000000000E+00 0. -1.
</event>
<event>
 7    1  0.4331547E-015  0.9000766E+02  0.7816164E-02  0.1186339E+00
        -11   -1    0    0    0    0  0.00000000000E+00  0.00000000000E+00  0.45593999997E+02  0.45594000000E+02  0.51100000000E-03 0.  1.
         11   -1    0    0    0    0 -0.00000000000E+00 -0.00000000000E+00 -0.45593999997E+02  0.45594000000E+02  0.51100000000E-03 0. -1.
    9900012    2    1    2    0    0  0.87810167385E+00  0.64311344704E+00 -0.45667339531E+00  0.90007657658E+02  0.89999917939E+02 0.  0.
         12    1    1    2    0    0 -0.87810167385E+00 -0.64311344704E+00  0.45667339531E+00  0.11803423424E+01  0.00000000000E+00 0. -1.
         11    1    3    3    0    0 -0.37484585869E+01  0.96021169695E+01 -0.35686337407E+02  0.37145205206E+02  0.51100000000E-03 0. -1.
        -11    1    3    3    0    0 -0.39338309698E+01  0.65985955905E+01 -0.48086369767E+01  0.90630833440E+01  0.51100000000E-03 0.  1.
        -12    1    3    3    0    0  0.85603912306E+01 -0.15557599113E+02  0.40038300988E+02  0.43799369107E+02  0.00000000000E+00 0.  1.
</event>
<event>
 7    1  0.4331547E-015  0.9000775E+02  0.7816164E-02  0.1186339E+00
        -11   -1    0    0    0    0  0.00000000000E+00  0.00000000000E+00  0.45593999997E+02  0.45594000000E+02  0.51100000000E-03 0.  1.
         11   -1    0    0    0    0 -0.00000000000E+00 -0.00000000000E+00 -0.45593999997E+02  0.45594000000E+02  0.51100000000E-03 0. -1.
    9900012    2    1    2    0    0 -0.83548979252E+00  0.53906661122E+00  0.63588177788E+00  0.90007753568E+02  0.90000015115E+02 0.  0.
         12    1    1    2    0    0  0.83548979252E+00 -0.53906661122E+00 -0.63588177788E+00  0.11802464320E+01  0.00000000000E+00 0. -1.
         11    1    3    3    0    0  0.60744265692E+01  0.35864373845E+01  0.53459449137E+01  0.88510066398E+01  0.51100000000E-03 0. -1.
        -11    1    3    3    0    0  0.36275886597E+02 -0.23849910392E+00  0.55009746598E+01  0.36691382540E+02  0.51100000000E-03 0.  1.
         12    1    3    3    0    0 -0.43185802959E+02 -0.28088716693E+01 -0.10211037796E+02  0.44465364388E+02  0.00000000000E+00 0. -1.
</event>
<event>
 7    1  0.4331547E-015  0.9000777E+02  0.7816164E-02  0.1186339E+00
        -11   -1    0    0    0    0  0.00000000000E+00  0.00000000000E+00  0.45593999997E+02  0.45594000000E+02  0.51100000000E-03 0.  1.
         11   -1    0    0    0    0 -0.00000000000E+00 -0.00000000000E+00 -0.45593999997E+02  0.45594000000E+02  0.51100000000E-03 0. -1.
    9900012    2    1    2    0    0  0.10223529650E+01  0.47384401008E+00 -0.35101189330E+00  0.90007769904E+02  0.90000031666E+02 0.  0.
         12    1    1    2    0    0 -0.10223529650E+01 -0.47384401008E+00  0.35101189330E+00  0.11802300963E+01  0.00000000000E+00 0. -1.
         11    1    3    3    0    0  0.18530493590E+01 -0.31434497741E+01 -0.17920493419E+02  0.18288224437E+02  0.51100000000E-03 0. -1.
        -11    1    3    3    0    0 -0.36141963545E+01 -0.18177959114E+02 -0.20579707960E+02  0.27695216064E+02  0.51100000000E-03 0.  1.
         12    1    3    3    0    0  0.27834999605E+01  0.21795252898E+02  0.38149189486E+02  0.44024329403E+02  0.00000000000E+00 0. -1.
</event>
<event>
 7    1  0.4331547E-015  0.9000704E+02  0.7816164E-02  0.1186340E+00
        -11   -1    0    0    0    0  0.00000000000E+00  0.00000000000E+00  0.45593999997E+02  0.45594000000E+02  0.51100000000E-03 0. -1.
         11   -1    0    0    0    0 -0.00000000000E+00 -0.00000000000E+00 -0.45593999997E+02  0.45594000000E+02  0.51100000000E-03 0.  1.
    9900012    2    1    2    0    0 -0.10123795959E+01 -0.55693917919E+00  0.24407836972E+00  0.90007039397E+02  0.89999291514E+02 0.  0.
         12    1    1    2    0    0  0.10123795959E+01  0.55693917919E+00 -0.24407836972E+00  0.11809606031E+01  0.00000000000E+00 0. -1.
         11    1    3    3    0    0  0.21383988304E+01  0.16551621567E+01  0.96503829316E+01  0.10022085727E+02  0.51100000000E-03 0. -1.
        -11    1    3    3    0    0  0.29059726769E+02  0.48610322019E+01 -0.29233666388E+02  0.41505476803E+02  0.51100000000E-03 0.  1.
         12    1    3    3    0    0 -0.32210505195E+02 -0.70731335378E+01  0.19827361826E+02  0.38479476867E+02  0.00000000000E+00 0. -1.
</event>
<event>
 7    1  0.4331547E-015  0.9000834E+02  0.7816164E-02  0.1186338E+00
        -11   -1    0    0    0    0  0.00000000000E+00  0.00000000000E+00  0.45593999997E+02  0.45594000000E+02  0.51100000000E-03 0. -1.
         11   -1    0    0    0    0 -0.00000000000E+00 -0.00000000000E+00 -0.45593999997E+02  0.45594000000E+02  0.51100000000E-03 0.  1.
    9900012    2    1    2    0    0  0.55172738397E+00  0.65844267931E-01 -0.10406009530E+01  0.90008343729E+02  0.90000613064E+02 0.  0.
         12    1    1    2    0    0 -0.55172738397E+00 -0.65844267931E-01  0.10406009530E+01  0.11796562708E+01  0.00000000000E+00 0. -1.
         11    1    3    3    0    0 -0.34767906397E+02 -0.96924617172E+01  0.17527492217E+02  0.40124358102E+02  0.51100000000E-03 0. -1.
        -11    1    3    3    0    0 -0.98399245445E-01 -0.36768675700E+01 -0.10538168739E+02  0.11161632415E+02  0.51100000000E-03 0.  1.
        -12    1    3    3    0    0  0.35418033027E+02  0.13435173555E+02 -0.80299244307E+01  0.38722353212E+02  0.00000000000E+00 0.  1.
</event>
<event>
 7    1  0.4331547E-015  0.9000749E+02  0.7816164E-02  0.1186340E+00
        -11   -1    0    0    0    0  0.00000000000E+00  0.00000000000E+00  0.45593999997E+02  0.45594000000E+02  0.51100000000E-03 0. -1.
         11   -1    0    0    0    0 -0.00000000000E+00 -0.00000000000E+00 -0.45593999997E+02  0.45594000000E+02  0.51100000000E-03 0.  1.
    9900012    2    1    2    0    0  0.43219894465E+00  0.10890543418E+01 -0.14411963786E+00  0.90007489196E+02  0.89999747254E+02 0.  0.
         12    1    1    2    0    0 -0.43219894465E+00 -0.10890543418E+01  0.14411963786E+00  0.11805108035E+01  0.00000000000E+00 0. -1.
         11    1    3    3    0    0 -0.15257827724E+01 -0.28020677175E+02  0.28521725306E+02  0.40012187857E+02  0.51100000000E-03 0. -1.
        -11    1    3    3    0    0 -0.87955256781E+01 -0.34104331092E+00 -0.24774799865E+01  0.91441505804E+01  0.51100000000E-03 0.  1.
        -12    1    3    3    0    0  0.10753507395E+02  0.29450774827E+02 -0.26188364957E+02  0.40851150759E+02  0.00000000000E+00 0.  1.
</event>
<event>
 7    1  0.4331547E-015  0.9000702E+02  0.7816164E-02  0.1186340E+00
        -11   -1    0    0    0    0  0.00000000000E+00  0.00000000000E+00  0.45593999997E+02  0.45594000000E+02  0.51100000000E-03 0. -1.
         11   -1    0    0    0    0 -0.00000000000E+00 -0.00000000000E+00 -0.45593999997E+02  0.45594000000E+02  0.51100000000E-03 0.  1.
    9900012    2    1    2    0    0 -0.31480792980E+00  0.80868565490E+00 -0.80101720120E+00  0.90007023676E+02  0.89999275586E+02 0.  0.
         12    1    1    2    0    0  0.31480792980E+00 -0.80868565490E+00  0.80101720120E+00  0.11809763239E+01  0.00000000000E+00 0. -1.
         11    1    3    3    0    0  0.85563888945E+01  0.21110234046E+02  0.97866212253E+01  0.24791767336E+02  0.51100000000E-03 0. -1.
        -11    1    3    3    0    0 -0.31292173292E+01  0.20256366293E+02  0.54763677738E+01  0.21215630577E+02  0.51100000000E-03 0.  1.
        -12    1    3    3    0    0 -0.57419794951E+01 -0.40557914685E+02 -0.16064006200E+02  0.43999625763E+02  0.00000000000E+00 0.  1.
</event>
<event>
 7    1  0.4331547E-015  0.9000773E+02  0.7816164E-02  0.1186339E+00
        -11   -1    0    0    0    0  0.00000000000E+00  0.00000000000E+00  0.45593999997E+02  0.45594000000E+02  0.51100000000E-03 0. -1.
         11   -1    0    0    0    0 -0.00000000000E+00 -0.00000000000E+00 -0.45593999997E+02  0.45594000000E+02  0.51100000000E-03 0.  1.
    9900012    2    1    2    0    0 -0.10106005499E+01 -0.60308012821E+00 -0.89603754096E-01  0.90007725479E+02  0.89999986655E+02 0.  0.
         12    1    1    2    0    0  0.10106005499E+01  0.60308012821E+00  0.89603754096E-01  0.11802745212E+01  0.00000000000E+00 0. -1.
         11    1    3    3    0    0 -0.57729402507E+01  0.67370380075E+01  0.12374688624E+01  0.89580047834E+01  0.51100000000E-03 0. -1.
        -11    1    3    3    0    0 -0.16612234620E+02 -0.21609828808E+02 -0.31341248468E+02  0.41535826656E+02  0.51100000000E-03 0.  1.
         12    1    3    3    0    0  0.21374574321E+02  0.14269710673E+02  0.30014175852E+02  0.39513894039E+02  0.00000000000E+00 0. -1.
</event>
<event>
 7    1  0.4331547E-015  0.9000769E+02  0.7816164E-02  0.1186339E+00
        -11   -1    0    0    0    0  0.00000000000E+00  0.00000000000E+00  0.45593999997E+02  0.45594000000E+02  0.51100000000E-03 0.  1.
         11   -1    0    0    0    0 -0.00000000000E+00 -0.00000000000E+00 -0.45593999997E+02  0.45594000000E+02  0.51100000000E-03 0. -1.
    9900012    2    1    2    0    0  0.85533450350E+00 -0.27754922927E+00  0.76452577445E+00  0.90007690571E+02  0.89999951287E+02 0.  0.
         12    1    1    2    0    0 -0.85533450350E+00  0.27754922927E+00 -0.76452577445E+00  0.11803094286E+01  0.00000000000E+00 0. -1.
         11    1    3    3    0    0 -0.27321201517E+01  0.64647026181E+01  0.67007549936E+01  0.97034518708E+01  0.51100000000E-03 0. -1.
        -11    1    3    3    0    0 -0.30214514479E+02 -0.25887189996E+02  0.46022336530E+01  0.40053015442E+02  0.51100000000E-03 0.  1.
         12    1    3    3    0    0  0.33801969135E+02  0.19144938149E+02 -0.10538462872E+02  0.40251223259E+02  0.00000000000E+00 0. -1.
</event>
<event>
 7    1  0.4331547E-015  0.9000671E+02  0.7816164E-02  0.1186341E+00
        -11   -1    0    0    0    0  0.00000000000E+00  0.00000000000E+00  0.45593999997E+02  0.45594000000E+02  0.51100000000E-03 0. -1.
         11   -1    0    0    0    0 -0.00000000000E+00 -0.00000000000E+00 -0.45593999997E+02  0.45594000000E+02  0.51100000000E-03 0.  1.
    9900012    2    1    2    0    0  0.11608024765E+01  0.24649929579E-01  0.21763628601E+00  0.90006714445E+02  0.89998962270E+02 0.  0.
         12    1    1    2    0    0 -0.11608024765E+01 -0.24649929579E-01 -0.21763628601E+00  0.11812855546E+01  0.00000000000E+00 0. -1.
         11    1    3    3    0    0 -0.24917013994E+01  0.57013957148E+01  0.57584247858E+01  0.84778502721E+01  0.51100000000E-03 0. -1.
        -11    1    3    3    0    0 -0.91815927316E+01  0.35534268468E+02  0.51514065261E+01  0.37061069468E+02  0.51100000000E-03 0.  1.
         12    1    3    3    0    0  0.12834096607E+02 -0.41211014253E+02 -0.10692195026E+02  0.44467794706E+02  0.00000000000E+00 0. -1.
</event>
<event>
 7    1  0.4331547E-015  0.9000835E+02  0.7816164E-02  0.1186338E+00
        -11   -1    0    0    0    0  0.00000000000E+00  0.00000000000E+00  0.45593999997E+02  0.45594000000E+02  0.51100000000E-03 0.  1.
         11   -1    0    0    0    0 -0.00000000000E+00 -0.00000000000E+00 -0.45593999997E+02  0.45594000000E+02  0.51100000000E-03 0. -1.
    9900012    2    1    2    0    0 -0.68896944051E+00 -0.50840303509E+00  0.81143688573E+00  0.90008346510E+02  0.90000615882E+02 0.  0.
         12    1    1    2    0    0  0.68896944051E+00  0.50840303509E+00 -0.81143688573E+00  0.11796534896E+01  0.00000000000E+00 0. -1.
         11    1    3    3    0    0 -0.17176946686E+02  0.33744115162E+02 -0.75031871549E+01  0.38600655736E+02  0.51100000000E-03 0. -1.
        -11    1    3    3    0    0  0.53857844730E+01  0.65289297437E+01  0.15358560936E+01  0.86018865482E+01  0.51100000000E-03 0.  1.
        -12    1    3    3    0    0  0.11102192773E+02 -0.40781447941E+02  0.67787679470E+01  0.42805804226E+02  0.00000000000E+00 0.  1.
</event>
<event>
 7    1  0.4331547E-015  0.9000776E+02  0.7816164E-02  0.1186339E+00
        -11   -1    0    0    0    0  0.00000000000E+00  0.00000000000E+00  0.45593999997E+02  0.45594000000E+02  0.51100000000E-03 0.  1.
         11   -1    0    0    0    0 -0.00000000000E+00 -0.00000000000E+00 -0.45593999997E+02  0.45594000000E+02  0.51100000000E-03 0. -1.
    9900012    2    1    2    0    0 -0.79112622519E+00 -0.87373752312E+00  0.60522517613E-01  0.90007762338E+02  0.90000024001E+02 0.  0.
         12    1    1    2    0    0  0.79112622519E+00  0.87373752312E+00 -0.60522517613E-01  0.11802376619E+01  0.00000000000E+00 0. -1.
         11    1    3    3    0    0 -0.12932774265E+02 -0.28676623227E+02  0.24532321085E+02  0.39892858358E+02  0.51100000000E-03 0. -1.
        -11    1    3    3    0    0 -0.66201419153E+01  0.48751158528E+01  0.38957271225E+01  0.90977867436E+01  0.51100000000E-03 0.  1.
        -12    1    3    3    0    0  0.18761789955E+02  0.22927769851E+02 -0.28367525690E+02  0.41017117237E+02  0.00000000000E+00 0.  1.
</event>
<event>
 7    1  0.4331547E-015  0.9000786E+02  0.7816164E-02  0.1186339E+00
        -11   -1    0    0    0    0  0.00000000000E+00  0.00000000000E+00  0.45593999997E+02  0.45594000000E+02  0.51100000000E-03 0. -1.
         11   -1    0    0    0    0 -0.00000000000E+00 -0.00000000000E+00 -0.45593999997E+02  0.45594000000E+02  0.51100000000E-03 0.  1.
    9900012    2    1    2    0    0  0.59172563245E-01  0.16893863118E+00 -0.11664821765E+01  0.90007863431E+02  0.90000126428E+02 0.  0.
         12    1    1    2    0    0 -0.59172563245E-01 -0.16893863118E+00  0.11664821765E+01  0.11801365690E+01  0.00000000000E+00 0. -1.
         11    1    3    3    0    0  0.43262388033E+01 -0.13118574750E+02 -0.78775354976E+01  0.15901852453E+02  0.51100000000E-03 0. -1.
        -11    1    3    3    0    0  0.10268496385E+02 -0.85221598723E+01 -0.27760998636E+02  0.30801660222E+02  0.51100000000E-03 0.  1.
         12    1    3    3    0    0 -0.14535562625E+02  0.21809673253E+02  0.34472051957E+02  0.43304350756E+02  0.00000000000E+00 0. -1.
</event>
<event>
 7    1  0.4331547E-015  0.9000757E+02  0.7816164E-02  0.1186339E+00
        -11   -1    0    0    0    0  0.00000000000E+00  0.00000000000E+00  0.45593999997E+02  0.45594000000E+02  0.51100000000E-03 0. -1.
         11   -1    0    0    0    0 -0.00000000000E+00 -0.00000000000E+00 -0.45593999997E+02  0.45594000000E+02  0.51100000000E-03 0.  1.
    9900012    2    1    2    0    0 -0.11118930191E+01  0.28203537065E+00 -0.27848441671E+00  0.90007574820E+02  0.89999834007E+02 0.  0.
         12    1    1    2    0    0  0.11118930191E+01 -0.28203537065E+00  0.27848441671E+00  0.11804251804E+01  0.00000000000E+00 0. -1.
         11    1    3    3    0    0 -0.69611975779E+01  0.28925414983E+02  0.22836907019E+02  0.37505495946E+02  0.51100000000E-03 0. -1.
        -11    1    3    3    0    0  0.49620469398E+01  0.28244306950E+01  0.69340376489E+01  0.89822155931E+01  0.51100000000E-03 0.  1.
        -12    1    3    3    0    0  0.88725761895E+00 -0.31467810308E+02 -0.30049429085E+02  0.43519863281E+02  0.00000000000E+00 0.  1.
</event>
<event>
 7    1  0.4331547E-015  0.9000770E+02  0.7816164E-02  0.1186339E+00
        -11   -1    0    0    0    0  0.00000000000E+00  0.00000000000E+00  0.45593999997E+02  0.45594000000E+02  0.51100000000E-03 0.  1.
         11   -1    0    0    0    0 -0.00000000000E+00 -0.00000000000E+00 -0.45593999997E+02  0.45594000000E+02  0.51100000000E-03 0. -1.
    9900012    2    1    2    0    0  0.11242754556E+01  0.33135514238E+00 -0.13898342585E+00  0.90007700071E+02  0.89999960912E+02 0.  0.
         12    1    1    2    0    0 -0.11242754556E+01 -0.33135514238E+00  0.13898342585E+00  0.11802999293E+01  0.00000000000E+00 0. -1.
         11    1    3    3    0    0  0.35495315415E+02  0.15820325040E+02 -0.18533375925E+02  0.43054455335E+02  0.51100000000E-03 0. -1.
        -11    1    3    3    0    0 -0.16232519345E+01  0.44402105047E+00  0.92537811210E+01  0.94055604209E+01  0.51100000000E-03 0.  1.
        -12    1    3    3    0    0 -0.32747788025E+02 -0.15932990948E+02  0.91406113780E+01  0.37547684315E+02  0.00000000000E+00 0.  1.
</event>
<event>
 7    1  0.4331547E-015  0.9000774E+02  0.7816164E-02  0.1186339E+00
        -11   -1    0    0    0    0  0.00000000000E+00  0.00000000000E+00  0.45593999997E+02  0.45594000000E+02  0.51100000000E-03 0.  1.
         11   -1    0    0    0    0 -0.00000000000E+00 -0.00000000000E+00 -0.45593999997E+02  0.45594000000E+02  0.51100000000E-03 0. -1.
    9900012    2    1    2    0    0  0.19856863703E+00 -0.48553471497E+00  0.10572815035E+01  0.90007738317E+02  0.89999999663E+02 0.  0.
         12    1    1    2    0    0 -0.19856863703E+00  0.48553471497E+00 -0.10572815035E+01  0.11802616831E+01  0.00000000000E+00 0. -1.
         11    1    3    3    0    0 -0.95459465325E+01 -0.24703571453E+01  0.22727625188E+01  0.10118952977E+02  0.51100000000E-03 0. -1.
        -11    1    3    3    0    0 -0.18487066905E+02 -0.70753148985E+01  0.30571329404E+02  0.36420295241E+02  0.51100000000E-03 0.  1.
         12    1    3    3    0    0  0.28231582074E+02  0.90601373289E+01 -0.31786810419E+02  0.43468490099E+02  0.00000000000E+00 0. -1.
</event>
<event>
 7    1  0.4331547E-015  0.9000777E+02  0.7816164E-02  0.1186339E+00
        -11   -1    0    0    0    0  0.00000000000E+00  0.00000000000E+00  0.45593999997E+02  0.45594000000E+02  0.51100000000E-03 0. -1.
         11   -1    0    0    0    0 -0.00000000000E+00 -0.00000000000E+00 -0.45593999997E+02  0.45594000000E+02  0.51100000000E-03 0.  1.
    9900012    2    1    2    0    0  0.12766177466E+00 -0.68488286785E+00 -0.95267318357E+00  0.90007767707E+02  0.90000029440E+02 0.  0.
         12    1    1    2    0    0 -0.12766177466E+00  0.68488286785E+00  0.95267318357E+00  0.11802322933E+01  0.00000000000E+00 0. -1.
         11    1    3    3    0    0 -0.94074872891E+01 -0.54573331249E+01 -0.12009936346E+01  0.10941923410E+02  0.51100000000E-03 0. -1.
        -11    1    3    3    0    0  0.27614432555E+02  0.26518547418E+01 -0.31805412178E+02  0.42203950798E+02  0.51100000000E-03 0.  1.
         12    1    3    3    0    0 -0.18079283491E+02  0.21205955153E+01  0.32053732629E+02  0.36861893499E+02  0.00000000000E+00 0. -1.
</event>
<event>
 7    1  0.4331547E-015  0.9000816E+02  0.7816164E-02  0.1186338E+00
        -11   -1    0    0    0    0  0.00000000000E+00  0.00000000000E+00  0.45593999997E+02  0.45594000000E+02  0.51100000000E-03 0.  1.
         11   -1    0    0    0    0 -0.00000000000E+00 -0.00000000000E+00 -0.45593999997E+02  0.45594000000E+02  0.51100000000E-03 0. -1.
    9900012    2    1    2    0    0  0.11274835712E+01 -0.26064613561E+00  0.22994274679E+00  0.90008157096E+02  0.90000423969E+02 0.  0.
         12    1    1    2    0    0 -0.11274835712E+01  0.26064613561E+00 -0.22994274679E+00  0.11798429041E+01  0.00000000000E+00 0. -1.
         11    1    3    3    0    0 -0.16686885546E+02 -0.16469897614E+02 -0.35400663685E+02  0.42460766200E+02  0.51100000000E-03 0. -1.
        -11    1    3    3    0    0 -0.11923904587E+01  0.85358113188E+01  0.32228029486E+01  0.92015394899E+01  0.51100000000E-03 0.  1.
        -12    1    3    3    0    0  0.19006759576E+02  0.76734401600E+01  0.32407803483E+02  0.38345851406E+02  0.00000000000E+00 0.  1.
</event>
<event>
 7    1  0.4331547E-015  0.9000767E+02  0.7816164E-02  0.1186339E+00
        -11   -1    0    0    0    0  0.00000000000E+00  0.00000000000E+00  0.45593999997E+02  0.45594000000E+02  0.51100000000E-03 0.  1.
         11   -1    0    0    0    0 -0.00000000000E+00 -0.00000000000E+00 -0.45593999997E+02  0.45594000000E+02  0.51100000000E-03 0. -1.
    9900012    2    1    2    0    0 -0.51012094288E+00  0.10170351523E+01  0.31401611620E+00  0.90007665302E+02  0.89999925684E+02 0.  0.
         12    1    1    2    0    0  0.51012094288E+00 -0.10170351523E+01 -0.31401611620E+00  0.11803346977E+01  0.00000000000E+00 0. -1.
         11    1    3    3    0    0 -0.18846675576E+02 -0.18675184497E+02  0.33554523110E+02  0.42776929736E+02  0.51100000000E-03 0. -1.
        -11    1    3    3    0    0 -0.10614908665E+01  0.93224085268E+01 -0.30273957545E+01  0.98589649008E+01  0.51100000000E-03 0.  1.
        -12    1    3    3    0    0  0.19398045500E+02  0.10369811122E+02 -0.30213111239E+02  0.37371770665E+02  0.00000000000E+00 0.  1.
</event>
<event>
 7    1  0.4331547E-015  0.9000768E+02  0.7816164E-02  0.1186339E+00
        -11   -1    0    0    0    0  0.00000000000E+00  0.00000000000E+00  0.45593999997E+02  0.45594000000E+02  0.51100000000E-03 0.  1.
         11   -1    0    0    0    0 -0.00000000000E+00 -0.00000000000E+00 -0.45593999997E+02  0.45594000000E+02  0.51100000000E-03 0. -1.
    9900012    2    1    2    0    0  0.99944480894E+00  0.62086784679E+00  0.93755491409E-01  0.90007679323E+02  0.89999939890E+02 0.  0.
         12    1    1    2    0    0 -0.99944480894E+00 -0.62086784679E+00 -0.93755491409E-01  0.11803206774E+01  0.00000000000E+00 0. -1.
         11    1    3    3    0    0  0.27107572015E+02 -0.20854899787E+02  0.17462285033E+02  0.38401545601E+02  0.51100000000E-03 0. -1.
        -11    1    3    3    0    0  0.80870253007E+01  0.32677406246E+01 -0.78001816301E+01  0.11701322179E+02  0.51100000000E-03 0.  1.
        -12    1    3    3    0    0 -0.34195152507E+02  0.18208027009E+02 -0.95683479120E+01  0.39904811543E+02  0.00000000000E+00 0.  1.
</event>
<event>
 7    1  0.4331547E-015  0.9000770E+02  0.7816164E-02  0.1186339E+00
        -11   -1    0    0    0    0  0.00000000000E+00  0.00000000000E+00  0.45593999997E+02  0.45594000000E+02  0.51100000000E-03 0. -1.
         11   -1    0    0    0    0 -0.00000000000E+00 -0.00000000000E+00 -0.45593999997E+02  0.45594000000E+02  0.51100000000E-03 0.  1.
    9900012    2    1    2    0    0  0.10702004565E+01 -0.38135635822E+00  0.31991184860E+00  0.90007701190E+02  0.89999962046E+02 0.  0.
         12    1    1    2    0    0 -0.10702004565E+01  0.38135635822E+00 -0.31991184860E+00  0.11802988096E+01  0.00000000000E+00 0. -1.
         11    1    3    3    0    0 -0.10222240598E+02  0.17509051664E+00  0.35858816824E+02  0.37287794300E+02  0.51100000000E-03 0. -1.
        -11    1    3    3    0    0 -0.91102659828E+01 -0.36517616966E+01  0.18748751522E+01  0.99923704326E+01  0.51100000000E-03 0.  1.
        -12    1    3    3    0    0  0.20402707038E+02  0.30953148217E+01 -0.37413780127E+02  0.42727536457E+02  0.00000000000E+00 0.  1.
</event>
<event>
 7    1  0.4331547E-015  0.9000766E+02  0.7816164E-02  0.1186339E+00
        -11   -1    0    0    0    0  0.00000000000E+00  0.00000000000E+00  0.45593999997E+02  0.45594000000E+02  0.51100000000E-03 0. -1.
         11   -1    0    0    0    0 -0.00000000000E+00 -0.00000000000E+00 -0.45593999997E+02  0.45594000000E+02  0.51100000000E-03 0.  1.
    9900012    2    1    2    0    0  0.52439720148E+00 -0.77653119695E+00 -0.71778640401E+00  0.90007656640E+02  0.89999916908E+02 0.  0.
         12    1    1    2    0    0 -0.52439720148E+00  0.77653119695E+00  0.71778640401E+00  0.11803433596E+01  0.00000000000E+00 0. -1.
         11    1    3    3    0    0  0.83279356573E+00  0.50850945112E+01  0.11667342290E+02  0.12754552430E+02  0.51100000000E-03 0. -1.
        -11    1    3    3    0    0  0.75932980562E+01  0.34054267897E+02 -0.62069412039E+00  0.34896082858E+02  0.51100000000E-03 0.  1.
         12    1    3    3    0    0 -0.79016944204E+01 -0.39915893605E+02 -0.11764434574E+02  0.42357021352E+02  0.00000000000E+00 0. -1.
</event>
<event>
 7    1  0.4331547E-015  0.9000774E+02  0.7816164E-02  0.1186339E+00
        -11   -1    0    0    0    0  0.00000000000E+00  0.00000000000E+00  0.45593999997E+02  0.45594000000E+02  0.51100000000E-03 0.  1.
         11   -1    0    0    0    0 -0.00000000000E+00 -0.00000000000E+00 -0.45593999997E+02  0.45594000000E+02  0.51100000000E-03 0. -1.
    9900012    2    1    2    0    0  0.42503849248E+00 -0.71400831016E+00  0.83817491126E+00  0.90007744617E+02  0.90000006046E+02 0.  0.
         12    1    1    2    0    0 -0.42503849248E+00  0.71400831016E+00 -0.83817491126E+00  0.11802553829E+01  0.00000000000E+00 0. -1.
         11    1    3    3    0    0 -0.22186551886E+01 -0.91715599159E+01  0.15322021591E+01  0.95596854474E+01  0.51100000000E-03 0. -1.
        -11    1    3    3    0    0  0.34698429834E+02 -0.16503124823E+02  0.71182550014E+01  0.39076894918E+02  0.51100000000E-03 0.  1.
         12    1    3    3    0    0 -0.32054736153E+02  0.24960676429E+02 -0.78122822493E+01  0.41371164252E+02  0.00000000000E+00 0. -1.
</event>
<event>
 7    1  0.4331547E-015  0.9000778E+02  0.7816164E-02  0.1186339E+00
        -11   -1    0    0    0    0  0.00000000000E+00  0.00000000000E+00  0.45593999997E+02  0.45594000000E+02  0.51100000000E-03 0. -1.
         11   -1    0    0    0    0 -0.00000000000E+00 -0.00000000000E+00 -0.45593999997E+02  0.45594000000E+02  0.51100000000E-03 0.  1.
    9900012    2    1    2    0    0 -0.76205973132E+00  0.19520077861E+00 -0.87982006045E+00  0.90007778954E+02  0.90000040836E+02 0.  0.
         12    1    1    2    0    0  0.76205973132E+00 -0.19520077861E+00  0.87982006045E+00  0.11802210458E+01  0.00000000000E+00 0. -1.
         11    1    3    3    0    0 -0.41923361013E+01  0.18566644804E+02 -0.19454990627E+02  0.27217506165E+02  0.51100000000E-03 0. -1.
        -11    1    3    3    0    0  0.11642251716E+02  0.44842686968E+01 -0.16154592173E+02  0.20411309103E+02  0.51100000000E-03 0.  1.
         12    1    3    3    0    0 -0.82119753462E+01 -0.22855712722E+02  0.34729762740E+02  0.42378963686E+02  0.00000000000E+00 0. -1.
</event>
<event>
 7    1  0.4331547E-015  0.9000774E+02  0.7816164E-02  0.1186339E+00
        -11   -1    0    0    0    0  0.00000000000E+00  0.00000000000E+00  0.45593999997E+02  0.45594000000E+02  0.51100000000E-03 0.  1.
         11   -1    0    0    0    0 -0.00000000000E+00 -0.00000000000E+00 -0.45593999997E+02  0.45594000000E+02  0.51100000000E-03 0. -1.
    9900012    2    1    2    0    0 -0.73960011029E+00  0.91371272546E+00  0.10548400504E+00  0.90007743188E+02  0.90000004598E+02 0.  0.
         12    1    1    2    0    0  0.73960011029E+00 -0.91371272546E+00 -0.10548400504E+00  0.11802568124E+01  0.00000000000E+00 0. -1.
         11    1    3    3    0    0 -0.89015948740E+01 -0.11214483307E+01  0.91304601130E+01  0.12800833559E+02  0.51100000000E-03 0. -1.
        -11    1    3    3    0    0 -0.29500330781E+02  0.94695415771E+01  0.12250037792E+02  0.33316739937E+02  0.51100000000E-03 0.  1.
         12    1    3    3    0    0  0.37662325545E+02 -0.74343805209E+01 -0.21275013900E+02  0.43890169692E+02  0.00000000000E+00 0. -1.
</event>
<event>
 7    1  0.4331547E-015  0.9000772E+02  0.7816164E-02  0.1186339E+00
        -11   -1    0    0    0    0  0.00000000000E+00  0.00000000000E+00  0.45593999997E+02  0.45594000000E+02  0.51100000000E-03 0. -1.
         11   -1    0    0    0    0 -0.00000000000E+00 -0.00000000000E+00 -0.45593999997E+02  0.45594000000E+02  0.51100000000E-03 0.  1.
    9900012    2    1    2    0    0  0.39853694308E+00  0.31101776927E+00 -0.10665318295E+01  0.90007722960E+02  0.89999984103E+02 0.  0.
         12    1    1    2    0    0 -0.39853694308E+00 -0.31101776927E+00  0.10665318295E+01  0.11802770400E+01  0.00000000000E+00 0. -1.
         11    1    3    3    0    0 -0.54750768281E+00 -0.16463072516E+01  0.10378195032E+02  0.10522215765E+02  0.51100000000E-03 0. -1.
        -11    1    3    3    0    0  0.15168154522E+02  0.37450204685E+02 -0.50877062039E+01  0.40724384553E+02  0.51100000000E-03 0.  1.
         12    1    3    3    0    0 -0.14222109896E+02 -0.35492879664E+02 -0.63570206576E+01  0.38761122641E+02  0.00000000000E+00 0. -1.
</event>
<event>
 7    1  0.4331547E-015  0.9000767E+02  0.7816164E-02  0.1186339E+00
        -11   -1    0    0    0    0  0.00000000000E+00  0.00000000000E+00  0.45593999997E+02  0.45594000000E+02  0.51100000000E-03 0. -1.
         11   -1    0    0    0    0 -0.00000000000E+00 -0.00000000000E+00 -0.45593999997E+02  0.45594000000E+02  0.51100000000E-03 0.  1.
    9900012    2    1    2    0    0  0.49908582386E+00  0.10608044487E+01  0.13704140714E+00  0.90007672467E+02  0.89999932943E+02 0.  0.
         12    1    1    2    0    0 -0.49908582386E+00 -0.10608044487E+01 -0.13704140714E+00  0.11803275331E+01  0.00000000000E+00 0. -1.
         11    1    3    3    0    0  0.79670936954E+01 -0.30450699136E+02 -0.13994021219E+02  0.34446368313E+02  0.51100000000E-03 0. -1.
        -11    1    3    3    0    0  0.46863590907E+01 -0.91799334799E+01  0.70989978972E+01  0.12515147287E+02  0.51100000000E-03 0.  1.
        -12    1    3    3    0    0 -0.12154366962E+02  0.40691437064E+02  0.70320647291E+01  0.43046156866E+02  0.00000000000E+00 0.  1.
</event>
<event>
 7    1  0.4331547E-015  0.9000782E+02  0.7816164E-02  0.1186339E+00
        -11   -1    0    0    0    0  0.00000000000E+00  0.00000000000E+00  0.45593999997E+02  0.45594000000E+02  0.51100000000E-03 0.  1.
         11   -1    0    0    0    0 -0.00000000000E+00 -0.00000000000E+00 -0.45593999997E+02  0.45594000000E+02  0.51100000000E-03 0. -1.
    9900012    2    1    2    0    0 -0.44756628213E+00  0.10476378138E+01 -0.30817294675E+00  0.90007817332E+02  0.90000079720E+02 0.  0.
         12    1    1    2    0    0  0.44756628213E+00 -0.10476378138E+01  0.30817294675E+00  0.11801826684E+01  0.00000000000E+00 0. -1.
         11    1    3    3    0    0  0.18496350804E+02  0.22951854427E+02 -0.18679562073E+02  0.34897401825E+02  0.51100000000E-03 0. -1.
        -11    1    3    3    0    0 -0.16481874828E+01  0.10129121978E+02 -0.54353377118E+01  0.11612860558E+02  0.51100000000E-03 0.  1.
        -12    1    3    3    0    0 -0.17295729603E+02 -0.32033338591E+02  0.23806726838E+02  0.43497554949E+02  0.00000000000E+00 0.  1.
</event>
<event>
 7    1  0.4331547E-015  0.9000769E+02  0.7816164E-02  0.1186339E+00
        -11   -1    0    0    0    0  0.00000000000E+00  0.00000000000E+00  0.45593999997E+02  0.45594000000E+02  0.51100000000E-03 0.  1.
         11   -1    0    0    0    0 -0.00000000000E+00 -0.00000000000E+00 -0.45593999997E+02  0.45594000000E+02  0.51100000000E-03 0. -1.
    9900012    2    1    2    0    0 -0.37385290667E+00 -0.10920641746E+01  0.24650357803E+00  0.90007688951E+02  0.89999949646E+02 0.  0.
         12    1    1    2    0    0  0.37385290667E+00  0.10920641746E+01 -0.24650357803E+00  0.11803110485E+01  0.00000000000E+00 0. -1.
         11    1    3    3    0    0 -0.30950527951E+02  0.17720403609E+02 -0.84062153493E+01  0.36641674925E+02  0.51100000000E-03 0. -1.
        -11    1    3    3    0    0 -0.50289232502E+01  0.59642323052E+01  0.61177689908E+01  0.99140926833E+01  0.51100000000E-03 0.  1.
        -12    1    3    3    0    0  0.35605598295E+02 -0.24776700089E+02  0.25349499364E+01  0.43451921343E+02  0.00000000000E+00 0.  1.
</event>
<event>
 7    1  0.4331547E-015  0.9000771E+02  0.7816164E-02  0.1186339E+00
        -11   -1    0    0    0    0  0.00000000000E+00  0.00000000000E+00  0.45593999997E+02  0.45594000000E+02  0.51100000000E-03 0. -1.
         11   -1    0    0    0    0 -0.00000000000E+00 -0.00000000000E+00 -0.45593999997E+02  0.45594000000E+02  0.51100000000E-03 0.  1.
    9900012    2    1    2    0    0  0.36825652096E+00 -0.73974958700E+00 -0.84276021496E+00  0.90007708893E+02  0.89999969851E+02 0.  0.
         12    1    1    2    0    0 -0.36825652096E+00  0.73974958700E+00  0.84276021496E+00  0.11802911067E+01  0.00000000000E+00 0. -1.
         11    1    3    3    0    0  0.77917732867E+01 -0.11127295655E+01  0.59088272101E+01  0.98419580012E+01  0.51100000000E-03 0. -1.
        -11    1    3    3    0    0 -0.39064347319E+02 -0.17999236974E+02 -0.29585274025E+00  0.43012594577E+02  0.51100000000E-03 0.  1.
         12    1    3    3    0    0  0.31640830554E+02  0.18372216952E+02 -0.64557346848E+01  0.37153156315E+02  0.00000000000E+00 0. -1.
</event>
<event>
 7    1  0.4331547E-015  0.9000770E+02  0.7816164E-02  0.1186339E+00
        -11   -1    0    0    0    0  0.00000000000E+00  0.00000000000E+00  0.45593999997E+02  0.45594000000E+02  0.51100000000E-03 0.  1.
         11   -1    0    0    0    0 -0.00000000000E+00 -0.00000000000E+00 -0.45593999997E+02  0.45594000000E+02  0.51100000000E-03 0. -1.
    9900012    2    1    2    0    0 -0.33758961559E+00 -0.16067177003E+00  0.11195165064E+01  0.90007703692E+02  0.89999964581E+02 0.  0.
         12    1    1    2    0    0  0.33758961559E+00  0.16067177003E+00 -0.11195165064E+01  0.11802963079E+01  0.00000000000E+00 0. -1.
         11    1    3    3    0    0 -0.71086319390E+01 -0.51787767268E+01  0.42362956898E-01  0.87951220180E+01  0.51100000000E-03 0. -1.
        -11    1    3    3    0    0 -0.41002894469E+01 -0.31636591028E+01  0.39817228656E+02  0.40152618975E+02  0.51100000000E-03 0.  1.
         12    1    3    3    0    0  0.10871331770E+02  0.81817640596E+01 -0.38740075106E+02  0.41059962699E+02  0.00000000000E+00 0. -1.
</event>
<event>
 7    1  0.4331547E-015  0.9000765E+02  0.7816164E-02  0.1186339E+00
        -11   -1    0    0    0    0  0.00000000000E+00  0.00000000000E+00  0.45593999997E+02  0.45594000000E+02  0.51100000000E-03 0. -1.
         11   -1    0    0    0    0 -0.00000000000E+00 -0.00000000000E+00 -0.45593999997E+02  0.45594000000E+02  0.51100000000E-03 0.  1.
    9900012    2    1    2    0    0 -0.74517541586E+00  0.62224981129E+00 -0.67137987222E+00  0.90007647442E+02  0.89999907588E+02 0.  0.
         12    1    1    2    0    0  0.74517541586E+00 -0.62224981129E+00  0.67137987222E+00  0.11803525579E+01  0.00000000000E+00 0. -1.
         11    1    3    3    0    0 -0.36737674803E+02 -0.10041289333E+02 -0.10127581507E+02  0.39408782636E+02  0.51100000000E-03 0. -1.
        -11    1    3    3    0    0 -0.36544104966E+01  0.46980773688E+01 -0.52072324942E+01  0.79083448047E+01  0.51100000000E-03 0.  1.
        -12    1    3    3    0    0  0.39646909884E+02  0.59654617753E+01  0.14663434128E+02  0.42690520001E+02  0.00000000000E+00 0.  1.
</event>
<event>
 7    1  0.4331547E-015  0.9000765E+02  0.7816164E-02  0.1186339E+00
        -11   -1    0    0    0    0  0.00000000000E+00  0.00000000000E+00  0.45593999997E+02  0.45594000000E+02  0.51100000000E-03 0. -1.
         11   -1    0    0    0    0 -0.00000000000E+00 -0.00000000000E+00 -0.45593999997E+02  0.45594000000E+02  0.51100000000E-03 0.  1.
    9900012    2    1    2    0    0 -0.93761150879E+00 -0.10635332062E+00 -0.70908787674E+00  0.90007647516E+02  0.89999907663E+02 0.  0.
         12    1    1    2    0    0  0.93761150879E+00  0.10635332062E+00  0.70908787674E+00  0.11803524843E+01  0.00000000000E+00 0. -1.
         11    1    3    3    0    0  0.58487136876E+01 -0.36297507122E+01  0.73176524861E+01  0.10046421263E+02  0.51100000000E-03 0. -1.
        -11    1    3    3    0    0  0.35768344430E+01 -0.26276035787E+02 -0.31102591959E+02  0.40872913135E+02  0.51100000000E-03 0.  1.
         12    1    3    3    0    0 -0.10363159639E+02  0.29799433179E+02  0.23075851596E+02  0.39088313117E+02  0.00000000000E+00 0. -1.
</event>
<event>
 7    1  0.4331547E-015  0.9000800E+02  0.7816164E-02  0.1186339E+00
        -11   -1    0    0    0    0  0.00000000000E+00  0.00000000000E+00  0.45593999997E+02  0.45594000000E+02  0.51100000000E-03 0. -1.
         11   -1    0    0    0    0 -0.00000000000E+00 -0.00000000000E+00 -0.45593999997E+02  0.45594000000E+02  0.51100000000E-03 0.  1.
    9900012    2    1    2    0    0 -0.90537581604E-01 -0.10552361082E+01 -0.52026163260E+00  0.90008003193E+02  0.90000268035E+02 0.  0.
         12    1    1    2    0    0  0.90537581604E-01  0.10552361082E+01  0.52026163260E+00  0.11799968068E+01  0.00000000000E+00 0. -1.
         11    1    3    3    0    0  0.19732250280E+02  0.12313329056E+02  0.29865439362E+02  0.37853985815E+02  0.51100000000E-03 0. -1.
        -11    1    3    3    0    0  0.62107361662E+01  0.36285801109E+01  0.17886931932E+01  0.74121023298E+01  0.51100000000E-03 0.  1.
        -12    1    3    3    0    0 -0.26033524028E+02 -0.16997145275E+02 -0.32174394188E+02  0.44741915048E+02  0.00000000000E+00 0.  1.
</event>
<event>
 7    1  0.4331547E-015  0.9000775E+02  0.7816164E-02  0.1186339E+00
        -11   -1    0    0    0    0  0.00000000000E+00  0.00000000000E+00  0.45593999997E+02  0.45594000000E+02  0.51100000000E-03 0.  1.
         11   -1    0    0    0    0 -0.00000000000E+00 -0.00000000000E+00 -0.45593999997E+02  0.45594000000E+02  0.51100000000E-03 0. -1.
    9900012    2    1    2    0    0  0.16572143794E+00  0.55387714383E+00  0.10289516820E+01  0.90007752124E+02  0.90000013652E+02 0.  0.
         12    1    1    2    0    0 -0.16572143794E+00 -0.55387714383E+00 -0.10289516820E+01  0.11802478763E+01  0.00000000000E+00 0. -1.
         11    1    3    3    0    0  0.28563477542E+02 -0.85139250341E+01 -0.15700566005E+02  0.33687786243E+02  0.51100000000E-03 0. -1.
        -11    1    3    3    0    0  0.12856159792E+01  0.69328927697E+01 -0.12661863407E+02  0.14492777366E+02  0.51100000000E-03 0.  1.
        -12    1    3    3    0    0 -0.29683372084E+02  0.21349094082E+01  0.29391381094E+02  0.41827188515E+02  0.00000000000E+00 0.  1.
</event>
<event>
 7    1  0.4331547E-015  0.9000777E+02  0.7816164E-02  0.1186339E+00
        -11   -1    0    0    0    0  0.00000000000E+00  0.00000000000E+00  0.45593999997E+02  0.45594000000E+02  0.51100000000E-03 0. -1.
         11   -1    0    0    0    0 -0.00000000000E+00 -0.00000000000E+00 -0.45593999997E+02  0.45594000000E+02  0.51100000000E-03 0.  1.
    9900012    2    1    2    0    0  0.84434137514E+00  0.56012367538E+00 -0.60521915067E+00  0.90007770738E+02  0.90000032512E+02 0.  0.
         12    1    1    2    0    0 -0.84434137514E+00 -0.56012367538E+00  0.60521915067E+00  0.11802292616E+01  0.00000000000E+00 0. -1.
         11    1    3    3    0    0  0.21439589430E+02  0.20741759936E+02  0.83637945792E+01  0.30981117801E+02  0.51100000000E-03 0. -1.
        -11    1    3    3    0    0  0.10321032494E+02 -0.19146110692E+02  0.86726000582E+01  0.23416047028E+02  0.51100000000E-03 0.  1.
        -12    1    3    3    0    0 -0.30916280549E+02 -0.10355255688E+01 -0.17641613788E+02  0.35610605910E+02  0.00000000000E+00 0.  1.
</event>
<event>
 7    1  0.4331547E-015  0.9000786E+02  0.7816164E-02  0.1186339E+00
        -11   -1    0    0    0    0  0.00000000000E+00  0.00000000000E+00  0.45593999997E+02  0.45594000000E+02  0.51100000000E-03 0.  1.
         11   -1    0    0    0    0 -0.00000000000E+00 -0.00000000000E+00 -0.45593999997E+02  0.45594000000E+02  0.51100000000E-03 0. -1.
    9900012    2    1    2    0    0  0.55038872745E+00  0.90315572465E+00  0.52355193420E+00  0.90007862448E+02  0.90000125432E+02 0.  0.
         12    1    1    2    0    0 -0.55038872745E+00 -0.90315572465E+00 -0.52355193420E+00  0.11801375522E+01  0.00000000000E+00 0. -1.
         11    1    3    3    0    0 -0.81838576470E+01 -0.14530356316E+02  0.75553807557E+01  0.18308210160E+02  0.51100000000E-03 0. -1.
        -11    1    3    3    0    0 -0.28143512188E+02 -0.53675817026E+01  0.70182477291E+00  0.28659392351E+02  0.51100000000E-03 0.  1.
         12    1    3    3    0    0  0.36877758563E+02  0.20801093743E+02 -0.77336535944E+01  0.43040259937E+02  0.00000000000E+00 0. -1.
</event>
<event>
 7    1  0.4331547E-015  0.9000779E+02  0.7816164E-02  0.1186339E+00
        -11   -1    0    0    0    0  0.00000000000E+00  0.00000000000E+00  0.45593999997E+02  0.45594000000E+02  0.51100000000E-03 0.  1.
         11   -1    0    0    0    0 -0.00000000000E+00 -0.00000000000E+00 -0.45593999997E+02  0.45594000000E+02  0.51100000000E-03 0. -1.
    9900012    2    1    2    0    0  0.10620280505E+00  0.58090502200E+00  0.10218410410E+01  0.90007792902E+02  0.90000054969E+02 0.  0.
         12    1    1    2    0    0 -0.10620280505E+00 -0.58090502200E+00 -0.10218410410E+01  0.11802070977E+01  0.00000000000E+00 0. -1.
         11    1    3    3    0    0  0.41032364080E+01  0.18236734547E+02 -0.32949729516E+02  0.37882709926E+02  0.51100000000E-03 0. -1.
        -11    1    3    3    0    0  0.49638403296E+01  0.78401270339E+01  0.76435342492E+00  0.93108291330E+01  0.51100000000E-03 0.  1.
        -12    1    3    3    0    0 -0.89608739326E+01 -0.25495956559E+02  0.33207217132E+02  0.42814253843E+02  0.00000000000E+00 0.  1.
</event>
<event>
 7    1  0.4331547E-015  0.9000781E+02  0.7816164E-02  0.1186339E+00
        -11   -1    0    0    0    0  0.00000000000E+00  0.00000000000E+00  0.45593999997E+02  0.45594000000E+02  0.51100000000E-03 0. -1.
         11   -1    0    0    0    0 -0.00000000000E+00 -0.00000000000E+00 -0.45593999997E+02  0.45594000000E+02  0.51100000000E-03 0.  1.
    9900012    2    1    2    0    0 -0.52541293133E+00  0.39567478314E+00 -0.97991691808E+00  0.90007807453E+02  0.90000069711E+02 0.  0.
         12    1    1    2    0    0  0.52541293133E+00 -0.39567478314E+00  0.97991691808E+00  0.11801925473E+01  0.00000000000E+00 0. -1.
         11    1    3    3    0    0 -0.46641156759E+01  0.60097959952E+01  0.23666665881E+00  0.76110205827E+01  0.51100000000E-03 0. -1.
        -11    1    3    3    0    0 -0.36806752691E+02 -0.76282382883E+01  0.11779049717E+02  0.39391281720E+02  0.51100000000E-03 0.  1.
         12    1    3    3    0    0  0.40945455436E+02  0.20141170762E+01 -0.12995633294E+02  0.43005505150E+02  0.00000000000E+00 0. -1.
</event>
<event>
 7    1  0.4331547E-015  0.9000777E+02  0.7816164E-02  0.1186339E+00
        -11   -1    0    0    0    0  0.00000000000E+00  0.00000000000E+00  0.45593999997E+02  0.45594000000E+02  0.51100000000E-03 0. -1.
         11   -1    0    0    0    0 -0.00000000000E+00 -0.00000000000E+00 -0.45593999997E+02  0.45594000000E+02  0.51100000000E-03 0.  1.
    9900012    2    1    2    0    0  0.14505405348E+00  0.10668106735E+01 -0.48355601573E+00  0.90007766078E+02  0.90000027790E+02 0.  0.
         12    1    1    2    0    0 -0.14505405348E+00 -0.10668106735E+01  0.48355601573E+00  0.11802339225E+01  0.00000000000E+00 0. -1.
         11    1    3    3    0    0  0.18477076933E+02 -0.20774985090E+01 -0.33971823197E+01  0.18901302072E+02  0.51100000000E-03 0. -1.
        -11    1    3    3    0    0 -0.45808977171E+01 -0.30108915799E+02 -0.11205359442E+02  0.32451371542E+02  0.51100000000E-03 0.  1.
         12    1    3    3    0    0 -0.13751125162E+02  0.33253224981E+02  0.14118985746E+02  0.38655092464E+02  0.00000000000E+00 0. -1.
</event>
<event>
 7    1  0.4331547E-015  0.9000776E+02  0.7816164E-02  0.1186339E+00
        -11   -1    0    0    0    0  0.00000000000E+00  0.00000000000E+00  0.45593999997E+02  0.45594000000E+02  0.51100000000E-03 0.  1.
         11   -1    0    0    0    0 -0.00000000000E+00 -0.00000000000E+00 -0.45593999997E+02  0.45594000000E+02  0.51100000000E-03 0. -1.
    9900012    2    1    2    0    0  0.47009697382E+00 -0.10453967620E+01  0.28129639055E+00  0.90007757138E+02  0.90000018732E+02 0.  0.
         12    1    1    2    0    0 -0.47009697382E+00  0.10453967620E+01 -0.28129639055E+00  0.11802428624E+01  0.00000000000E+00 0. -1.
         11    1    3    3    0    0 -0.11465244674E+02  0.32031286627E+02 -0.14695430038E+02  0.37059557778E+02  0.51100000000E-03 0. -1.
        -11    1    3    3    0    0 -0.25081377142E+01  0.25497139652E+01 -0.75763224343E+01  0.83780939352E+01  0.51100000000E-03 0.  1.
        -12    1    3    3    0    0  0.14443479362E+02 -0.35626397355E+02  0.22553048863E+02  0.44570105424E+02  0.00000000000E+00 0.  1.
</event>
<event>
 7    1  0.4331547E-015  0.9000770E+02  0.7816164E-02  0.1186339E+00
        -11   -1    0    0    0    0  0.00000000000E+00  0.00000000000E+00  0.45593999997E+02  0.45594000000E+02  0.51100000000E-03 0.  1.
         11   -1    0    0    0    0 -0.00000000000E+00 -0.00000000000E+00 -0.45593999997E+02  0.45594000000E+02  0.51100000000E-03 0. -1.
    9900012    2    1    2    0    0 -0.14766773954E+00 -0.58924246103E+00  0.10119750423E+01  0.90007700917E+02  0.89999961769E+02 0.  0.
         12    1    1    2    0    0  0.14766773954E+00  0.58924246103E+00 -0.10119750423E+01  0.11802990830E+01  0.00000000000E+00 0. -1.
         11    1    3    3    0    0  0.18155799934E-02 -0.85552456951E+01  0.50448946592E+01  0.99319280396E+01  0.51100000000E-03 0. -1.
        -11    1    3    3    0    0 -0.24521738793E+02 -0.80548493750E+01  0.27093412320E+02  0.37419904640E+02  0.51100000000E-03 0.  1.
         12    1    3    3    0    0  0.24372255474E+02  0.16020852609E+02 -0.31126331937E+02  0.42655868237E+02  0.00000000000E+00 0. -1.
</event>
<event>
 7    1  0.4331547E-015  0.9000768E+02  0.7816164E-02  0.1186339E+00
        -11   -1    0    0    0    0  0.00000000000E+00  0.00000000000E+00  0.45593999997E+02  0.45594000000E+02  0.51100000000E-03 0.  1.
         11   -1    0    0    0    0 -0.00000000000E+00 -0.00000000000E+00 -0.45593999997E+02  0.45594000000E+02  0.51100000000E-03 0. -1.
    9900012    2    1    2    0    0  0.14723092451E+00  0.31994832000E+00  0.11265513562E+01  0.90007677234E+02  0.89999937774E+02 0.  0.
         12    1    1    2    0    0 -0.14723092451E+00 -0.31994832000E+00 -0.11265513562E+01  0.11803227655E+01  0.00000000000E+00 0. -1.
         11    1    3    3    0    0  0.14197421521E+02  0.39302915933E+01 -0.33413331418E+02  0.36516635751E+02  0.51100000000E-03 0. -1.
        -11    1    3    3    0    0  0.49367286701E+00  0.82565946731E+01 -0.50398001890E+01  0.96857965445E+01  0.51100000000E-03 0.  1.
        -12    1    3    3    0    0 -0.14543863463E+02 -0.11866937946E+02  0.39579682964E+02  0.43805244939E+02  0.00000000000E+00 0.  1.
</event>
<event>
 7    1  0.4331547E-015  0.9000774E+02  0.7816164E-02  0.1186339E+00
        -11   -1    0    0    0    0  0.00000000000E+00  0.00000000000E+00  0.45593999997E+02  0.45594000000E+02  0.51100000000E-03 0. -1.
         11   -1    0    0    0    0 -0.00000000000E+00 -0.00000000000E+00 -0.45593999997E+02  0.45594000000E+02  0.51100000000E-03 0.  1.
    9900012    2    1    2    0    0  0.68932452185E+00  0.95804156539E+00 -0.45560535504E-03  0.90007740645E+02  0.90000002022E+02 0.  0.
         12    1    1    2    0    0 -0.68932452185E+00 -0.95804156539E+00  0.45560535504E-03  0.11802593550E+01  0.00000000000E+00 0. -1.
         11    1    3    3    0    0  0.59069420354E+01 -0.39000298085E+02  0.38614753920E+00  0.39446981191E+02  0.51100000000E-03 0. -1.
        -11    1    3    3    0    0 -0.43681515117E+01 -0.59062717153E+00  0.80101020193E+01  0.91428290319E+01  0.51100000000E-03 0.  1.
        -12    1    3    3    0    0 -0.84946600187E+00  0.40548966822E+02 -0.83967051639E+01  0.41417930422E+02  0.00000000000E+00 0.  1.
</event>
<event>
 7    1  0.4331547E-015  0.9000767E+02  0.7816164E-02  0.1186339E+00
        -11   -1    0    0    0    0  0.00000000000E+00  0.00000000000E+00  0.45593999997E+02  0.45594000000E+02  0.51100000000E-03 0.  1.
         11   -1    0    0    0    0 -0.00000000000E+00 -0.00000000000E+00 -0.45593999997E+02  0.45594000000E+02  0.51100000000E-03 0. -1.
    9900012    2    1    2    0    0  0.21293139109E+00 -0.85795640022E+00  0.78213733578E+00  0.90007674717E+02  0.89999935223E+02 0.  0.
         12    1    1    2    0    0 -0.21293139109E+00  0.85795640022E+00 -0.78213733578E+00  0.11803252831E+01  0.00000000000E+00 0. -1.
         11    1    3    3    0    0 -0.10380241276E+02 -0.17371764789E+02 -0.32355571581E+02  0.38162948437E+02  0.51100000000E-03 0. -1.
        -11    1    3    3    0    0  0.75513250582E+01 -0.59907279885E+01 -0.21550762915E+01  0.98770281993E+01  0.51100000000E-03 0.  1.
        -12    1    3    3    0    0  0.30418476085E+01  0.22504536377E+02  0.35292785208E+02  0.41967698080E+02  0.00000000000E+00 0.  1.
</event>
<event>
 7    1  0.4331547E-015  0.9000764E+02  0.7816164E-02  0.1186339E+00
        -11   -1    0    0    0    0  0.00000000000E+00  0.00000000000E+00  0.45593999997E+02  0.45594000000E+02  0.51100000000E-03 0.  1.
         11   -1    0    0    0    0 -0.00000000000E+00 -0.00000000000E+00 -0.45593999997E+02  0.45594000000E+02  0.51100000000E-03 0. -1.
    9900012    2    1    2    0    0 -0.41078605320E+00 -0.98479286118E+00  0.50466620929E+00  0.90007639825E+02  0.89999899870E+02 0.  0.
         12    1    1    2    0    0  0.41078605320E+00  0.98479286118E+00 -0.50466620929E+00  0.11803601754E+01  0.00000000000E+00 0. -1.
         11    1    3    3    0    0 -0.31420242127E+02  0.21049430774E+02 -0.59044350400E+01  0.38277571823E+02  0.51100000000E-03 0. -1.
        -11    1    3    3    0    0 -0.32297483270E+00  0.53735551237E+01 -0.62221778506E+01  0.82276913455E+01  0.51100000000E-03 0.  1.
        -12    1    3    3    0    0  0.31332430907E+02 -0.27407778759E+02  0.12631279100E+02  0.43502376656E+02  0.00000000000E+00 0.  1.
</event>
<event>
 7    1  0.4331547E-015  0.9000774E+02  0.7816164E-02  0.1186339E+00
        -11   -1    0    0    0    0  0.00000000000E+00  0.00000000000E+00  0.45593999997E+02  0.45594000000E+02  0.51100000000E-03 0. -1.
         11   -1    0    0    0    0 -0.00000000000E+00 -0.00000000000E+00 -0.45593999997E+02  0.45594000000E+02  0.51100000000E-03 0.  1.
    9900012    2    1    2    0    0 -0.36060551159E+00 -0.44159257004E+00 -0.10334312165E+01  0.90007737143E+02  0.89999998473E+02 0.  0.
         12    1    1    2    0    0  0.36060551159E+00  0.44159257004E+00  0.10334312165E+01  0.11802628572E+01  0.00000000000E+00 0. -1.
         11    1    3    3    0    0 -0.15253582794E+02 -0.32956651797E+02  0.60233151776E+00  0.36320455521E+02  0.51100000000E-03 0. -1.
        -11    1    3    3    0    0 -0.52574918718E+01 -0.72876350945E+01  0.70057449863E+00  0.90134150543E+01  0.51100000000E-03 0.  1.
        -12    1    3    3    0    0  0.20150469154E+02  0.39802694322E+02 -0.23363372328E+01  0.44673866567E+02  0.00000000000E+00 0.  1.
</event>
<event>
 7    1  0.4331547E-015  0.9000782E+02  0.7816164E-02  0.1186339E+00
        -11   -1    0    0    0    0  0.00000000000E+00  0.00000000000E+00  0.45593999997E+02  0.45594000000E+02  0.51100000000E-03 0.  1.
         11   -1    0    0    0    0 -0.00000000000E+00 -0.00000000000E+00 -0.45593999997E+02  0.45594000000E+02  0.51100000000E-03 0. -1.
    9900012    2    1    2    0    0  0.83251844548E+00 -0.64015053061E+00 -0.53846758622E+00  0.90007819079E+02  0.90000081491E+02 0.  0.
         12    1    1    2    0    0 -0.83251844548E+00  0.64015053061E+00  0.53846758622E+00  0.11801809206E+01  0.00000000000E+00 0. -1.
         11    1    3    3    0    0 -0.19998110733E+02 -0.46580874346E+01  0.24705981672E+02  0.32124877308E+02  0.51100000000E-03 0. -1.
        -11    1    3    3    0    0  0.19661181739E+01  0.76130151127E+01  0.12939853521E+02  0.15141447394E+02  0.51100000000E-03 0.  1.
        -12    1    3    3    0    0  0.18864511005E+02 -0.35950782087E+01 -0.38184302780E+02  0.42741494377E+02  0.00000000000E+00 0.  1.
</event>
<event>
 7    1  0.4331547E-015  0.9000745E+02  0.7816164E-02  0.1186340E+00
        -11   -1    0    0    0    0  0.00000000000E+00  0.00000000000E+00  0.45593999997E+02  0.45594000000E+02  0.51100000000E-03 0. -1.
         11   -1    0    0    0    0 -0.00000000000E+00 -0.00000000000E+00 -0.45593999997E+02  0.45594000000E+02  0.51100000000E-03 0.  1.
    9900012    2    1    2    0    0 -0.60145440765E+00  0.74544771983E-01 -0.10131136702E+01  0.90007447741E+02  0.89999705251E+02 0.  0.
         12    1    1    2    0    0  0.60145440765E+00 -0.74544771983E-01  0.10131136702E+01  0.11805522590E+01  0.00000000000E+00 0. -1.
         11    1    3    3    0    0 -0.54029554133E+01 -0.62403499616E+01 -0.99405200712E+01  0.12920829478E+02  0.51100000000E-03 0. -1.
        -11    1    3    3    0    0 -0.50329575903E+01  0.31948835146E+02  0.28709263480E+02  0.43246740214E+02  0.51100000000E-03 0.  1.
         12    1    3    3    0    0  0.98344585959E+01 -0.25633940413E+02 -0.19781857079E+02  0.33839878050E+02  0.00000000000E+00 0. -1.
</event>
<event>
 7    1  0.4331547E-015  0.9000775E+02  0.7816164E-02  0.1186339E+00
        -11   -1    0    0    0    0  0.00000000000E+00  0.00000000000E+00  0.45593999997E+02  0.45594000000E+02  0.51100000000E-03 0.  1.
         11   -1    0    0    0    0 -0.00000000000E+00 -0.00000000000E+00 -0.45593999997E+02  0.45594000000E+02  0.51100000000E-03 0. -1.
    9900012    2    1    2    0    0 -0.78768423700E+00 -0.38350291764E-01  0.87810710779E+00  0.90007750325E+02  0.90000011829E+02 0.  0.
         12    1    1    2    0    0  0.78768423700E+00  0.38350291764E-01 -0.87810710779E+00  0.11802496748E+01  0.00000000000E+00 0. -1.
         11    1    3    3    0    0  0.37491535092E+02  0.16373728749E+02 -0.60871015072E+01  0.41361419242E+02  0.51100000000E-03 0. -1.
        -11    1    3    3    0    0 -0.15551497316E+01 -0.10103842243E+02 -0.17682208262E+01  0.10374619217E+02  0.51100000000E-03 0.  1.
        -12    1    3    3    0    0 -0.36724069598E+02 -0.63082367979E+01  0.87334294411E+01  0.38271711865E+02  0.00000000000E+00 0.  1.
</event>
<event>
 7    1  0.4331547E-015  0.9000774E+02  0.7816164E-02  0.1186339E+00
        -11   -1    0    0    0    0  0.00000000000E+00  0.00000000000E+00  0.45593999997E+02  0.45594000000E+02  0.51100000000E-03 0. -1.
         11   -1    0    0    0    0 -0.00000000000E+00 -0.00000000000E+00 -0.45593999997E+02  0.45594000000E+02  0.51100000000E-03 0.  1.
    9900012    2    1    2    0    0  0.10901743502E+01 -0.22303188682E+00 -0.39343862695E+00  0.90007738466E+02  0.89999999813E+02 0.  0.
         12    1    1    2    0    0 -0.10901743502E+01  0.22303188682E+00  0.39343862695E+00  0.11802615344E+01  0.00000000000E+00 0. -1.
         11    1    3    3    0    0  0.10716598692E+02 -0.41247582244E+01 -0.93775399111E+01  0.14825564845E+02  0.51100000000E-03 0. -1.
        -11    1    3    3    0    0  0.30055099175E+02 -0.11357051472E+02  0.38720461633E+01  0.32361772917E+02  0.51100000000E-03 0.  1.
         12    1    3    3    0    0 -0.39681523517E+02  0.15258777810E+02  0.51120551209E+01  0.42820400704E+02  0.00000000000E+00 0. -1.
</event>
<event>
 7    1  0.4331547E-015  0.9000796E+02  0.7816164E-02  0.1186339E+00
        -11   -1    0    0    0    0  0.00000000000E+00  0.00000000000E+00  0.45593999997E+02  0.45594000000E+02  0.51100000000E-03 0.  1.
         11   -1    0    0    0    0 -0.00000000000E+00 -0.00000000000E+00 -0.45593999997E+02  0.45594000000E+02  0.51100000000E-03 0. -1.
    9900012    2    1    2    0    0 -0.11645465275E+01 -0.85175540872E-01  0.17052598377E+00  0.90007956527E+02  0.90000220753E+02 0.  0.
         12    1    1    2    0    0  0.11645465275E+01  0.85175540872E-01 -0.17052598377E+00  0.11800434732E+01  0.00000000000E+00 0. -1.
         11    1    3    3    0    0 -0.98425845212E+01  0.61991871674E+01 -0.30769084378E+01  0.12032196698E+02  0.51100000000E-03 0. -1.
        -11    1    3    3    0    0 -0.16785518077E+02  0.20890060058E+02  0.23448933892E+02  0.35608997841E+02  0.51100000000E-03 0.  1.
         12    1    3    3    0    0  0.25463556071E+02 -0.27174422766E+02 -0.20201499470E+02  0.42366761987E+02  0.00000000000E+00 0. -1.
</event>
<event>
 7    1  0.4331547E-015  0.9000783E+02  0.7816164E-02  0.1186339E+00
        -11   -1    0    0    0    0  0.00000000000E+00  0.00000000000E+00  0.45593999997E+02  0.45594000000E+02  0.51100000000E-03 0.  1.
         11   -1    0    0    0    0 -0.00000000000E+00 -0.00000000000E+00 -0.45593999997E+02  0.45594000000E+02  0.51100000000E-03 0. -1.
    9900012    2    1    2    0    0 -0.10358055843E+01 -0.54616603181E+00 -0.14704496841E+00  0.90007825112E+02  0.90000087604E+02 0.  0.
         12    1    1    2    0    0  0.10358055843E+01  0.54616603181E+00  0.14704496841E+00  0.11801748877E+01  0.00000000000E+00 0. -1.
         11    1    3    3    0    0  0.49293262763E+01 -0.33268178013E+02 -0.12996829421E+02  0.36055339426E+02  0.51100000000E-03 0. -1.
        -11    1    3    3    0    0  0.12842498747E+01 -0.94285569920E+01  0.37363235623E+01  0.10222871354E+02  0.51100000000E-03 0.  1.
        -12    1    3    3    0    0 -0.72493817353E+01  0.42150568973E+02  0.91134608907E+01  0.43729614333E+02  0.00000000000E+00 0.  1.
</event>
<event>
 7    1  0.4331547E-015  0.9000748E+02  0.7816164E-02  0.1186340E+00
        -11   -1    0    0    0    0  0.00000000000E+00  0.00000000000E+00  0.45593999997E+02  0.45594000000E+02  0.51100000000E-03 0. -1.
         11   -1    0    0    0    0 -0.00000000000E+00 -0.00000000000E+00 -0.45593999997E+02  0.45594000000E+02  0.51100000000E-03 0.  1.
    9900012    2    1    2    0    0  0.44557726975E+00  0.85206267248E+00  0.68488896302E+00  0.90007481981E+02  0.89999739943E+02 0.  0.
         12    1    1    2    0    0 -0.44557726975E+00 -0.85206267248E+00 -0.68488896302E+00  0.11805180188E+01  0.00000000000E+00 0. -1.
         11    1    3    3    0    0  0.10980871023E+02  0.37512160503E+01  0.33823169514E+02  0.35758326954E+02  0.51100000000E-03 0. -1.
        -11    1    3    3    0    0  0.36536257954E+01 -0.35094308968E+00  0.89965263706E+01  0.97164617790E+01  0.51100000000E-03 0.  1.
        -12    1    3    3    0    0 -0.14188919549E+02 -0.25482102881E+01 -0.42134806922E+02  0.44532693248E+02  0.00000000000E+00 0.  1.
</event>
<event>
 7    1  0.4331547E-015  0.9000778E+02  0.7816164E-02  0.1186339E+00
        -11   -1    0    0    0    0  0.00000000000E+00  0.00000000000E+00  0.45593999997E+02  0.45594000000E+02  0.51100000000E-03 0.  1.
         11   -1    0    0    0    0 -0.00000000000E+00 -0.00000000000E+00 -0.45593999997E+02  0.45594000000E+02  0.51100000000E-03 0. -1.
    9900012    2    1    2    0    0 -0.81573454328E+00  0.54306908557E+00  0.65770555091E+00  0.90007778212E+02  0.90000040085E+02 0.  0.
         12    1    1    2    0    0  0.81573454328E+00 -0.54306908557E+00 -0.65770555091E+00  0.11802217878E+01  0.00000000000E+00 0. -1.
         11    1    3    3    0    0  0.38248826742E+02 -0.63953253460E+00  0.37338822492E+01  0.38435967868E+02  0.51100000000E-03 0. -1.
        -11    1    3    3    0    0 -0.10270244384E+01 -0.56976530285E+01 -0.10706083952E+02  0.12171206312E+02  0.51100000000E-03 0.  1.
        -12    1    3    3    0    0 -0.38037536847E+02  0.68802546487E+01  0.76299072539E+01  0.39400604033E+02  0.00000000000E+00 0.  1.
</event>
<event>
 7    1  0.4331547E-015  0.9000775E+02  0.7816164E-02  0.1186339E+00
        -11   -1    0    0    0    0  0.00000000000E+00  0.00000000000E+00  0.45593999997E+02  0.45594000000E+02  0.51100000000E-03 0.  1.
         11   -1    0    0    0    0 -0.00000000000E+00 -0.00000000000E+00 -0.45593999997E+02  0.45594000000E+02  0.51100000000E-03 0. -1.
    9900012    2    1    2    0    0  0.79269800627E+00  0.85926998165E+00 -0.16209272113E+00  0.90007750416E+02  0.90000011921E+02 0.  0.
         12    1    1    2    0    0 -0.79269800627E+00 -0.85926998165E+00  0.16209272113E+00  0.11802495841E+01  0.00000000000E+00 0. -1.
         11    1    3    3    0    0 -0.11453951542E+01  0.50998858263E+01  0.56100540351E+01  0.76676901371E+01  0.51100000000E-03 0. -1.
        -11    1    3    3    0    0  0.19422425342E+02  0.22157358100E+02  0.24660635772E+02  0.38422988966E+02  0.51100000000E-03 0.  1.
         12    1    3    3    0    0 -0.17484332182E+02 -0.26397973945E+02 -0.30432782528E+02  0.43917071312E+02  0.00000000000E+00 0. -1.
</event>
<event>
 7    1  0.4331547E-015  0.9000772E+02  0.7816164E-02  0.1186339E+00
        -11   -1    0    0    0    0  0.00000000000E+00  0.00000000000E+00  0.45593999997E+02  0.45594000000E+02  0.51100000000E-03 0. -1.
         11   -1    0    0    0    0 -0.00000000000E+00 -0.00000000000E+00 -0.45593999997E+02  0.45594000000E+02  0.51100000000E-03 0.  1.
    9900012    2    1    2    0    0 -0.11797503611E+01  0.27689286000E-01  0.21748501432E-01  0.90007724351E+02  0.89999985512E+02 0.  0.
         12    1    1    2    0    0  0.11797503611E+01 -0.27689286000E-01 -0.21748501432E-01  0.11802756493E+01  0.00000000000E+00 0. -1.
         11    1    3    3    0    0 -0.31471373609E+02 -0.13617695881E+02  0.18382522894E+02  0.38907661793E+02  0.51100000000E-03 0. -1.
        -11    1    3    3    0    0 -0.33507793351E+01 -0.72642794291E+01 -0.20198495051E+01  0.82508951066E+01  0.51100000000E-03 0.  1.
        -12    1    3    3    0    0  0.33642402583E+02  0.20909664596E+02 -0.16340924887E+02  0.42849167451E+02  0.00000000000E+00 0.  1.
</event>
<event>
 7    1  0.4331547E-015  0.9000765E+02  0.7816164E-02  0.1186339E+00
        -11   -1    0    0    0    0  0.00000000000E+00  0.00000000000E+00  0.45593999997E+02  0.45594000000E+02  0.51100000000E-03 0.  1.
         11   -1    0    0    0    0 -0.00000000000E+00 -0.00000000000E+00 -0.45593999997E+02  0.45594000000E+02  0.51100000000E-03 0. -1.
    9900012    2    1    2    0    0 -0.21589185931E+00 -0.11463316205E+01  0.18040722888E+00  0.90007647406E+02  0.89999907551E+02 0.  0.
         12    1    1    2    0    0  0.21589185931E+00  0.11463316205E+01 -0.18040722888E+00  0.11803525945E+01  0.00000000000E+00 0. -1.
         11    1    3    3    0    0 -0.24169841916E+02 -0.10229234692E+02 -0.29238233846E+02  0.39289856443E+02  0.51100000000E-03 0. -1.
        -11    1    3    3    0    0 -0.21454244468E+00 -0.86078292922E+01  0.15409897815E+02  0.17652356911E+02  0.51100000000E-03 0.  1.
        -12    1    3    3    0    0  0.24168492501E+02  0.17690732364E+02  0.14008743260E+02  0.33065434052E+02  0.00000000000E+00 0.  1.
</event>
<event>
 7    1  0.4331547E-015  0.9000768E+02  0.7816164E-02  0.1186339E+00
        -11   -1    0    0    0    0  0.00000000000E+00  0.00000000000E+00  0.45593999997E+02  0.45594000000E+02  0.51100000000E-03 0.  1.
         11   -1    0    0    0    0 -0.00000000000E+00 -0.00000000000E+00 -0.45593999997E+02  0.45594000000E+02  0.51100000000E-03 0. -1.
    9900012    2    1    2    0    0 -0.93660136118E+00  0.38459636631E+00  0.60664013485E+00  0.90007682785E+02  0.89999943398E+02 0.  0.
         12    1    1    2    0    0  0.93660136118E+00 -0.38459636631E+00 -0.60664013485E+00  0.11803172150E+01  0.00000000000E+00 0. -1.
         11    1    3    3    0    0  0.21469563597E+02 -0.60431921799E+01 -0.25505480401E+02  0.33882028621E+02  0.51100000000E-03 0. -1.
        -11    1    3    3    0    0  0.94904236539E+01 -0.84214864045E+01  0.14051155392E+02  0.18932103489E+02  0.51100000000E-03 0.  1.
        -12    1    3    3    0    0 -0.31896588612E+02  0.14849274951E+02  0.12060965144E+02  0.37193550675E+02  0.00000000000E+00 0.  1.
</event>
<event>
 7    1  0.4331547E-015  0.9000775E+02  0.7816164E-02  0.1186339E+00
        -11   -1    0    0    0    0  0.00000000000E+00  0.00000000000E+00  0.45593999997E+02  0.45594000000E+02  0.51100000000E-03 0. -1.
         11   -1    0    0    0    0 -0.00000000000E+00 -0.00000000000E+00 -0.45593999997E+02  0.45594000000E+02  0.51100000000E-03 0.  1.
    9900012    2    1    2    0    0 -0.86611683184E+00  0.17937473745E+00 -0.78144010951E+00  0.90007753285E+02  0.90000014829E+02 0.  0.
         12    1    1    2    0    0  0.86611683184E+00 -0.17937473745E+00  0.78144010951E+00  0.11802467147E+01  0.00000000000E+00 0. -1.
         11    1    3    3    0    0  0.89057037100E+01 -0.34077566401E+01  0.80848307139E+00  0.95696399633E+01  0.51100000000E-03 0. -1.
        -11    1    3    3    0    0 -0.25468610260E+02  0.14557640924E+02  0.30973645412E+02  0.42660775054E+02  0.51100000000E-03 0.  1.
         12    1    3    3    0    0  0.15696789718E+02 -0.10970509547E+02 -0.32563568592E+02  0.37777338268E+02  0.00000000000E+00 0. -1.
</event>
<event>
 7    1  0.4331547E-015  0.9000699E+02  0.7816164E-02  0.1186341E+00
        -11   -1    0    0    0    0  0.00000000000E+00  0.00000000000E+00  0.45593999997E+02  0.45594000000E+02  0.51100000000E-03 0.  1.
         11   -1    0    0    0    0 -0.00000000000E+00 -0.00000000000E+00 -0.45593999997E+02  0.45594000000E+02  0.51100000000E-03 0. -1.
    9900012    2    1    2    0    0 -0.41230030352E+00 -0.10762770972E+01 -0.25772608922E+00  0.90006989133E+02  0.89999240587E+02 0.  0.
         12    1    1    2    0    0  0.41230030352E+00  0.10762770972E+01  0.25772608922E+00  0.11810108667E+01  0.00000000000E+00 0. -1.
         11    1    3    3    0    0  0.43965509122E+01 -0.45071436839E+01 -0.78475909158E+01  0.10061246819E+02  0.51100000000E-03 0. -1.
        -11    1    3    3    0    0 -0.38107274984E+02 -0.15494013092E+02  0.15002926200E+01  0.41164058675E+02  0.51100000000E-03 0.  1.
         12    1    3    3    0    0  0.33298423768E+02  0.18924879679E+02  0.60895722065E+01  0.38781683640E+02  0.00000000000E+00 0. -1.
</event>
<event>
 7    1  0.4331547E-015  0.9000765E+02  0.7816164E-02  0.1186339E+00
        -11   -1    0    0    0    0  0.00000000000E+00  0.00000000000E+00  0.45593999997E+02  0.45594000000E+02  0.51100000000E-03 0.  1.
         11   -1    0    0    0    0 -0.00000000000E+00 -0.00000000000E+00 -0.45593999997E+02  0.45594000000E+02  0.51100000000E-03 0. -1.
    9900012    2    1    2    0    0  0.89247192925E+00 -0.44313031550E+00  0.63274144514E+00  0.90007647359E+02  0.89999907504E+02 0.  0.
         12    1    1    2    0    0 -0.89247192925E+00  0.44313031550E+00 -0.63274144514E+00  0.11803526411E+01  0.00000000000E+00 0. -1.
         11    1    3    3    0    0 -0.34214342510E+01  0.56379695664E+01 -0.52157352057E+01  0.84081393401E+01  0.51100000000E-03 0. -1.
        -11    1    3    3    0    0 -0.33049033838E+02  0.15682177319E+02  0.10636541023E+02  0.38096001473E+02  0.51100000000E-03 0.  1.
         12    1    3    3    0    0  0.37362940018E+02 -0.21763277201E+02 -0.47880643723E+01  0.43503506545E+02  0.00000000000E+00 0. -1.
</event>
<event>
 7    1  0.4331547E-015  0.9000773E+02  0.7816164E-02  0.1186339E+00
        -11   -1    0    0    0    0  0.00000000000E+00  0.00000000000E+00  0.45593999997E+02  0.45594000000E+02  0.51100000000E-03 0. -1.
         11   -1    0    0    0    0 -0.00000000000E+00 -0.00000000000E+00 -0.45593999997E+02  0.45594000000E+02  0.51100000000E-03 0.  1.
    9900012    2    1    2    0    0  0.10927872758E+01 -0.43460049941E+00  0.99823173883E-01  0.90007734653E+02  0.89999995950E+02 0.  0.
         12    1    1    2    0    0 -0.10927872758E+01  0.43460049941E+00 -0.99823173883E-01  0.11802653474E+01  0.00000000000E+00 0. -1.
         11    1    3    3    0    0 -0.23313469045E+01 -0.11115657356E+02  0.31604102883E+01  0.11789029234E+02  0.51100000000E-03 0. -1.
        -11    1    3    3    0    0 -0.34126362583E+02  0.95510178151E+01 -0.15452496647E+02  0.38660189050E+02  0.51100000000E-03 0.  1.
         12    1    3    3    0    0  0.37550496764E+02  0.11300390412E+01  0.12391909532E+02  0.39558516369E+02  0.00000000000E+00 0. -1.
</event>
<event>
 7    1  0.4331547E-015  0.9000773E+02  0.7816164E-02  0.1186339E+00
        -11   -1    0    0    0    0  0.00000000000E+00  0.00000000000E+00  0.45593999997E+02  0.45594000000E+02  0.51100000000E-03 0. -1.
         11   -1    0    0    0    0 -0.00000000000E+00 -0.00000000000E+00 -0.45593999997E+02  0.45594000000E+02  0.51100000000E-03 0.  1.
    9900012    2    1    2    0    0  0.47609747335E+00  0.10733181870E+01 -0.11981178372E+00  0.90007730709E+02  0.89999991955E+02 0.  0.
         12    1    1    2    0    0 -0.47609747335E+00 -0.10733181870E+01  0.11981178372E+00  0.11802692905E+01  0.00000000000E+00 0. -1.
         11    1    3    3    0    0  0.58408393680E+01  0.28515048023E+02 -0.13815557157E+02  0.32219450462E+02  0.51100000000E-03 0. -1.
        -11    1    3    3    0    0  0.19345177522E+02 -0.11669463944E+01  0.51632319430E+00  0.19387218655E+02  0.51100000000E-03 0.  1.
        -12    1    3    3    0    0 -0.24709919417E+02 -0.26274783441E+02  0.13179422179E+02  0.38401061593E+02  0.00000000000E+00 0.  1.
</event>
<event>
 7    1  0.4331547E-015  0.9000768E+02  0.7816164E-02  0.1186339E+00
        -11   -1    0    0    0    0  0.00000000000E+00  0.00000000000E+00  0.45593999997E+02  0.45594000000E+02  0.51100000000E-03 0.  1.
         11   -1    0    0    0    0 -0.00000000000E+00 -0.00000000000E+00 -0.45593999997E+02  0.45594000000E+02  0.51100000000E-03 0. -1.
    9900012    2    1    2    0    0 -0.73455884379E+00  0.18271347659E+00  0.90564188228E+00  0.90007683039E+02  0.89999943655E+02 0.  0.
         12    1    1    2    0    0  0.73455884379E+00 -0.18271347659E+00 -0.90564188228E+00  0.11803169610E+01  0.00000000000E+00 0. -1.
         11    1    3    3    0    0  0.18279455594E+02  0.39242740855E+02  0.14932266876E+01  0.43316982037E+02  0.51100000000E-03 0. -1.
        -11    1    3    3    0    0 -0.12306374386E+02 -0.81369717138E+01  0.22405825240E+01  0.14922378145E+02  0.51100000000E-03 0.  1.
        -12    1    3    3    0    0 -0.67076400511E+01 -0.30923055664E+02 -0.28281673293E+01  0.31768322857E+02  0.00000000000E+00 0.  1.
</event>
<event>
 7    1  0.4331547E-015  0.9000778E+02  0.7816164E-02  0.1186339E+00
        -11   -1    0    0    0    0  0.00000000000E+00  0.00000000000E+00  0.45593999997E+02  0.45594000000E+02  0.51100000000E-03 0. -1.
         11   -1    0    0    0    0 -0.00000000000E+00 -0.00000000000E+00 -0.45593999997E+02  0.45594000000E+02  0.51100000000E-03 0.  1.
    9900012    2    1    2    0    0 -0.10764359039E+01  0.45431852457E+00  0.16673324915E+00  0.90007779871E+02  0.90000041765E+02 0.  0.
         12    1    1    2    0    0  0.10764359039E+01 -0.45431852457E+00 -0.16673324915E+00  0.11802201292E+01  0.00000000000E+00 0. -1.
         11    1    3    3    0    0  0.47835730008E+01 -0.58636917181E+01 -0.16066076523E+01  0.77360609892E+01  0.51100000000E-03 0. -1.
        -11    1    3    3    0    0  0.13623964236E+02 -0.19154704539E+02 -0.29336395944E+02  0.37591744236E+02  0.51100000000E-03 0.  1.
         12    1    3    3    0    0 -0.19483973141E+02  0.25472714782E+02  0.31109736845E+02  0.44679974645E+02  0.00000000000E+00 0. -1.
</event>
<event>
 7    1  0.4331547E-015  0.9000774E+02  0.7816164E-02  0.1186339E+00
        -11   -1    0    0    0    0  0.00000000000E+00  0.00000000000E+00  0.45593999997E+02  0.45594000000E+02  0.51100000000E-03 0. -1.
         11   -1    0    0    0    0 -0.00000000000E+00 -0.00000000000E+00 -0.45593999997E+02  0.45594000000E+02  0.51100000000E-03 0.  1.
    9900012    2    1    2    0    0  0.10011920899E+01 -0.61665926030E+00 -0.10183831565E+00  0.90007735078E+02  0.89999996381E+02 0.  0.
         12    1    1    2    0    0 -0.10011920899E+01  0.61665926030E+00  0.10183831565E+00  0.11802649222E+01  0.00000000000E+00 0. -1.
         11    1    3    3    0    0  0.61758733730E+00 -0.10093172542E+02 -0.22436814965E+01  0.10357975333E+02  0.51100000000E-03 0. -1.
        -11    1    3    3    0    0 -0.64575366903E+01 -0.31832002266E+02  0.15100713813E+02  0.35819096950E+02  0.51100000000E-03 0.  1.
         12    1    3    3    0    0  0.68411414428E+01  0.41308515548E+02 -0.12958870632E+02  0.43830662795E+02  0.00000000000E+00 0. -1.
</event>
<event>
 7    1  0.4331547E-015  0.9000773E+02  0.7816164E-02  0.1186339E+00
        -11   -1    0    0    0    0  0.00000000000E+00  0.00000000000E+00  0.45593999997E+02  0.45594000000E+02  0.51100000000E-03 0.  1.
         11   -1    0    0    0    0 -0.00000000000E+00 -0.00000000000E+00 -0.45593999997E+02  0.45594000000E+02  0.51100000000E-03 0. -1.
    9900012    2    1    2    0    0  0.10076723771E+01 -0.60392595488E+00  0.11365327077E+00  0.90007725776E+02  0.89999986956E+02 0.  0.
         12    1    1    2    0    0 -0.10076723771E+01  0.60392595488E+00 -0.11365327077E+00  0.11802742243E+01  0.00000000000E+00 0. -1.
         11    1    3    3    0    0  0.81257841870E+01  0.38122776011E+02 -0.50474167127E+01  0.39304590510E+02  0.51100000000E-03 0. -1.
        -11    1    3    3    0    0  0.13045001829E+01  0.12136712310E+01  0.94896510735E+01  0.96554749413E+01  0.51100000000E-03 0.  1.
        -12    1    3    3    0    0 -0.84226119928E+01 -0.39940373197E+02 -0.43285810900E+01  0.41047660324E+02  0.00000000000E+00 0.  1.
</event>
<event>
 7    1  0.4331547E-015  0.9000775E+02  0.7816164E-02  0.1186339E+00
        -11   -1    0    0    0    0  0.00000000000E+00  0.00000000000E+00  0.45593999997E+02  0.45594000000E+02  0.51100000000E-03 0.  1.
         11   -1    0    0    0    0 -0.00000000000E+00 -0.00000000000E+00 -0.45593999997E+02  0.45594000000E+02  0.51100000000E-03 0. -1.
    9900012    2    1    2    0    0 -0.88464669732E+00  0.16954767702E+00  0.76266221952E+00  0.90007745852E+02  0.90000007297E+02 0.  0.
         12    1    1    2    0    0  0.88464669732E+00 -0.16954767702E+00 -0.76266221952E+00  0.11802541485E+01  0.00000000000E+00 0. -1.
         11    1    3    3    0    0 -0.40174231196E+00 -0.20564152103E+02 -0.32589114737E+02  0.38536945237E+02  0.51100000000E-03 0. -1.
        -11    1    3    3    0    0 -0.77668653483E+01 -0.35057738743E+01 -0.12369173536E+01  0.86107266010E+01  0.51100000000E-03 0.  1.
        -12    1    3    3    0    0  0.72839609629E+01  0.24239473654E+02  0.34588694310E+02  0.42860074013E+02  0.00000000000E+00 0.  1.
</event>
<event>
 7    1  0.4331547E-015  0.9000772E+02  0.7816164E-02  0.1186339E+00
        -11   -1    0    0    0    0  0.00000000000E+00  0.00000000000E+00  0.45593999997E+02  0.45594000000E+02  0.51100000000E-03 0.  1.
         11   -1    0    0    0    0 -0.00000000000E+00 -0.00000000000E+00 -0.45593999997E+02  0.45594000000E+02  0.51100000000E-03 0. -1.
    9900012    2    1    2    0    0 -0.10030874115E+00 -0.83476388523E+00  0.82835386737E+00  0.90007719221E+02  0.89999980315E+02 0.  0.
         12    1    1    2    0    0  0.10030874115E+00  0.83476388523E+00 -0.82835386737E+00  0.11802807790E+01  0.00000000000E+00 0. -1.
         11    1    3    3    0    0  0.15865887659E+02  0.30070118751E+02 -0.12042862973E+02  0.36068947611E+02  0.51100000000E-03 0. -1.
        -11    1    3    3    0    0  0.95005479561E+01  0.21610821255E+01 -0.13713989136E+01  0.98392795803E+01  0.51100000000E-03 0.  1.
        -12    1    3    3    0    0 -0.25466744356E+02 -0.33065964762E+02  0.14242615754E+02  0.44099492030E+02  0.00000000000E+00 0.  1.
</event>
<event>
 7    1  0.4331547E-015  0.9000762E+02  0.7816164E-02  0.1186339E+00
        -11   -1    0    0    0    0  0.00000000000E+00  0.00000000000E+00  0.45593999997E+02  0.45594000000E+02  0.51100000000E-03 0.  1.
         11   -1    0    0    0    0 -0.00000000000E+00 -0.00000000000E+00 -0.45593999997E+02  0.45594000000E+02  0.51100000000E-03 0. -1.
    9900012    2    1    2    0    0  0.17173872221E+00  0.19991742797E+00  0.11505764040E+01  0.90007624116E+02  0.89999883954E+02 0.  0.
         12    1    1    2    0    0 -0.17173872221E+00 -0.19991742797E+00 -0.11505764040E+01  0.11803758843E+01  0.00000000000E+00 0. -1.
         11    1    3    3    0    0 -0.80780939123E+01  0.32576678021E+02 -0.22606860116E+02  0.40466846636E+02  0.51100000000E-03 0. -1.
        -11    1    3    3    0    0  0.73823283193E+01  0.26117661996E+01  0.12520502060E+01  0.79301780607E+01  0.51100000000E-03 0.  1.
        -12    1    3    3    0    0  0.86750431521E+00 -0.34988526792E+02  0.22505386314E+02  0.41610599419E+02  0.00000000000E+00 0.  1.
</event>
<event>
 7    1  0.4331547E-015  0.9000762E+02  0.7816164E-02  0.1186339E+00
        -11   -1    0    0    0    0  0.00000000000E+00  0.00000000000E+00  0.45593999997E+02  0.45594000000E+02  0.51100000000E-03 0.  1.
         11   -1    0    0    0    0 -0.00000000000E+00 -0.00000000000E+00 -0.45593999997E+02  0.45594000000E+02  0.51100000000E-03 0. -1.
    9900012    2    1    2    0    0 -0.89496838377E+00 -0.75416282293E+00  0.15350482319E+00  0.90007621373E+02  0.89999881175E+02 0.  0.
         12    1    1    2    0    0  0.89496838377E+00  0.75416282293E+00 -0.15350482319E+00  0.11803786266E+01  0.00000000000E+00 0. -1.
         11    1    3    3    0    0  0.23845790885E+02  0.18667979916E+02 -0.24214753405E+02  0.38774598642E+02  0.51100000000E-03 0. -1.
        -11    1    3    3    0    0  0.15841883694E+01 -0.68826759900E+01 -0.59011711929E+01  0.92035158109E+01  0.51100000000E-03 0.  1.
        -12    1    3    3    0    0 -0.26324947638E+02 -0.12539466749E+02  0.30269429422E+02  0.42029506921E+02  0.00000000000E+00 0.  1.
</event>
<event>
 7    1  0.4331547E-015  0.9000793E+02  0.7816164E-02  0.1186339E+00
        -11   -1    0    0    0    0  0.00000000000E+00  0.00000000000E+00  0.45593999997E+02  0.45594000000E+02  0.51100000000E-03 0.  1.
         11   -1    0    0    0    0 -0.00000000000E+00 -0.00000000000E+00 -0.45593999997E+02  0.45594000000E+02  0.51100000000E-03 0. -1.
    9900012    2    1    2    0    0  0.36697698657E+00  0.84883922587E+00 -0.73305114548E+00  0.90007930459E+02  0.90000194341E+02 0.  0.
         12    1    1    2    0    0 -0.36697698657E+00 -0.84883922587E+00  0.73305114548E+00  0.11800695412E+01  0.00000000000E+00 0. -1.
         11    1    3    3    0    0  0.27562542226E+02 -0.14607795668E+02 -0.17578688604E+02  0.35806308404E+02  0.51100000000E-03 0. -1.
        -11    1    3    3    0    0  0.30600478571E+01 -0.62140299022E+01 -0.71227267381E+01  0.99353559050E+01  0.51100000000E-03 0.  1.
        -12    1    3    3    0    0 -0.30255613097E+02  0.21670664796E+02  0.23968364196E+02  0.44266266149E+02  0.00000000000E+00 0.  1.
</event>
<event>
 7    1  0.4331547E-015  0.9000771E+02  0.7816164E-02  0.1186339E+00
        -11   -1    0    0    0    0  0.00000000000E+00  0.00000000000E+00  0.45593999997E+02  0.45594000000E+02  0.51100000000E-03 0. -1.
         11   -1    0    0    0    0 -0.00000000000E+00 -0.00000000000E+00 -0.45593999997E+02  0.45594000000E+02  0.51100000000E-03 0.  1.
    9900012    2    1    2    0    0 -0.65248342092E+00  0.60784767209E+00 -0.77321668052E+00  0.90007712983E+02  0.89999973995E+02 0.  0.
         12    1    1    2    0    0  0.65248342092E+00 -0.60784767209E+00  0.77321668052E+00  0.11802870168E+01  0.00000000000E+00 0. -1.
         11    1    3    3    0    0  0.36218599494E+02  0.24826138640E+01  0.39852732483E+01  0.36521674715E+02  0.51100000000E-03 0. -1.
        -11    1    3    3    0    0  0.61702893619E+01  0.14274961318E+01  0.62906951938E+01  0.89265369712E+01  0.51100000000E-03 0.  1.
        -12    1    3    3    0    0 -0.43041372277E+02 -0.33022623237E+01 -0.11049185123E+02  0.44559501296E+02  0.00000000000E+00 0.  1.
</event>
<event>
 7    1  0.4331547E-015  0.9000772E+02  0.7816164E-02  0.1186339E+00
        -11   -1    0    0    0    0  0.00000000000E+00  0.00000000000E+00  0.45593999997E+02  0.45594000000E+02  0.51100000000E-03 0.  1.
         11   -1    0    0    0    0 -0.00000000000E+00 -0.00000000000E+00 -0.45593999997E+02  0.45594000000E+02  0.51100000000E-03 0. -1.
    9900012    2    1    2    0    0  0.23053778445E+00 -0.43123975284E+00  0.10742191922E+01  0.90007719412E+02  0.89999980508E+02 0.  0.
         12    1    1    2    0    0 -0.23053778445E+00  0.43123975284E+00 -0.10742191922E+01  0.11802805884E+01  0.00000000000E+00 0. -1.
         11    1    3    3    0    0  0.10390596872E+02 -0.37159040673E+01 -0.85324102739E+01  0.13948995366E+02  0.51100000000E-03 0. -1.
        -11    1    3    3    0    0 -0.31139510536E+02 -0.25202001697E+02  0.44481641892E+01  0.40306279547E+02  0.51100000000E-03 0.  1.
         12    1    3    3    0    0  0.20979451449E+02  0.28486666012E+02  0.51584652769E+01  0.35752444498E+02  0.00000000000E+00 0. -1.
</event>
<event>
 7    1  0.4331547E-015  0.9000780E+02  0.7816164E-02  0.1186339E+00
        -11   -1    0    0    0    0  0.00000000000E+00  0.00000000000E+00  0.45593999997E+02  0.45594000000E+02  0.51100000000E-03 0.  1.
         11   -1    0    0    0    0 -0.00000000000E+00 -0.00000000000E+00 -0.45593999997E+02  0.45594000000E+02  0.51100000000E-03 0. -1.
    9900012    2    1    2    0    0  0.10640056730E+01 -0.38087641280E+00 -0.34014170891E+00  0.90007800315E+02  0.90000062479E+02 0.  0.
         12    1    1    2    0    0 -0.10640056730E+01  0.38087641280E+00  0.34014170891E+00  0.11801996848E+01  0.00000000000E+00 0. -1.
         11    1    3    3    0    0  0.35296959085E+02 -0.10313434520E+02  0.22683076903E+02  0.43206067054E+02  0.51100000000E-03 0. -1.
        -11    1    3    3    0    0 -0.36866611407E+01 -0.46716452779E+01 -0.74469598478E+01  0.95327305219E+01  0.51100000000E-03 0.  1.
        -12    1    3    3    0    0 -0.30546292271E+02  0.14604203385E+02 -0.15576258765E+02  0.37269002739E+02  0.00000000000E+00 0.  1.
</event>
<event>
 7    1  0.4331547E-015  0.9000772E+02  0.7816164E-02  0.1186339E+00
        -11   -1    0    0    0    0  0.00000000000E+00  0.00000000000E+00  0.45593999997E+02  0.45594000000E+02  0.51100000000E-03 0.  1.
         11   -1    0    0    0    0 -0.00000000000E+00 -0.00000000000E+00 -0.45593999997E+02  0.45594000000E+02  0.51100000000E-03 0. -1.
    9900012    2    1    2    0    0  0.10697095567E+01 -0.47982634976E+00 -0.13615687050E+00  0.90007724373E+02  0.89999985535E+02 0.  0.
         12    1    1    2    0    0 -0.10697095567E+01  0.47982634976E+00  0.13615687050E+00  0.11802756267E+01  0.00000000000E+00 0. -1.
         11    1    3    3    0    0 -0.13203782277E+01  0.53424711220E+01 -0.82037617569E+01  0.98786185055E+01  0.51100000000E-03 0. -1.
        -11    1    3    3    0    0  0.19085176367E+02  0.25451995770E+02  0.25361097717E+02  0.40684558782E+02  0.51100000000E-03 0.  1.
         12    1    3    3    0    0 -0.16695088583E+02 -0.31274293242E+02 -0.17293492830E+02  0.39444547086E+02  0.00000000000E+00 0. -1.
</event>
<event>
 7    1  0.4331547E-015  0.9000780E+02  0.7816164E-02  0.1186339E+00
        -11   -1    0    0    0    0  0.00000000000E+00  0.00000000000E+00  0.45593999997E+02  0.45594000000E+02  0.51100000000E-03 0.  1.
         11   -1    0    0    0    0 -0.00000000000E+00 -0.00000000000E+00 -0.45593999997E+02  0.45594000000E+02  0.51100000000E-03 0. -1.
    9900012    2    1    2    0    0 -0.36759097762E+00  0.41924353863E+00  0.10401883586E+01  0.90007796588E+02  0.90000058703E+02 0.  0.
         12    1    1    2    0    0  0.36759097762E+00 -0.41924353863E+00 -0.10401883586E+01  0.11802034117E+01  0.00000000000E+00 0. -1.
         11    1    3    3    0    0  0.20151947069E+01 -0.46743759755E+01  0.94458297704E+01  0.10730074593E+02  0.51100000000E-03 0. -1.
        -11    1    3    3    0    0 -0.15603683286E+02  0.18143712604E+02  0.28948612940E+02  0.37559172389E+02  0.51100000000E-03 0.  1.
         12    1    3    3    0    0  0.13220897601E+02 -0.13050093090E+02 -0.37354254352E+02  0.41718549606E+02  0.00000000000E+00 0. -1.
</event>
<event>
 7    1  0.4331547E-015  0.9000859E+02  0.7816164E-02  0.1186337E+00
        -11   -1    0    0    0    0  0.00000000000E+00  0.00000000000E+00  0.45593999997E+02  0.45594000000E+02  0.51100000000E-03 0.  1.
         11   -1    0    0    0    0 -0.00000000000E+00 -0.00000000000E+00 -0.45593999997E+02  0.45594000000E+02  0.51100000000E-03 0. -1.
    9900012    2    1    2    0    0 -0.10787905761E+01  0.36506430655E-01 -0.47526694510E+00  0.90008593159E+02  0.90000865785E+02 0.  0.
         12    1    1    2    0    0  0.10787905761E+01 -0.36506430655E-01  0.47526694510E+00  0.11794068406E+01  0.00000000000E+00 0. -1.
         11    1    3    3    0    0 -0.14462017673E+01  0.17350070960E+01 -0.35858381491E+01  0.42379222111E+01  0.51100000000E-03 0. -1.
        -11    1    3    3    0    0 -0.32999867950E+02 -0.12410969624E+02  0.26093198197E+02  0.43862038759E+02  0.51100000000E-03 0.  1.
         12    1    3    3    0    0  0.33367279141E+02  0.10712468958E+02 -0.22982626993E+02  0.41908632189E+02  0.00000000000E+00 0. -1.
</event>
<event>
 7    1  0.6054966E-015  0.9000775E+02  0.7816164E-02  0.1186339E+00
        -11   -1    0    0    0    0  0.00000000000E+00  0.00000000000E+00  0.45593999997E+02  0.45594000000E+02  0.51100000000E-03 0. -1.
         11   -1    0    0    0    0 -0.00000000000E+00 -0.00000000000E+00 -0.45593999997E+02  0.45594000000E+02  0.51100000000E-03 0.  1.
    9900012    2    1    2    0    0  0.34745446733E+00 -0.11402316604E+00 -0.11221657404E+01  0.90007753484E+02  0.90000015030E+02 0.  0.
         12    1    1    2    0    0 -0.34745446733E+00  0.11402316604E+00  0.11221657404E+01  0.11802465158E+01  0.00000000000E+00 0. -1.
         11    1    3    3    0    0 -0.45566342544E+01  0.76587442572E+01  0.51182152249E-01  0.89118964985E+01  0.51100000000E-03 0. -1.
        -11    1    3    3    0    0  0.32419210998E+02  0.22000102644E+02 -0.79926287227E+01  0.39986146004E+02  0.51100000000E-03 0.  1.
         12    1    3    3    0    0 -0.27515122277E+02 -0.29772870067E+02  0.68192808300E+01  0.41109710982E+02  0.00000000000E+00 0. -1.
</event>
<event>
 7    1  0.4331547E-015  0.9000779E+02  0.7816164E-02  0.1186339E+00
        -11   -1    0    0    0    0  0.00000000000E+00  0.00000000000E+00  0.45593999997E+02  0.45594000000E+02  0.51100000000E-03 0. -1.
         11   -1    0    0    0    0 -0.00000000000E+00 -0.00000000000E+00 -0.45593999997E+02  0.45594000000E+02  0.51100000000E-03 0.  1.
    9900012    2    1    2    0    0  0.47521126048E-01  0.97820153027E+00  0.65861170778E+00  0.90007785667E+02  0.90000047637E+02 0.  0.
         12    1    1    2    0    0 -0.47521126048E-01 -0.97820153027E+00 -0.65861170778E+00  0.11802143334E+01  0.00000000000E+00 0. -1.
         11    1    3    3    0    0  0.92318121243E+01  0.20228133055E+01 -0.10468363319E+01  0.95086274159E+01  0.51100000000E-03 0. -1.
        -11    1    3    3    0    0  0.16655531459E+02  0.31154331378E+02  0.13088068761E+02  0.37673553535E+02  0.51100000000E-03 0.  1.
         12    1    3    3    0    0 -0.25839822458E+02 -0.32198943153E+02 -0.11382620722E+02  0.42825604716E+02  0.00000000000E+00 0. -1.
</event>
<event>
 7    1  0.4331547E-015  0.9000767E+02  0.7816164E-02  0.1186339E+00
        -11   -1    0    0    0    0  0.00000000000E+00  0.00000000000E+00  0.45593999997E+02  0.45594000000E+02  0.51100000000E-03 0.  1.
         11   -1    0    0    0    0 -0.00000000000E+00 -0.00000000000E+00 -0.45593999997E+02  0.45594000000E+02  0.51100000000E-03 0. -1.
    9900012    2    1    2    0    0 -0.69300368590E+00  0.95220938956E+00  0.78885772805E-01  0.90007669624E+02  0.89999930063E+02 0.  0.
         12    1    1    2    0    0  0.69300368590E+00 -0.95220938956E+00 -0.78885772805E-01  0.11803303755E+01  0.00000000000E+00 0. -1.
         11    1    3    3    0    0 -0.43281788659E+01 -0.69029933824E+01 -0.54672093455E+01  0.98119737169E+01  0.51100000000E-03 0. -1.
        -11    1    3    3    0    0 -0.21710861912E+02 -0.14015178074E+02  0.29359841204E+02  0.39112491830E+02  0.51100000000E-03 0.  1.
         12    1    3    3    0    0  0.25346037092E+02  0.21870380846E+02 -0.23813746086E+02  0.41083204077E+02  0.00000000000E+00 0. -1.
</event>
<event>
 7    1  0.4331547E-015  0.9000767E+02  0.7816164E-02  0.1186339E+00
        -11   -1    0    0    0    0  0.00000000000E+00  0.00000000000E+00  0.45593999997E+02  0.45594000000E+02  0.51100000000E-03 0. -1.
         11   -1    0    0    0    0 -0.00000000000E+00 -0.00000000000E+00 -0.45593999997E+02  0.45594000000E+02  0.51100000000E-03 0.  1.
    9900012    2    1    2    0    0  0.65717537950E+00  0.84649304425E+00 -0.49472062345E+00  0.90007670195E+02  0.89999930642E+02 0.  0.
         12    1    1    2    0    0 -0.65717537950E+00 -0.84649304425E+00  0.49472062345E+00  0.11803298050E+01  0.00000000000E+00 0. -1.
         11    1    3    3    0    0  0.23419311164E+02  0.11420009589E+02  0.25560259438E+02  0.36499419409E+02  0.51100000000E-03 0. -1.
        -11    1    3    3    0    0  0.79631248384E+01  0.54153445619E+01  0.82477255997E+00  0.96652761964E+01  0.51100000000E-03 0.  1.
        -12    1    3    3    0    0 -0.30725260623E+02 -0.15988861107E+02 -0.26879752621E+02  0.43842974589E+02  0.00000000000E+00 0.  1.
</event>
<event>
 7    1  0.4331547E-015  0.9000775E+02  0.7816164E-02  0.1186339E+00
        -11   -1    0    0    0    0  0.00000000000E+00  0.00000000000E+00  0.45593999997E+02  0.45594000000E+02  0.51100000000E-03 0.  1.
         11   -1    0    0    0    0 -0.00000000000E+00 -0.00000000000E+00 -0.45593999997E+02  0.45594000000E+02  0.51100000000E-03 0. -1.
    9900012    2    1    2    0    0 -0.10189088853E+00  0.73888147909E+00  0.91469098170E+00  0.90007751219E+02  0.90000012735E+02 0.  0.
         12    1    1    2    0    0  0.10189088853E+00 -0.73888147909E+00 -0.91469098170E+00  0.11802487811E+01  0.00000000000E+00 0. -1.
         11    1    3    3    0    0 -0.19721371525E+02  0.23627953486E+02  0.11546395245E+02  0.32871445423E+02  0.51100000000E-03 0. -1.
        -11    1    3    3    0    0 -0.14894249860E+02 -0.31702603344E+00 -0.26476640783E+01  0.15131071004E+02  0.51100000000E-03 0.  1.
        -12    1    3    3    0    0  0.34513730497E+02 -0.22572045973E+02 -0.79840401852E+01  0.42005234792E+02  0.00000000000E+00 0.  1.
</event>
<event>
 7    1  0.4331547E-015  0.9000771E+02  0.7816164E-02  0.1186339E+00
        -11   -1    0    0    0    0  0.00000000000E+00  0.00000000000E+00  0.45593999997E+02  0.45594000000E+02  0.51100000000E-03 0. -1.
         11   -1    0    0    0    0 -0.00000000000E+00 -0.00000000000E+00 -0.45593999997E+02  0.45594000000E+02  0.51100000000E-03 0.  1.
    9900012    2    1    2    0    0  0.56652319146E+00  0.49151404444E+00 -0.91134262990E+00  0.90007711912E+02  0.89999972909E+02 0.  0.
         12    1    1    2    0    0 -0.56652319146E+00 -0.49151404444E+00  0.91134262990E+00  0.11802880883E+01  0.00000000000E+00 0. -1.
         11    1    3    3    0    0 -0.29243527192E+02  0.10067126721E+02 -0.27179573417E+02  0.41173536822E+02  0.51100000000E-03 0. -1.
        -11    1    3    3    0    0 -0.68071949638E+00  0.60567410722E+01  0.78337104121E+01  0.99254476237E+01  0.51100000000E-03 0.  1.
        -12    1    3    3    0    0  0.30490769880E+02 -0.15632353749E+02  0.18434520375E+02  0.38908727466E+02  0.00000000000E+00 0.  1.
</event>
<event>
 7    1  0.4331547E-015  0.9000776E+02  0.7816164E-02  0.1186339E+00
        -11   -1    0    0    0    0  0.00000000000E+00  0.00000000000E+00  0.45593999997E+02  0.45594000000E+02  0.51100000000E-03 0.  1.
         11   -1    0    0    0    0 -0.00000000000E+00 -0.00000000000E+00 -0.45593999997E+02  0.45594000000E+02  0.51100000000E-03 0. -1.
    9900012    2    1    2    0    0 -0.22666691683E+00 -0.46029762118E-02  0.11582616442E+01  0.90007758874E+02  0.90000020491E+02 0.  0.
         12    1    1    2    0    0  0.22666691683E+00  0.46029762118E-02 -0.11582616442E+01  0.11802411258E+01  0.00000000000E+00 0. -1.
         11    1    3    3    0    0  0.38602735418E+01  0.80248718564E+01 -0.20656720765E+01  0.91415141808E+01  0.51100000000E-03 0. -1.
        -11    1    3    3    0    0 -0.10759475212E+02  0.33967777177E+02 -0.87476578005E+01  0.36689204277E+02  0.51100000000E-03 0.  1.
         12    1    3    3    0    0  0.66725347531E+01 -0.41997252010E+02  0.11971591521E+02  0.44177040417E+02  0.00000000000E+00 0. -1.
</event>
<event>
 7    1  0.4331547E-015  0.9000776E+02  0.7816164E-02  0.1186339E+00
        -11   -1    0    0    0    0  0.00000000000E+00  0.00000000000E+00  0.45593999997E+02  0.45594000000E+02  0.51100000000E-03 0.  1.
         11   -1    0    0    0    0 -0.00000000000E+00 -0.00000000000E+00 -0.45593999997E+02  0.45594000000E+02  0.51100000000E-03 0. -1.
    9900012    2    1    2    0    0 -0.97451617719E+00 -0.46280031476E+00 -0.47864620966E+00  0.90007759302E+02  0.90000020925E+02 0.  0.
         12    1    1    2    0    0  0.97451617719E+00  0.46280031476E+00  0.47864620966E+00  0.11802406979E+01  0.00000000000E+00 0. -1.
         11    1    3    3    0    0  0.28599441384E+02  0.77531838930E+01  0.31074276191E+02  0.42937752025E+02  0.51100000000E-03 0. -1.
        -11    1    3    3    0    0 -0.75540294721E+01  0.17139274566E+01 -0.54680118349E+00  0.77653010494E+01  0.51100000000E-03 0.  1.
        -12    1    3    3    0    0 -0.22019928089E+02 -0.99299116643E+01 -0.31006121217E+02  0.39304706227E+02  0.00000000000E+00 0.  1.
</event>
<event>
 7    1  0.4331547E-015  0.9000775E+02  0.7816164E-02  0.1186339E+00
        -11   -1    0    0    0    0  0.00000000000E+00  0.00000000000E+00  0.45593999997E+02  0.45594000000E+02  0.51100000000E-03 0.  1.
         11   -1    0    0    0    0 -0.00000000000E+00 -0.00000000000E+00 -0.45593999997E+02  0.45594000000E+02  0.51100000000E-03 0. -1.
    9900012    2    1    2    0    0 -0.34016365062E+00  0.67341308702E+00  0.90763608820E+00  0.90007745890E+02  0.90000007336E+02 0.  0.
         12    1    1    2    0    0  0.34016365062E+00 -0.67341308702E+00 -0.90763608820E+00  0.11802541098E+01  0.00000000000E+00 0. -1.
         11    1    3    3    0    0 -0.72757588109E+01  0.46535227158E+01  0.18039129758E+01  0.88230404184E+01  0.51100000000E-03 0. -1.
        -11    1    3    3    0    0  0.40139545250E+01  0.34864001524E+02 -0.17046906903E+02  0.39015477293E+02  0.51100000000E-03 0.  1.
         12    1    3    3    0    0  0.29216406353E+01 -0.38844111153E+02  0.16150630015E+02  0.42169228178E+02  0.00000000000E+00 0. -1.
</event>
<event>
 7    1  0.4331547E-015  0.9000886E+02  0.7816164E-02  0.1186337E+00
        -11   -1    0    0    0    0  0.00000000000E+00  0.00000000000E+00  0.45593999997E+02  0.45594000000E+02  0.51100000000E-03 0.  1.
         11   -1    0    0    0    0 -0.00000000000E+00 -0.00000000000E+00 -0.45593999997E+02  0.45594000000E+02  0.51100000000E-03 0. -1.
    9900012    2    1    2    0    0 -0.18391576039E+00  0.11633203016E+01  0.56929363409E-01  0.90008856207E+02  0.90001132302E+02 0.  0.
         12    1    1    2    0    0  0.18391576039E+00 -0.11633203016E+01 -0.56929363409E-01  0.11791437925E+01  0.00000000000E+00 0. -1.
         11    1    3    3    0    0 -0.22949451953E+01 -0.25255482144E+02 -0.30028178591E+02  0.39303914074E+02  0.51100000000E-03 0. -1.
        -11    1    3    3    0    0 -0.62701738431E+01 -0.48048922451E+01  0.27372593239E+01  0.83603025290E+01  0.51100000000E-03 0.  1.
        -12    1    3    3    0    0  0.83812032780E+01  0.31223694691E+02  0.27347848631E+02  0.42344639605E+02  0.00000000000E+00 0.  1.
</event>
<event>
 7    1  0.4331547E-015  0.9000766E+02  0.7816164E-02  0.1186339E+00
        -11   -1    0    0    0    0  0.00000000000E+00  0.00000000000E+00  0.45593999997E+02  0.45594000000E+02  0.51100000000E-03 0. -1.
         11   -1    0    0    0    0 -0.00000000000E+00 -0.00000000000E+00 -0.45593999997E+02  0.45594000000E+02  0.51100000000E-03 0.  1.
    9900012    2    1    2    0    0 -0.26635372364E+00  0.10725882602E+01 -0.41450816249E+00  0.90007658143E+02  0.89999918431E+02 0.  0.
         12    1    1    2    0    0  0.26635372364E+00 -0.10725882602E+01  0.41450816249E+00  0.11803418568E+01  0.00000000000E+00 0. -1.
         11    1    3    3    0    0 -0.32753901380E+02  0.14238571790E+02  0.13010132682E+02  0.38010768670E+02  0.51100000000E-03 0. -1.
        -11    1    3    3    0    0 -0.78962476401E+01 -0.23277127989E+01 -0.39174183560E+01  0.91167505452E+01  0.51100000000E-03 0.  1.
        -12    1    3    3    0    0  0.40383795297E+02 -0.10838270731E+02 -0.95072224886E+01  0.42880138928E+02  0.00000000000E+00 0.  1.
</event>
<event>
 7    1  0.4331547E-015  0.9000770E+02  0.7816164E-02  0.1186339E+00
        -11   -1    0    0    0    0  0.00000000000E+00  0.00000000000E+00  0.45593999997E+02  0.45594000000E+02  0.51100000000E-03 0. -1.
         11   -1    0    0    0    0 -0.00000000000E+00 -0.00000000000E+00 -0.45593999997E+02  0.45594000000E+02  0.51100000000E-03 0.  1.
    9900012    2    1    2    0    0  0.28278255863E+00 -0.36631180525E+00 -0.10858013593E+01  0.90007697113E+02  0.89999957914E+02 0.  0.
         12    1    1    2    0    0 -0.28278255863E+00  0.36631180525E+00  0.10858013593E+01  0.11803028874E+01  0.00000000000E+00 0. -1.
         11    1    3    3    0    0  0.37029378302E+01  0.33410370999E+01  0.54716901265E+01  0.74036255023E+01  0.51100000000E-03 0. -1.
        -11    1    3    3    0    0  0.14675478367E+02  0.35754480572E+02 -0.64949660346E+01  0.39191033800E+02  0.51100000000E-03 0.  1.
         12    1    3    3    0    0 -0.18095633639E+02 -0.39461829477E+02 -0.62525451210E-01  0.43413037810E+02  0.00000000000E+00 0. -1.
</event>
<event>
 7    1  0.4331547E-015  0.9000768E+02  0.7816164E-02  0.1186339E+00
        -11   -1    0    0    0    0  0.00000000000E+00  0.00000000000E+00  0.45593999997E+02  0.45594000000E+02  0.51100000000E-03 0. -1.
         11   -1    0    0    0    0 -0.00000000000E+00 -0.00000000000E+00 -0.45593999997E+02  0.45594000000E+02  0.51100000000E-03 0.  1.
    9900012    2    1    2    0    0 -0.98815208204E+00 -0.54578216044E+00 -0.34473376756E+00  0.90007676284E+02  0.89999936811E+02 0.  0.
         12    1    1    2    0    0  0.98815208204E+00  0.54578216044E+00  0.34473376756E+00  0.11803237159E+01  0.00000000000E+00 0. -1.
         11    1    3    3    0    0  0.24598529796E+02  0.61191325886E+01 -0.25224230053E+02  0.35760218593E+02  0.51100000000E-03 0. -1.
        -11    1    3    3    0    0  0.41157869367E+01 -0.95445652418E+01 -0.54179123594E+01  0.11721441991E+02  0.51100000000E-03 0.  1.
        -12    1    3    3    0    0 -0.29702468815E+02  0.28796504928E+01  0.30297408645E+02  0.42526015700E+02  0.00000000000E+00 0.  1.
</event>
<event>
 7    1  0.4331547E-015  0.9000700E+02  0.7816164E-02  0.1186341E+00
        -11   -1    0    0    0    0  0.00000000000E+00  0.00000000000E+00  0.45593999997E+02  0.45594000000E+02  0.51100000000E-03 0.  1.
         11   -1    0    0    0    0 -0.00000000000E+00 -0.00000000000E+00 -0.45593999997E+02  0.45594000000E+02  0.51100000000E-03 0. -1.
    9900012    2    1    2    0    0  0.12231662504E+00 -0.66991648211E+00  0.96488560153E+00  0.90007003102E+02  0.89999254740E+02 0.  0.
         12    1    1    2    0    0 -0.12231662504E+00  0.66991648211E+00 -0.96488560153E+00  0.11809968983E+01  0.00000000000E+00 0. -1.
         11    1    3    3    0    0  0.39570358929E+01  0.67139993128E-01 -0.88897122876E+01  0.97308594509E+01  0.51100000000E-03 0. -1.
        -11    1    3    3    0    0 -0.11948008691E+02  0.20243351073E+02  0.37731981214E+02  0.44455039994E+02  0.51100000000E-03 0.  1.
         12    1    3    3    0    0  0.81132894231E+01 -0.20980407548E+02 -0.27877383325E+02  0.35821103656E+02  0.00000000000E+00 0. -1.
</event>
<event>
 7    1  0.4331547E-015  0.9000777E+02  0.7816164E-02  0.1186339E+00
        -11   -1    0    0    0    0  0.00000000000E+00  0.00000000000E+00  0.45593999997E+02  0.45594000000E+02  0.51100000000E-03 0. -1.
         11   -1    0    0    0    0 -0.00000000000E+00 -0.00000000000E+00 -0.45593999997E+02  0.45594000000E+02  0.51100000000E-03 0.  1.
    9900012    2    1    2    0    0  0.52840576311E+00 -0.10553299064E+01 -0.38293259342E-03  0.90007773747E+02  0.90000035560E+02 0.  0.
         12    1    1    2    0    0 -0.52840576311E+00  0.10553299064E+01  0.38293259342E-03  0.11802262531E+01  0.00000000000E+00 0. -1.
         11    1    3    3    0    0  0.31610334289E+02 -0.81040770983E+01  0.16553412280E+02  0.36591047510E+02  0.51100000000E-03 0. -1.
        -11    1    3    3    0    0  0.94225522020E+01 -0.40810106744E+00 -0.14129844679E+01  0.95366431121E+01  0.51100000000E-03 0.  1.
        -12    1    3    3    0    0 -0.40504480728E+02  0.74568482593E+01 -0.15140810745E+02  0.43880083125E+02  0.00000000000E+00 0.  1.
</event>
<event>
 7    1  0.4331547E-015  0.9000781E+02  0.7816164E-02  0.1186339E+00
        -11   -1    0    0    0    0  0.00000000000E+00  0.00000000000E+00  0.45593999997E+02  0.45594000000E+02  0.51100000000E-03 0.  1.
         11   -1    0    0    0    0 -0.00000000000E+00 -0.00000000000E+00 -0.45593999997E+02  0.45594000000E+02  0.51100000000E-03 0. -1.
    9900012    2    1    2    0    0  0.43325144057E+00  0.24077900942E+00  0.10710587438E+01  0.90007810111E+02  0.90000072404E+02 0.  0.
         12    1    1    2    0    0 -0.43325144057E+00 -0.24077900942E+00 -0.10710587438E+01  0.11801898893E+01  0.00000000000E+00 0. -1.
         11    1    3    3    0    0  0.26198187473E+02 -0.26987605712E+02 -0.78029873364E+01  0.38413051175E+02  0.51100000000E-03 0. -1.
        -11    1    3    3    0    0  0.51440616760E+01  0.27407072568E+01 -0.69798629640E+01  0.90934775555E+01  0.51100000000E-03 0.  1.
        -12    1    3    3    0    0 -0.30908997709E+02  0.24487677465E+02  0.15853909044E+02  0.42501281380E+02  0.00000000000E+00 0.  1.
</event>
<event>
 7    1  0.4331547E-015  0.9000778E+02  0.7816164E-02  0.1186339E+00
        -11   -1    0    0    0    0  0.00000000000E+00  0.00000000000E+00  0.45593999997E+02  0.45594000000E+02  0.51100000000E-03 0. -1.
         11   -1    0    0    0    0 -0.00000000000E+00 -0.00000000000E+00 -0.45593999997E+02  0.45594000000E+02  0.51100000000E-03 0.  1.
    9900012    2    1    2    0    0 -0.88802987764E+00 -0.64920461521E+00 -0.42761180678E+00  0.90007781565E+02  0.90000043482E+02 0.  0.
         12    1    1    2    0    0  0.88802987764E+00  0.64920461521E+00  0.42761180678E+00  0.11802184346E+01  0.00000000000E+00 0. -1.
         11    1    3    3    0    0 -0.30214075392E+01 -0.36426420977E+00 -0.65168857930E+01  0.71924538672E+01  0.51100000000E-03 0. -1.
        -11    1    3    3    0    0 -0.20006498857E+02 -0.19196380276E+02 -0.27026333917E+02  0.38719294124E+02  0.51100000000E-03 0.  1.
         12    1    3    3    0    0  0.22139876518E+02  0.18911439871E+02  0.33115607903E+02  0.44096033574E+02  0.00000000000E+00 0. -1.
</event>
<event>
 7    1  0.4331547E-015  0.9000782E+02  0.7816164E-02  0.1186339E+00
        -11   -1    0    0    0    0  0.00000000000E+00  0.00000000000E+00  0.45593999997E+02  0.45594000000E+02  0.51100000000E-03 0.  1.
         11   -1    0    0    0    0 -0.00000000000E+00 -0.00000000000E+00 -0.45593999997E+02  0.45594000000E+02  0.51100000000E-03 0. -1.
    9900012    2    1    2    0    0 -0.16721579145E+00  0.15251057349E+00  0.11582773329E+01  0.90007819092E+02  0.90000081504E+02 0.  0.
         12    1    1    2    0    0  0.16721579145E+00 -0.15251057349E+00 -0.11582773329E+01  0.11801809081E+01  0.00000000000E+00 0. -1.
         11    1    3    3    0    0 -0.26325176054E+02 -0.21727138261E+02  0.20092736628E+02  0.39608098878E+02  0.51100000000E-03 0. -1.
        -11    1    3    3    0    0  0.74015190695E+01  0.66963784279E+00  0.82811040071E+01  0.11126885603E+02  0.51100000000E-03 0.  1.
        -12    1    3    3    0    0  0.18756441193E+02  0.21210010992E+02 -0.27215563303E+02  0.39272834611E+02  0.00000000000E+00 0.  1.
</event>
<event>
 7    1  0.4331547E-015  0.9000744E+02  0.7816164E-02  0.1186340E+00
        -11   -1    0    0    0    0  0.00000000000E+00  0.00000000000E+00  0.45593999997E+02  0.45594000000E+02  0.51100000000E-03 0. -1.
         11   -1    0    0    0    0 -0.00000000000E+00 -0.00000000000E+00 -0.45593999997E+02  0.45594000000E+02  0.51100000000E-03 0.  1.
    9900012    2    1    2    0    0  0.31407406367E+00  0.19991323385E+00 -0.11203230215E+01  0.90007435944E+02  0.89999693298E+02 0.  0.
         12    1    1    2    0    0 -0.31407406367E+00 -0.19991323385E+00  0.11203230215E+01  0.11805640563E+01  0.00000000000E+00 0. -1.
         11    1    3    3    0    0  0.47968175430E+01 -0.36316146260E+01  0.19440529714E+00  0.60196243249E+01  0.51100000000E-03 0. -1.
        -11    1    3    3    0    0  0.23689742432E+02 -0.36389208853E+01 -0.33097477709E+02  0.40864271346E+02  0.51100000000E-03 0.  1.
         12    1    3    3    0    0 -0.28172485911E+02  0.74704487452E+01  0.31782749390E+02  0.43123540273E+02  0.00000000000E+00 0. -1.
</event>
<event>
 7    1  0.4331547E-015  0.9000761E+02  0.7816164E-02  0.1186339E+00
        -11   -1    0    0    0    0  0.00000000000E+00  0.00000000000E+00  0.45593999997E+02  0.45594000000E+02  0.51100000000E-03 0.  1.
         11   -1    0    0    0    0 -0.00000000000E+00 -0.00000000000E+00 -0.45593999997E+02  0.45594000000E+02  0.51100000000E-03 0. -1.
    9900012    2    1    2    0    0 -0.57353083169E+00 -0.10279053708E+01  0.88302989770E-01  0.90007608334E+02  0.89999867964E+02 0.  0.
         12    1    1    2    0    0  0.57353083169E+00  0.10279053708E+01 -0.88302989770E-01  0.11803916656E+01  0.00000000000E+00 0. -1.
         11    1    3    3    0    0  0.61883607025E+01  0.89251477152E+01  0.99502043035E+01  0.14729583696E+02  0.51100000000E-03 0. -1.
        -11    1    3    3    0    0 -0.26413048200E+01 -0.29862966136E+01  0.32199261117E+02  0.32445136390E+02  0.51100000000E-03 0.  1.
         12    1    3    3    0    0 -0.41205867142E+01 -0.69667564723E+01 -0.42061162431E+02  0.42832888248E+02  0.00000000000E+00 0. -1.
</event>
<event>
 7    1  0.4331547E-015  0.9000773E+02  0.7816164E-02  0.1186339E+00
        -11   -1    0    0    0    0  0.00000000000E+00  0.00000000000E+00  0.45593999997E+02  0.45594000000E+02  0.51100000000E-03 0. -1.
         11   -1    0    0    0    0 -0.00000000000E+00 -0.00000000000E+00 -0.45593999997E+02  0.45594000000E+02  0.51100000000E-03 0.  1.
    9900012    2    1    2    0    0 -0.42425267455E+00 -0.96188614736E+00  0.53649352330E+00  0.90007728594E+02  0.89999989811E+02 0.  0.
         12    1    1    2    0    0  0.42425267455E+00  0.96188614736E+00 -0.53649352330E+00  0.11802714065E+01  0.00000000000E+00 0. -1.
         11    1    3    3    0    0 -0.34560788015E+02 -0.22838507148E+02  0.13418095939E+02  0.43544124470E+02  0.51100000000E-03 0. -1.
        -11    1    3    3    0    0  0.41946839493E+00  0.70632552461E+01 -0.53576040827E+01  0.88752155001E+01  0.51100000000E-03 0.  1.
        -12    1    3    3    0    0  0.33717066945E+02  0.14813365755E+02 -0.75239983325E+01  0.37588388623E+02  0.00000000000E+00 0.  1.
</event>
<event>
 7    1  0.4331547E-015  0.9000780E+02  0.7816164E-02  0.1186339E+00
        -11   -1    0    0    0    0  0.00000000000E+00  0.00000000000E+00  0.45593999997E+02  0.45594000000E+02  0.51100000000E-03 0.  1.
         11   -1    0    0    0    0 -0.00000000000E+00 -0.00000000000E+00 -0.45593999997E+02  0.45594000000E+02  0.51100000000E-03 0. -1.
    9900012    2    1    2    0    0  0.52058059064E+00 -0.87350014003E+00  0.59904766843E+00  0.90007803086E+02  0.90000065287E+02 0.  0.
         12    1    1    2    0    0 -0.52058059064E+00  0.87350014003E+00 -0.59904766843E+00  0.11801969137E+01  0.00000000000E+00 0. -1.
         11    1    3    3    0    0  0.71372859931E+00  0.15550705775E+01  0.11561021329E+02  0.11686952873E+02  0.51100000000E-03 0. -1.
        -11    1    3    3    0    0  0.33171898895E+02 -0.11448092428E+02  0.11700349015E+02  0.36990970032E+02  0.51100000000E-03 0.  1.
         12    1    3    3    0    0 -0.33365046904E+02  0.90195217106E+01 -0.22662322675E+02  0.41329880182E+02  0.00000000000E+00 0. -1.
</event>
<event>
 7    1  0.4331547E-015  0.9000778E+02  0.7816164E-02  0.1186339E+00
        -11   -1    0    0    0    0  0.00000000000E+00  0.00000000000E+00  0.45593999997E+02  0.45594000000E+02  0.51100000000E-03 0.  1.
         11   -1    0    0    0    0 -0.00000000000E+00 -0.00000000000E+00 -0.45593999997E+02  0.45594000000E+02  0.51100000000E-03 0. -1.
    9900012    2    1    2    0    0  0.12356490253E+00  0.98280735989E+00  0.64167909850E+00  0.90007775167E+02  0.90000036999E+02 0.  0.
         12    1    1    2    0    0 -0.12356490253E+00 -0.98280735989E+00 -0.64167909850E+00  0.11802248333E+01  0.00000000000E+00 0. -1.
         11    1    3    3    0    0 -0.10923769680E+02  0.30398971278E+02 -0.18499315497E+02  0.37224331732E+02  0.51100000000E-03 0. -1.
        -11    1    3    3    0    0  0.26782386977E+00  0.48117429545E+00 -0.97903797088E+01  0.98058550587E+01  0.51100000000E-03 0.  1.
        -12    1    3    3    0    0  0.10779510712E+02 -0.29897338214E+02  0.28931374304E+02  0.42977588376E+02  0.00000000000E+00 0.  1.
</event>
<event>
 7    1  0.6781924E-015  0.9000749E+02  0.7816164E-02  0.1186340E+00
        -11   -1    0    0    0    0  0.00000000000E+00  0.00000000000E+00  0.45593999997E+02  0.45594000000E+02  0.51100000000E-03 0. -1.
         11   -1    0    0    0    0 -0.00000000000E+00 -0.00000000000E+00 -0.45593999997E+02  0.45594000000E+02  0.51100000000E-03 0.  1.
    9900012    2    1    2    0    0  0.80020188427E+00 -0.69190361529E+00 -0.52397903792E+00  0.90007488373E+02  0.89999746420E+02 0.  0.
         12    1    1    2    0    0 -0.80020188427E+00  0.69190361529E+00  0.52397903792E+00  0.11805116266E+01  0.00000000000E+00 0. -1.
         11    1    3    3    0    0 -0.63050950988E+01 -0.57739923822E+01  0.31862452875E+01  0.91238901532E+01  0.51100000000E-03 0. -1.
        -11    1    3    3    0    0 -0.16840384131E+02  0.30826331575E+02 -0.21802483540E+02  0.41342587544E+02  0.51100000000E-03 0.  1.
         12    1    3    3    0    0  0.23945681114E+02 -0.25744242808E+02  0.18092259215E+02  0.39541010676E+02  0.00000000000E+00 0. -1.
</event>
<event>
 7    1  0.4331547E-015  0.9000776E+02  0.7816164E-02  0.1186339E+00
        -11   -1    0    0    0    0  0.00000000000E+00  0.00000000000E+00  0.45593999997E+02  0.45594000000E+02  0.51100000000E-03 0. -1.
         11   -1    0    0    0    0 -0.00000000000E+00 -0.00000000000E+00 -0.45593999997E+02  0.45594000000E+02  0.51100000000E-03 0.  1.
    9900012    2    1    2    0    0  0.99261239292E+00  0.52973709808E+00 -0.35646976135E+00  0.90007757887E+02  0.90000019491E+02 0.  0.
         12    1    1    2    0    0 -0.99261239292E+00 -0.52973709808E+00  0.35646976135E+00  0.11802421135E+01  0.00000000000E+00 0. -1.
         11    1    3    3    0    0  0.48553949215E+01 -0.51346247391E+01 -0.60420762398E+01  0.92976296228E+01  0.51100000000E-03 0. -1.
        -11    1    3    3    0    0  0.36935809344E+02 -0.66850987999E+01 -0.10715167609E+01  0.37551201130E+02  0.51100000000E-03 0.  1.
         12    1    3    3    0    0 -0.40798591873E+02  0.12349460637E+02  0.67571232394E+01  0.43158927133E+02  0.00000000000E+00 0. -1.
</event>
<event>
 7    1  0.4331547E-015  0.9000771E+02  0.7816164E-02  0.1186339E+00
        -11   -1    0    0    0    0  0.00000000000E+00  0.00000000000E+00  0.45593999997E+02  0.45594000000E+02  0.51100000000E-03 0.  1.
         11   -1    0    0    0    0 -0.00000000000E+00 -0.00000000000E+00 -0.45593999997E+02  0.45594000000E+02  0.51100000000E-03 0. -1.
    9900012    2    1    2    0    0  0.86924630797E+00  0.75199596615E+00 -0.26831211634E+00  0.90007712548E+02  0.89999973554E+02 0.  0.
         12    1    1    2    0    0 -0.86924630797E+00 -0.75199596615E+00  0.26831211634E+00  0.11802874518E+01  0.00000000000E+00 0. -1.
         11    1    3    3    0    0  0.48138530721E+01 -0.92098509733E+01 -0.64666460764E+01  0.12239773204E+02  0.51100000000E-03 0. -1.
        -11    1    3    3    0    0  0.19156599261E+02 -0.81212997193E+01  0.32352116708E+02  0.38465442414E+02  0.51100000000E-03 0.  1.
         12    1    3    3    0    0 -0.23101206025E+02  0.18083146659E+02 -0.26153782748E+02  0.39302496930E+02  0.00000000000E+00 0. -1.
</event>
<event>
 7    1  0.4331547E-015  0.9000774E+02  0.7816164E-02  0.1186339E+00
        -11   -1    0    0    0    0  0.00000000000E+00  0.00000000000E+00  0.45593999997E+02  0.45594000000E+02  0.51100000000E-03 0. -1.
         11   -1    0    0    0    0 -0.00000000000E+00 -0.00000000000E+00 -0.45593999997E+02  0.45594000000E+02  0.51100000000E-03 0.  1.
    9900012    2    1    2    0    0  0.99234921531E+00  0.63510921904E+00  0.69956795350E-01  0.90007739589E+02  0.90000000951E+02 0.  0.
         12    1    1    2    0    0 -0.99234921531E+00 -0.63510921904E+00 -0.69956795350E-01  0.11802604113E+01  0.00000000000E+00 0. -1.
         11    1    3    3    0    0  0.67818827442E+01  0.29743713476E+01 -0.58719920372E+01  0.94509845633E+01  0.51100000000E-03 0. -1.
        -11    1    3    3    0    0  0.32022057419E+02  0.18591817983E+02  0.83119698018E+00  0.37037261587E+02  0.51100000000E-03 0.  1.
         12    1    3    3    0    0 -0.37811590948E+02 -0.20931080111E+02  0.51107518524E+01  0.43519493438E+02  0.00000000000E+00 0. -1.
</event>
<event>
 7    1  0.4331547E-015  0.9000776E+02  0.7816164E-02  0.1186339E+00
        -11   -1    0    0    0    0  0.00000000000E+00  0.00000000000E+00  0.45593999997E+02  0.45594000000E+02  0.51100000000E-03 0.  1.
         11   -1    0    0    0    0 -0.00000000000E+00 -0.00000000000E+00 -0.45593999997E+02  0.45594000000E+02  0.51100000000E-03 0. -1.
    9900012    2    1    2    0    0  0.85070310538E+00 -0.75527225994E+00  0.31437359553E+00  0.90007761584E+02  0.90000023237E+02 0.  0.
         12    1    1    2    0    0 -0.85070310538E+00  0.75527225994E+00 -0.31437359553E+00  0.11802384156E+01  0.00000000000E+00 0. -1.
         11    1    3    3    0    0 -0.50399347229E+01  0.29043954424E+02 -0.36234645500E+00  0.29480222622E+02  0.51100000000E-03 0. -1.
        -11    1    3    3    0    0  0.47015348218E+01 -0.51535344158E+01  0.24954986276E+02  0.25911670863E+02  0.51100000000E-03 0.  1.
        -12    1    3    3    0    0  0.11891030065E+01 -0.24645692269E+02 -0.24278266225E+02  0.34615868099E+02  0.00000000000E+00 0.  1.
</event>
<event>
 7    1  0.4331547E-015  0.9000770E+02  0.7816164E-02  0.1186339E+00
        -11   -1    0    0    0    0  0.00000000000E+00  0.00000000000E+00  0.45593999997E+02  0.45594000000E+02  0.51100000000E-03 0.  1.
         11   -1    0    0    0    0 -0.00000000000E+00 -0.00000000000E+00 -0.45593999997E+02  0.45594000000E+02  0.51100000000E-03 0. -1.
    9900012    2    1    2    0    0 -0.10985954475E+01 -0.91458031926E-01  0.42169946614E+00  0.90007700475E+02  0.89999961321E+02 0.  0.
         12    1    1    2    0    0  0.10985954475E+01  0.91458031926E-01 -0.42169946614E+00  0.11802995250E+01  0.00000000000E+00 0. -1.
         11    1    3    3    0    0 -0.22994094512E+02 -0.29024196097E+02 -0.10105502107E+01  0.37042591074E+02  0.51100000000E-03 0. -1.
        -11    1    3    3    0    0  0.89478909667E+00 -0.95934589928E+00  0.14204552800E+02  0.14265003071E+02  0.51100000000E-03 0.  1.
        -12    1    3    3    0    0  0.21000709968E+02  0.29892083964E+02 -0.12772303124E+02  0.38700106330E+02  0.00000000000E+00 0.  1.
</event>
<event>
 7    1  0.4331547E-015  0.9000768E+02  0.7816164E-02  0.1186339E+00
        -11   -1    0    0    0    0  0.00000000000E+00  0.00000000000E+00  0.45593999997E+02  0.45594000000E+02  0.51100000000E-03 0.  1.
         11   -1    0    0    0    0 -0.00000000000E+00 -0.00000000000E+00 -0.45593999997E+02  0.45594000000E+02  0.51100000000E-03 0. -1.
    9900012    2    1    2    0    0 -0.65559803664E+00 -0.44327033585E+00  0.87570863594E+00  0.90007676743E+02  0.89999937276E+02 0.  0.
         12    1    1    2    0    0  0.65559803664E+00  0.44327033585E+00 -0.87570863594E+00  0.11803232571E+01  0.00000000000E+00 0. -1.
         11    1    3    3    0    0 -0.23492193299E+02 -0.29525471182E+02 -0.18839235343E+02  0.42172898680E+02  0.51100000000E-03 0. -1.
        -11    1    3    3    0    0  0.99635167772E+01 -0.15662820092E+01  0.24620405947E+01  0.10382030151E+02  0.51100000000E-03 0.  1.
        -12    1    3    3    0    0  0.12873078485E+02  0.30648482855E+02  0.17252903384E+02  0.37452747912E+02  0.00000000000E+00 0.  1.
</event>
<event>
 7    1  0.4331547E-015  0.9000777E+02  0.7816164E-02  0.1186339E+00
        -11   -1    0    0    0    0  0.00000000000E+00  0.00000000000E+00  0.45593999997E+02  0.45594000000E+02  0.51100000000E-03 0. -1.
         11   -1    0    0    0    0 -0.00000000000E+00 -0.00000000000E+00 -0.45593999997E+02  0.45594000000E+02  0.51100000000E-03 0.  1.
    9900012    2    1    2    0    0 -0.10053075488E+01 -0.61185914800E+00  0.88981844810E-01  0.90007774321E+02  0.90000036142E+02 0.  0.
         12    1    1    2    0    0  0.10053075488E+01  0.61185914800E+00 -0.88981844810E-01  0.11802256790E+01  0.00000000000E+00 0. -1.
         11    1    3    3    0    0  0.34107100937E+01  0.11797068078E+00 -0.10453456966E+02  0.10996436842E+02  0.51100000000E-03 0. -1.
        -11    1    3    3    0    0  0.14637314848E+02  0.27926822719E+02 -0.16182060438E+02  0.35440337096E+02  0.51100000000E-03 0.  1.
         12    1    3    3    0    0 -0.19053332491E+02 -0.28656652548E+02  0.26724499249E+02  0.43571000383E+02  0.00000000000E+00 0. -1.
</event>
<event>
 7    1  0.4331547E-015  0.9000783E+02  0.7816164E-02  0.1186339E+00
        -11   -1    0    0    0    0  0.00000000000E+00  0.00000000000E+00  0.45593999997E+02  0.45594000000E+02  0.51100000000E-03 0.  1.
         11   -1    0    0    0    0 -0.00000000000E+00 -0.00000000000E+00 -0.45593999997E+02  0.45594000000E+02  0.51100000000E-03 0. -1.
    9900012    2    1    2    0    0  0.64265304966E+00  0.76869047683E+00  0.62362368806E+00  0.90007832853E+02  0.90000095446E+02 0.  0.
         12    1    1    2    0    0 -0.64265304966E+00 -0.76869047683E+00 -0.62362368806E+00  0.11801671474E+01  0.00000000000E+00 0. -1.
         11    1    3    3    0    0 -0.84574189736E+00  0.71238989807E+01  0.39762509587E+01  0.82021819043E+01  0.51100000000E-03 0. -1.
        -11    1    3    3    0    0 -0.25746672797E+02  0.11646550190E+02  0.25630018379E+02  0.38150113156E+02  0.51100000000E-03 0.  1.
         12    1    3    3    0    0  0.27235067744E+02 -0.18001758693E+02 -0.28982645650E+02  0.43655537792E+02  0.00000000000E+00 0. -1.
</event>
<event>
 7    1  0.4331547E-015  0.9000778E+02  0.7816164E-02  0.1186339E+00
        -11   -1    0    0    0    0  0.00000000000E+00  0.00000000000E+00  0.45593999997E+02  0.45594000000E+02  0.51100000000E-03 0. -1.
         11   -1    0    0    0    0 -0.00000000000E+00 -0.00000000000E+00 -0.45593999997E+02  0.45594000000E+02  0.51100000000E-03 0.  1.
    9900012    2    1    2    0    0 -0.66716910335E+00  0.90767877289E+00 -0.35201900109E+00  0.90007782755E+02  0.90000044688E+02 0.  0.
         12    1    1    2    0    0  0.66716910335E+00 -0.90767877289E+00  0.35201900109E+00  0.11802172446E+01  0.00000000000E+00 0. -1.
         11    1    3    3    0    0 -0.60929116034E+01  0.37435941512E+01 -0.15665402336E+01  0.73206637363E+01  0.51100000000E-03 0. -1.
        -11    1    3    3    0    0  0.16003185596E+02 -0.28746998801E+01 -0.38391691601E+02  0.41692779145E+02  0.51100000000E-03 0.  1.
         12    1    3    3    0    0 -0.10577443096E+02  0.38784501749E-01  0.39606212833E+02  0.40994339874E+02  0.00000000000E+00 0. -1.
</event>
<event>
 7    1  0.4331547E-015  0.9000783E+02  0.7816164E-02  0.1186339E+00
        -11   -1    0    0    0    0  0.00000000000E+00  0.00000000000E+00  0.45593999997E+02  0.45594000000E+02  0.51100000000E-03 0. -1.
         11   -1    0    0    0    0 -0.00000000000E+00 -0.00000000000E+00 -0.45593999997E+02  0.45594000000E+02  0.51100000000E-03 0.  1.
    9900012    2    1    2    0    0  0.68021560810E+00  0.75563442910E+00 -0.59926764058E+00  0.90007831212E+02  0.90000093784E+02 0.  0.
         12    1    1    2    0    0 -0.68021560810E+00 -0.75563442910E+00  0.59926764058E+00  0.11801687884E+01  0.00000000000E+00 0. -1.
         11    1    3    3    0    0 -0.66437156483E+00  0.52563428730E+01 -0.92047038734E+01  0.10620598083E+02  0.51100000000E-03 0. -1.
        -11    1    3    3    0    0 -0.12018780113E+02 -0.15741907937E+00 -0.33186572906E+02  0.35296238860E+02  0.51100000000E-03 0.  1.
         12    1    3    3    0    0  0.13363367286E+02 -0.43432893645E+01  0.41792009139E+02  0.44090994269E+02  0.00000000000E+00 0. -1.
</event>
<event>
 7    1  0.4331547E-015  0.9000771E+02  0.7816164E-02  0.1186339E+00
        -11   -1    0    0    0    0  0.00000000000E+00  0.00000000000E+00  0.45593999997E+02  0.45594000000E+02  0.51100000000E-03 0.  1.
         11   -1    0    0    0    0 -0.00000000000E+00 -0.00000000000E+00 -0.45593999997E+02  0.45594000000E+02  0.51100000000E-03 0. -1.
    9900012    2    1    2    0    0 -0.80899158188E+00  0.63977855284E+00  0.57383834802E+00  0.90007714261E+02  0.89999975289E+02 0.  0.
         12    1    1    2    0    0  0.80899158188E+00 -0.63977855284E+00 -0.57383834802E+00  0.11802857391E+01  0.00000000000E+00 0. -1.
         11    1    3    3    0    0 -0.44510019662E+01 -0.60355892417E+01  0.51098662722E+01  0.90747170522E+01  0.51100000000E-03 0. -1.
        -11    1    3    3    0    0  0.27857019175E+02 -0.27154875292E+02  0.12882800768E+01  0.38923777248E+02  0.51100000000E-03 0.  1.
         12    1    3    3    0    0 -0.24215008791E+02  0.33830243086E+02 -0.58243080010E+01  0.42009219961E+02  0.00000000000E+00 0. -1.
</event>
<event>
 7    1  0.4331547E-015  0.9000779E+02  0.7816164E-02  0.1186339E+00
        -11   -1    0    0    0    0  0.00000000000E+00  0.00000000000E+00  0.45593999997E+02  0.45594000000E+02  0.51100000000E-03 0. -1.
         11   -1    0    0    0    0 -0.00000000000E+00 -0.00000000000E+00 -0.45593999997E+02  0.45594000000E+02  0.51100000000E-03 0.  1.
    9900012    2    1    2    0    0  0.39429747139E+00  0.88162990699E+00 -0.67834747134E+00  0.90007789391E+02  0.90000051411E+02 0.  0.
         12    1    1    2    0    0 -0.39429747139E+00 -0.88162990699E+00  0.67834747134E+00  0.11802106086E+01  0.00000000000E+00 0. -1.
         11    1    3    3    0    0 -0.71084456966E+01 -0.26116009684E+02  0.25972299557E+02  0.37511815560E+02  0.51100000000E-03 0. -1.
        -11    1    3    3    0    0  0.81724417312E+01 -0.53783715574E+01  0.11053085382E+01  0.98456788331E+01  0.51100000000E-03 0.  1.
        -12    1    3    3    0    0 -0.66969856318E+00  0.32376011148E+02 -0.27755955567E+02  0.42650294999E+02  0.00000000000E+00 0.  1.
</event>
<event>
 7    1  0.4331547E-015  0.9000779E+02  0.7816164E-02  0.1186339E+00
        -11   -1    0    0    0    0  0.00000000000E+00  0.00000000000E+00  0.45593999997E+02  0.45594000000E+02  0.51100000000E-03 0. -1.
         11   -1    0    0    0    0 -0.00000000000E+00 -0.00000000000E+00 -0.45593999997E+02  0.45594000000E+02  0.51100000000E-03 0.  1.
    9900012    2    1    2    0    0  0.79656513713E+00 -0.38889348924E+00 -0.77919506358E+00  0.90007788531E+02  0.90000050540E+02 0.  0.
         12    1    1    2    0    0 -0.79656513713E+00  0.38889348924E+00  0.77919506358E+00  0.11802114687E+01  0.00000000000E+00 0. -1.
         11    1    3    3    0    0 -0.22524131624E+01 -0.10335526825E+02  0.39800922855E+01  0.11302106648E+02  0.51100000000E-03 0. -1.
        -11    1    3    3    0    0 -0.76037154397E+01 -0.36645229770E+01 -0.39238877146E+02  0.40136450978E+02  0.51100000000E-03 0.  1.
         12    1    3    3    0    0  0.10652693739E+02  0.13611156313E+02  0.34479589797E+02  0.38569230906E+02  0.00000000000E+00 0. -1.
</event>
<event>
 7    1  0.4331547E-015  0.9000752E+02  0.7816164E-02  0.1186339E+00
        -11   -1    0    0    0    0  0.00000000000E+00  0.00000000000E+00  0.45593999997E+02  0.45594000000E+02  0.51100000000E-03 0.  1.
         11   -1    0    0    0    0 -0.00000000000E+00 -0.00000000000E+00 -0.45593999997E+02  0.45594000000E+02  0.51100000000E-03 0. -1.
    9900012    2    1    2    0    0  0.84798924570E+00  0.75454978360E+00  0.32418626550E+00  0.90007522185E+02  0.89999780678E+02 0.  0.
         12    1    1    2    0    0 -0.84798924570E+00 -0.75454978360E+00 -0.32418626550E+00  0.11804778149E+01  0.00000000000E+00 0. -1.
         11    1    3    3    0    0  0.21021451413E+01 -0.38923769857E+02  0.14821402298E+01  0.39008660756E+02  0.51100000000E-03 0. -1.
        -11    1    3    3    0    0 -0.78173605873E+01 -0.10182297969E+01 -0.54048966185E+01  0.95582857349E+01  0.51100000000E-03 0.  1.
        -12    1    3    3    0    0  0.65632046917E+01  0.40696549437E+02  0.42469426543E+01  0.41440575694E+02  0.00000000000E+00 0.  1.
</event>
<event>
 7    1  0.4331547E-015  0.9000773E+02  0.7816164E-02  0.1186339E+00
        -11   -1    0    0    0    0  0.00000000000E+00  0.00000000000E+00  0.45593999997E+02  0.45594000000E+02  0.51100000000E-03 0. -1.
         11   -1    0    0    0    0 -0.00000000000E+00 -0.00000000000E+00 -0.45593999997E+02  0.45594000000E+02  0.51100000000E-03 0.  1.
    9900012    2    1    2    0    0 -0.18663020146E+00 -0.10954079566E+01 -0.39786530571E+00  0.90007726208E+02  0.89999987394E+02 0.  0.
         12    1    1    2    0    0  0.18663020146E+00  0.10954079566E+01  0.39786530571E+00  0.11802737924E+01  0.00000000000E+00 0. -1.
         11    1    3    3    0    0  0.56219158936E+01  0.22294371810E+01 -0.77313647733E+01  0.98158203925E+01  0.51100000000E-03 0. -1.
        -11    1    3    3    0    0  0.95893934341E+01  0.34733456264E+02 -0.69999498313E+01  0.36706521878E+02  0.51100000000E-03 0.  1.
         12    1    3    3    0    0 -0.15397939529E+02 -0.38058301402E+02  0.14333449299E+02  0.43485383937E+02  0.00000000000E+00 0. -1.
</event>
<event>
 7    1  0.4331547E-015  0.9000754E+02  0.7816164E-02  0.1186339E+00
        -11   -1    0    0    0    0  0.00000000000E+00  0.00000000000E+00  0.45593999997E+02  0.45594000000E+02  0.51100000000E-03 0.  1.
         11   -1    0    0    0    0 -0.00000000000E+00 -0.00000000000E+00 -0.45593999997E+02  0.45594000000E+02  0.51100000000E-03 0. -1.
    9900012    2    1    2    0    0 -0.67067784846E+00 -0.90087447070E+00  0.36347014041E+00  0.90007536476E+02  0.89999795157E+02 0.  0.
         12    1    1    2    0    0  0.67067784846E+00  0.90087447070E+00 -0.36347014041E+00  0.11804635239E+01  0.00000000000E+00 0. -1.
         11    1    3    3    0    0 -0.31619411234E+02  0.17224875484E+02 -0.14952195662E+02  0.38987839869E+02  0.51100000000E-03 0. -1.
        -11    1    3    3    0    0  0.36161620747E+01  0.92369541558E+01  0.20234115813E+01  0.10123840423E+02  0.51100000000E-03 0.  1.
        -12    1    3    3    0    0  0.27332571311E+02 -0.27362704111E+02  0.13292254221E+02  0.40895856184E+02  0.00000000000E+00 0.  1.
</event>
<event>
 7    1  0.4331547E-015  0.9000772E+02  0.7816164E-02  0.1186339E+00
        -11   -1    0    0    0    0  0.00000000000E+00  0.00000000000E+00  0.45593999997E+02  0.45594000000E+02  0.51100000000E-03 0.  1.
         11   -1    0    0    0    0 -0.00000000000E+00 -0.00000000000E+00 -0.45593999997E+02  0.45594000000E+02  0.51100000000E-03 0. -1.
    9900012    2    1    2    0    0  0.63089427910E+00 -0.41092115407E+00  0.90893773718E+00  0.90007723932E+02  0.89999985088E+02 0.  0.
         12    1    1    2    0    0 -0.63089427910E+00  0.41092115407E+00 -0.90893773718E+00  0.11802760678E+01  0.00000000000E+00 0. -1.
         11    1    3    3    0    0  0.11728856613E+02  0.11858187921E+02 -0.38692250150E+02  0.42133987708E+02  0.51100000000E-03 0. -1.
        -11    1    3    3    0    0 -0.19182154685E+01 -0.12585596489E+02  0.81677379261E+01  0.15125763870E+02  0.51100000000E-03 0.  1.
        -12    1    3    3    0    0 -0.91797468657E+01  0.31648741388E+00  0.31433449961E+02  0.32747972354E+02  0.00000000000E+00 0.  1.
</event>
<event>
 7    1  0.4331547E-015  0.9000770E+02  0.7816164E-02  0.1186339E+00
        -11   -1    0    0    0    0  0.00000000000E+00  0.00000000000E+00  0.45593999997E+02  0.45594000000E+02  0.51100000000E-03 0.  1.
         11   -1    0    0    0    0 -0.00000000000E+00 -0.00000000000E+00 -0.45593999997E+02  0.45594000000E+02  0.51100000000E-03 0. -1.
    9900012    2    1    2    0    0 -0.11232504447E+01  0.11441051633E+00 -0.34400364031E+00  0.90007695026E+02  0.89999955800E+02 0.  0.
         12    1    1    2    0    0  0.11232504447E+01 -0.11441051633E+00  0.34400364031E+00  0.11803049743E+01  0.00000000000E+00 0. -1.
         11    1    3    3    0    0 -0.27318744450E+02 -0.14637768332E+02 -0.19232871372E+02  0.36475764578E+02  0.51100000000E-03 0. -1.
        -11    1    3    3    0    0 -0.60808999637E+01  0.38082502849E+01 -0.75368038743E+01  0.10405937128E+02  0.51100000000E-03 0.  1.
        -12    1    3    3    0    0  0.32276393969E+02  0.10943928564E+02  0.26425671606E+02  0.43125993320E+02  0.00000000000E+00 0.  1.
</event>
<event>
 7    1  0.4331547E-015  0.9000770E+02  0.7816164E-02  0.1186339E+00
        -11   -1    0    0    0    0  0.00000000000E+00  0.00000000000E+00  0.45593999997E+02  0.45594000000E+02  0.51100000000E-03 0.  1.
         11   -1    0    0    0    0 -0.00000000000E+00 -0.00000000000E+00 -0.45593999997E+02  0.45594000000E+02  0.51100000000E-03 0. -1.
    9900012    2    1    2    0    0  0.31079959234E+00  0.11336008420E+01 -0.10710838756E+00  0.90007695182E+02  0.89999955959E+02 0.  0.
         12    1    1    2    0    0 -0.31079959234E+00 -0.11336008420E+01  0.10710838756E+00  0.11803048176E+01  0.00000000000E+00 0. -1.
         11    1    3    3    0    0 -0.19663031059E+02  0.22328432813E+01  0.31847088648E+02  0.37494765437E+02  0.51100000000E-03 0. -1.
        -11    1    3    3    0    0  0.11764110804E+02 -0.76221367112E+01  0.43880058771E+01  0.14688290128E+02  0.51100000000E-03 0.  1.
        -12    1    3    3    0    0  0.82097198474E+01  0.65228942719E+01 -0.36342202913E+02  0.37824639618E+02  0.00000000000E+00 0.  1.
</event>
<event>
 7    1  0.4331547E-015  0.9000776E+02  0.7816164E-02  0.1186339E+00
        -11   -1    0    0    0    0  0.00000000000E+00  0.00000000000E+00  0.45593999997E+02  0.45594000000E+02  0.51100000000E-03 0.  1.
         11   -1    0    0    0    0 -0.00000000000E+00 -0.00000000000E+00 -0.45593999997E+02  0.45594000000E+02  0.51100000000E-03 0. -1.
    9900012    2    1    2    0    0 -0.62657380351E+00  0.97266626396E+00 -0.23302353526E+00  0.90007756652E+02  0.90000018240E+02 0.  0.
         12    1    1    2    0    0  0.62657380351E+00 -0.97266626396E+00  0.23302353526E+00  0.11802433479E+01  0.00000000000E+00 0. -1.
         11    1    3    3    0    0 -0.24435807337E+02  0.24008035749E+02  0.18810773999E+02  0.39081193424E+02  0.51100000000E-03 0. -1.
        -11    1    3    3    0    0  0.31716353568E+01  0.85559012953E+01 -0.63379739606E+01  0.11110023942E+02  0.51100000000E-03 0.  1.
        -12    1    3    3    0    0  0.20637598176E+02 -0.31591270781E+02 -0.12705823574E+02  0.39816539286E+02  0.00000000000E+00 0.  1.
</event>
<event>
 7    1  0.4331547E-015  0.9000770E+02  0.7816164E-02  0.1186339E+00
        -11   -1    0    0    0    0  0.00000000000E+00  0.00000000000E+00  0.45593999997E+02  0.45594000000E+02  0.51100000000E-03 0.  1.
         11   -1    0    0    0    0 -0.00000000000E+00 -0.00000000000E+00 -0.45593999997E+02  0.45594000000E+02  0.51100000000E-03 0. -1.
    9900012    2    1    2    0    0 -0.11914627724E+00  0.11451945232E+01 -0.25970169603E+00  0.90007698639E+02  0.89999959461E+02 0.  0.
         12    1    1    2    0    0  0.11914627724E+00 -0.11451945232E+01  0.25970169603E+00  0.11803013608E+01  0.00000000000E+00 0. -1.
         11    1    3    3    0    0 -0.21144463900E+02 -0.16197694473E+01 -0.36102741456E+02  0.41870275227E+02  0.51100000000E-03 0. -1.
        -11    1    3    3    0    0  0.75810535664E+01  0.37601910947E+01 -0.13565694876E+01  0.85703962149E+01  0.51100000000E-03 0.  1.
        -12    1    3    3    0    0  0.13444264057E+02 -0.99522712419E+00  0.37199609247E+02  0.39567027197E+02  0.00000000000E+00 0.  1.
</event>
<event>
 7    1  0.4331547E-015  0.9000774E+02  0.7816164E-02  0.1186339E+00
        -11   -1    0    0    0    0  0.00000000000E+00  0.00000000000E+00  0.45593999997E+02  0.45594000000E+02  0.51100000000E-03 0. -1.
         11   -1    0    0    0    0 -0.00000000000E+00 -0.00000000000E+00 -0.45593999997E+02  0.45594000000E+02  0.51100000000E-03 0.  1.
    9900012    2    1    2    0    0 -0.80036769466E+00 -0.59459823211E+00  0.63157000295E+00  0.90007738939E+02  0.90000000293E+02 0.  0.
         12    1    1    2    0    0  0.80036769466E+00  0.59459823211E+00 -0.63157000295E+00  0.11802610613E+01  0.00000000000E+00 0. -1.
         11    1    3    3    0    0 -0.83327110857E+01 -0.20301781761E+01 -0.47946716876E+01  0.98257098633E+01  0.51100000000E-03 0. -1.
        -11    1    3    3    0    0 -0.18748353780E+01  0.39124449279E+02 -0.61487116947E+01  0.39649012533E+02  0.51100000000E-03 0.  1.
         12    1    3    3    0    0  0.94071787690E+01 -0.37688869335E+02  0.11574953385E+02  0.40533016542E+02  0.00000000000E+00 0. -1.
</event>
<event>
 7    1  0.4331547E-015  0.9000773E+02  0.7816164E-02  0.1186339E+00
        -11   -1    0    0    0    0  0.00000000000E+00  0.00000000000E+00  0.45593999997E+02  0.45594000000E+02  0.51100000000E-03 0.  1.
         11   -1    0    0    0    0 -0.00000000000E+00 -0.00000000000E+00 -0.45593999997E+02  0.45594000000E+02  0.51100000000E-03 0. -1.
    9900012    2    1    2    0    0 -0.20340722031E+00  0.68556623032E+00  0.93896573200E+00  0.90007732149E+02  0.89999993414E+02 0.  0.
         12    1    1    2    0    0  0.20340722031E+00 -0.68556623032E+00 -0.93896573200E+00  0.11802678507E+01  0.00000000000E+00 0. -1.
         11    1    3    3    0    0 -0.77358538805E+01 -0.23009936525E+02 -0.33482867693E+02  0.41357019276E+02  0.51100000000E-03 0. -1.
        -11    1    3    3    0    0  0.88727489426E+01 -0.38547863672E+00  0.37708614615E+01  0.96485057911E+01  0.51100000000E-03 0.  1.
        -12    1    3    3    0    0 -0.13403022825E+01  0.24080981392E+02  0.30650971963E+02  0.39002207083E+02  0.00000000000E+00 0.  1.
</event>
<event>
 7    1  0.4331547E-015  0.9000781E+02  0.7816164E-02  0.1186339E+00
        -11   -1    0    0    0    0  0.00000000000E+00  0.00000000000E+00  0.45593999997E+02  0.45594000000E+02  0.51100000000E-03 0.  1.
         11   -1    0    0    0    0 -0.00000000000E+00 -0.00000000000E+00 -0.45593999997E+02  0.45594000000E+02  0.51100000000E-03 0. -1.
    9900012    2    1    2    0    0 -0.62966222135E+00  0.51983292763E+00  0.85214439470E+00  0.90007808975E+02  0.90000071254E+02 0.  0.
         12    1    1    2    0    0  0.62966222135E+00 -0.51983292763E+00 -0.85214439470E+00  0.11801910248E+01  0.00000000000E+00 0. -1.
         11    1    3    3    0    0  0.26994249062E+02  0.12182398788E+02 -0.24893110168E+02  0.38688076416E+02  0.51100000000E-03 0. -1.
        -11    1    3    3    0    0 -0.59916032298E+01  0.60930420531E+01 -0.48740184396E+01  0.98377094252E+01  0.51100000000E-03 0.  1.
        -12    1    3    3    0    0 -0.21632308053E+02 -0.17755607914E+02  0.30619273003E+02  0.41482023134E+02  0.00000000000E+00 0.  1.
</event>
<event>
 7    1  0.4331547E-015  0.9000754E+02  0.7816164E-02  0.1186339E+00
        -11   -1    0    0    0    0  0.00000000000E+00  0.00000000000E+00  0.45593999997E+02  0.45594000000E+02  0.51100000000E-03 0. -1.
         11   -1    0    0    0    0 -0.00000000000E+00 -0.00000000000E+00 -0.45593999997E+02  0.45594000000E+02  0.51100000000E-03 0.  1.
    9900012    2    1    2    0    0  0.28843385960E+00 -0.32163815953E+00 -0.10985622615E+01  0.90007540666E+02  0.89999799402E+02 0.  0.
         12    1    1    2    0    0 -0.28843385960E+00  0.32163815953E+00  0.10985622615E+01  0.11804593341E+01  0.00000000000E+00 0. -1.
         11    1    3    3    0    0  0.29181940551E+01 -0.18989353341E+01  0.11511602795E+02  0.12026587675E+02  0.51100000000E-03 0. -1.
        -11    1    3    3    0    0 -0.57371035754E+01 -0.36672665613E+02 -0.13761816020E+02  0.39587704417E+02  0.51100000000E-03 0.  1.
         12    1    3    3    0    0  0.31073433799E+01  0.38249962787E+02  0.11516509632E+01  0.38393248574E+02  0.00000000000E+00 0. -1.
</event>
<event>
 7    1  0.4331547E-015  0.9000769E+02  0.7816164E-02  0.1186339E+00
        -11   -1    0    0    0    0  0.00000000000E+00  0.00000000000E+00  0.45593999997E+02  0.45594000000E+02  0.51100000000E-03 0.  1.
         11   -1    0    0    0    0 -0.00000000000E+00 -0.00000000000E+00 -0.45593999997E+02  0.45594000000E+02  0.51100000000E-03 0. -1.
    9900012    2    1    2    0    0 -0.99061740303E+00 -0.17832833847E+00  0.61644551797E+00  0.90007691179E+02  0.89999951903E+02 0.  0.
         12    1    1    2    0    0  0.99061740303E+00  0.17832833847E+00 -0.61644551797E+00  0.11803088207E+01  0.00000000000E+00 0. -1.
         11    1    3    3    0    0  0.13605994377E+02  0.96050539827E+01 -0.32996134973E+02  0.36961129155E+02  0.51100000000E-03 0. -1.
        -11    1    3    3    0    0 -0.36766131739E+01  0.14629880912E+01 -0.78110216894E+01  0.87561337746E+01  0.51100000000E-03 0.  1.
        -12    1    3    3    0    0 -0.10919998606E+02 -0.11246370412E+02  0.41423602180E+02  0.44290428250E+02  0.00000000000E+00 0.  1.
</event>
<event>
 7    1  0.4331547E-015  0.9000785E+02  0.7816164E-02  0.1186339E+00
        -11   -1    0    0    0    0  0.00000000000E+00  0.00000000000E+00  0.45593999997E+02  0.45594000000E+02  0.51100000000E-03 0. -1.
         11   -1    0    0    0    0 -0.00000000000E+00 -0.00000000000E+00 -0.45593999997E+02  0.45594000000E+02  0.51100000000E-03 0.  1.
    9900012    2    1    2    0    0 -0.51781409909E+00  0.92916493795E+00 -0.51114058477E+00  0.90007854407E+02  0.90000117285E+02 0.  0.
         12    1    1    2    0    0  0.51781409909E+00 -0.92916493795E+00  0.51114058477E+00  0.11801455929E+01  0.00000000000E+00 0. -1.
         11    1    3    3    0    0 -0.38747123639E+01  0.36738016662E+02  0.88240008204E+01  0.37981024932E+02  0.51100000000E-03 0. -1.
        -11    1    3    3    0    0  0.67853429735E+01  0.12574072059E+01  0.83352447072E+01  0.10821194793E+02  0.51100000000E-03 0.  1.
        -12    1    3    3    0    0 -0.34284447087E+01 -0.37066258930E+02 -0.17670386112E+02  0.41205634682E+02  0.00000000000E+00 0.  1.
</event>
<event>
 7    1  0.4331547E-015  0.9000774E+02  0.7816164E-02  0.1186339E+00
        -11   -1    0    0    0    0  0.00000000000E+00  0.00000000000E+00  0.45593999997E+02  0.45594000000E+02  0.51100000000E-03 0. -1.
         11   -1    0    0    0    0 -0.00000000000E+00 -0.00000000000E+00 -0.45593999997E+02  0.45594000000E+02  0.51100000000E-03 0.  1.
    9900012    2    1    2    0    0  0.94260073497E-01  0.10632535768E+01 -0.50360227306E+00  0.90007742240E+02  0.90000003638E+02 0.  0.
         12    1    1    2    0    0 -0.94260073497E-01 -0.10632535768E+01  0.50360227306E+00  0.11802577597E+01  0.00000000000E+00 0. -1.
         11    1    3    3    0    0  0.42647960882E+01 -0.45972008789E+01  0.46361372403E+01  0.77984941089E+01  0.51100000000E-03 0. -1.
        -11    1    3    3    0    0  0.34510078997E+02  0.19839435209E+02  0.40102232852E+01  0.40007882134E+02  0.51100000000E-03 0.  1.
         12    1    3    3    0    0 -0.38680615011E+02 -0.14178980753E+02 -0.91499627985E+01  0.42201365998E+02  0.00000000000E+00 0. -1.
</event>
<event>
 7    1  0.4331547E-015  0.9000775E+02  0.7816164E-02  0.1186339E+00
        -11   -1    0    0    0    0  0.00000000000E+00  0.00000000000E+00  0.45593999997E+02  0.45594000000E+02  0.51100000000E-03 0. -1.
         11   -1    0    0    0    0 -0.00000000000E+00 -0.00000000000E+00 -0.45593999997E+02  0.45594000000E+02  0.51100000000E-03 0.  1.
    9900012    2    1    2    0    0  0.98181831680E+00  0.15231919501E+00 -0.63704432254E+00  0.90007748411E+02  0.90000009890E+02 0.  0.
         12    1    1    2    0    0 -0.98181831680E+00 -0.15231919501E+00  0.63704432254E+00  0.11802515890E+01  0.00000000000E+00 0. -1.
         11    1    3    3    0    0 -0.15387043275E+02  0.16883917328E+02  0.31385383958E+02  0.38818424640E+02  0.51100000000E-03 0. -1.
        -11    1    3    3    0    0 -0.11042724316E+01  0.15195663899E+01  0.55792546331E+01  0.58869841293E+01  0.51100000000E-03 0.  1.
        -12    1    3    3    0    0  0.17473134023E+02 -0.18251164523E+02 -0.37601682914E+02  0.45302339642E+02  0.00000000000E+00 0.  1.
</event>
<event>
 7    1  0.4331547E-015  0.9000776E+02  0.7816164E-02  0.1186339E+00
        -11   -1    0    0    0    0  0.00000000000E+00  0.00000000000E+00  0.45593999997E+02  0.45594000000E+02  0.51100000000E-03 0. -1.
         11   -1    0    0    0    0 -0.00000000000E+00 -0.00000000000E+00 -0.45593999997E+02  0.45594000000E+02  0.51100000000E-03 0.  1.
    9900012    2    1    2    0    0 -0.14815370293E+00 -0.11348395626E+01  0.28834937635E+00  0.90007764551E+02  0.90000026243E+02 0.  0.
         12    1    1    2    0    0  0.14815370293E+00  0.11348395626E+01 -0.28834937635E+00  0.11802354491E+01  0.00000000000E+00 0. -1.
         11    1    3    3    0    0 -0.21318552902E+02 -0.20400248888E+02  0.26119281761E+02  0.39406442779E+02  0.51100000000E-03 0. -1.
        -11    1    3    3    0    0  0.14268030876E+01  0.55254715404E+01  0.75453867491E+01  0.94604156488E+01  0.51100000000E-03 0.  1.
        -12    1    3    3    0    0  0.19743596111E+02  0.13739937785E+02 -0.33376319134E+02  0.41140906123E+02  0.00000000000E+00 0.  1.
</event>
<event>
 7    1  0.4331547E-015  0.9000780E+02  0.7816164E-02  0.1186339E+00
        -11   -1    0    0    0    0  0.00000000000E+00  0.00000000000E+00  0.45593999997E+02  0.45594000000E+02  0.51100000000E-03 0. -1.
         11   -1    0    0    0    0 -0.00000000000E+00 -0.00000000000E+00 -0.45593999997E+02  0.45594000000E+02  0.51100000000E-03 0.  1.
    9900012    2    1    2    0    0 -0.42224071815E-01  0.25529206037E+00 -0.11514855266E+01  0.90007798396E+02  0.90000060535E+02 0.  0.
         12    1    1    2    0    0  0.42224071815E-01 -0.25529206037E+00  0.11514855266E+01  0.11802016041E+01  0.00000000000E+00 0. -1.
         11    1    3    3    0    0  0.26253303184E+01  0.35575455055E+02 -0.17790433594E+02  0.39862324185E+02  0.51100000000E-03 0. -1.
        -11    1    3    3    0    0  0.79126192167E+01 -0.65209945604E+00 -0.35036468182E+01  0.86781517535E+01  0.51100000000E-03 0.  1.
        -12    1    3    3    0    0 -0.10580173607E+02 -0.34668063539E+02  0.20142594885E+02  0.41467322458E+02  0.00000000000E+00 0.  1.
</event>
<event>
 7    1  0.4331547E-015  0.9000764E+02  0.7816164E-02  0.1186339E+00
        -11   -1    0    0    0    0  0.00000000000E+00  0.00000000000E+00  0.45593999997E+02  0.45594000000E+02  0.51100000000E-03 0. -1.
         11   -1    0    0    0    0 -0.00000000000E+00 -0.00000000000E+00 -0.45593999997E+02  0.45594000000E+02  0.51100000000E-03 0.  1.
    9900012    2    1    2    0    0  0.11459346477E+00  0.86243867555E+00 -0.79769946470E+00  0.90007637104E+02  0.89999897113E+02 0.  0.
         12    1    1    2    0    0 -0.11459346477E+00 -0.86243867555E+00  0.79769946470E+00  0.11803628964E+01  0.00000000000E+00 0. -1.
         11    1    3    3    0    0 -0.13086066439E+02 -0.73887300137E+01  0.10914265966E+02  0.18573089886E+02  0.51100000000E-03 0. -1.
        -11    1    3    3    0    0  0.13194086709E+02 -0.25032651770E+02  0.11826027417E+02  0.30668754513E+02  0.51100000000E-03 0.  1.
         12    1    3    3    0    0  0.65731955524E-02  0.33283820459E+02 -0.23537992847E+02  0.40765792704E+02  0.00000000000E+00 0. -1.
</event>
<event>
 7    1  0.4331547E-015  0.9000771E+02  0.7816164E-02  0.1186339E+00
        -11   -1    0    0    0    0  0.00000000000E+00  0.00000000000E+00  0.45593999997E+02  0.45594000000E+02  0.51100000000E-03 0. -1.
         11   -1    0    0    0    0 -0.00000000000E+00 -0.00000000000E+00 -0.45593999997E+02  0.45594000000E+02  0.51100000000E-03 0.  1.
    9900012    2    1    2    0    0  0.30923470852E+00 -0.35800637977E+00 -0.10813340638E+01  0.90007712734E+02  0.89999973742E+02 0.  0.
         12    1    1    2    0    0 -0.30923470852E+00  0.35800637977E+00  0.10813340638E+01  0.11802872661E+01  0.00000000000E+00 0. -1.
         11    1    3    3    0    0 -0.18736032815E+02  0.33300691895E+02  0.18123738674E+02  0.42290009578E+02  0.51100000000E-03 0. -1.
        -11    1    3    3    0    0  0.96136059651E+01 -0.14421244961E+01 -0.17341135312E+01  0.98746287380E+01  0.51100000000E-03 0.  1.
        -12    1    3    3    0    0  0.94316615584E+01 -0.32216573779E+02 -0.17470959206E+02  0.37843074418E+02  0.00000000000E+00 0.  1.
</event>
<event>
 7    1  0.4331547E-015  0.9000772E+02  0.7816164E-02  0.1186339E+00
        -11   -1    0    0    0    0  0.00000000000E+00  0.00000000000E+00  0.45593999997E+02  0.45594000000E+02  0.51100000000E-03 0.  1.
         11   -1    0    0    0    0 -0.00000000000E+00 -0.00000000000E+00 -0.45593999997E+02  0.45594000000E+02  0.51100000000E-03 0. -1.
    9900012    2    1    2    0    0  0.47501719476E+00 -0.85062646571E+00 -0.66622331745E+00  0.90007720275E+02  0.89999981383E+02 0.  0.
         12    1    1    2    0    0 -0.47501719476E+00  0.85062646571E+00  0.66622331745E+00  0.11802797246E+01  0.00000000000E+00 0. -1.
         11    1    3    3    0    0 -0.32015080154E+01  0.79933366986E+01  0.36604189185E+01  0.93563749428E+01  0.51100000000E-03 0. -1.
        -11    1    3    3    0    0 -0.11916044289E+02  0.26249045200E+02  0.20097243549E+02  0.35141196393E+02  0.51100000000E-03 0.  1.
         12    1    3    3    0    0  0.15592569500E+02 -0.35093008365E+02 -0.24423885784E+02  0.45510148939E+02  0.00000000000E+00 0. -1.
</event>
<event>
 7    1  0.4331547E-015  0.9000785E+02  0.7816164E-02  0.1186339E+00
        -11   -1    0    0    0    0  0.00000000000E+00  0.00000000000E+00  0.45593999997E+02  0.45594000000E+02  0.51100000000E-03 0. -1.
         11   -1    0    0    0    0 -0.00000000000E+00 -0.00000000000E+00 -0.45593999997E+02  0.45594000000E+02  0.51100000000E-03 0.  1.
    9900012    2    1    2    0    0 -0.69763893504E+00  0.69682742617E+00 -0.64845387718E+00  0.90007847054E+02  0.90000109835E+02 0.  0.
         12    1    1    2    0    0  0.69763893504E+00 -0.69682742617E+00  0.64845387718E+00  0.11801529462E+01  0.00000000000E+00 0. -1.
         11    1    3    3    0    0 -0.35346035381E+02  0.12512433004E+02 -0.13116010191E+02  0.39723203804E+02  0.51100000000E-03 0. -1.
        -11    1    3    3    0    0  0.47350318115E+01  0.10110216571E+02  0.23103545408E-01  0.11164118389E+02  0.51100000000E-03 0.  1.
        -12    1    3    3    0    0  0.29913364635E+02 -0.21925822149E+02  0.12444452769E+02  0.39120524861E+02  0.00000000000E+00 0.  1.
</event>
<event>
 7    1  0.4331547E-015  0.9000777E+02  0.7816164E-02  0.1186339E+00
        -11   -1    0    0    0    0  0.00000000000E+00  0.00000000000E+00  0.45593999997E+02  0.45594000000E+02  0.51100000000E-03 0.  1.
         11   -1    0    0    0    0 -0.00000000000E+00 -0.00000000000E+00 -0.45593999997E+02  0.45594000000E+02  0.51100000000E-03 0. -1.
    9900012    2    1    2    0    0 -0.72462225299E+00  0.93015292745E+00 -0.51890549601E-01  0.90007765063E+02  0.90000026762E+02 0.  0.
         12    1    1    2    0    0  0.72462225299E+00 -0.93015292745E+00  0.51890549601E-01  0.11802349373E+01  0.00000000000E+00 0. -1.
         11    1    3    3    0    0  0.12548717905E+02  0.99007174968E+01 -0.36202984114E+02  0.39574620492E+02  0.51100000000E-03 0. -1.
        -11    1    3    3    0    0  0.95765632531E+01  0.17391437807E+01  0.77599121289E+01  0.12447948479E+02  0.51100000000E-03 0.  1.
        -12    1    3    3    0    0 -0.22849903411E+02 -0.10709708350E+02  0.28391181436E+02  0.37985196092E+02  0.00000000000E+00 0.  1.
</event>
<event>
 7    1  0.4331547E-015  0.9000779E+02  0.7816164E-02  0.1186339E+00
        -11   -1    0    0    0    0  0.00000000000E+00  0.00000000000E+00  0.45593999997E+02  0.45594000000E+02  0.51100000000E-03 0.  1.
         11   -1    0    0    0    0 -0.00000000000E+00 -0.00000000000E+00 -0.45593999997E+02  0.45594000000E+02  0.51100000000E-03 0. -1.
    9900012    2    1    2    0    0 -0.48837210009E-01  0.93444364000E+00  0.71924983987E+00  0.90007792255E+02  0.90000054313E+02 0.  0.
         12    1    1    2    0    0  0.48837210009E-01 -0.93444364000E+00 -0.71924983987E+00  0.11802077451E+01  0.00000000000E+00 0. -1.
         11    1    3    3    0    0  0.27719497586E+02 -0.14153947642E+02  0.50259649615E+01  0.31527212124E+02  0.51100000000E-03 0. -1.
        -11    1    3    3    0    0 -0.52203747801E+01  0.31241301360E+01  0.21403403696E+02  0.22251251470E+02  0.51100000000E-03 0.  1.
        -12    1    3    3    0    0 -0.22547960016E+02  0.11964261146E+02 -0.25710118817E+02  0.36229328661E+02  0.00000000000E+00 0.  1.
</event>
<event>
 7    1  0.4331547E-015  0.9000773E+02  0.7816164E-02  0.1186339E+00
        -11   -1    0    0    0    0  0.00000000000E+00  0.00000000000E+00  0.45593999997E+02  0.45594000000E+02  0.51100000000E-03 0. -1.
         11   -1    0    0    0    0 -0.00000000000E+00 -0.00000000000E+00 -0.45593999997E+02  0.45594000000E+02  0.51100000000E-03 0.  1.
    9900012    2    1    2    0    0 -0.28037002741E-01  0.63273819254E+00 -0.99593726125E+00  0.90007731081E+02  0.89999992331E+02 0.  0.
         12    1    1    2    0    0  0.28037002741E-01 -0.63273819254E+00  0.99593726125E+00  0.11802689194E+01  0.00000000000E+00 0. -1.
         11    1    3    3    0    0  0.35974032774E+01 -0.21423620031E+02  0.34595396100E+01  0.21997300292E+02  0.51100000000E-03 0.  1.
        -11    1    3    3    0    0 -0.33697075250E+02  0.10033823805E+02  0.97340460095E+00  0.35172688515E+02  0.51100000000E-03 0. -1.
         12    1    3    3    0    0  0.30071634970E+02  0.12022534418E+02 -0.54288814722E+01  0.32837742274E+02  0.00000000000E+00 0. -1.
</event>
<event>
 7    1  0.4331547E-015  0.9000765E+02  0.7816164E-02  0.1186339E+00
        -11   -1    0    0    0    0  0.00000000000E+00  0.00000000000E+00  0.45593999997E+02  0.45594000000E+02  0.51100000000E-03 0. -1.
         11   -1    0    0    0    0 -0.00000000000E+00 -0.00000000000E+00 -0.45593999997E+02  0.45594000000E+02  0.51100000000E-03 0.  1.
    9900012    2    1    2    0    0 -0.28038427043E+00  0.11465654011E+01  0.22813688165E-02  0.90007647187E+02  0.89999907330E+02 0.  0.
         12    1    1    2    0    0  0.28038427043E+00 -0.11465654011E+01 -0.22813688165E-02  0.11803528128E+01  0.00000000000E+00 0. -1.
         11    1    3    3    0    0 -0.14048946242E+02 -0.30949048039E+02  0.26164436971E+02  0.42892822561E+02  0.51100000000E-03 0. -1.
        -11    1    3    3    0    0 -0.23677956942E+01  0.10368919473E+02 -0.19740021570E+01  0.10817468847E+02  0.51100000000E-03 0.  1.
        -12    1    3    3    0    0  0.16136357666E+02  0.21726693968E+02 -0.24188153445E+02  0.36297355779E+02  0.00000000000E+00 0.  1.
</event>
<event>
 7    1  0.4331547E-015  0.9000768E+02  0.7816164E-02  0.1186339E+00
        -11   -1    0    0    0    0  0.00000000000E+00  0.00000000000E+00  0.45593999997E+02  0.45594000000E+02  0.51100000000E-03 0. -1.
         11   -1    0    0    0    0 -0.00000000000E+00 -0.00000000000E+00 -0.45593999997E+02  0.45594000000E+02  0.51100000000E-03 0.  1.
    9900012    2    1    2    0    0  0.40579243017E+00 -0.28084014036E+00 -0.10722002248E+01  0.90007681398E+02  0.89999941992E+02 0.  0.
         12    1    1    2    0    0 -0.40579243017E+00  0.28084014036E+00  0.10722002248E+01  0.11803186022E+01  0.00000000000E+00 0. -1.
         11    1    3    3    0    0 -0.25484874829E+02  0.97263227094E+01  0.23960930460E+02  0.36307112076E+02  0.51100000000E-03 0. -1.
        -11    1    3    3    0    0 -0.12258859742E+00  0.83527218051E+01  0.51619788831E+01  0.98198276852E+01  0.51100000000E-03 0.  1.
        -12    1    3    3    0    0  0.26013255856E+02 -0.18359884655E+02 -0.30195109568E+02  0.43880741637E+02  0.00000000000E+00 0.  1.
</event>
<event>
 7    1  0.4331547E-015  0.9000735E+02  0.7816164E-02  0.1186340E+00
        -11   -1    0    0    0    0  0.00000000000E+00  0.00000000000E+00  0.45593999997E+02  0.45594000000E+02  0.51100000000E-03 0.  1.
         11   -1    0    0    0    0 -0.00000000000E+00 -0.00000000000E+00 -0.45593999997E+02  0.45594000000E+02  0.51100000000E-03 0. -1.
    9900012    2    1    2    0    0 -0.76865041083E+00 -0.82509599602E+00  0.34975470625E+00  0.90007349666E+02  0.89999605881E+02 0.  0.
         12    1    1    2    0    0  0.76865041083E+00  0.82509599602E+00 -0.34975470625E+00  0.11806503340E+01  0.00000000000E+00 0. -1.
         11    1    3    3    0    0  0.34759678678E+02  0.17047467313E+02 -0.89573124690E+01  0.39737700619E+02  0.51100000000E-03 0. -1.
        -11    1    3    3    0    0  0.46397748488E+00 -0.10300103804E+02 -0.41366762342E+01  0.11109433109E+02  0.51100000000E-03 0.  1.
        -12    1    3    3    0    0 -0.35992306574E+02 -0.75724595051E+01  0.13443743409E+02  0.39160215938E+02  0.00000000000E+00 0.  1.
</event>
<event>
 7    1  0.4331547E-015  0.9000765E+02  0.7816164E-02  0.1186339E+00
        -11   -1    0    0    0    0  0.00000000000E+00  0.00000000000E+00  0.45593999997E+02  0.45594000000E+02  0.51100000000E-03 0. -1.
         11   -1    0    0    0    0 -0.00000000000E+00 -0.00000000000E+00 -0.45593999997E+02  0.45594000000E+02  0.51100000000E-03 0.  1.
    9900012    2    1    2    0    0  0.72043243603E+00  0.80310714248E+00 -0.47876679274E+00  0.90007651908E+02  0.89999912113E+02 0.  0.
         12    1    1    2    0    0 -0.72043243603E+00 -0.80310714248E+00  0.47876679274E+00  0.11803480923E+01  0.00000000000E+00 0. -1.
         11    1    3    3    0    0 -0.89333964461E+01  0.52155447997E+01 -0.40560373712E+01  0.11111206912E+02  0.51100000000E-03 0. -1.
        -11    1    3    3    0    0  0.31007104311E+02  0.23907707533E+02 -0.10814123434E+02  0.40619752130E+02  0.51100000000E-03 0.  1.
         12    1    3    3    0    0 -0.21353275429E+02 -0.28320145190E+02  0.14391394013E+02  0.38276692866E+02  0.00000000000E+00 0. -1.
</event>
<event>
 7    1  0.4331547E-015  0.9000779E+02  0.7816164E-02  0.1186339E+00
        -11   -1    0    0    0    0  0.00000000000E+00  0.00000000000E+00  0.45593999997E+02  0.45594000000E+02  0.51100000000E-03 0. -1.
         11   -1    0    0    0    0 -0.00000000000E+00 -0.00000000000E+00 -0.45593999997E+02  0.45594000000E+02  0.51100000000E-03 0.  1.
    9900012    2    1    2    0    0  0.43953482743E+00  0.63172239841E+00  0.89477638343E+00  0.90007792887E+02  0.90000054953E+02 0.  0.
         12    1    1    2    0    0 -0.43953482743E+00 -0.63172239841E+00 -0.89477638343E+00  0.11802071130E+01  0.00000000000E+00 0. -1.
         11    1    3    3    0    0 -0.23803023075E+02 -0.27087162995E+02  0.12944500003E+02  0.38312640045E+02  0.51100000000E-03 0. -1.
        -11    1    3    3    0    0  0.43892067955E+01 -0.81548655304E+01 -0.18391093395E+01  0.94418902523E+01  0.51100000000E-03 0.  1.
        -12    1    3    3    0    0  0.19853351107E+02  0.35873750924E+02 -0.10210614280E+02  0.42253262590E+02  0.00000000000E+00 0.  1.
</event>
<event>
 7    1  0.4331547E-015  0.9000769E+02  0.7816164E-02  0.1186339E+00
        -11   -1    0    0    0    0  0.00000000000E+00  0.00000000000E+00  0.45593999997E+02  0.45594000000E+02  0.51100000000E-03 0.  1.
         11   -1    0    0    0    0 -0.00000000000E+00 -0.00000000000E+00 -0.45593999997E+02  0.45594000000E+02  0.51100000000E-03 0. -1.
    9900012    2    1    2    0    0 -0.72355777085E+00 -0.85971733492E+00  0.36122838518E+00  0.90007688308E+02  0.89999948994E+02 0.  0.
         12    1    1    2    0    0  0.72355777085E+00  0.85971733492E+00 -0.36122838518E+00  0.11803116919E+01  0.00000000000E+00 0. -1.
         11    1    3    3    0    0  0.54528002596E+01 -0.34483120956E+02  0.94086560327E+01  0.36157177298E+02  0.51100000000E-03 0. -1.
        -11    1    3    3    0    0 -0.29323154306E+01 -0.73703796975E+01  0.61218863065E+01  0.10019903337E+02  0.51100000000E-03 0.  1.
        -12    1    3    3    0    0 -0.32440425998E+01  0.40993783319E+02 -0.15169313954E+02  0.43830607673E+02  0.00000000000E+00 0.  1.
</event>
<event>
 7    1  0.4331547E-015  0.9000775E+02  0.7816164E-02  0.1186339E+00
        -11   -1    0    0    0    0  0.00000000000E+00  0.00000000000E+00  0.45593999997E+02  0.45594000000E+02  0.51100000000E-03 0.  1.
         11   -1    0    0    0    0 -0.00000000000E+00 -0.00000000000E+00 -0.45593999997E+02  0.45594000000E+02  0.51100000000E-03 0. -1.
    9900012    2    1    2    0    0 -0.32978367116E+00 -0.31087723336E+00  0.10897654878E+01  0.90007749712E+02  0.90000011208E+02 0.  0.
         12    1    1    2    0    0  0.32978367116E+00  0.31087723336E+00 -0.10897654878E+01  0.11802502881E+01  0.00000000000E+00 0. -1.
         11    1    3    3    0    0 -0.56614154244E+01 -0.29956303777E+01  0.72082574070E+01  0.96428419604E+01  0.51100000000E-03 0. -1.
        -11    1    3    3    0    0 -0.24764692309E+02  0.26373324772E+02  0.11835896891E+02  0.38064822345E+02  0.51100000000E-03 0.  1.
         12    1    3    3    0    0  0.30096324062E+02 -0.23688571628E+02 -0.17954388810E+02  0.42300085406E+02  0.00000000000E+00 0. -1.
</event>
<event>
 7    1  0.4331547E-015  0.9000760E+02  0.7816164E-02  0.1186339E+00
        -11   -1    0    0    0    0  0.00000000000E+00  0.00000000000E+00  0.45593999997E+02  0.45594000000E+02  0.51100000000E-03 0.  1.
         11   -1    0    0    0    0 -0.00000000000E+00 -0.00000000000E+00 -0.45593999997E+02  0.45594000000E+02  0.51100000000E-03 0. -1.
    9900012    2    1    2    0    0 -0.64340350981E+00  0.54770993879E+00  0.82425102153E+00  0.90007600068E+02  0.89999859589E+02 0.  0.
         12    1    1    2    0    0  0.64340350981E+00 -0.54770993879E+00 -0.82425102153E+00  0.11803999322E+01  0.00000000000E+00 0. -1.
         11    1    3    3    0    0  0.86896295535E+01  0.20116060937E+01  0.16406338718E+01  0.90690628301E+01  0.51100000000E-03 0. -1.
        -11    1    3    3    0    0  0.19191498053E+02 -0.32609277909E+02 -0.62723826831E+01  0.38353896647E+02  0.51100000000E-03 0.  1.
         12    1    3    3    0    0 -0.28524531117E+02  0.31145381754E+02  0.54559998329E+01  0.42584640590E+02  0.00000000000E+00 0. -1.
</event>
<event>
 7    1  0.4331547E-015  0.9000800E+02  0.7816164E-02  0.1186339E+00
        -11   -1    0    0    0    0  0.00000000000E+00  0.00000000000E+00  0.45593999997E+02  0.45594000000E+02  0.51100000000E-03 0.  1.
         11   -1    0    0    0    0 -0.00000000000E+00 -0.00000000000E+00 -0.45593999997E+02  0.45594000000E+02  0.51100000000E-03 0. -1.
    9900012    2    1    2    0    0  0.14964132304E+00 -0.16887657684E+00  0.11582292266E+01  0.90007997133E+02  0.90000261895E+02 0.  0.
         12    1    1    2    0    0 -0.14964132304E+00  0.16887657684E+00 -0.11582292266E+01  0.11800028665E+01  0.00000000000E+00 0. -1.
         11    1    3    3    0    0  0.17320706779E+01  0.71083410819E+01  0.73046255869E+01  0.10338575192E+02  0.51100000000E-03 0. -1.
        -11    1    3    3    0    0  0.19002640721E+02  0.85277735921E+01  0.29169823260E+02  0.35842737983E+02  0.51100000000E-03 0.  1.
         12    1    3    3    0    0 -0.20585070076E+02 -0.15804991251E+02 -0.35316219621E+02  0.43826683958E+02  0.00000000000E+00 0. -1.
</event>
<event>
 7    1  0.4331547E-015  0.9000757E+02  0.7816164E-02  0.1186339E+00
        -11   -1    0    0    0    0  0.00000000000E+00  0.00000000000E+00  0.45593999997E+02  0.45594000000E+02  0.51100000000E-03 0.  1.
         11   -1    0    0    0    0 -0.00000000000E+00 -0.00000000000E+00 -0.45593999997E+02  0.45594000000E+02  0.51100000000E-03 0. -1.
    9900012    2    1    2    0    0  0.15051557577E-01 -0.10381204851E+01  0.56169662238E+00  0.90007566272E+02  0.89999825346E+02 0.  0.
         12    1    1    2    0    0 -0.15051557577E-01  0.10381204851E+01 -0.56169662238E+00  0.11804337282E+01  0.00000000000E+00 0. -1.
         11    1    3    3    0    0  0.70099518336E+01  0.63544379177E+01 -0.17625650651E+01  0.96241852554E+01  0.51100000000E-03 0. -1.
        -11    1    3    3    0    0  0.27746021924E+02  0.84477717168E+00 -0.23458195027E+02  0.36343394108E+02  0.51100000000E-03 0.  1.
         12    1    3    3    0    0 -0.34740922200E+02 -0.82373355745E+01  0.25782456715E+02  0.44039986909E+02  0.00000000000E+00 0. -1.
</event>
<event>
 7    1  0.4331547E-015  0.9000784E+02  0.7816164E-02  0.1186339E+00
        -11   -1    0    0    0    0  0.00000000000E+00  0.00000000000E+00  0.45593999997E+02  0.45594000000E+02  0.51100000000E-03 0.  1.
         11   -1    0    0    0    0 -0.00000000000E+00 -0.00000000000E+00 -0.45593999997E+02  0.45594000000E+02  0.51100000000E-03 0. -1.
    9900012    2    1    2    0    0 -0.54474596591E+00 -0.43117336604E-01  0.10460315385E+01  0.90007835074E+02  0.90000097697E+02 0.  0.
         12    1    1    2    0    0  0.54474596591E+00  0.43117336604E-01 -0.10460315385E+01  0.11801649256E+01  0.00000000000E+00 0. -1.
         11    1    3    3    0    0 -0.52889889686E+01  0.58691330180E+01 -0.43730394702E+01  0.90301495647E+01  0.51100000000E-03 0. -1.
        -11    1    3    3    0    0  0.41344369393E+02 -0.11018523200E+02  0.94045205415E+01  0.43808786116E+02  0.51100000000E-03 0.  1.
         12    1    3    3    0    0 -0.36600126391E+02  0.51062728457E+01 -0.39854495328E+01  0.37168899394E+02  0.00000000000E+00 0. -1.
</event>
<event>
 7    1  0.4331547E-015  0.9000772E+02  0.7816164E-02  0.1186339E+00
        -11   -1    0    0    0    0  0.00000000000E+00  0.00000000000E+00  0.45593999997E+02  0.45594000000E+02  0.51100000000E-03 0.  1.
         11   -1    0    0    0    0 -0.00000000000E+00 -0.00000000000E+00 -0.45593999997E+02  0.45594000000E+02  0.51100000000E-03 0. -1.
    9900012    2    1    2    0    0 -0.80499589628E+00 -0.77133955229E-01  0.85970068207E+00  0.90007723209E+02  0.89999984356E+02 0.  0.
         12    1    1    2    0    0  0.80499589628E+00  0.77133955229E-01 -0.85970068207E+00  0.11802767908E+01  0.00000000000E+00 0. -1.
         11    1    3    3    0    0 -0.10467292421E+02 -0.44294031154E+01  0.51554836883E+01  0.12480498184E+02  0.51100000000E-03 0. -1.
        -11    1    3    3    0    0 -0.24896599917E+02  0.26361344175E+01 -0.26466910468E+02  0.36431953586E+02  0.51100000000E-03 0.  1.
         12    1    3    3    0    0  0.34558896442E+02  0.17161347427E+01  0.22171127462E+02  0.41095271439E+02  0.00000000000E+00 0. -1.
</event>
<event>
 7    1  0.4331547E-015  0.9000776E+02  0.7816164E-02  0.1186339E+00
        -11   -1    0    0    0    0  0.00000000000E+00  0.00000000000E+00  0.45593999997E+02  0.45594000000E+02  0.51100000000E-03 0.  1.
         11   -1    0    0    0    0 -0.00000000000E+00 -0.00000000000E+00 -0.45593999997E+02  0.45594000000E+02  0.51100000000E-03 0. -1.
    9900012    2    1    2    0    0 -0.46004280381E+00  0.36187451415E+00 -0.10248823931E+01  0.90007755760E+02  0.90000017336E+02 0.  0.
         12    1    1    2    0    0  0.46004280381E+00 -0.36187451415E+00  0.10248823931E+01  0.11802442396E+01  0.00000000000E+00 0. -1.
         11    1    3    3    0    0  0.40631414773E+01 -0.97678964095E-01 -0.11742666073E+02  0.12426136432E+02  0.51100000000E-03 0. -1.
        -11    1    3    3    0    0 -0.32974882766E+02 -0.22718951609E+02  0.75295268983E+01  0.40745397670E+02  0.51100000000E-03 0.  1.
         12    1    3    3    0    0  0.28451698485E+02  0.23178505088E+02  0.31882567820E+01  0.36836221659E+02  0.00000000000E+00 0. -1.
</event>
<event>
 7    1  0.4331547E-015  0.9000773E+02  0.7816164E-02  0.1186339E+00
        -11   -1    0    0    0    0  0.00000000000E+00  0.00000000000E+00  0.45593999997E+02  0.45594000000E+02  0.51100000000E-03 0.  1.
         11   -1    0    0    0    0 -0.00000000000E+00 -0.00000000000E+00 -0.45593999997E+02  0.45594000000E+02  0.51100000000E-03 0. -1.
    9900012    2    1    2    0    0 -0.10078052281E+01 -0.31128236201E+00  0.52958969767E+00  0.90007731668E+02  0.89999992926E+02 0.  0.
         12    1    1    2    0    0  0.10078052281E+01  0.31128236201E+00 -0.52958969767E+00  0.11802683316E+01  0.00000000000E+00 0. -1.
         11    1    3    3    0    0  0.45569233367E+01 -0.57239045818E+01  0.81347033188E+01  0.10940842395E+02  0.51100000000E-03 0. -1.
        -11    1    3    3    0    0 -0.25108954177E+02 -0.28806803794E+02  0.27777717107E+01  0.38314586525E+02  0.51100000000E-03 0.  1.
         12    1    3    3    0    0  0.19544225612E+02  0.34219426014E+02 -0.10382885332E+02  0.40752302748E+02  0.00000000000E+00 0. -1.
</event>
<event>
 7    1  0.4331547E-015  0.9000777E+02  0.7816164E-02  0.1186339E+00
        -11   -1    0    0    0    0  0.00000000000E+00  0.00000000000E+00  0.45593999997E+02  0.45594000000E+02  0.51100000000E-03 0.  1.
         11   -1    0    0    0    0 -0.00000000000E+00 -0.00000000000E+00 -0.45593999997E+02  0.45594000000E+02  0.51100000000E-03 0. -1.
    9900012    2    1    2    0    0 -0.11733619974E+01  0.70842939024E-02 -0.12695372330E+00  0.90007768746E+02  0.90000030494E+02 0.  0.
         12    1    1    2    0    0  0.11733619974E+01 -0.70842939024E-02  0.12695372330E+00  0.11802312537E+01  0.00000000000E+00 0. -1.
         11    1    3    3    0    0 -0.48999284349E+01  0.85451867083E+01 -0.26261534110E+01  0.10194419873E+02  0.51100000000E-03 0. -1.
        -11    1    3    3    0    0  0.17406360662E+02  0.28038742186E+02 -0.15913813372E+02  0.36638803353E+02  0.51100000000E-03 0.  1.
         12    1    3    3    0    0 -0.13679794224E+02 -0.36576844600E+02  0.18413013060E+02  0.43174545520E+02  0.00000000000E+00 0. -1.
</event>
<event>
 7    1  0.4331547E-015  0.9000802E+02  0.7816164E-02  0.1186338E+00
        -11   -1    0    0    0    0  0.00000000000E+00  0.00000000000E+00  0.45593999997E+02  0.45594000000E+02  0.51100000000E-03 0.  1.
         11   -1    0    0    0    0 -0.00000000000E+00 -0.00000000000E+00 -0.45593999997E+02  0.45594000000E+02  0.51100000000E-03 0. -1.
    9900012    2    1    2    0    0  0.57294884353E+00 -0.10277112883E+01 -0.88816098720E-01  0.90008021539E+02  0.90000286623E+02 0.  0.
         12    1    1    2    0    0 -0.57294884353E+00  0.10277112883E+01  0.88816098720E-01  0.11799784612E+01  0.00000000000E+00 0. -1.
         11    1    3    3    0    0 -0.47091419818E+01 -0.33264921972E+01  0.65072339736E+01  0.86940015407E+01  0.51100000000E-03 0. -1.
        -11    1    3    3    0    0  0.19543130361E+02  0.15991619685E+02  0.30307143953E+02  0.39448559154E+02  0.51100000000E-03 0.  1.
         12    1    3    3    0    0 -0.14261039536E+02 -0.13692838776E+02 -0.36903194025E+02  0.41865460844E+02  0.00000000000E+00 0. -1.
</event>
<event>
 7    1  0.4331547E-015  0.9000792E+02  0.7816164E-02  0.1186339E+00
        -11   -1    0    0    0    0  0.00000000000E+00  0.00000000000E+00  0.45593999997E+02  0.45594000000E+02  0.51100000000E-03 0. -1.
         11   -1    0    0    0    0 -0.00000000000E+00 -0.00000000000E+00 -0.45593999997E+02  0.45594000000E+02  0.51100000000E-03 0.  1.
    9900012    2    1    2    0    0  0.11152324070E+01 -0.33101130434E+00 -0.19815618582E+00  0.90007924715E+02  0.90000188521E+02 0.  0.
         12    1    1    2    0    0 -0.11152324070E+01  0.33101130434E+00  0.19815618582E+00  0.11800752854E+01  0.00000000000E+00 0. -1.
         11    1    3    3    0    0  0.81017815774E+01 -0.29367549957E+00  0.31051805626E+02  0.32092674288E+02  0.51100000000E-03 0. -1.
        -11    1    3    3    0    0 -0.55769313881E+01  0.89130061050E+01  0.10698118494E+02  0.14999786035E+02  0.51100000000E-03 0.  1.
        -12    1    3    3    0    0 -0.14096177823E+01 -0.89503419097E+01 -0.41948080306E+02  0.42915464392E+02  0.00000000000E+00 0.  1.
</event>
<event>
 7    1  0.4331547E-015  0.9000781E+02  0.7816164E-02  0.1186339E+00
        -11   -1    0    0    0    0  0.00000000000E+00  0.00000000000E+00  0.45593999997E+02  0.45594000000E+02  0.51100000000E-03 0.  1.
         11   -1    0    0    0    0 -0.00000000000E+00 -0.00000000000E+00 -0.45593999997E+02  0.45594000000E+02  0.51100000000E-03 0. -1.
    9900012    2    1    2    0    0 -0.13397046115E+00 -0.41789079442E+00  0.10955668760E+01  0.90007810363E+02  0.90000072659E+02 0.  0.
         12    1    1    2    0    0  0.13397046115E+00  0.41789079442E+00 -0.10955668760E+01  0.11801896374E+01  0.00000000000E+00 0. -1.
         11    1    3    3    0    0  0.25101053217E+02  0.17629581138E+01  0.24522618911E+02  0.35135875291E+02  0.51100000000E-03 0. -1.
        -11    1    3    3    0    0  0.15607776116E+01 -0.44897719275E+01  0.10530618020E+02  0.11553700483E+02  0.51100000000E-03 0.  1.
        -12    1    3    3    0    0 -0.26795801290E+02  0.23089230193E+01 -0.33957670055E+02  0.43318234588E+02  0.00000000000E+00 0.  1.
</event>
<event>
 7    1  0.4331547E-015  0.9000772E+02  0.7816164E-02  0.1186339E+00
        -11   -1    0    0    0    0  0.00000000000E+00  0.00000000000E+00  0.45593999997E+02  0.45594000000E+02  0.51100000000E-03 0.  1.
         11   -1    0    0    0    0 -0.00000000000E+00 -0.00000000000E+00 -0.45593999997E+02  0.45594000000E+02  0.51100000000E-03 0. -1.
    9900012    2    1    2    0    0 -0.19591161184E+00 -0.66174260413E+00  0.95748460543E+00  0.90007719778E+02  0.89999980879E+02 0.  0.
         12    1    1    2    0    0  0.19591161184E+00  0.66174260413E+00 -0.95748460543E+00  0.11802802224E+01  0.00000000000E+00 0. -1.
         11    1    3    3    0    0  0.31657966392E+01  0.87824649714E+01 -0.57273863988E+00  0.93531806968E+01  0.51100000000E-03 0. -1.
        -11    1    3    3    0    0  0.73445995432E+01  0.26900661109E+02  0.23838485011E+02  0.36685992946E+02  0.51100000000E-03 0.  1.
         12    1    3    3    0    0 -0.10706307794E+02 -0.36344868684E+02 -0.22308261765E+02  0.43968546135E+02  0.00000000000E+00 0. -1.
</event>
<event>
 7    1  0.5925617E-015  0.9000772E+02  0.7816164E-02  0.1186339E+00
        -11   -1    0    0    0    0  0.00000000000E+00  0.00000000000E+00  0.45593999997E+02  0.45594000000E+02  0.51100000000E-03 0.  1.
         11   -1    0    0    0    0 -0.00000000000E+00 -0.00000000000E+00 -0.45593999997E+02  0.45594000000E+02  0.51100000000E-03 0. -1.
    9900012    2    1    2    0    0 -0.38949220800E+00  0.80431971985E+00  0.77098758675E+00  0.90007721960E+02  0.89999983090E+02 0.  0.
         12    1    1    2    0    0  0.38949220800E+00 -0.80431971985E+00 -0.77098758675E+00  0.11802780396E+01  0.00000000000E+00 0. -1.
         11    1    3    3    0    0  0.66183862438E+01  0.75817200250E+01 -0.93316170477E+00  0.10107240278E+02  0.51100000000E-03 0. -1.
        -11    1    3    3    0    0  0.12194073800E+02 -0.27612086350E+02  0.28053497727E+02  0.41208269600E+02  0.51100000000E-03 0.  1.
         12    1    3    3    0    0 -0.19201952252E+02  0.20834686045E+02 -0.26349348435E+02  0.38692212083E+02  0.00000000000E+00 0. -1.
</event>
<event>
 7    1  0.4331547E-015  0.9000777E+02  0.7816164E-02  0.1186339E+00
        -11   -1    0    0    0    0  0.00000000000E+00  0.00000000000E+00  0.45593999997E+02  0.45594000000E+02  0.51100000000E-03 0. -1.
         11   -1    0    0    0    0 -0.00000000000E+00 -0.00000000000E+00 -0.45593999997E+02  0.45594000000E+02  0.51100000000E-03 0.  1.
    9900012    2    1    2    0    0 -0.74149773140E+00  0.78432559171E+00 -0.47745189774E+00  0.90007768737E+02  0.90000030484E+02 0.  0.
         12    1    1    2    0    0  0.74149773140E+00 -0.78432559171E+00  0.47745189774E+00  0.11802312630E+01  0.00000000000E+00 0. -1.
         11    1    3    3    0    0 -0.29058631669E+02  0.30732002208E+01  0.16295149944E+02  0.33457144917E+02  0.51100000000E-03 0. -1.
        -11    1    3    3    0    0 -0.10937083819E+02 -0.85130974180E+01 -0.13756479526E+01  0.13927851150E+02  0.51100000000E-03 0.  1.
        -12    1    3    3    0    0  0.39254217756E+02  0.62242227889E+01 -0.15396953889E+02  0.42622772670E+02  0.00000000000E+00 0.  1.
</event>
<event>
 7    1  0.4331547E-015  0.9000767E+02  0.7816164E-02  0.1186339E+00
        -11   -1    0    0    0    0  0.00000000000E+00  0.00000000000E+00  0.45593999997E+02  0.45594000000E+02  0.51100000000E-03 0.  1.
         11   -1    0    0    0    0 -0.00000000000E+00 -0.00000000000E+00 -0.45593999997E+02  0.45594000000E+02  0.51100000000E-03 0. -1.
    9900012    2    1    2    0    0 -0.91108962671E+00  0.51928736666E-01  0.74859396022E+00  0.90007672156E+02  0.89999932629E+02 0.  0.
         12    1    1    2    0    0  0.91108962671E+00 -0.51928736666E-01 -0.74859396022E+00  0.11803278438E+01  0.00000000000E+00 0. -1.
         11    1    3    3    0    0 -0.29817898731E+01 -0.42897748482E+01 -0.38411324240E+02  0.38764972194E+02  0.51100000000E-03 0. -1.
        -11    1    3    3    0    0 -0.53035210521E+01  0.89499912293E+01 -0.71762537689E+00  0.10428071010E+02  0.51100000000E-03 0.  1.
        -12    1    3    3    0    0  0.73742212985E+01 -0.46082876445E+01  0.39877543577E+02  0.40814628952E+02  0.00000000000E+00 0.  1.
</event>
<event>
 7    1  0.4331547E-015  0.9000801E+02  0.7816164E-02  0.1186339E+00
        -11   -1    0    0    0    0  0.00000000000E+00  0.00000000000E+00  0.45593999997E+02  0.45594000000E+02  0.51100000000E-03 0.  1.
         11   -1    0    0    0    0 -0.00000000000E+00 -0.00000000000E+00 -0.45593999997E+02  0.45594000000E+02  0.51100000000E-03 0. -1.
    9900012    2    1    2    0    0  0.88789646388E+00 -0.61835174396E+00  0.47081190486E+00  0.90008007263E+02  0.90000272158E+02 0.  0.
         12    1    1    2    0    0 -0.88789646388E+00  0.61835174396E+00 -0.47081190486E+00  0.11799927371E+01  0.00000000000E+00 0. -1.
         11    1    3    3    0    0 -0.11553788745E+02 -0.75604201296E+01  0.26889340294E+01  0.14066995180E+02  0.51100000000E-03 0. -1.
        -11    1    3    3    0    0 -0.44817629572E+01  0.38082449745E+02 -0.10057902208E+02  0.39642408793E+02  0.51100000000E-03 0.  1.
         12    1    3    3    0    0  0.16923448167E+02 -0.31140381360E+02  0.78397800832E+01  0.36298603290E+02  0.00000000000E+00 0. -1.
</event>
<event>
 7    1  0.4331547E-015  0.9000767E+02  0.7816164E-02  0.1186339E+00
        -11   -1    0    0    0    0  0.00000000000E+00  0.00000000000E+00  0.45593999997E+02  0.45594000000E+02  0.51100000000E-03 0.  1.
         11   -1    0    0    0    0 -0.00000000000E+00 -0.00000000000E+00 -0.45593999997E+02  0.45594000000E+02  0.51100000000E-03 0. -1.
    9900012    2    1    2    0    0  0.96121567562E+00 -0.67448007493E+00 -0.11968154239E+00  0.90007668429E+02  0.89999928852E+02 0.  0.
         12    1    1    2    0    0 -0.96121567562E+00  0.67448007493E+00  0.11968154239E+00  0.11803315713E+01  0.00000000000E+00 0. -1.
         11    1    3    3    0    0  0.25567789643E+02 -0.32067880312E+02 -0.78245087905E+01  0.41752649652E+02  0.51100000000E-03 0. -1.
        -11    1    3    3    0    0 -0.91176033002E+00  0.10846238115E+01  0.96315083152E+01  0.97351768550E+01  0.51100000000E-03 0.  1.
        -12    1    3    3    0    0 -0.23694813638E+02  0.30308776425E+02 -0.19266810671E+01  0.38519841921E+02  0.00000000000E+00 0.  1.
</event>
<event>
 7    1  0.4331547E-015  0.9000660E+02  0.7816164E-02  0.1186341E+00
        -11   -1    0    0    0    0  0.00000000000E+00  0.00000000000E+00  0.45593999997E+02  0.45594000000E+02  0.51100000000E-03 0. -1.
         11   -1    0    0    0    0 -0.00000000000E+00 -0.00000000000E+00 -0.45593999997E+02  0.45594000000E+02  0.51100000000E-03 0.  1.
    9900012    2    1    2    0    0 -0.44828507246E+00 -0.68642397764E+00 -0.85062928547E+00  0.90006599321E+02  0.89998845625E+02 0.  0.
         12    1    1    2    0    0  0.44828507246E+00  0.68642397764E+00  0.85062928547E+00  0.11814006791E+01  0.00000000000E+00 0. -1.
         11    1    3    3    0    0  0.81736856155E+01  0.12344553689E+02  0.98941411411E+01  0.17807053981E+02  0.51100000000E-03 0. -1.
        -11    1    3    3    0    0 -0.38405166634E+02 -0.19839461724E+01  0.62128268877E+00  0.38461394398E+02  0.51100000000E-03 0.  1.
         12    1    3    3    0    0  0.29783195946E+02 -0.11047031494E+02 -0.11366053115E+02  0.33738150942E+02  0.00000000000E+00 0. -1.
</event>
<event>
 7    1  0.4331547E-015  0.9000758E+02  0.7816164E-02  0.1186339E+00
        -11   -1    0    0    0    0  0.00000000000E+00  0.00000000000E+00  0.45593999997E+02  0.45594000000E+02  0.51100000000E-03 0.  1.
         11   -1    0    0    0    0 -0.00000000000E+00 -0.00000000000E+00 -0.45593999997E+02  0.45594000000E+02  0.51100000000E-03 0. -1.
    9900012    2    1    2    0    0 -0.98996920426E+00  0.26149246048E-01  0.64239555112E+00  0.90007578528E+02  0.89999837764E+02 0.  0.
         12    1    1    2    0    0  0.98996920426E+00 -0.26149246048E-01 -0.64239555112E+00  0.11804214724E+01  0.00000000000E+00 0. -1.
         11    1    3    3    0    0 -0.22383108518E+01 -0.98464301884E+01  0.64869989964E+01  0.12001807329E+02  0.51100000000E-03 0. -1.
        -11    1    3    3    0    0  0.19569149725E+02 -0.23270883757E+02  0.15926171546E+02  0.34323877872E+02  0.51100000000E-03 0.  1.
         12    1    3    3    0    0 -0.18320808077E+02  0.33143463191E+02 -0.21770774991E+02  0.43681893327E+02  0.00000000000E+00 0. -1.
</event>
<event>
 7    1  0.4331547E-015  0.9000846E+02  0.7816164E-02  0.1186338E+00
        -11   -1    0    0    0    0  0.00000000000E+00  0.00000000000E+00  0.45593999997E+02  0.45594000000E+02  0.51100000000E-03 0.  1.
         11   -1    0    0    0    0 -0.00000000000E+00 -0.00000000000E+00 -0.45593999997E+02  0.45594000000E+02  0.51100000000E-03 0. -1.
    9900012    2    1    2    0    0  0.30307490389E+00  0.72589043734E-01  0.11376203761E+01  0.90008464631E+02  0.90000735561E+02 0.  0.
         12    1    1    2    0    0 -0.30307490389E+00 -0.72589043734E-01 -0.11376203761E+01  0.11795353690E+01  0.00000000000E+00 0. -1.
         11    1    3    3    0    0  0.19656198672E+02 -0.27399262247E+02 -0.20222245551E+02  0.39319523564E+02  0.51100000000E-03 0. -1.
        -11    1    3    3    0    0  0.81951181698E+01  0.63442793755E+01  0.92717684306E+00  0.10405263080E+02  0.51100000000E-03 0.  1.
        -12    1    3    3    0    0 -0.27548241938E+02  0.21127571915E+02  0.20432689084E+02  0.40283677987E+02  0.00000000000E+00 0.  1.
</event>
<event>
 7    1  0.4331547E-015  0.9000768E+02  0.7816164E-02  0.1186339E+00
        -11   -1    0    0    0    0  0.00000000000E+00  0.00000000000E+00  0.45593999997E+02  0.45594000000E+02  0.51100000000E-03 0. -1.
         11   -1    0    0    0    0 -0.00000000000E+00 -0.00000000000E+00 -0.45593999997E+02  0.45594000000E+02  0.51100000000E-03 0.  1.
    9900012    2    1    2    0    0  0.50561582174E+00  0.10371936905E+01 -0.24847574866E+00  0.90007678727E+02  0.89999939286E+02 0.  0.
         12    1    1    2    0    0 -0.50561582174E+00 -0.10371936905E+01  0.24847574866E+00  0.11803212734E+01  0.00000000000E+00 0. -1.
         11    1    3    3    0    0  0.35974887811E+02  0.57820482519E+01  0.18788498119E+01  0.36484992968E+02  0.51100000000E-03 0. -1.
        -11    1    3    3    0    0  0.80563407243E+01 -0.48141712691E+01 -0.33902195900E+01  0.99787003164E+01  0.51100000000E-03 0.  1.
        -12    1    3    3    0    0 -0.43525612713E+02  0.69316707643E-01  0.12628940295E+01  0.43543985442E+02  0.00000000000E+00 0.  1.
</event>
<event>
 7    1  0.4331547E-015  0.9000795E+02  0.7816164E-02  0.1186339E+00
        -11   -1    0    0    0    0  0.00000000000E+00  0.00000000000E+00  0.45593999997E+02  0.45594000000E+02  0.51100000000E-03 0.  1.
         11   -1    0    0    0    0 -0.00000000000E+00 -0.00000000000E+00 -0.45593999997E+02  0.45594000000E+02  0.51100000000E-03 0. -1.
    9900012    2    1    2    0    0  0.54494372875E+00 -0.58588871068E+00  0.86734407526E+00  0.90007951275E+02  0.90000215431E+02 0.  0.
         12    1    1    2    0    0 -0.54494372875E+00  0.58588871068E+00 -0.86734407526E+00  0.11800487251E+01  0.00000000000E+00 0. -1.
         11    1    3    3    0    0  0.10054020393E+02 -0.27800498114E+01  0.21272708169E+02  0.23692617333E+02  0.51100000000E-03 0. -1.
        -11    1    3    3    0    0 -0.40065278040E+01 -0.27761999478E+02  0.25656608002E+01  0.28166708996E+02  0.51100000000E-03 0.  1.
         12    1    3    3    0    0 -0.55025488598E+01  0.29956160579E+02 -0.22971024893E+02  0.38148624946E+02  0.00000000000E+00 0. -1.
</event>
<event>
 7    1  0.4331547E-015  0.9000777E+02  0.7816164E-02  0.1186339E+00
        -11   -1    0    0    0    0  0.00000000000E+00  0.00000000000E+00  0.45593999997E+02  0.45594000000E+02  0.51100000000E-03 0.  1.
         11   -1    0    0    0    0 -0.00000000000E+00 -0.00000000000E+00 -0.45593999997E+02  0.45594000000E+02  0.51100000000E-03 0. -1.
    9900012    2    1    2    0    0 -0.10864302105E+01  0.36200530626E+00  0.28561035924E+00  0.90007766243E+02  0.90000027957E+02 0.  0.
         12    1    1    2    0    0  0.10864302105E+01 -0.36200530626E+00 -0.28561035924E+00  0.11802337570E+01  0.00000000000E+00 0. -1.
         11    1    3    3    0    0 -0.87031073160E+00 -0.39031851810E+01  0.92427473790E+01  0.10070783222E+02  0.51100000000E-03 0. -1.
        -11    1    3    3    0    0 -0.35053798517E+02  0.14993462237E+02  0.91896549863E+01  0.39217629446E+02  0.51100000000E-03 0.  1.
         12    1    3    3    0    0  0.34837679038E+02 -0.10728271749E+02 -0.18146792006E+02  0.40719353575E+02  0.00000000000E+00 0. -1.
</event>
<event>
 7    1  0.4331547E-015  0.9000780E+02  0.7816164E-02  0.1186339E+00
        -11   -1    0    0    0    0  0.00000000000E+00  0.00000000000E+00  0.45593999997E+02  0.45594000000E+02  0.51100000000E-03 0.  1.
         11   -1    0    0    0    0 -0.00000000000E+00 -0.00000000000E+00 -0.45593999997E+02  0.45594000000E+02  0.51100000000E-03 0. -1.
    9900012    2    1    2    0    0 -0.95158976162E+00 -0.61578303341E+00  0.32886996089E+00  0.90007802021E+02  0.90000064208E+02 0.  0.
         12    1    1    2    0    0  0.95158976162E+00  0.61578303341E+00 -0.32886996089E+00  0.11801979791E+01  0.00000000000E+00 0. -1.
         11    1    3    3    0    0  0.22951965877E+01 -0.93143301677E+01 -0.28076888304E+01  0.99953884706E+01  0.51100000000E-03 0. -1.
        -11    1    3    3    0    0  0.10464868738E+02 -0.32758430782E+02  0.99927103195E+01  0.35811765173E+02  0.51100000000E-03 0.  1.
         12    1    3    3    0    0 -0.13711655088E+02  0.41456977916E+02 -0.68561515282E+01  0.44200648377E+02  0.00000000000E+00 0. -1.
</event>
<event>
 7    1  0.4331547E-015  0.9000775E+02  0.7816164E-02  0.1186339E+00
        -11   -1    0    0    0    0  0.00000000000E+00  0.00000000000E+00  0.45593999997E+02  0.45594000000E+02  0.51100000000E-03 0. -1.
         11   -1    0    0    0    0 -0.00000000000E+00 -0.00000000000E+00 -0.45593999997E+02  0.45594000000E+02  0.51100000000E-03 0.  1.
    9900012    2    1    2    0    0  0.94317688738E+00  0.32735918361E+00 -0.62946960643E+00  0.90007754830E+02  0.90000016394E+02 0.  0.
         12    1    1    2    0    0 -0.94317688738E+00 -0.32735918361E+00  0.62946960643E+00  0.11802451700E+01  0.00000000000E+00 0. -1.
         11    1    3    3    0    0 -0.30483445243E+01 -0.60066750774E+01  0.35635979326E+01  0.76204842570E+01  0.51100000000E-03 0. -1.
        -11    1    3    3    0    0 -0.16995110556E+02 -0.32375785010E+02  0.63430929576E+01  0.37111454652E+02  0.51100000000E-03 0.  1.
         12    1    3    3    0    0  0.20986631968E+02  0.38709819271E+02 -0.10536160497E+02  0.45275815921E+02  0.00000000000E+00 0. -1.
</event>
<event>
 7    1  0.4331547E-015  0.9000764E+02  0.7816164E-02  0.1186339E+00
        -11   -1    0    0    0    0  0.00000000000E+00  0.00000000000E+00  0.45593999997E+02  0.45594000000E+02  0.51100000000E-03 0.  1.
         11   -1    0    0    0    0 -0.00000000000E+00 -0.00000000000E+00 -0.45593999997E+02  0.45594000000E+02  0.51100000000E-03 0. -1.
    9900012    2    1    2    0    0  0.38234315929E+00 -0.11069262883E+01  0.14754901650E+00  0.90007642931E+02  0.89999903017E+02 0.  0.
         12    1    1    2    0    0 -0.38234315929E+00  0.11069262883E+01 -0.14754901650E+00  0.11803570695E+01  0.00000000000E+00 0. -1.
         11    1    3    3    0    0 -0.12276973433E+02 -0.13280267532E+02 -0.32885053643E+02  0.37530205645E+02  0.51100000000E-03 0. -1.
        -11    1    3    3    0    0  0.67164369782E+01 -0.38328706333E+01 -0.60562268236E+01  0.98223880281E+01  0.51100000000E-03 0.  1.
        -12    1    3    3    0    0  0.59428796144E+01  0.16006211877E+02  0.39088829483E+02  0.42655049257E+02  0.00000000000E+00 0.  1.
</event>
<event>
 7    1  0.4331547E-015  0.9000778E+02  0.7816164E-02  0.1186339E+00
        -11   -1    0    0    0    0  0.00000000000E+00  0.00000000000E+00  0.45593999997E+02  0.45594000000E+02  0.51100000000E-03 0. -1.
         11   -1    0    0    0    0 -0.00000000000E+00 -0.00000000000E+00 -0.45593999997E+02  0.45594000000E+02  0.51100000000E-03 0.  1.
    9900012    2    1    2    0    0  0.65498137804E+00 -0.30903165055E+00 -0.93189153014E+00  0.90007778415E+02  0.90000040290E+02 0.  0.
         12    1    1    2    0    0 -0.65498137804E+00  0.30903165055E+00  0.93189153014E+00  0.11802215854E+01  0.00000000000E+00 0. -1.
         11    1    3    3    0    0 -0.36738831719E+01 -0.26625370853E+01 -0.87495000010E+01  0.98559764518E+01  0.51100000000E-03 0. -1.
        -11    1    3    3    0    0 -0.29628572981E+01  0.40375236298E+02 -0.79142073366E+00  0.40491537098E+02  0.51100000000E-03 0.  1.
         12    1    3    3    0    0  0.72917218481E+01 -0.38021730863E+02  0.86090292045E+01  0.39660264865E+02  0.00000000000E+00 0. -1.
</event>
<event>
 7    1  0.4331547E-015  0.9000772E+02  0.7816164E-02  0.1186339E+00
        -11   -1    0    0    0    0  0.00000000000E+00  0.00000000000E+00  0.45593999997E+02  0.45594000000E+02  0.51100000000E-03 0. -1.
         11   -1    0    0    0    0 -0.00000000000E+00 -0.00000000000E+00 -0.45593999997E+02  0.45594000000E+02  0.51100000000E-03 0.  1.
    9900012    2    1    2    0    0  0.76572667877E+00  0.86833361804E+00 -0.22961971273E+00  0.90007717902E+02  0.89999978978E+02 0.  0.
         12    1    1    2    0    0 -0.76572667877E+00 -0.86833361804E+00  0.22961971273E+00  0.11802820982E+01  0.00000000000E+00 0. -1.
         11    1    3    3    0    0 -0.92119869106E+01 -0.39715999347E+01  0.29740558137E+01  0.10463236456E+02  0.51100000000E-03 0. -1.
        -11    1    3    3    0    0  0.12580896012E+02 -0.28925367326E+02  0.21021901618E+02  0.37906149466E+02  0.51100000000E-03 0.  1.
         12    1    3    3    0    0 -0.26031824227E+01  0.33765300879E+02 -0.24225577144E+02  0.41638331981E+02  0.00000000000E+00 0. -1.
</event>
<event>
 7    1  0.4331547E-015  0.9000774E+02  0.7816164E-02  0.1186339E+00
        -11   -1    0    0    0    0  0.00000000000E+00  0.00000000000E+00  0.45593999997E+02  0.45594000000E+02  0.51100000000E-03 0.  1.
         11   -1    0    0    0    0 -0.00000000000E+00 -0.00000000000E+00 -0.45593999997E+02  0.45594000000E+02  0.51100000000E-03 0. -1.
    9900012    2    1    2    0    0  0.96090247629E+00 -0.46789373795E+00  0.50074579992E+00  0.90007743894E+02  0.90000005314E+02 0.  0.
         12    1    1    2    0    0 -0.96090247629E+00  0.46789373795E+00 -0.50074579992E+00  0.11802561057E+01  0.00000000000E+00 0. -1.
         11    1    3    3    0    0  0.40148456688E+02  0.76481204895E+01  0.85814581781E+01  0.41761630070E+02  0.51100000000E-03 0. -1.
        -11    1    3    3    0    0 -0.22759963114E+01  0.61596531808E+01  0.28947653329E+01  0.71764303878E+01  0.51100000000E-03 0.  1.
        -12    1    3    3    0    0 -0.36911557900E+02 -0.14275667408E+02 -0.10975477711E+02  0.41069683436E+02  0.00000000000E+00 0.  1.
</event>
<event>
 7    1  0.4331547E-015  0.9000762E+02  0.7816164E-02  0.1186339E+00
        -11   -1    0    0    0    0  0.00000000000E+00  0.00000000000E+00  0.45593999997E+02  0.45594000000E+02  0.51100000000E-03 0.  1.
         11   -1    0    0    0    0 -0.00000000000E+00 -0.00000000000E+00 -0.45593999997E+02  0.45594000000E+02  0.51100000000E-03 0. -1.
    9900012    2    1    2    0    0 -0.10427947706E+01  0.54372860910E+00  0.10121369084E+00  0.90007616187E+02  0.89999875921E+02 0.  0.
         12    1    1    2    0    0  0.10427947706E+01 -0.54372860910E+00 -0.10121369084E+00  0.11803838127E+01  0.00000000000E+00 0. -1.
         11    1    3    3    0    0 -0.19197963397E+02 -0.31611400018E+02 -0.71289375059E+01  0.37665158435E+02  0.51100000000E-03 0. -1.
        -11    1    3    3    0    0  0.61666234044E+01 -0.72664427377E+01  0.57104471957E+01  0.11110249399E+02  0.51100000000E-03 0.  1.
        -12    1    3    3    0    0  0.11988545222E+02  0.39421571365E+02  0.15197040011E+01  0.41232208353E+02  0.00000000000E+00 0.  1.
</event>
<event>
 7    1  0.4331547E-015  0.9000775E+02  0.7816164E-02  0.1186339E+00
        -11   -1    0    0    0    0  0.00000000000E+00  0.00000000000E+00  0.45593999997E+02  0.45594000000E+02  0.51100000000E-03 0.  1.
         11   -1    0    0    0    0 -0.00000000000E+00 -0.00000000000E+00 -0.45593999997E+02  0.45594000000E+02  0.51100000000E-03 0. -1.
    9900012    2    1    2    0    0 -0.40354503082E+00 -0.83709233499E+00  0.72761327310E+00  0.90007748652E+02  0.90000010134E+02 0.  0.
         12    1    1    2    0    0  0.40354503082E+00  0.83709233499E+00 -0.72761327310E+00  0.11802513480E+01  0.00000000000E+00 0. -1.
         11    1    3    3    0    0  0.20196446357E+01  0.42041435448E+02 -0.99632705062E+01  0.43253069468E+02  0.51100000000E-03 0. -1.
        -11    1    3    3    0    0 -0.50066949462E+01 -0.71767184140E+01 -0.16247318301E+01  0.89001143397E+01  0.51100000000E-03 0.  1.
        -12    1    3    3    0    0  0.25835052797E+01 -0.35701809369E+02  0.12315615609E+02  0.37854564844E+02  0.00000000000E+00 0.  1.
</event>
<event>
 7    1  0.4331547E-015  0.9000774E+02  0.7816164E-02  0.1186339E+00
        -11   -1    0    0    0    0  0.00000000000E+00  0.00000000000E+00  0.45593999997E+02  0.45594000000E+02  0.51100000000E-03 0.  1.
         11   -1    0    0    0    0 -0.00000000000E+00 -0.00000000000E+00 -0.45593999997E+02  0.45594000000E+02  0.51100000000E-03 0. -1.
    9900012    2    1    2    0    0 -0.36786286680E+00 -0.93261815891E+00  0.62282548704E+00  0.90007741000E+02  0.90000002381E+02 0.  0.
         12    1    1    2    0    0  0.36786286680E+00  0.93261815891E+00 -0.62282548704E+00  0.11802589997E+01  0.00000000000E+00 0. -1.
         11    1    3    3    0    0  0.18180649767E+02  0.29496100613E+02 -0.19051220987E+02  0.39541181048E+02  0.51100000000E-03 0. -1.
        -11    1    3    3    0    0 -0.94995361488E-01  0.43373253267E+01  0.85129990687E+01  0.95547144653E+01  0.51100000000E-03 0.  1.
        -12    1    3    3    0    0 -0.18453517272E+02 -0.34766044098E+02  0.11161047406E+02  0.40911845487E+02  0.00000000000E+00 0.  1.
</event>
<event>
 7    1  0.4331547E-015  0.9000764E+02  0.7816164E-02  0.1186339E+00
        -11   -1    0    0    0    0  0.00000000000E+00  0.00000000000E+00  0.45593999997E+02  0.45594000000E+02  0.51100000000E-03 0. -1.
         11   -1    0    0    0    0 -0.00000000000E+00 -0.00000000000E+00 -0.45593999997E+02  0.45594000000E+02  0.51100000000E-03 0.  1.
    9900012    2    1    2    0    0  0.78869959780E+00  0.17969351671E+00 -0.85960452228E+00  0.90007637026E+02  0.89999897035E+02 0.  0.
         12    1    1    2    0    0 -0.78869959780E+00 -0.17969351671E+00  0.85960452228E+00  0.11803629739E+01  0.00000000000E+00 0. -1.
         11    1    3    3    0    0 -0.28812462698E+02 -0.13327294014E+02  0.13065265498E+02  0.34328937287E+02  0.51100000000E-03 0. -1.
        -11    1    3    3    0    0 -0.80136750756E+01 -0.72386111639E+01 -0.11335670342E+01  0.10858243609E+02  0.51100000000E-03 0.  1.
        -12    1    3    3    0    0  0.37614837371E+02  0.20745598694E+02 -0.12791302986E+02  0.44820456130E+02  0.00000000000E+00 0.  1.
</event>
<event>
 7    1  0.4331547E-015  0.9000778E+02  0.7816164E-02  0.1186339E+00
        -11   -1    0    0    0    0  0.00000000000E+00  0.00000000000E+00  0.45593999997E+02  0.45594000000E+02  0.51100000000E-03 0. -1.
         11   -1    0    0    0    0 -0.00000000000E+00 -0.00000000000E+00 -0.45593999997E+02  0.45594000000E+02  0.51100000000E-03 0.  1.
    9900012    2    1    2    0    0 -0.90572046115E+00 -0.25557561985E+00  0.71223020042E+00  0.90007779550E+02  0.90000041440E+02 0.  0.
         12    1    1    2    0    0  0.90572046115E+00  0.25557561985E+00 -0.71223020042E+00  0.11802204496E+01  0.00000000000E+00 0. -1.
         11    1    3    3    0    0 -0.10522797432E+01 -0.46327161975E+01  0.69434959214E+01  0.84131734735E+01  0.51100000000E-03 0. -1.
        -11    1    3    3    0    0  0.24843950062E+02 -0.24802442383E+02 -0.20660453168E+02  0.40733736978E+02  0.51100000000E-03 0.  1.
         12    1    3    3    0    0 -0.24697390779E+02  0.29179582961E+02  0.14429187447E+02  0.40860869099E+02  0.00000000000E+00 0. -1.
</event>
<event>
 7    1  0.4331547E-015  0.9000826E+02  0.7816164E-02  0.1186338E+00
        -11   -1    0    0    0    0  0.00000000000E+00  0.00000000000E+00  0.45593999997E+02  0.45594000000E+02  0.51100000000E-03 0. -1.
         11   -1    0    0    0    0 -0.00000000000E+00 -0.00000000000E+00 -0.45593999997E+02  0.45594000000E+02  0.51100000000E-03 0.  1.
    9900012    2    1    2    0    0  0.11446415809E+01 -0.12991143141E+00  0.25436040488E+00  0.90008262510E+02  0.90000530774E+02 0.  0.
         12    1    1    2    0    0 -0.11446415809E+01  0.12991143141E+00 -0.25436040488E+00  0.11797374896E+01  0.00000000000E+00 0. -1.
         11    1    3    3    0    0 -0.34651463711E+02  0.27929393334E+01  0.10105520658E+02  0.36202845129E+02  0.51100000000E-03 0. -1.
        -11    1    3    3    0    0 -0.77084609133E+01 -0.49214091333E+01  0.41068273994E-01  0.91456177688E+01  0.51100000000E-03 0.  1.
        -12    1    3    3    0    0  0.43504566205E+02  0.19985583684E+01 -0.98922285269E+01  0.44659799613E+02  0.00000000000E+00 0.  1.
</event>
<event>
 7    1  0.4331547E-015  0.9000770E+02  0.7816164E-02  0.1186339E+00
        -11   -1    0    0    0    0  0.00000000000E+00  0.00000000000E+00  0.45593999997E+02  0.45594000000E+02  0.51100000000E-03 0.  1.
         11   -1    0    0    0    0 -0.00000000000E+00 -0.00000000000E+00 -0.45593999997E+02  0.45594000000E+02  0.51100000000E-03 0. -1.
    9900012    2    1    2    0    0  0.83881325910E+00 -0.11448965083E+00  0.82243110551E+00  0.90007699832E+02  0.89999960670E+02 0.  0.
         12    1    1    2    0    0 -0.83881325910E+00  0.11448965083E+00 -0.82243110551E+00  0.11803001682E+01  0.00000000000E+00 0. -1.
         11    1    3    3    0    0 -0.11887152600E+02  0.29141618690E+02 -0.23145214510E+02  0.39067112662E+02  0.51100000000E-03 0. -1.
        -11    1    3    3    0    0  0.35121820515E+01  0.30936287209E+01 -0.47824808233E+01  0.66916428858E+01  0.51100000000E-03 0.  1.
        -12    1    3    3    0    0  0.92137838072E+01 -0.32349737061E+02  0.28750126439E+02  0.44248944284E+02  0.00000000000E+00 0.  1.
</event>
<event>
 7    1  0.4331547E-015  0.9000761E+02  0.7816164E-02  0.1186339E+00
        -11   -1    0    0    0    0  0.00000000000E+00  0.00000000000E+00  0.45593999997E+02  0.45594000000E+02  0.51100000000E-03 0.  1.
         11   -1    0    0    0    0 -0.00000000000E+00 -0.00000000000E+00 -0.45593999997E+02  0.45594000000E+02  0.51100000000E-03 0. -1.
    9900012    2    1    2    0    0  0.11476935893E+01  0.14752248635E+00  0.23317088628E+00  0.90007605099E+02  0.89999864687E+02 0.  0.
         12    1    1    2    0    0 -0.11476935893E+01 -0.14752248635E+00 -0.23317088628E+00  0.11803949005E+01  0.00000000000E+00 0. -1.
         11    1    3    3    0    0  0.16636341257E+01  0.71781575823E+01 -0.59494630709E+01  0.94704665077E+01  0.51100000000E-03 0. -1.
        -11    1    3    3    0    0  0.30176450844E+02  0.20529378745E+02 -0.71389518166E+01  0.37189221698E+02  0.51100000000E-03 0.  1.
         12    1    3    3    0    0 -0.30692391380E+02 -0.27560013841E+02  0.13321585774E+02  0.43347916894E+02  0.00000000000E+00 0. -1.
</event>
<event>
 7    1  0.4331547E-015  0.9000784E+02  0.7816164E-02  0.1186339E+00
        -11   -1    0    0    0    0  0.00000000000E+00  0.00000000000E+00  0.45593999997E+02  0.45594000000E+02  0.51100000000E-03 0.  1.
         11   -1    0    0    0    0 -0.00000000000E+00 -0.00000000000E+00 -0.45593999997E+02  0.45594000000E+02  0.51100000000E-03 0. -1.
    9900012    2    1    2    0    0 -0.50930636730E-02 -0.98559252007E+00  0.64911704393E+00  0.90007842599E+02  0.90000105321E+02 0.  0.
         12    1    1    2    0    0  0.50930636730E-02  0.98559252007E+00 -0.64911704393E+00  0.11801574012E+01  0.00000000000E+00 0. -1.
         11    1    3    3    0    0  0.91244332284E+01  0.11341688985E+02 -0.10817999176E+02  0.18136104797E+02  0.51100000000E-03 0. -1.
        -11    1    3    3    0    0  0.28665479963E+02 -0.60260557104E+01 -0.57725082831E+01  0.29855400535E+02  0.51100000000E-03 0.  1.
         12    1    3    3    0    0 -0.37795006255E+02 -0.63012257948E+01  0.17239624503E+02  0.42016337267E+02  0.00000000000E+00 0. -1.
</event>
<event>
 7    1  0.4331547E-015  0.9000783E+02  0.7816164E-02  0.1186339E+00
        -11   -1    0    0    0    0  0.00000000000E+00  0.00000000000E+00  0.45593999997E+02  0.45594000000E+02  0.51100000000E-03 0.  1.
         11   -1    0    0    0    0 -0.00000000000E+00 -0.00000000000E+00 -0.45593999997E+02  0.45594000000E+02  0.51100000000E-03 0. -1.
    9900012    2    1    2    0    0  0.38783885240E+00  0.50335008672E+00  0.99450063262E+00  0.90007825524E+02  0.90000088021E+02 0.  0.
         12    1    1    2    0    0 -0.38783885240E+00 -0.50335008672E+00 -0.99450063262E+00  0.11801744759E+01  0.00000000000E+00 0. -1.
         11    1    3    3    0    0  0.73320284775E+01  0.35323104864E+01  0.50484043347E+01  0.95771731505E+01  0.51100000000E-03 0. -1.
        -11    1    3    3    0    0 -0.11844975639E+02 -0.36396428802E+02  0.15672457209E+02  0.41359755713E+02  0.51100000000E-03 0.  1.
         12    1    3    3    0    0  0.49007860137E+01  0.33367468402E+02 -0.19726360911E+02  0.39070896661E+02  0.00000000000E+00 0. -1.
</event>
<event>
 7    1  0.4331547E-015  0.9000765E+02  0.7816164E-02  0.1186339E+00
        -11   -1    0    0    0    0  0.00000000000E+00  0.00000000000E+00  0.45593999997E+02  0.45594000000E+02  0.51100000000E-03 0.  1.
         11   -1    0    0    0    0 -0.00000000000E+00 -0.00000000000E+00 -0.45593999997E+02  0.45594000000E+02  0.51100000000E-03 0. -1.
    9900012    2    1    2    0    0 -0.84232277884E+00 -0.81328305031E+00 -0.14929598816E+00  0.90007649935E+02  0.89999910114E+02 0.  0.
         12    1    1    2    0    0  0.84232277884E+00  0.81328305031E+00  0.14929598816E+00  0.11803500649E+01  0.00000000000E+00 0. -1.
         11    1    3    3    0    0 -0.60401556608E+01 -0.17117593968E+02 -0.30653237116E+02  0.35624660695E+02  0.51100000000E-03 0. -1.
        -11    1    3    3    0    0 -0.61829651729E+00 -0.13979560554E+02  0.72444667683E+01  0.15757306334E+02  0.51100000000E-03 0.  1.
        -12    1    3    3    0    0  0.58161293993E+01  0.30283871472E+02  0.23259474359E+02  0.38625682907E+02  0.00000000000E+00 0.  1.
</event>
<event>
 7    1  0.4331547E-015  0.9000777E+02  0.7816164E-02  0.1186339E+00
        -11   -1    0    0    0    0  0.00000000000E+00  0.00000000000E+00  0.45593999997E+02  0.45594000000E+02  0.51100000000E-03 0.  1.
         11   -1    0    0    0    0 -0.00000000000E+00 -0.00000000000E+00 -0.45593999997E+02  0.45594000000E+02  0.51100000000E-03 0. -1.
    9900012    2    1    2    0    0  0.61709795246E+00 -0.44678536229E+00  0.90140007960E+00  0.90007767334E+02  0.90000029063E+02 0.  0.
         12    1    1    2    0    0 -0.61709795246E+00  0.44678536229E+00 -0.90140007960E+00  0.11802326662E+01  0.00000000000E+00 0. -1.
         11    1    3    3    0    0 -0.20841190080E+02  0.87813309594E+01 -0.37385335648E+02  0.43693595631E+02  0.51100000000E-03 0. -1.
        -11    1    3    3    0    0  0.15555377670E+01 -0.55184283531E+01  0.70000159971E+01  0.90483685520E+01  0.51100000000E-03 0.  1.
        -12    1    3    3    0    0  0.19902750265E+02 -0.37096879686E+01  0.31286719731E+02  0.37265803151E+02  0.00000000000E+00 0.  1.
</event>
<event>
 7    1  0.4331547E-015  0.9000774E+02  0.7816164E-02  0.1186339E+00
        -11   -1    0    0    0    0  0.00000000000E+00  0.00000000000E+00  0.45593999997E+02  0.45594000000E+02  0.51100000000E-03 0.  1.
         11   -1    0    0    0    0 -0.00000000000E+00 -0.00000000000E+00 -0.45593999997E+02  0.45594000000E+02  0.51100000000E-03 0. -1.
    9900012    2    1    2    0    0  0.43247313147E+00  0.98335721447E+00  0.48885873051E+00  0.90007742706E+02  0.90000004110E+02 0.  0.
         12    1    1    2    0    0 -0.43247313147E+00 -0.98335721447E+00 -0.48885873051E+00  0.11802572936E+01  0.00000000000E+00 0. -1.
         11    1    3    3    0    0  0.44493007422E+01  0.67029121907E+01  0.80408744509E+01  0.11374575646E+02  0.51100000000E-03 0. -1.
        -11    1    3    3    0    0 -0.26763537299E+02  0.18240635726E+02  0.17829079502E+02  0.36971391596E+02  0.51100000000E-03 0.  1.
         12    1    3    3    0    0  0.22746709688E+02 -0.23960190702E+02 -0.25381095223E+02  0.41661775464E+02  0.00000000000E+00 0. -1.
</event>
<event>
 7    1  0.4331547E-015  0.9000762E+02  0.7816164E-02  0.1186339E+00
        -11   -1    0    0    0    0  0.00000000000E+00  0.00000000000E+00  0.45593999997E+02  0.45594000000E+02  0.51100000000E-03 0.  1.
         11   -1    0    0    0    0 -0.00000000000E+00 -0.00000000000E+00 -0.45593999997E+02  0.45594000000E+02  0.51100000000E-03 0. -1.
    9900012    2    1    2    0    0  0.42718319623E+00  0.74649382912E+00  0.80842612065E+00  0.90007622386E+02  0.89999882201E+02 0.  0.
         12    1    1    2    0    0 -0.42718319623E+00 -0.74649382912E+00 -0.80842612065E+00  0.11803776144E+01  0.00000000000E+00 0. -1.
         11    1    3    3    0    0  0.12094734968E+01 -0.91260036485E+01 -0.14667980020E+01  0.93219239093E+01  0.51100000000E-03 0. -1.
        -11    1    3    3    0    0  0.29099559696E+02 -0.12567363668E+02  0.21851188918E+02  0.38499317675E+02  0.51100000000E-03 0.  1.
         12    1    3    3    0    0 -0.29881849996E+02  0.22439861146E+02 -0.19575964795E+02  0.42186380801E+02  0.00000000000E+00 0. -1.
</event>
<event>
 7    1  0.4331547E-015  0.9000779E+02  0.7816164E-02  0.1186339E+00
        -11   -1    0    0    0    0  0.00000000000E+00  0.00000000000E+00  0.45593999997E+02  0.45594000000E+02  0.51100000000E-03 0.  1.
         11   -1    0    0    0    0 -0.00000000000E+00 -0.00000000000E+00 -0.45593999997E+02  0.45594000000E+02  0.51100000000E-03 0. -1.
    9900012    2    1    2    0    0 -0.69010421811E+00  0.71865931730E+00  0.63259829776E+00  0.90007789996E+02  0.90000052024E+02 0.  0.
         12    1    1    2    0    0  0.69010421811E+00 -0.71865931730E+00 -0.63259829776E+00  0.11802100036E+01  0.00000000000E+00 0. -1.
         11    1    3    3    0    0  0.13057551814E+01  0.12727645516E+02 -0.29272891507E+02  0.31946832932E+02  0.51100000000E-03 0. -1.
        -11    1    3    3    0    0  0.16141411879E+00 -0.21618448881E+01 -0.13411944928E+02  0.13586018359E+02  0.51100000000E-03 0.  1.
        -12    1    3    3    0    0 -0.21572735183E+01 -0.98471413101E+01  0.43317434733E+02  0.44474938705E+02  0.00000000000E+00 0.  1.
</event>
<event>
 7    1  0.4331547E-015  0.9000767E+02  0.7816164E-02  0.1186339E+00
        -11   -1    0    0    0    0  0.00000000000E+00  0.00000000000E+00  0.45593999997E+02  0.45594000000E+02  0.51100000000E-03 0.  1.
         11   -1    0    0    0    0 -0.00000000000E+00 -0.00000000000E+00 -0.45593999997E+02  0.45594000000E+02  0.51100000000E-03 0. -1.
    9900012    2    1    2    0    0  0.41856888799E+00  0.72414355567E+00  0.83282257031E+00  0.90007670708E+02  0.89999931162E+02 0.  0.
         12    1    1    2    0    0 -0.41856888799E+00 -0.72414355567E+00 -0.83282257031E+00  0.11803292917E+01  0.00000000000E+00 0. -1.
         11    1    3    3    0    0  0.20989444953E+01 -0.81990601092E+01  0.68123480787E+01  0.10864540546E+02  0.51100000000E-03 0. -1.
        -11    1    3    3    0    0  0.12368661312E+02 -0.63670745464E+01  0.32536887677E+02  0.35386049241E+02  0.51100000000E-03 0.  1.
         12    1    3    3    0    0 -0.14049036919E+02  0.15290278211E+02 -0.38516413185E+02  0.43757080922E+02  0.00000000000E+00 0. -1.
</event>
<event>
 7    1  0.4331547E-015  0.9000773E+02  0.7816164E-02  0.1186339E+00
        -11   -1    0    0    0    0  0.00000000000E+00  0.00000000000E+00  0.45593999997E+02  0.45594000000E+02  0.51100000000E-03 0.  1.
         11   -1    0    0    0    0 -0.00000000000E+00 -0.00000000000E+00 -0.45593999997E+02  0.45594000000E+02  0.51100000000E-03 0. -1.
    9900012    2    1    2    0    0 -0.47196325548E-01  0.62083052680E+00  0.10026869957E+01  0.90007729164E+02  0.89999990388E+02 0.  0.
         12    1    1    2    0    0  0.47196325548E-01 -0.62083052680E+00 -0.10026869957E+01  0.11802708365E+01  0.00000000000E+00 0. -1.
         11    1    3    3    0    0 -0.19797056443E+02 -0.51033612267E+01  0.73100183565E+01  0.21711842581E+02  0.51100000000E-03 0. -1.
        -11    1    3    3    0    0 -0.23842287744E+01 -0.26589905759E+02  0.57607214375E+01  0.27311051735E+02  0.51100000000E-03 0.  1.
         12    1    3    3    0    0  0.22134088892E+02  0.32314097512E+02 -0.12068052798E+02  0.40984834848E+02  0.00000000000E+00 0. -1.
</event>
<event>
 7    1  0.4331547E-015  0.9000772E+02  0.7816164E-02  0.1186339E+00
        -11   -1    0    0    0    0  0.00000000000E+00  0.00000000000E+00  0.45593999997E+02  0.45594000000E+02  0.51100000000E-03 0. -1.
         11   -1    0    0    0    0 -0.00000000000E+00 -0.00000000000E+00 -0.45593999997E+02  0.45594000000E+02  0.51100000000E-03 0.  1.
    9900012    2    1    2    0    0 -0.12625145487E+00  0.11676439599E+01 -0.11722110949E+00  0.90007715019E+02  0.89999976058E+02 0.  0.
         12    1    1    2    0    0  0.12625145487E+00 -0.11676439599E+01  0.11722110949E+00  0.11802849806E+01  0.00000000000E+00 0. -1.
         11    1    3    3    0    0  0.66282341095E+01 -0.20036382768E+02  0.31365082594E+02  0.37804213102E+02  0.51100000000E-03 0. -1.
        -11    1    3    3    0    0  0.91364711813E+01 -0.22060672152E+01  0.61084750780E+00  0.94188626248E+01  0.51100000000E-03 0.  1.
        -12    1    3    3    0    0 -0.15890956746E+02  0.23410093943E+02 -0.32093151212E+02  0.42784639293E+02  0.00000000000E+00 0.  1.
</event>
<event>
 7    1  0.4331547E-015  0.9000750E+02  0.7816164E-02  0.1186340E+00
        -11   -1    0    0    0    0  0.00000000000E+00  0.00000000000E+00  0.45593999997E+02  0.45594000000E+02  0.51100000000E-03 0.  1.
         11   -1    0    0    0    0 -0.00000000000E+00 -0.00000000000E+00 -0.45593999997E+02  0.45594000000E+02  0.51100000000E-03 0. -1.
    9900012    2    1    2    0    0 -0.47403585348E+00 -0.60781863507E-01  0.10794313585E+01  0.90007501596E+02  0.89999759816E+02 0.  0.
         12    1    1    2    0    0  0.47403585348E+00  0.60781863507E-01 -0.10794313585E+01  0.11804984045E+01  0.00000000000E+00 0. -1.
         11    1    3    3    0    0  0.13731670885E+02  0.34937694176E+02  0.84173114343E+01  0.38471449046E+02  0.51100000000E-03 0. -1.
        -11    1    3    3    0    0 -0.31337204887E+01  0.58262691895E+01 -0.64318690351E+01  0.92268389124E+01  0.51100000000E-03 0.  1.
        -12    1    3    3    0    0 -0.11071986250E+02 -0.40824745230E+02 -0.90601104078E+00  0.42309213637E+02  0.00000000000E+00 0.  1.
</event>
<event>
 7    1  0.4331547E-015  0.9000776E+02  0.7816164E-02  0.1186339E+00
        -11   -1    0    0    0    0  0.00000000000E+00  0.00000000000E+00  0.45593999997E+02  0.45594000000E+02  0.51100000000E-03 0.  1.
         11   -1    0    0    0    0 -0.00000000000E+00 -0.00000000000E+00 -0.45593999997E+02  0.45594000000E+02  0.51100000000E-03 0. -1.
    9900012    2    1    2    0    0  0.14009465952E+00 -0.80690767177E-02  0.11718656699E+01  0.90007762409E+02  0.90000024073E+02 0.  0.
         12    1    1    2    0    0 -0.14009465952E+00  0.80690767177E-02 -0.11718656699E+01  0.11802375912E+01  0.00000000000E+00 0. -1.
         11    1    3    3    0    0 -0.19296378480E+01 -0.74970307549E+01 -0.79641828099E+01  0.11106627771E+02  0.51100000000E-03 0. -1.
        -11    1    3    3    0    0 -0.22441389223E+02  0.29788127174E+01 -0.26854742332E+02  0.35123588391E+02  0.51100000000E-03 0.  1.
         12    1    3    3    0    0  0.24511121730E+02  0.45101489608E+01  0.35990790812E+02  0.43777546247E+02  0.00000000000E+00 0. -1.
</event>
<event>
 7    1  0.4331547E-015  0.9000815E+02  0.7816164E-02  0.1186338E+00
        -11   -1    0    0    0    0  0.00000000000E+00  0.00000000000E+00  0.45593999997E+02  0.45594000000E+02  0.51100000000E-03 0.  1.
         11   -1    0    0    0    0 -0.00000000000E+00 -0.00000000000E+00 -0.45593999997E+02  0.45594000000E+02  0.51100000000E-03 0. -1.
    9900012    2    1    2    0    0 -0.52342376688E+00  0.12654840022E+00  0.10497935649E+01  0.90008146845E+02  0.90000413583E+02 0.  0.
         12    1    1    2    0    0  0.52342376688E+00 -0.12654840022E+00 -0.10497935649E+01  0.11798531546E+01  0.00000000000E+00 0. -1.
         11    1    3    3    0    0  0.18066849269E+02  0.20031566318E+02  0.17294462988E+02  0.32043301047E+02  0.51100000000E-03 0. -1.
        -11    1    3    3    0    0  0.14770831971E+02 -0.26692121613E+01 -0.13709992556E+02  0.20328946525E+02  0.51100000000E-03 0.  1.
        -12    1    3    3    0    0 -0.33361105007E+02 -0.17235805756E+02 -0.25346768674E+01  0.37635899274E+02  0.00000000000E+00 0.  1.
</event>
<event>
 7    1  0.4331547E-015  0.9000778E+02  0.7816164E-02  0.1186339E+00
        -11   -1    0    0    0    0  0.00000000000E+00  0.00000000000E+00  0.45593999997E+02  0.45594000000E+02  0.51100000000E-03 0.  1.
         11   -1    0    0    0    0 -0.00000000000E+00 -0.00000000000E+00 -0.45593999997E+02  0.45594000000E+02  0.51100000000E-03 0. -1.
    9900012    2    1    2    0    0  0.28025794137E+00  0.74492988685E+00  0.87147132390E+00  0.90007776581E+02  0.90000038432E+02 0.  0.
         12    1    1    2    0    0 -0.28025794137E+00 -0.74492988685E+00 -0.87147132390E+00  0.11802234189E+01  0.00000000000E+00 0. -1.
         11    1    3    3    0    0  0.29869051674E+02 -0.86952648146E+01 -0.47651207090E+01  0.31471800929E+02  0.51100000000E-03 0. -1.
        -11    1    3    3    0    0  0.91087663585E+01 -0.96750508935E+01 -0.48039610301E+01  0.14129907155E+02  0.51100000000E-03 0.  1.
        -12    1    3    3    0    0 -0.38697560091E+02  0.19115245595E+02  0.10440553063E+02  0.44406068497E+02  0.00000000000E+00 0.  1.
</event>
<event>
 7    1  0.4331547E-015  0.9000779E+02  0.7816164E-02  0.1186339E+00
        -11   -1    0    0    0    0  0.00000000000E+00  0.00000000000E+00  0.45593999997E+02  0.45594000000E+02  0.51100000000E-03 0.  1.
         11   -1    0    0    0    0 -0.00000000000E+00 -0.00000000000E+00 -0.45593999997E+02  0.45594000000E+02  0.51100000000E-03 0. -1.
    9900012    2    1    2    0    0  0.76604780076E+00  0.89000693270E+00  0.11808204401E+00  0.90007794534E+02  0.90000056622E+02 0.  0.
         12    1    1    2    0    0 -0.76604780076E+00 -0.89000693270E+00 -0.11808204401E+00  0.11802054662E+01  0.00000000000E+00 0. -1.
         11    1    3    3    0    0 -0.39876544459E+02  0.14565570404E+01 -0.30528339580E+01  0.40019747024E+02  0.51100000000E-03 0. -1.
        -11    1    3    3    0    0  0.25272096037E+01 -0.43985249308E+01  0.98717418048E+01  0.11098878163E+02  0.51100000000E-03 0.  1.
        -12    1    3    3    0    0  0.38115382656E+02  0.38319748231E+01 -0.67008258028E+01  0.38889169347E+02  0.00000000000E+00 0.  1.
</event>
<event>
 7    1  0.4331547E-015  0.9000768E+02  0.7816164E-02  0.1186339E+00
        -11   -1    0    0    0    0  0.00000000000E+00  0.00000000000E+00  0.45593999997E+02  0.45594000000E+02  0.51100000000E-03 0.  1.
         11   -1    0    0    0    0 -0.00000000000E+00 -0.00000000000E+00 -0.45593999997E+02  0.45594000000E+02  0.51100000000E-03 0. -1.
    9900012    2    1    2    0    0  0.53995345319E+00 -0.99489725235E+00 -0.33435457169E+00  0.90007676632E+02  0.89999937163E+02 0.  0.
         12    1    1    2    0    0 -0.53995345319E+00  0.99489725235E+00  0.33435457169E+00  0.11803233684E+01  0.00000000000E+00 0. -1.
         11    1    3    3    0    0 -0.16276805033E+02 -0.14373515432E+02  0.10904616160E+02  0.24299032529E+02  0.51100000000E-03 0. -1.
        -11    1    3    3    0    0 -0.48783579626E+01  0.10277403255E+02  0.22652454356E+02  0.25348709685E+02  0.51100000000E-03 0.  1.
         12    1    3    3    0    0  0.21695116449E+02  0.31012149248E+01 -0.33891425088E+02  0.40359934418E+02  0.00000000000E+00 0. -1.
</event>
<event>
 7    1  0.4331547E-015  0.9000777E+02  0.7816164E-02  0.1186339E+00
        -11   -1    0    0    0    0  0.00000000000E+00  0.00000000000E+00  0.45593999997E+02  0.45594000000E+02  0.51100000000E-03 0.  1.
         11   -1    0    0    0    0 -0.00000000000E+00 -0.00000000000E+00 -0.45593999997E+02  0.45594000000E+02  0.51100000000E-03 0. -1.
    9900012    2    1    2    0    0  0.49618479094E+00 -0.44753479639E+00  0.97285999336E+00  0.90007769807E+02  0.90000031569E+02 0.  0.
         12    1    1    2    0    0 -0.49618479094E+00  0.44753479639E+00 -0.97285999336E+00  0.11802301926E+01  0.00000000000E+00 0. -1.
         11    1    3    3    0    0 -0.17545618714E+02  0.34995298515E+02  0.12179364860E+02  0.40998250973E+02  0.51100000000E-03 0. -1.
        -11    1    3    3    0    0  0.30999459149E+00 -0.17987715663E+01  0.67214506326E+01  0.69648815254E+01  0.51100000000E-03 0.  1.
        -12    1    3    3    0    0  0.17731808914E+02 -0.33644061745E+02 -0.17927955499E+02  0.42044637309E+02  0.00000000000E+00 0.  1.
</event>
<event>
 7    1  0.4331547E-015  0.9000780E+02  0.7816164E-02  0.1186339E+00
        -11   -1    0    0    0    0  0.00000000000E+00  0.00000000000E+00  0.45593999997E+02  0.45594000000E+02  0.51100000000E-03 0.  1.
         11   -1    0    0    0    0 -0.00000000000E+00 -0.00000000000E+00 -0.45593999997E+02  0.45594000000E+02  0.51100000000E-03 0. -1.
    9900012    2    1    2    0    0 -0.10915652992E+01  0.43553010380E+00  0.10803371380E+00  0.90007799781E+02  0.90000061938E+02 0.  0.
         12    1    1    2    0    0  0.10915652992E+01 -0.43553010380E+00 -0.10803371380E+00  0.11802002191E+01  0.00000000000E+00 0. -1.
         11    1    3    3    0    0 -0.50384077203E+01  0.77307029493E+01 -0.67399834737E+01  0.11427016143E+02  0.51100000000E-03 0. -1.
        -11    1    3    3    0    0 -0.36240601185E+02  0.74775677963E+00 -0.31796262544E+01  0.36387502495E+02  0.51100000000E-03 0.  1.
         12    1    3    3    0    0  0.40187443606E+02 -0.80429296251E+01  0.10027643442E+02  0.42193281142E+02  0.00000000000E+00 0. -1.
</event>
<event>
 7    1  0.4331547E-015  0.9000774E+02  0.7816164E-02  0.1186339E+00
        -11   -1    0    0    0    0  0.00000000000E+00  0.00000000000E+00  0.45593999997E+02  0.45594000000E+02  0.51100000000E-03 0.  1.
         11   -1    0    0    0    0 -0.00000000000E+00 -0.00000000000E+00 -0.45593999997E+02  0.45594000000E+02  0.51100000000E-03 0. -1.
    9900012    2    1    2    0    0  0.44990814983E+00  0.10813805149E+01 -0.14560964652E+00  0.90007744379E+02  0.90000005805E+02 0.  0.
         12    1    1    2    0    0 -0.44990814983E+00 -0.10813805149E+01  0.14560964652E+00  0.11802556208E+01  0.00000000000E+00 0. -1.
         11    1    3    3    0    0 -0.21092931253E+02 -0.23265075434E+01  0.32699576711E+02  0.38981876604E+02  0.51100000000E-03 0. -1.
        -11    1    3    3    0    0  0.58980944701E+01  0.14328289342E+00  0.63679968576E+01  0.86809810854E+01  0.51100000000E-03 0.  1.
        -12    1    3    3    0    0  0.15644744933E+02  0.32646051648E+01 -0.39213183215E+02  0.42344886690E+02  0.00000000000E+00 0.  1.
</event>
<event>
 7    1  0.4331547E-015  0.9000778E+02  0.7816164E-02  0.1186339E+00
        -11   -1    0    0    0    0  0.00000000000E+00  0.00000000000E+00  0.45593999997E+02  0.45594000000E+02  0.51100000000E-03 0.  1.
         11   -1    0    0    0    0 -0.00000000000E+00 -0.00000000000E+00 -0.45593999997E+02  0.45594000000E+02  0.51100000000E-03 0. -1.
    9900012    2    1    2    0    0  0.38489626358E+00 -0.11001349347E+01  0.18567755699E+00  0.90007780460E+02  0.90000042362E+02 0.  0.
         12    1    1    2    0    0 -0.38489626358E+00  0.11001349347E+01 -0.18567755699E+00  0.11802195403E+01  0.00000000000E+00 0. -1.
         11    1    3    3    0    0 -0.20694247021E+02  0.32561020436E+02 -0.15287132693E+02  0.41499016107E+02  0.51100000000E-03 0. -1.
        -11    1    3    3    0    0  0.37183867098E+01 -0.69919149884E+01 -0.61574609275E+01  0.10031330932E+02  0.51100000000E-03 0.  1.
        -12    1    3    3    0    0  0.17360756575E+02 -0.26669240383E+02  0.21630271177E+02  0.38477433421E+02  0.00000000000E+00 0.  1.
</event>
<event>
 7    1  0.4331547E-015  0.9000781E+02  0.7816164E-02  0.1186339E+00
        -11   -1    0    0    0    0  0.00000000000E+00  0.00000000000E+00  0.45593999997E+02  0.45594000000E+02  0.51100000000E-03 0.  1.
         11   -1    0    0    0    0 -0.00000000000E+00 -0.00000000000E+00 -0.45593999997E+02  0.45594000000E+02  0.51100000000E-03 0. -1.
    9900012    2    1    2    0    0 -0.58584317091E+00  0.18918859931E+00  0.10068965724E+01  0.90007811348E+02  0.90000073658E+02 0.  0.
         12    1    1    2    0    0  0.58584317091E+00 -0.18918859931E+00 -0.10068965724E+01  0.11801886521E+01  0.00000000000E+00 0. -1.
         11    1    3    3    0    0 -0.26301938008E+01  0.31229896318E+02 -0.20532963357E+02  0.37467678444E+02  0.51100000000E-03 0. -1.
        -11    1    3    3    0    0 -0.61805704553E+01  0.59687937977E+01 -0.64059447684E+00  0.86160496806E+01  0.51100000000E-03 0.  1.
        -12    1    3    3    0    0  0.82249210852E+01 -0.37009501517E+02  0.22180454406E+02  0.43924083224E+02  0.00000000000E+00 0.  1.
</event>
<event>
 7    1  0.4331547E-015  0.9000770E+02  0.7816164E-02  0.1186339E+00
        -11   -1    0    0    0    0  0.00000000000E+00  0.00000000000E+00  0.45593999997E+02  0.45594000000E+02  0.51100000000E-03 0.  1.
         11   -1    0    0    0    0 -0.00000000000E+00 -0.00000000000E+00 -0.45593999997E+02  0.45594000000E+02  0.51100000000E-03 0. -1.
    9900012    2    1    2    0    0 -0.66878387754E+00  0.62590094065E+00  0.74436993918E+00  0.90007698992E+02  0.89999959819E+02 0.  0.
         12    1    1    2    0    0  0.66878387754E+00 -0.62590094065E+00 -0.74436993918E+00  0.11803010077E+01  0.00000000000E+00 0. -1.
         11    1    3    3    0    0 -0.24975142706E+02 -0.13880211535E+02 -0.28612335360E+02  0.40436168964E+02  0.51100000000E-03 0. -1.
        -11    1    3    3    0    0 -0.46448935651E+01 -0.24431046936E+01  0.87414153359E+01  0.10195888343E+02  0.51100000000E-03 0.  1.
        -12    1    3    3    0    0  0.28951252394E+02  0.16949217169E+02  0.20615289964E+02  0.39375641685E+02  0.00000000000E+00 0.  1.
</event>
<event>
 7    1  0.4331547E-015  0.9000767E+02  0.7816164E-02  0.1186339E+00
        -11   -1    0    0    0    0  0.00000000000E+00  0.00000000000E+00  0.45593999997E+02  0.45594000000E+02  0.51100000000E-03 0.  1.
         11   -1    0    0    0    0 -0.00000000000E+00 -0.00000000000E+00 -0.45593999997E+02  0.45594000000E+02  0.51100000000E-03 0. -1.
    9900012    2    1    2    0    0  0.10981549669E-01  0.85899018628E+00  0.80943437448E+00  0.90007674307E+02  0.89999934808E+02 0.  0.
         12    1    1    2    0    0 -0.10981549669E-01 -0.85899018628E+00 -0.80943437448E+00  0.11803256928E+01  0.00000000000E+00 0. -1.
         11    1    3    3    0    0  0.57387720828E+01 -0.54766921783E+01  0.43680133345E+01  0.90557828478E+01  0.51100000000E-03 0. -1.
        -11    1    3    3    0    0 -0.28239838303E+02 -0.14275802125E+02  0.24089218794E+02  0.39769051486E+02  0.51100000000E-03 0.  1.
         12    1    3    3    0    0  0.22512047770E+02  0.20611484489E+02 -0.27647797754E+02  0.41182839974E+02  0.00000000000E+00 0. -1.
</event>
<event>
 7    1  0.4331547E-015  0.9000770E+02  0.7816164E-02  0.1186339E+00
        -11   -1    0    0    0    0  0.00000000000E+00  0.00000000000E+00  0.45593999997E+02  0.45594000000E+02  0.51100000000E-03 0. -1.
         11   -1    0    0    0    0 -0.00000000000E+00 -0.00000000000E+00 -0.45593999997E+02  0.45594000000E+02  0.51100000000E-03 0.  1.
    9900012    2    1    2    0    0 -0.54608665445E-01  0.11776138425E+01  0.57837688714E-01  0.90007702721E+02  0.89999963597E+02 0.  0.
         12    1    1    2    0    0  0.54608665445E-01 -0.11776138425E+01 -0.57837688714E-01  0.11802972790E+01  0.00000000000E+00 0. -1.
         11    1    3    3    0    0 -0.40250678669E+01  0.91745440607E+01 -0.78868746365E+01  0.12750538100E+02  0.51100000000E-03 0. -1.
        -11    1    3    3    0    0 -0.13771764887E+02  0.24057731290E+02  0.24553361182E+02  0.37031115140E+02  0.51100000000E-03 0.  1.
         12    1    3    3    0    0  0.17742224089E+02 -0.32054661508E+02 -0.16608648857E+02  0.40226049481E+02  0.00000000000E+00 0. -1.
</event>
<event>
 7    1  0.4331547E-015  0.9000774E+02  0.7816164E-02  0.1186339E+00
        -11   -1    0    0    0    0  0.00000000000E+00  0.00000000000E+00  0.45593999997E+02  0.45594000000E+02  0.51100000000E-03 0. -1.
         11   -1    0    0    0    0 -0.00000000000E+00 -0.00000000000E+00 -0.45593999997E+02  0.45594000000E+02  0.51100000000E-03 0.  1.
    9900012    2    1    2    0    0  0.12903120889E+00  0.79879655118E+00 -0.85924130444E+00  0.90007737062E+02  0.89999998391E+02 0.  0.
         12    1    1    2    0    0 -0.12903120889E+00 -0.79879655118E+00  0.85924130444E+00  0.11802629378E+01  0.00000000000E+00 0. -1.
         11    1    3    3    0    0 -0.35377972548E+02  0.33400461784E+01  0.12384479025E+02  0.37631531606E+02  0.51100000000E-03 0. -1.
        -11    1    3    3    0    0  0.12899142340E+01  0.34881736583E+01  0.99361552203E+01  0.10609355071E+02  0.51100000000E-03 0.  1.
        -12    1    3    3    0    0  0.34217089522E+02 -0.60294232856E+01 -0.23179875550E+02  0.41766850385E+02  0.00000000000E+00 0.  1.
</event>
<event>
 7    1  0.4331547E-015  0.9000775E+02  0.7816164E-02  0.1186339E+00
        -11   -1    0    0    0    0  0.00000000000E+00  0.00000000000E+00  0.45593999997E+02  0.45594000000E+02  0.51100000000E-03 0. -1.
         11   -1    0    0    0    0 -0.00000000000E+00 -0.00000000000E+00 -0.45593999997E+02  0.45594000000E+02  0.51100000000E-03 0.  1.
    9900012    2    1    2    0    0 -0.74251351110E+00 -0.91742124323E+00  0.10551164347E-02  0.90007750380E+02  0.90000011885E+02 0.  0.
         12    1    1    2    0    0  0.74251351110E+00  0.91742124323E+00 -0.10551164347E-02  0.11802496198E+01  0.00000000000E+00 0. -1.
         11    1    3    3    0    0  0.31637323792E+02 -0.22673363240E+02 -0.14006867764E+02  0.41366580741E+02  0.51100000000E-03 0. -1.
        -11    1    3    3    0    0  0.25741603308E+01  0.88648643594E+01  0.15645748223E+01  0.93626927833E+01  0.51100000000E-03 0.  1.
        -12    1    3    3    0    0 -0.34953997634E+02  0.12891077637E+02  0.12443348058E+02  0.39278476856E+02  0.00000000000E+00 0.  1.
</event>
<event>
 7    1  0.4331547E-015  0.9000777E+02  0.7816164E-02  0.1186339E+00
        -11   -1    0    0    0    0  0.00000000000E+00  0.00000000000E+00  0.45593999997E+02  0.45594000000E+02  0.51100000000E-03 0.  1.
         11   -1    0    0    0    0 -0.00000000000E+00 -0.00000000000E+00 -0.45593999997E+02  0.45594000000E+02  0.51100000000E-03 0. -1.
    9900012    2    1    2    0    0  0.35651188833E+00  0.27949319769E+00  0.10898301960E+01  0.90007768230E+02  0.90000029971E+02 0.  0.
         12    1    1    2    0    0 -0.35651188833E+00 -0.27949319769E+00 -0.10898301960E+01  0.11802317697E+01  0.00000000000E+00 0. -1.
         11    1    3    3    0    0  0.65437933527E+01 -0.30754922219E+01 -0.11625469855E+02  0.13690560012E+02  0.51100000000E-03 0. -1.
        -11    1    3    3    0    0 -0.88313017059E+01  0.29017849972E+02 -0.18725598472E+02  0.35646536230E+02  0.51100000000E-03 0.  1.
         12    1    3    3    0    0  0.26440202415E+01 -0.25662864552E+02  0.31440898522E+02  0.40670671988E+02  0.00000000000E+00 0. -1.
</event>
<event>
 7    1  0.4331547E-015  0.9000775E+02  0.7816164E-02  0.1186339E+00
        -11   -1    0    0    0    0  0.00000000000E+00  0.00000000000E+00  0.45593999997E+02  0.45594000000E+02  0.51100000000E-03 0.  1.
         11   -1    0    0    0    0 -0.00000000000E+00 -0.00000000000E+00 -0.45593999997E+02  0.45594000000E+02  0.51100000000E-03 0. -1.
    9900012    2    1    2    0    0  0.94782197570E+00  0.61137404696E+00  0.34762010929E+00  0.90007752372E+02  0.90000013903E+02 0.  0.
         12    1    1    2    0    0 -0.94782197570E+00 -0.61137404696E+00 -0.34762010929E+00  0.11802476280E+01  0.00000000000E+00 0. -1.
         11    1    3    3    0    0 -0.34610574301E+01  0.17702476367E+02 -0.30184924921E+02  0.35163706869E+02  0.51100000000E-03 0. -1.
        -11    1    3    3    0    0 -0.29736383657E+01 -0.10880104689E+01 -0.10083609243E+02  0.10569080733E+02  0.51100000000E-03 0.  1.
        -12    1    3    3    0    0  0.73825177714E+01 -0.16003091852E+02  0.40616154273E+02  0.44274964770E+02  0.00000000000E+00 0.  1.
</event>
<event>
 7    1  0.4331547E-015  0.9000781E+02  0.7816164E-02  0.1186339E+00
        -11   -1    0    0    0    0  0.00000000000E+00  0.00000000000E+00  0.45593999997E+02  0.45594000000E+02  0.51100000000E-03 0. -1.
         11   -1    0    0    0    0 -0.00000000000E+00 -0.00000000000E+00 -0.45593999997E+02  0.45594000000E+02  0.51100000000E-03 0.  1.
    9900012    2    1    2    0    0 -0.11132811932E+01  0.37454691245E+00  0.11475438941E+00  0.90007809772E+02  0.90000072061E+02 0.  0.
         12    1    1    2    0    0  0.11132811932E+01 -0.37454691245E+00 -0.11475438941E+00  0.11801902281E+01  0.00000000000E+00 0. -1.
         11    1    3    3    0    0 -0.23277438851E+02 -0.10451046779E+02  0.30843857174E+02  0.40030076991E+02  0.51100000000E-03 0. -1.
        -11    1    3    3    0    0  0.16817987199E+01 -0.93017740862E+01 -0.26555557519E+01  0.98185245682E+01  0.51100000000E-03 0.  1.
        -12    1    3    3    0    0  0.20482358938E+02  0.20127367777E+02 -0.28073547033E+02  0.40159208213E+02  0.00000000000E+00 0.  1.
</event>
<event>
 7    1  0.4331547E-015  0.9000772E+02  0.7816164E-02  0.1186339E+00
        -11   -1    0    0    0    0  0.00000000000E+00  0.00000000000E+00  0.45593999997E+02  0.45594000000E+02  0.51100000000E-03 0. -1.
         11   -1    0    0    0    0 -0.00000000000E+00 -0.00000000000E+00 -0.45593999997E+02  0.45594000000E+02  0.51100000000E-03 0.  1.
    9900012    2    1    2    0    0  0.10854149207E+01 -0.46103012829E+00  0.48742822645E-01  0.90007724527E+02  0.89999985691E+02 0.  0.
         12    1    1    2    0    0 -0.10854149207E+01  0.46103012829E+00 -0.48742822645E-01  0.11802754730E+01  0.00000000000E+00 0. -1.
         11    1    3    3    0    0  0.67453397953E+01 -0.11372744441E+02 -0.25535882852E+02  0.28756220864E+02  0.51100000000E-03 0. -1.
        -11    1    3    3    0    0  0.19241451712E+02 -0.22771657751E+01 -0.46455846726E+01  0.19924869012E+02  0.51100000000E-03 0.  1.
         12    1    3    3    0    0 -0.24901376586E+02  0.13188880088E+02  0.30230210348E+02  0.41326634651E+02  0.00000000000E+00 0. -1.
</event>
<event>
 7    1  0.4331547E-015  0.9000774E+02  0.7816164E-02  0.1186339E+00
        -11   -1    0    0    0    0  0.00000000000E+00  0.00000000000E+00  0.45593999997E+02  0.45594000000E+02  0.51100000000E-03 0.  1.
         11   -1    0    0    0    0 -0.00000000000E+00 -0.00000000000E+00 -0.45593999997E+02  0.45594000000E+02  0.51100000000E-03 0. -1.
    9900012    2    1    2    0    0 -0.11160580550E+01 -0.90408884353E-01  0.37318372637E+00  0.90007735012E+02  0.89999996314E+02 0.  0.
         12    1    1    2    0    0  0.11160580550E+01  0.90408884353E-01 -0.37318372637E+00  0.11802649881E+01  0.00000000000E+00 0. -1.
         11    1    3    3    0    0 -0.14224652710E+02  0.31870866343E+02 -0.24928330448E+02  0.42889561963E+02  0.51100000000E-03 0. -1.
        -11    1    3    3    0    0  0.60669520813E+01  0.73296289591E+00  0.56802574946E+01  0.83432887778E+01  0.51100000000E-03 0.  1.
        -12    1    3    3    0    0  0.70416425741E+01 -0.32694238123E+02  0.19621256679E+02  0.38774884271E+02  0.00000000000E+00 0.  1.
</event>
<event>
 7    1  0.4331547E-015  0.9000735E+02  0.7816164E-02  0.1186340E+00
        -11   -1    0    0    0    0  0.00000000000E+00  0.00000000000E+00  0.45593999997E+02  0.45594000000E+02  0.51100000000E-03 0.  1.
         11   -1    0    0    0    0 -0.00000000000E+00 -0.00000000000E+00 -0.45593999997E+02  0.45594000000E+02  0.51100000000E-03 0. -1.
    9900012    2    1    2    0    0 -0.83262027005E+00  0.82504252233E+00  0.14136915353E+00  0.90007348944E+02  0.89999605150E+02 0.  0.
         12    1    1    2    0    0  0.83262027005E+00 -0.82504252233E+00 -0.14136915353E+00  0.11806510557E+01  0.00000000000E+00 0. -1.
         11    1    3    3    0    0 -0.36523466748E+02 -0.15679043815E+02 -0.93378405316E+01  0.40828804835E+02  0.51100000000E-03 0. -1.
        -11    1    3    3    0    0 -0.30197332509E-01 -0.17849932741E+01  0.88650453231E+01  0.90430161842E+01  0.51100000000E-03 0.  1.
        -12    1    3    3    0    0  0.35721043810E+02  0.18289079611E+02  0.61416436205E+00  0.40135527925E+02  0.00000000000E+00 0.  1.
</event>
<event>
 7    1  0.4331547E-015  0.9000704E+02  0.7816164E-02  0.1186340E+00
        -11   -1    0    0    0    0  0.00000000000E+00  0.00000000000E+00  0.45593999997E+02  0.45594000000E+02  0.51100000000E-03 0.  1.
         11   -1    0    0    0    0 -0.00000000000E+00 -0.00000000000E+00 -0.45593999997E+02  0.45594000000E+02  0.51100000000E-03 0. -1.
    9900012    2    1    2    0    0  0.86115483691E+00  0.49392025577E+00 -0.63961993032E+00  0.90007043385E+02  0.89999295555E+02 0.  0.
         12    1    1    2    0    0 -0.86115483691E+00 -0.49392025577E+00  0.63961993032E+00  0.11809566154E+01  0.00000000000E+00 0. -1.
         11    1    3    3    0    0 -0.46018269093E+01  0.39377024890E+02 -0.15073942726E+01  0.39673657985E+02  0.51100000000E-03 0. -1.
        -11    1    3    3    0    0 -0.74038611390E+01  0.17834093873E+00 -0.47899193049E+01  0.88199939039E+01  0.51100000000E-03 0.  1.
        -12    1    3    3    0    0  0.12866842885E+02 -0.39061445573E+02  0.56576936472E+01  0.41513391496E+02  0.00000000000E+00 0.  1.
</event>
<event>
 7    1  0.4331547E-015  0.9000774E+02  0.7816164E-02  0.1186339E+00
        -11   -1    0    0    0    0  0.00000000000E+00  0.00000000000E+00  0.45593999997E+02  0.45594000000E+02  0.51100000000E-03 0.  1.
         11   -1    0    0    0    0 -0.00000000000E+00 -0.00000000000E+00 -0.45593999997E+02  0.45594000000E+02  0.51100000000E-03 0. -1.
    9900012    2    1    2    0    0 -0.13111767654E+00  0.41507170981E+00  0.10970607101E+01  0.90007737923E+02  0.89999999263E+02 0.  0.
         12    1    1    2    0    0  0.13111767654E+00 -0.41507170981E+00 -0.10970607101E+01  0.11802620773E+01  0.00000000000E+00 0. -1.
         11    1    3    3    0    0 -0.98444064962E+00  0.51297759532E+01  0.11985764414E+02  0.13074489419E+02  0.51100000000E-03 0. -1.
        -11    1    3    3    0    0  0.24311149111E+02 -0.24878945838E+02  0.13732536834E+02  0.37397546514E+02  0.51100000000E-03 0.  1.
         12    1    3    3    0    0 -0.23457826138E+02  0.20164241595E+02 -0.24621240537E+02  0.39535701990E+02  0.00000000000E+00 0. -1.
</event>
<event>
 7    1  0.4331547E-015  0.9000775E+02  0.7816164E-02  0.1186339E+00
        -11   -1    0    0    0    0  0.00000000000E+00  0.00000000000E+00  0.45593999997E+02  0.45594000000E+02  0.51100000000E-03 0.  1.
         11   -1    0    0    0    0 -0.00000000000E+00 -0.00000000000E+00 -0.45593999997E+02  0.45594000000E+02  0.51100000000E-03 0. -1.
    9900012    2    1    2    0    0  0.90700384832E+00 -0.49674825991E+00 -0.56883850573E+00  0.90007749154E+02  0.90000010643E+02 0.  0.
         12    1    1    2    0    0 -0.90700384832E+00  0.49674825991E+00  0.56883850573E+00  0.11802508463E+01  0.00000000000E+00 0. -1.
         11    1    3    3    0    0 -0.86878643290E+01 -0.26691185094E+01  0.40776814526E+01  0.99614590551E+01  0.51100000000E-03 0. -1.
        -11    1    3    3    0    0 -0.27346579017E+02  0.18615257545E+02  0.13494593140E+02  0.35727681728E+02  0.51100000000E-03 0.  1.
         12    1    3    3    0    0  0.36941447194E+02 -0.16442887295E+02 -0.18141113099E+02  0.44318608370E+02  0.00000000000E+00 0. -1.
</event>
<event>
 7    1  0.4331547E-015  0.9000798E+02  0.7816164E-02  0.1186339E+00
        -11   -1    0    0    0    0  0.00000000000E+00  0.00000000000E+00  0.45593999997E+02  0.45594000000E+02  0.51100000000E-03 0.  1.
         11   -1    0    0    0    0 -0.00000000000E+00 -0.00000000000E+00 -0.45593999997E+02  0.45594000000E+02  0.51100000000E-03 0. -1.
    9900012    2    1    2    0    0 -0.74242814616E+00  0.32701574858E+00  0.85691591777E+00  0.90007981465E+02  0.90000246020E+02 0.  0.
         12    1    1    2    0    0  0.74242814616E+00 -0.32701574858E+00 -0.85691591777E+00  0.11800185347E+01  0.00000000000E+00 0. -1.
         11    1    3    3    0    0 -0.19108405225E+01 -0.88975079648E+01 -0.42787747486E+02  0.43744808774E+02  0.51100000000E-03 0. -1.
        -11    1    3    3    0    0 -0.10910629571E+01 -0.28120785067E+01  0.68740523956E+01  0.75067170256E+01  0.51100000000E-03 0.  1.
        -12    1    3    3    0    0  0.22594753335E+01  0.12036602220E+02  0.36770611009E+02  0.38756455665E+02  0.00000000000E+00 0.  1.
</event>
<event>
 7    1  0.4331547E-015  0.9000778E+02  0.7816164E-02  0.1186339E+00
        -11   -1    0    0    0    0  0.00000000000E+00  0.00000000000E+00  0.45593999997E+02  0.45594000000E+02  0.51100000000E-03 0. -1.
         11   -1    0    0    0    0 -0.00000000000E+00 -0.00000000000E+00 -0.45593999997E+02  0.45594000000E+02  0.51100000000E-03 0.  1.
    9900012    2    1    2    0    0  0.98664217998E+00  0.64112961070E+00 -0.91689944673E-01  0.90007780946E+02  0.90000042855E+02 0.  0.
         12    1    1    2    0    0 -0.98664217998E+00 -0.64112961070E+00  0.91689944673E-01  0.11802190538E+01  0.00000000000E+00 0. -1.
         11    1    3    3    0    0 -0.96865345787E+01 -0.10589821708E+02  0.40084823000E+02  0.42576593466E+02  0.51100000000E-03 0. -1.
        -11    1    3    3    0    0 -0.86223221882E+00 -0.51237869499E+01 -0.81090834978E+01  0.96308811924E+01  0.51100000000E-03 0.  1.
        -12    1    3    3    0    0  0.11535408978E+02  0.16354738269E+02 -0.32067429447E+02  0.37800306288E+02  0.00000000000E+00 0.  1.
</event>
<event>
 7    1  0.4397285E-015  0.9000765E+02  0.7816164E-02  0.1186339E+00
        -11   -1    0    0    0    0  0.00000000000E+00  0.00000000000E+00  0.45593999997E+02  0.45594000000E+02  0.51100000000E-03 0. -1.
         11   -1    0    0    0    0 -0.00000000000E+00 -0.00000000000E+00 -0.45593999997E+02  0.45594000000E+02  0.51100000000E-03 0.  1.
    9900012    2    1    2    0    0 -0.78352695470E+00  0.58365940488E-01 -0.88085695698E+00  0.90007648336E+02  0.89999908494E+02 0.  0.
         12    1    1    2    0    0  0.78352695470E+00 -0.58365940488E-01  0.88085695698E+00  0.11803516639E+01  0.00000000000E+00 0. -1.
         11    1    3    3    0    0  0.30932882145E+01  0.61006517284E+01  0.62121352871E+01  0.92399679964E+01  0.51100000000E-03 0. -1.
        -11    1    3    3    0    0  0.24822211219E+02  0.19631602971E+02 -0.22981862481E+02  0.39111481797E+02  0.51100000000E-03 0.  1.
         12    1    3    3    0    0 -0.28699026388E+02 -0.25673888759E+02  0.15888870237E+02  0.41656198543E+02  0.00000000000E+00 0. -1.
</event>
<event>
 7    1  0.4331547E-015  0.9000776E+02  0.7816164E-02  0.1186339E+00
        -11   -1    0    0    0    0  0.00000000000E+00  0.00000000000E+00  0.45593999997E+02  0.45594000000E+02  0.51100000000E-03 0. -1.
         11   -1    0    0    0    0 -0.00000000000E+00 -0.00000000000E+00 -0.45593999997E+02  0.45594000000E+02  0.51100000000E-03 0.  1.
    9900012    2    1    2    0    0  0.81205596353E+00  0.21351901281E+00  0.82941957024E+00  0.90007761854E+02  0.90000023511E+02 0.  0.
         12    1    1    2    0    0 -0.81205596353E+00 -0.21351901281E+00 -0.82941957024E+00  0.11802381456E+01  0.00000000000E+00 0. -1.
         11    1    3    3    0    0 -0.97712477224E+01 -0.75449214229E+01  0.11804626458E+02  0.17080758982E+02  0.51100000000E-03 0. -1.
        -11    1    3    3    0    0  0.15752603781E+01 -0.27875441803E+02 -0.20876505452E+02  0.34861872886E+02  0.51100000000E-03 0.  1.
         12    1    3    3    0    0  0.90080433078E+01  0.35633882239E+02  0.99012985642E+01  0.38065129987E+02  0.00000000000E+00 0. -1.
</event>
<event>
 7    1  0.4331547E-015  0.9000769E+02  0.7816164E-02  0.1186339E+00
        -11   -1    0    0    0    0  0.00000000000E+00  0.00000000000E+00  0.45593999997E+02  0.45594000000E+02  0.51100000000E-03 0.  1.
         11   -1    0    0    0    0 -0.00000000000E+00 -0.00000000000E+00 -0.45593999997E+02  0.45594000000E+02  0.51100000000E-03 0. -1.
    9900012    2    1    2    0    0  0.61257239563E+00  0.22741128535E+00  0.98294558877E+00  0.90007685269E+02  0.89999945915E+02 0.  0.
         12    1    1    2    0    0 -0.61257239563E+00 -0.22741128535E+00 -0.98294558877E+00  0.11803147305E+01  0.00000000000E+00 0. -1.
         11    1    3    3    0    0  0.33058153350E+01  0.62250710631E+01  0.67978058231E+01  0.97923484946E+01  0.51100000000E-03 0. -1.
        -11    1    3    3    0    0  0.29198563224E+02 -0.22900637454E+02  0.13241153186E+02  0.39399535887E+02  0.51100000000E-03 0.  1.
         12    1    3    3    0    0 -0.31891806163E+02  0.16902977676E+02 -0.19056013420E+02  0.40815800888E+02  0.00000000000E+00 0. -1.
</event>
<event>
 7    1  0.4331547E-015  0.9000777E+02  0.7816164E-02  0.1186339E+00
        -11   -1    0    0    0    0  0.00000000000E+00  0.00000000000E+00  0.45593999997E+02  0.45594000000E+02  0.51100000000E-03 0. -1.
         11   -1    0    0    0    0 -0.00000000000E+00 -0.00000000000E+00 -0.45593999997E+02  0.45594000000E+02  0.51100000000E-03 0.  1.
    9900012    2    1    2    0    0 -0.31942612698E+00  0.51047307886E+00 -0.10150537974E+01  0.90007766961E+02  0.90000028685E+02 0.  0.
         12    1    1    2    0    0  0.31942612698E+00 -0.51047307886E+00  0.10150537974E+01  0.11802330391E+01  0.00000000000E+00 0. -1.
         11    1    3    3    0    0 -0.35188537592E+01  0.73196290452E+01  0.28658600212E+01  0.86123431806E+01  0.51100000000E-03 0. -1.
        -11    1    3    3    0    0  0.18935424574E+01  0.34604263993E+01 -0.41852482638E+02  0.42037963285E+02  0.51100000000E-03 0.  1.
         12    1    3    3    0    0  0.13058851748E+01 -0.10269582366E+02  0.37971568819E+02  0.39357460496E+02  0.00000000000E+00 0. -1.
</event>
<event>
 7    1  0.4331547E-015  0.9000769E+02  0.7816164E-02  0.1186339E+00
        -11   -1    0    0    0    0  0.00000000000E+00  0.00000000000E+00  0.45593999997E+02  0.45594000000E+02  0.51100000000E-03 0.  1.
         11   -1    0    0    0    0 -0.00000000000E+00 -0.00000000000E+00 -0.45593999997E+02  0.45594000000E+02  0.51100000000E-03 0. -1.
    9900012    2    1    2    0    0  0.87933558904E+00  0.72020046244E+00  0.31815637768E+00  0.90007685099E+02  0.89999945743E+02 0.  0.
         12    1    1    2    0    0 -0.87933558904E+00 -0.72020046244E+00 -0.31815637768E+00  0.11803149007E+01  0.00000000000E+00 0. -1.
         11    1    3    3    0    0 -0.15408920346E+02  0.29104075006E+01 -0.33517313904E+02  0.37004265020E+02  0.51100000000E-03 0. -1.
        -11    1    3    3    0    0 -0.80304225013E+01 -0.45831478213E+01 -0.21618344155E+01  0.94956020242E+01  0.51100000000E-03 0.  1.
        -12    1    3    3    0    0  0.24318678436E+02  0.23929407832E+01  0.35997304697E+02  0.43507818055E+02  0.00000000000E+00 0.  1.
</event>
<event>
 7    1  0.4331547E-015  0.9000808E+02  0.7816164E-02  0.1186338E+00
        -11   -1    0    0    0    0  0.00000000000E+00  0.00000000000E+00  0.45593999997E+02  0.45594000000E+02  0.51100000000E-03 0.  1.
         11   -1    0    0    0    0 -0.00000000000E+00 -0.00000000000E+00 -0.45593999997E+02  0.45594000000E+02  0.51100000000E-03 0. -1.
    9900012    2    1    2    0    0  0.75130122127E+00 -0.71160541928E+00  0.56690546969E+00  0.90008077287E+02  0.90000343106E+02 0.  0.
         12    1    1    2    0    0 -0.75130122127E+00  0.71160541928E+00 -0.56690546969E+00  0.11799227133E+01  0.00000000000E+00 0. -1.
         11    1    3    3    0    0 -0.38810578892E+02  0.15637173078E+02 -0.84764166064E+01  0.42692292683E+02  0.51100000000E-03 0. -1.
        -11    1    3    3    0    0  0.14004586692E+02  0.19098643232E+01 -0.14296239808E+01  0.14206331516E+02  0.51100000000E-03 0.  1.
        -12    1    3    3    0    0  0.25557293422E+02 -0.18258642820E+02  0.10472946057E+02  0.33109453088E+02  0.00000000000E+00 0.  1.
</event>
<event>
 7    1  0.4331547E-015  0.9000780E+02  0.7816164E-02  0.1186339E+00
        -11   -1    0    0    0    0  0.00000000000E+00  0.00000000000E+00  0.45593999997E+02  0.45594000000E+02  0.51100000000E-03 0.  1.
         11   -1    0    0    0    0 -0.00000000000E+00 -0.00000000000E+00 -0.45593999997E+02  0.45594000000E+02  0.51100000000E-03 0. -1.
    9900012    2    1    2    0    0 -0.91720347086E+00 -0.73319581590E+00  0.11848889668E+00  0.90007797505E+02  0.90000059632E+02 0.  0.
         12    1    1    2    0    0  0.91720347086E+00  0.73319581590E+00 -0.11848889668E+00  0.11802024954E+01  0.00000000000E+00 0. -1.
         11    1    3    3    0    0 -0.15053177943E+02 -0.32233571763E+02 -0.19076379161E+02  0.40367184159E+02  0.51100000000E-03 0. -1.
        -11    1    3    3    0    0 -0.22180437250E+01  0.22875626931E+02 -0.91156707016E-02  0.22982909059E+02  0.51100000000E-03 0.  1.
        -12    1    3    3    0    0  0.16354018197E+02  0.86247490165E+01  0.19203983728E+02  0.26657704286E+02  0.00000000000E+00 0.  1.
</event>
<event>
 7    1  0.4331547E-015  0.9000762E+02  0.7816164E-02  0.1186339E+00
        -11   -1    0    0    0    0  0.00000000000E+00  0.00000000000E+00  0.45593999997E+02  0.45594000000E+02  0.51100000000E-03 0.  1.
         11   -1    0    0    0    0 -0.00000000000E+00 -0.00000000000E+00 -0.45593999997E+02  0.45594000000E+02  0.51100000000E-03 0. -1.
    9900012    2    1    2    0    0  0.63318099824E+00  0.15887557021E+00  0.98342663596E+00  0.90007623970E+02  0.89999883807E+02 0.  0.
         12    1    1    2    0    0 -0.63318099824E+00 -0.15887557021E+00 -0.98342663596E+00  0.11803760298E+01  0.00000000000E+00 0. -1.
         11    1    3    3    0    0  0.20682329945E+02 -0.20488514933E+02 -0.17407400591E+02  0.33919840974E+02  0.51100000000E-03 0. -1.
        -11    1    3    3    0    0  0.16538853006E+01 -0.12732199269E+02  0.18416817795E+01  0.12970583134E+02  0.51100000000E-03 0.  1.
        -12    1    3    3    0    0 -0.21703034247E+02  0.33379589772E+02  0.16549145447E+02  0.43117199862E+02  0.00000000000E+00 0.  1.
</event>
<event>
 7    1  0.4331547E-015  0.9000771E+02  0.7816164E-02  0.1186339E+00
        -11   -1    0    0    0    0  0.00000000000E+00  0.00000000000E+00  0.45593999997E+02  0.45594000000E+02  0.51100000000E-03 0. -1.
         11   -1    0    0    0    0 -0.00000000000E+00 -0.00000000000E+00 -0.45593999997E+02  0.45594000000E+02  0.51100000000E-03 0.  1.
    9900012    2    1    2    0    0 -0.10216125270E+01  0.51422021777E+00  0.29148977646E+00  0.90007711528E+02  0.89999972520E+02 0.  0.
         12    1    1    2    0    0  0.10216125270E+01 -0.51422021777E+00 -0.29148977646E+00  0.11802884722E+01  0.00000000000E+00 0. -1.
         11    1    3    3    0    0 -0.28337695115E+02  0.18578629127E+02  0.16058089501E+02  0.37497368753E+02  0.51100000000E-03 0. -1.
        -11    1    3    3    0    0 -0.85872422545E+01 -0.58698382416E+00  0.19497575395E+01  0.88253517931E+01  0.51100000000E-03 0.  1.
        -12    1    3    3    0    0  0.35903324843E+02 -0.17477425085E+02 -0.17716357264E+02  0.43684990982E+02  0.00000000000E+00 0.  1.
</event>
<event>
 7    1  0.4331547E-015  0.9000771E+02  0.7816164E-02  0.1186339E+00
        -11   -1    0    0    0    0  0.00000000000E+00  0.00000000000E+00  0.45593999997E+02  0.45594000000E+02  0.51100000000E-03 0.  1.
         11   -1    0    0    0    0 -0.00000000000E+00 -0.00000000000E+00 -0.45593999997E+02  0.45594000000E+02  0.51100000000E-03 0. -1.
    9900012    2    1    2    0    0  0.78656993407E+00  0.48018723497E+00  0.73744184622E+00  0.90007706596E+02  0.89999967524E+02 0.  0.
         12    1    1    2    0    0 -0.78656993407E+00 -0.48018723497E+00 -0.73744184622E+00  0.11802934035E+01  0.00000000000E+00 0. -1.
         11    1    3    3    0    0 -0.33484272696E+01  0.69181666028E+00  0.99083499180E+01  0.10481697087E+02  0.51100000000E-03 0. -1.
        -11    1    3    3    0    0  0.34925844048E+02 -0.17472725288E+01  0.17187371488E+02  0.38965026404E+02  0.51100000000E-03 0.  1.
         12    1    3    3    0    0 -0.30790846844E+02  0.15356431035E+01 -0.26358279560E+02  0.40560983105E+02  0.00000000000E+00 0. -1.
</event>
<event>
 7    1  0.4331547E-015  0.9000780E+02  0.7816164E-02  0.1186339E+00
        -11   -1    0    0    0    0  0.00000000000E+00  0.00000000000E+00  0.45593999997E+02  0.45594000000E+02  0.51100000000E-03 0.  1.
         11   -1    0    0    0    0 -0.00000000000E+00 -0.00000000000E+00 -0.45593999997E+02  0.45594000000E+02  0.51100000000E-03 0. -1.
    9900012    2    1    2    0    0  0.76896496117E+00  0.85973665372E+00 -0.24982621512E+00  0.90007801981E+02  0.90000064168E+02 0.  0.
         12    1    1    2    0    0 -0.76896496117E+00 -0.85973665372E+00  0.24982621512E+00  0.11801980186E+01  0.00000000000E+00 0. -1.
         11    1    3    3    0    0  0.45852584692E+01 -0.66337280046E+01 -0.61879508539E+01  0.10164727173E+02  0.51100000000E-03 0. -1.
        -11    1    3    3    0    0 -0.37627436232E+01 -0.30316443118E+02  0.23120637235E+02  0.38311993283E+02  0.51100000000E-03 0.  1.
         12    1    3    3    0    0 -0.53549884748E-01  0.37809907776E+02 -0.17182512596E+02  0.41531081526E+02  0.00000000000E+00 0. -1.
</event>
<event>
 7    1  0.4331547E-015  0.9000773E+02  0.7816164E-02  0.1186339E+00
        -11   -1    0    0    0    0  0.00000000000E+00  0.00000000000E+00  0.45593999997E+02  0.45594000000E+02  0.51100000000E-03 0. -1.
         11   -1    0    0    0    0 -0.00000000000E+00 -0.00000000000E+00 -0.45593999997E+02  0.45594000000E+02  0.51100000000E-03 0.  1.
    9900012    2    1    2    0    0  0.37062013800E+00  0.78921869391E+00  0.79549707676E+00  0.90007728407E+02  0.89999989622E+02 0.  0.
         12    1    1    2    0    0 -0.37062013800E+00 -0.78921869391E+00 -0.79549707676E+00  0.11802715927E+01  0.00000000000E+00 0. -1.
         11    1    3    3    0    0  0.76023239801E+01 -0.52652578093E+01 -0.22719147164E+01  0.95225976727E+01  0.51100000000E-03 0. -1.
        -11    1    3    3    0    0  0.21662423958E+02  0.33773938214E+02 -0.17111666466E+01  0.40160522977E+02  0.51100000000E-03 0.  1.
         12    1    3    3    0    0 -0.28894127800E+02 -0.27719461711E+02  0.47785784398E+01  0.40324607757E+02  0.00000000000E+00 0. -1.
</event>
<event>
 7    1  0.4331547E-015  0.9000784E+02  0.7816164E-02  0.1186339E+00
        -11   -1    0    0    0    0  0.00000000000E+00  0.00000000000E+00  0.45593999997E+02  0.45594000000E+02  0.51100000000E-03 0. -1.
         11   -1    0    0    0    0 -0.00000000000E+00 -0.00000000000E+00 -0.45593999997E+02  0.45594000000E+02  0.51100000000E-03 0.  1.
    9900012    2    1    2    0    0 -0.89565181967E+00  0.43452554267E+00  0.63386485240E+00  0.90007835062E+02  0.90000097685E+02 0.  0.
         12    1    1    2    0    0  0.89565181967E+00 -0.43452554267E+00 -0.63386485240E+00  0.11801649378E+01  0.00000000000E+00 0. -1.
         11    1    3    3    0    0  0.91183860341E+01 -0.73415798056E+00  0.64116865260E+00  0.91703352889E+01  0.51100000000E-03 0. -1.
        -11    1    3    3    0    0  0.24510993305E+02  0.11118466324E+02 -0.25267209283E+02  0.36916675791E+02  0.51100000000E-03 0.  1.
         12    1    3    3    0    0 -0.34525031159E+02 -0.99497828009E+01  0.25259905483E+02  0.43920823983E+02  0.00000000000E+00 0. -1.
</event>
<event>
 7    1  0.4331547E-015  0.9000756E+02  0.7816164E-02  0.1186339E+00
        -11   -1    0    0    0    0  0.00000000000E+00  0.00000000000E+00  0.45593999997E+02  0.45594000000E+02  0.51100000000E-03 0. -1.
         11   -1    0    0    0    0 -0.00000000000E+00 -0.00000000000E+00 -0.45593999997E+02  0.45594000000E+02  0.51100000000E-03 0.  1.
    9900012    2    1    2    0    0 -0.22907346197E+00  0.86670126214E+00 -0.76798625299E+00  0.90007555756E+02  0.89999814692E+02 0.  0.
         12    1    1    2    0    0  0.22907346197E+00 -0.86670126214E+00  0.76798625299E+00  0.11804442441E+01  0.00000000000E+00 0. -1.
         11    1    3    3    0    0 -0.14738846969E+02  0.35344585631E+02 -0.18649897510E+01  0.38339946928E+02  0.51100000000E-03 0. -1.
        -11    1    3    3    0    0  0.54300096844E+01  0.64193141585E+01  0.46783240373E+01  0.96218145637E+01  0.51100000000E-03 0.  1.
        -12    1    3    3    0    0  0.90797638227E+01 -0.40897198528E+02 -0.35813205393E+01  0.42045794264E+02  0.00000000000E+00 0.  1.
</event>
<event>
 7    1  0.4331547E-015  0.9000791E+02  0.7816164E-02  0.1186339E+00
        -11   -1    0    0    0    0  0.00000000000E+00  0.00000000000E+00  0.45593999997E+02  0.45594000000E+02  0.51100000000E-03 0.  1.
         11   -1    0    0    0    0 -0.00000000000E+00 -0.00000000000E+00 -0.45593999997E+02  0.45594000000E+02  0.51100000000E-03 0. -1.
    9900012    2    1    2    0    0  0.14523089328E+00  0.81558833539E+00  0.84044203712E+00  0.90007907138E+02  0.90000170712E+02 0.  0.
         12    1    1    2    0    0 -0.14523089328E+00 -0.81558833539E+00 -0.84044203712E+00  0.11800928620E+01  0.00000000000E+00 0. -1.
         11    1    3    3    0    0  0.57592073791E+01 -0.60153481308E+01 -0.84308794627E+01  0.11850426640E+02  0.51100000000E-03 0. -1.
        -11    1    3    3    0    0 -0.39297384326E+01  0.42005300567E+02  0.78592351285E+01  0.42914516156E+02  0.51100000000E-03 0.  1.
         12    1    3    3    0    0 -0.16842380532E+01 -0.35174364101E+02  0.14120863713E+01  0.35242964342E+02  0.00000000000E+00 0. -1.
</event>
<event>
 7    1  0.4331547E-015  0.9000774E+02  0.7816164E-02  0.1186339E+00
        -11   -1    0    0    0    0  0.00000000000E+00  0.00000000000E+00  0.45593999997E+02  0.45594000000E+02  0.51100000000E-03 0.  1.
         11   -1    0    0    0    0 -0.00000000000E+00 -0.00000000000E+00 -0.45593999997E+02  0.45594000000E+02  0.51100000000E-03 0. -1.
    9900012    2    1    2    0    0 -0.99218232212E+00  0.10383689348E+00  0.63071103918E+00  0.90007743979E+02  0.90000005399E+02 0.  0.
         12    1    1    2    0    0  0.99218232212E+00 -0.10383689348E+00 -0.63071103918E+00  0.11802560213E+01  0.00000000000E+00 0. -1.
         11    1    3    3    0    0 -0.22103541264E+02  0.29355813081E+02  0.10528308187E+02  0.38225326311E+02  0.51100000000E-03 0. -1.
        -11    1    3    3    0    0  0.70908550960E+01  0.79609597843E+01  0.52099056212E+00  0.10673731218E+02  0.51100000000E-03 0.  1.
        -12    1    3    3    0    0  0.14020503846E+02 -0.37212935972E+02 -0.10418587710E+02  0.41108686450E+02  0.00000000000E+00 0.  1.
</event>
<event>
 7    1  0.4331547E-015  0.9000780E+02  0.7816164E-02  0.1186339E+00
        -11   -1    0    0    0    0  0.00000000000E+00  0.00000000000E+00  0.45593999997E+02  0.45594000000E+02  0.51100000000E-03 0.  1.
         11   -1    0    0    0    0 -0.00000000000E+00 -0.00000000000E+00 -0.45593999997E+02  0.45594000000E+02  0.51100000000E-03 0. -1.
    9900012    2    1    2    0    0 -0.65741855144E+00  0.54346075240E+00  0.81567096795E+00  0.90007801767E+02  0.90000063950E+02 0.  0.
         12    1    1    2    0    0  0.65741855144E+00 -0.54346075240E+00 -0.81567096795E+00  0.11801982330E+01  0.00000000000E+00 0. -1.
         11    1    3    3    0    0 -0.10511985899E+02  0.50794247148E+00 -0.31814933529E+00  0.10529058475E+02  0.51100000000E-03 0. -1.
        -11    1    3    3    0    0  0.31609701656E+02  0.38791054357E+01  0.29577668723E+02  0.43463308492E+02  0.51100000000E-03 0.  1.
         12    1    3    3    0    0 -0.21755134308E+02 -0.38435871548E+01 -0.28443848419E+02  0.36015434800E+02  0.00000000000E+00 0. -1.
</event>
<event>
 7    1  0.4331547E-015  0.9000772E+02  0.7816164E-02  0.1186339E+00
        -11   -1    0    0    0    0  0.00000000000E+00  0.00000000000E+00  0.45593999997E+02  0.45594000000E+02  0.51100000000E-03 0. -1.
         11   -1    0    0    0    0 -0.00000000000E+00 -0.00000000000E+00 -0.45593999997E+02  0.45594000000E+02  0.51100000000E-03 0.  1.
    9900012    2    1    2    0    0  0.79027305453E+00  0.79863776227E+00 -0.36151983873E+00  0.90007724452E+02  0.89999985614E+02 0.  0.
         12    1    1    2    0    0 -0.79027305453E+00 -0.79863776227E+00  0.36151983873E+00  0.11802755483E+01  0.00000000000E+00 0. -1.
         11    1    3    3    0    0  0.61442311176E+00  0.17177226987E+02  0.33308429372E+02  0.37481810391E+02  0.51100000000E-03 0. -1.
        -11    1    3    3    0    0 -0.10094690076E+02 -0.86464863872E+01  0.30359641450E+01  0.13633839266E+02  0.51100000000E-03 0.  1.
        -12    1    3    3    0    0  0.10270540018E+02 -0.77321028374E+01 -0.36705913356E+02  0.38892074795E+02  0.00000000000E+00 0.  1.
</event>
<event>
 7    1  0.5046886E-015  0.9000776E+02  0.7816164E-02  0.1186339E+00
        -11   -1    0    0    0    0  0.00000000000E+00  0.00000000000E+00  0.45593999997E+02  0.45594000000E+02  0.51100000000E-03 0.  1.
         11   -1    0    0    0    0 -0.00000000000E+00 -0.00000000000E+00 -0.45593999997E+02  0.45594000000E+02  0.51100000000E-03 0. -1.
    9900012    2    1    2    0    0  0.39453523831E+00 -0.97251693906E+00  0.53991608153E+00  0.90007764165E+02  0.90000025852E+02 0.  0.
         12    1    1    2    0    0 -0.39453523831E+00  0.97251693906E+00 -0.53991608153E+00  0.11802358350E+01  0.00000000000E+00 0. -1.
         11    1    3    3    0    0  0.33580004315E+01  0.67617711057E+01 -0.49520427846E+01  0.90288672260E+01  0.51100000000E-03 0. -1.
        -11    1    3    3    0    0 -0.18019271497E+01 -0.14333162451E+02  0.41712845828E+02  0.44143493231E+02  0.51100000000E-03 0.  1.
         12    1    3    3    0    0 -0.11615380435E+01  0.65988744063E+01 -0.36220886962E+02  0.36835403708E+02  0.00000000000E+00 0. -1.
</event>
<event>
 7    1  0.4331547E-015  0.9000755E+02  0.7816164E-02  0.1186339E+00
        -11   -1    0    0    0    0  0.00000000000E+00  0.00000000000E+00  0.45593999997E+02  0.45594000000E+02  0.51100000000E-03 0.  1.
         11   -1    0    0    0    0 -0.00000000000E+00 -0.00000000000E+00 -0.45593999997E+02  0.45594000000E+02  0.51100000000E-03 0. -1.
    9900012    2    1    2    0    0 -0.17317281695E+00 -0.94933879348E+00  0.67987252830E+00  0.90007551092E+02  0.89999809966E+02 0.  0.
         12    1    1    2    0    0  0.17317281695E+00  0.94933879348E+00 -0.67987252830E+00  0.11804489079E+01  0.00000000000E+00 0. -1.
         11    1    3    3    0    0  0.17049846637E+01 -0.12638047945E+02 -0.33904532954E+02  0.36223536321E+02  0.51100000000E-03 0. -1.
        -11    1    3    3    0    0  0.44448890130E+01  0.34508322557E+01 -0.80953592058E+01  0.98590122491E+01  0.51100000000E-03 0.  1.
        -12    1    3    3    0    0 -0.63230464937E+01  0.82378768955E+01  0.42679764688E+02  0.43925002522E+02  0.00000000000E+00 0.  1.
</event>
<event>
 7    1  0.4331547E-015  0.9000769E+02  0.7816164E-02  0.1186339E+00
        -11   -1    0    0    0    0  0.00000000000E+00  0.00000000000E+00  0.45593999997E+02  0.45594000000E+02  0.51100000000E-03 0. -1.
         11   -1    0    0    0    0 -0.00000000000E+00 -0.00000000000E+00 -0.45593999997E+02  0.45594000000E+02  0.51100000000E-03 0.  1.
    9900012    2    1    2    0    0 -0.56916853308E+00  0.97188137092E+00 -0.35302231725E+00  0.90007690306E+02  0.89999951018E+02 0.  0.
         12    1    1    2    0    0  0.56916853308E+00 -0.97188137092E+00  0.35302231725E+00  0.11803096944E+01  0.00000000000E+00 0. -1.
         11    1    3    3    0    0  0.80972344273E+01 -0.22310949471E+01  0.53086051688E+01  0.99360092156E+01  0.51100000000E-03 0. -1.
        -11    1    3    3    0    0 -0.11057019681E+02  0.35413401443E+02 -0.22761570421E+02  0.43525346343E+02  0.51100000000E-03 0.  1.
         12    1    3    3    0    0  0.23906167211E+01 -0.32210425125E+02  0.17099942935E+02  0.36546334747E+02  0.00000000000E+00 0. -1.
</event>
<event>
 7    1  0.4331547E-015  0.9000773E+02  0.7816164E-02  0.1186339E+00
        -11   -1    0    0    0    0  0.00000000000E+00  0.00000000000E+00  0.45593999997E+02  0.45594000000E+02  0.51100000000E-03 0. -1.
         11   -1    0    0    0    0 -0.00000000000E+00 -0.00000000000E+00 -0.45593999997E+02  0.45594000000E+02  0.51100000000E-03 0.  1.
    9900012    2    1    2    0    0 -0.70000276606E+00 -0.92277199214E+00 -0.22697790293E+00  0.90007732661E+02  0.89999993933E+02 0.  0.
         12    1    1    2    0    0  0.70000276606E+00  0.92277199214E+00  0.22697790293E+00  0.11802673385E+01  0.00000000000E+00 0. -1.
         11    1    3    3    0    0 -0.29118380923E+02  0.89948634306E+01 -0.26286376816E+02  0.40246257989E+02  0.51100000000E-03 0.  1.
        -11    1    3    3    0    0  0.25239016234E+02 -0.10552806850E+02  0.42166484480E+01  0.27679411072E+02  0.51100000000E-03 0. -1.
        -12    1    3    3    0    0  0.31793619227E+01  0.63517142765E+00  0.21842750465E+02  0.22082063601E+02  0.00000000000E+00 0.  1.
</event>
<event>
 7    1  0.4331547E-015  0.9000775E+02  0.7816164E-02  0.1186339E+00
        -11   -1    0    0    0    0  0.00000000000E+00  0.00000000000E+00  0.45593999997E+02  0.45594000000E+02  0.51100000000E-03 0. -1.
         11   -1    0    0    0    0 -0.00000000000E+00 -0.00000000000E+00 -0.45593999997E+02  0.45594000000E+02  0.51100000000E-03 0.  1.
    9900012    2    1    2    0    0 -0.44541096007E+00  0.10632531204E+01  0.25318045737E+00  0.90007746440E+02  0.90000007893E+02 0.  0.
         12    1    1    2    0    0  0.44541096007E+00 -0.10632531204E+01 -0.25318045737E+00  0.11802535598E+01  0.00000000000E+00 0. -1.
         11    1    3    3    0    0  0.14350064233E+01  0.12853476326E+02  0.31984804819E+02  0.34500707771E+02  0.51100000000E-03 0. -1.
        -11    1    3    3    0    0  0.75620810777E+01  0.12483555554E+01  0.89337983528E+01  0.11770990404E+02  0.51100000000E-03 0.  1.
        -12    1    3    3    0    0 -0.94424984610E+01 -0.13038578761E+02 -0.40665422715E+02  0.43736048265E+02  0.00000000000E+00 0.  1.
</event>
<event>
 7    1  0.4331547E-015  0.9000769E+02  0.7816164E-02  0.1186339E+00
        -11   -1    0    0    0    0  0.00000000000E+00  0.00000000000E+00  0.45593999997E+02  0.45594000000E+02  0.51100000000E-03 0. -1.
         11   -1    0    0    0    0 -0.00000000000E+00 -0.00000000000E+00 -0.45593999997E+02  0.45594000000E+02  0.51100000000E-03 0.  1.
    9900012    2    1    2    0    0  0.83241832017E+00  0.13154929266E+00 -0.82638569652E+00  0.90007686993E+02  0.89999947661E+02 0.  0.
         12    1    1    2    0    0 -0.83241832017E+00 -0.13154929266E+00  0.82638569652E+00  0.11803130075E+01  0.00000000000E+00 0. -1.
         11    1    3    3    0    0  0.58777855413E+01  0.66252501275E+01  0.69167124509E+01  0.11237580412E+02  0.51100000000E-03 0. -1.
        -11    1    3    3    0    0  0.32104209012E+02 -0.19501996628E+02  0.37897928081E+01  0.37754081084E+02  0.51100000000E-03 0.  1.
         12    1    3    3    0    0 -0.37149576233E+02  0.13008295793E+02 -0.11532890956E+02  0.41016025496E+02  0.00000000000E+00 0. -1.
</event>
<event>
 7    1  0.4331547E-015  0.9000807E+02  0.7816164E-02  0.1186338E+00
        -11   -1    0    0    0    0  0.00000000000E+00  0.00000000000E+00  0.45593999997E+02  0.45594000000E+02  0.51100000000E-03 0. -1.
         11   -1    0    0    0    0 -0.00000000000E+00 -0.00000000000E+00 -0.45593999997E+02  0.45594000000E+02  0.51100000000E-03 0.  1.
    9900012    2    1    2    0    0  0.24069902824E+00 -0.11139555006E+01 -0.30560176043E+00  0.90008074021E+02  0.90000339798E+02 0.  0.
         12    1    1    2    0    0 -0.24069902824E+00  0.11139555006E+01  0.30560176043E+00  0.11799259788E+01  0.00000000000E+00 0. -1.
         11    1    3    3    0    0 -0.39429889992E+02 -0.92251591962E+01  0.21732263733E+01  0.40552961669E+02  0.51100000000E-03 0. -1.
        -11    1    3    3    0    0  0.23421291813E+01  0.11823382145E+01  0.93324330149E+01  0.96942147177E+01  0.51100000000E-03 0.  1.
        -12    1    3    3    0    0  0.37328459839E+02  0.69288654812E+01 -0.11811261149E+02  0.39760897635E+02  0.00000000000E+00 0.  1.
</event>
<event>
 7    1  0.4331547E-015  0.9000781E+02  0.7816164E-02  0.1186339E+00
        -11   -1    0    0    0    0  0.00000000000E+00  0.00000000000E+00  0.45593999997E+02  0.45594000000E+02  0.51100000000E-03 0.  1.
         11   -1    0    0    0    0 -0.00000000000E+00 -0.00000000000E+00 -0.45593999997E+02  0.45594000000E+02  0.51100000000E-03 0. -1.
    9900012    2    1    2    0    0 -0.55784461974E+00  0.36701107319E+00  0.97312352857E+00  0.90007806308E+02  0.90000068552E+02 0.  0.
         12    1    1    2    0    0  0.55784461974E+00 -0.36701107319E+00 -0.97312352857E+00  0.11801936915E+01  0.00000000000E+00 0. -1.
         11    1    3    3    0    0  0.25921320514E+01  0.15277983682E+02  0.14389987630E+01  0.15562989804E+02  0.51100000000E-03 0. -1.
        -11    1    3    3    0    0 -0.22079963805E+02 -0.29448570243E+02 -0.21504094186E+02  0.42628267124E+02  0.51100000000E-03 0.  1.
         12    1    3    3    0    0  0.18929987133E+02  0.14537597634E+02  0.21038218951E+02  0.31816549381E+02  0.00000000000E+00 0. -1.
</event>
<event>
 7    1  0.4331547E-015  0.9000770E+02  0.7816164E-02  0.1186339E+00
        -11   -1    0    0    0    0  0.00000000000E+00  0.00000000000E+00  0.45593999997E+02  0.45594000000E+02  0.51100000000E-03 0. -1.
         11   -1    0    0    0    0 -0.00000000000E+00 -0.00000000000E+00 -0.45593999997E+02  0.45594000000E+02  0.51100000000E-03 0.  1.
    9900012    2    1    2    0    0  0.10662822019E+00  0.89990178723E+00 -0.75625261362E+00  0.90007698844E+02  0.89999959668E+02 0.  0.
         12    1    1    2    0    0 -0.10662822019E+00 -0.89990178723E+00  0.75625261362E+00  0.11803011563E+01  0.00000000000E+00 0. -1.
         11    1    3    3    0    0  0.36546214160E+02  0.21434330372E+02  0.31544468810E+01  0.42485371874E+02  0.51100000000E-03 0. -1.
        -11    1    3    3    0    0 -0.89085507221E+01  0.25833069162E+01  0.49259474395E+01  0.10502414438E+02  0.51100000000E-03 0.  1.
        -12    1    3    3    0    0 -0.27531035217E+02 -0.23117735501E+02 -0.88366469340E+01  0.37019912532E+02  0.00000000000E+00 0.  1.
</event>
<event>
 7    1  0.4331547E-015  0.9000764E+02  0.7816164E-02  0.1186339E+00
        -11   -1    0    0    0    0  0.00000000000E+00  0.00000000000E+00  0.45593999997E+02  0.45594000000E+02  0.51100000000E-03 0. -1.
         11   -1    0    0    0    0 -0.00000000000E+00 -0.00000000000E+00 -0.45593999997E+02  0.45594000000E+02  0.51100000000E-03 0.  1.
    9900012    2    1    2    0    0 -0.23845998950E+00  0.10805071513E+01  0.41096502006E+00  0.90007639412E+02  0.89999899452E+02 0.  0.
         12    1    1    2    0    0  0.23845998950E+00 -0.10805071513E+01 -0.41096502006E+00  0.11803605883E+01  0.00000000000E+00 0. -1.
         11    1    3    3    0    0 -0.32809848306E+02  0.11314174853E+02  0.88275842280E+01  0.35810933275E+02  0.51100000000E-03 0. -1.
        -11    1    3    3    0    0 -0.81250576584E+01 -0.15231164049E+01  0.59317170198E+01  0.10174562035E+02  0.51100000000E-03 0.  1.
        -12    1    3    3    0    0  0.40696445975E+02 -0.87105512969E+01 -0.14348336228E+02  0.44022144102E+02  0.00000000000E+00 0.  1.
</event>
<event>
 7    1  0.4331547E-015  0.9000751E+02  0.7816164E-02  0.1186339E+00
        -11   -1    0    0    0    0  0.00000000000E+00  0.00000000000E+00  0.45593999997E+02  0.45594000000E+02  0.51100000000E-03 0. -1.
         11   -1    0    0    0    0 -0.00000000000E+00 -0.00000000000E+00 -0.45593999997E+02  0.45594000000E+02  0.51100000000E-03 0.  1.
    9900012    2    1    2    0    0 -0.10704278156E+01  0.46680488513E+00 -0.17270790234E+00  0.90007512588E+02  0.89999770954E+02 0.  0.
         12    1    1    2    0    0  0.10704278156E+01 -0.46680488513E+00  0.17270790234E+00  0.11804874115E+01  0.00000000000E+00 0. -1.
         11    1    3    3    0    0  0.19962725120E+01 -0.26466300595E+02  0.31072562977E+02  0.40865074836E+02  0.51100000000E-03 0. -1.
        -11    1    3    3    0    0 -0.12739435701E+02  0.56256990143E+01 -0.75539682358E+01  0.15843110419E+02  0.51100000000E-03 0.  1.
        -12    1    3    3    0    0  0.96727353735E+01  0.21307406466E+02 -0.23691302643E+02  0.33299327333E+02  0.00000000000E+00 0.  1.
</event>
<event>
 7    1  0.5111727E-015  0.9000775E+02  0.7816164E-02  0.1186339E+00
        -11   -1    0    0    0    0  0.00000000000E+00  0.00000000000E+00  0.45593999997E+02  0.45594000000E+02  0.51100000000E-03 0.  1.
         11   -1    0    0    0    0 -0.00000000000E+00 -0.00000000000E+00 -0.45593999997E+02  0.45594000000E+02  0.51100000000E-03 0. -1.
    9900012    2    1    2    0    0  0.97827369244E+00 -0.41111627483E+00  0.51668491718E+00  0.90007746081E+02  0.90000007530E+02 0.  0.
         12    1    1    2    0    0 -0.97827369244E+00  0.41111627483E+00 -0.51668491718E+00  0.11802539186E+01  0.00000000000E+00 0. -1.
         11    1    3    3    0    0 -0.87287888729E+01 -0.27115709898E+01  0.31844181184E+01  0.96790955897E+01  0.51100000000E-03 0. -1.
        -11    1    3    3    0    0 -0.19932623371E+02  0.28886914006E+02  0.13158574973E+02  0.37482147362E+02  0.51100000000E-03 0.  1.
         12    1    3    3    0    0  0.29639685936E+02 -0.26586459291E+02 -0.15826308175E+02  0.42846503130E+02  0.00000000000E+00 0. -1.
</event>
<event>
 7    1  0.4331547E-015  0.9000771E+02  0.7816164E-02  0.1186339E+00
        -11   -1    0    0    0    0  0.00000000000E+00  0.00000000000E+00  0.45593999997E+02  0.45594000000E+02  0.51100000000E-03 0.  1.
         11   -1    0    0    0    0 -0.00000000000E+00 -0.00000000000E+00 -0.45593999997E+02  0.45594000000E+02  0.51100000000E-03 0. -1.
    9900012    2    1    2    0    0  0.38816341586E+00  0.10479980031E+01 -0.37962116300E+00  0.90007710680E+02  0.89999971661E+02 0.  0.
         12    1    1    2    0    0 -0.38816341586E+00 -0.10479980031E+01  0.37962116300E+00  0.11802893202E+01  0.00000000000E+00 0. -1.
         11    1    3    3    0    0  0.65282387532E+01 -0.65987251032E+01 -0.23789978321E+02  0.25536721461E+02  0.51100000000E-03 0. -1.
        -11    1    3    3    0    0 -0.19190007636E+01 -0.24261311778E+02 -0.55386919001E+00  0.24343388927E+02  0.51100000000E-03 0.  1.
        -12    1    3    3    0    0 -0.42210745737E+01  0.31908034884E+02  0.23964226348E+02  0.40127600292E+02  0.00000000000E+00 0.  1.
</event>
<event>
 7    1  0.4331547E-015  0.9000764E+02  0.7816164E-02  0.1186339E+00
        -11   -1    0    0    0    0  0.00000000000E+00  0.00000000000E+00  0.45593999997E+02  0.45594000000E+02  0.51100000000E-03 0.  1.
         11   -1    0    0    0    0 -0.00000000000E+00 -0.00000000000E+00 -0.45593999997E+02  0.45594000000E+02  0.51100000000E-03 0. -1.
    9900012    2    1    2    0    0 -0.11732465970E+01  0.12781021530E+00 -0.20436988754E-01  0.90007635353E+02  0.89999895340E+02 0.  0.
         12    1    1    2    0    0  0.11732465970E+01 -0.12781021530E+00  0.20436988754E-01  0.11803646467E+01  0.00000000000E+00 0. -1.
         11    1    3    3    0    0 -0.68270968691E+01 -0.32665070483E+02 -0.21406518018E+02  0.39646627792E+02  0.51100000000E-03 0. -1.
        -11    1    3    3    0    0 -0.31859490253E+01  0.42681667329E+01 -0.72437719706E+01  0.89910928743E+01  0.51100000000E-03 0.  1.
        -12    1    3    3    0    0  0.88397992974E+01  0.28524713965E+02  0.28629853000E+02  0.41369914687E+02  0.00000000000E+00 0.  1.
</event>
<event>
 7    1  0.4331547E-015  0.9000770E+02  0.7816164E-02  0.1186339E+00
        -11   -1    0    0    0    0  0.00000000000E+00  0.00000000000E+00  0.45593999997E+02  0.45594000000E+02  0.51100000000E-03 0.  1.
         11   -1    0    0    0    0 -0.00000000000E+00 -0.00000000000E+00 -0.45593999997E+02  0.45594000000E+02  0.51100000000E-03 0. -1.
    9900012    2    1    2    0    0  0.85895277026E+00 -0.35090159204E+00  0.72949709475E+00  0.90007704359E+02  0.89999965257E+02 0.  0.
         12    1    1    2    0    0 -0.85895277026E+00  0.35090159204E+00 -0.72949709475E+00  0.11802956410E+01  0.00000000000E+00 0. -1.
         11    1    3    3    0    0  0.16724028348E+01 -0.13332501661E+01 -0.95517683985E+01  0.97882974539E+01  0.51100000000E-03 0. -1.
        -11    1    3    3    0    0  0.27723534124E+02  0.55989687082E+01 -0.22769816012E+02  0.36309879047E+02  0.51100000000E-03 0.  1.
         12    1    3    3    0    0 -0.28536984189E+02 -0.46166201342E+01  0.33051081505E+02  0.43909527858E+02  0.00000000000E+00 0. -1.
</event>
<event>
 7    1  0.4331547E-015  0.9000784E+02  0.7816164E-02  0.1186339E+00
        -11   -1    0    0    0    0  0.00000000000E+00  0.00000000000E+00  0.45593999997E+02  0.45594000000E+02  0.51100000000E-03 0. -1.
         11   -1    0    0    0    0 -0.00000000000E+00 -0.00000000000E+00 -0.45593999997E+02  0.45594000000E+02  0.51100000000E-03 0.  1.
    9900012    2    1    2    0    0 -0.82499389642E-02 -0.10838929118E+01  0.46679391112E+00  0.90007835409E+02  0.90000098037E+02 0.  0.
         12    1    1    2    0    0  0.82499389642E-02  0.10838929118E+01 -0.46679391112E+00  0.11801645908E+01  0.00000000000E+00 0. -1.
         11    1    3    3    0    0  0.97843229569E+01  0.10782045767E+01  0.63748684384E+01  0.11727508205E+02  0.51100000000E-03 0. -1.
        -11    1    3    3    0    0  0.30574944476E+02 -0.17019900897E+02 -0.12694589174E+01  0.35015936122E+02  0.51100000000E-03 0.  1.
         12    1    3    3    0    0 -0.40367517372E+02  0.14857803409E+02 -0.46386156099E+01  0.43264391082E+02  0.00000000000E+00 0. -1.
</event>
<event>
 7    1  0.4331547E-015  0.9000768E+02  0.7816164E-02  0.1186339E+00
        -11   -1    0    0    0    0  0.00000000000E+00  0.00000000000E+00  0.45593999997E+02  0.45594000000E+02  0.51100000000E-03 0.  1.
         11   -1    0    0    0    0 -0.00000000000E+00 -0.00000000000E+00 -0.45593999997E+02  0.45594000000E+02  0.51100000000E-03 0. -1.
    9900012    2    1    2    0    0 -0.55560982156E+00 -0.23624106562E-01  0.10411018090E+01  0.90007680828E+02  0.89999941414E+02 0.  0.
         12    1    1    2    0    0  0.55560982156E+00  0.23624106562E-01 -0.10411018090E+01  0.11803191724E+01  0.00000000000E+00 0. -1.
         11    1    3    3    0    0 -0.31392637509E+02  0.13835284194E+02  0.25097468261E+01  0.34397843070E+02  0.51100000000E-03 0. -1.
        -11    1    3    3    0    0 -0.65194999914E+01  0.68773495653E+01  0.73385405750E+01  0.11985657897E+02  0.51100000000E-03 0.  1.
        -12    1    3    3    0    0  0.37356527679E+02 -0.20736257866E+02 -0.88071855921E+01  0.43624179861E+02  0.00000000000E+00 0.  1.
</event>
<event>
 7    1  0.4331547E-015  0.9000773E+02  0.7816164E-02  0.1186339E+00
        -11   -1    0    0    0    0  0.00000000000E+00  0.00000000000E+00  0.45593999997E+02  0.45594000000E+02  0.51100000000E-03 0. -1.
         11   -1    0    0    0    0 -0.00000000000E+00 -0.00000000000E+00 -0.45593999997E+02  0.45594000000E+02  0.51100000000E-03 0.  1.
    9900012    2    1    2    0    0  0.71761248211E+00 -0.88818653040E+00 -0.29865094908E+00  0.90007730803E+02  0.89999992050E+02 0.  0.
         12    1    1    2    0    0 -0.71761248211E+00  0.88818653040E+00  0.29865094908E+00  0.11802691967E+01  0.00000000000E+00 0. -1.
         11    1    3    3    0    0 -0.12461043201E+02  0.10064199065E+02  0.38998431708E+02  0.42159736436E+02  0.51100000000E-03 0. -1.
        -11    1    3    3    0    0  0.71095076333E+01  0.47208184676E+01 -0.56448495098E+01  0.10232084443E+02  0.51100000000E-03 0.  1.
        -12    1    3    3    0    0  0.60691480501E+01 -0.15673204063E+02 -0.33652233147E+02  0.37615909924E+02  0.00000000000E+00 0.  1.
</event>
<event>
 7    1  0.4331547E-015  0.9000767E+02  0.7816164E-02  0.1186339E+00
        -11   -1    0    0    0    0  0.00000000000E+00  0.00000000000E+00  0.45593999997E+02  0.45594000000E+02  0.51100000000E-03 0.  1.
         11   -1    0    0    0    0 -0.00000000000E+00 -0.00000000000E+00 -0.45593999997E+02  0.45594000000E+02  0.51100000000E-03 0. -1.
    9900012    2    1    2    0    0  0.76409486911E+00 -0.38601713887E-01  0.89880066292E+00  0.90007672210E+02  0.89999932683E+02 0.  0.
         12    1    1    2    0    0 -0.76409486911E+00  0.38601713887E-01 -0.89880066292E+00  0.11803277905E+01  0.00000000000E+00 0. -1.
         11    1    3    3    0    0  0.23648723172E+01  0.71109345543E+01  0.87463230159E+01  0.11517646369E+02  0.51100000000E-03 0. -1.
        -11    1    3    3    0    0  0.27189034394E+02  0.15384499513E+02  0.15740272644E+02  0.34981174933E+02  0.51100000000E-03 0.  1.
         12    1    3    3    0    0 -0.28789811842E+02 -0.22534035781E+02 -0.23587794997E+02  0.43508850908E+02  0.00000000000E+00 0. -1.
</event>
<event>
 7    1  0.4331547E-015  0.9000771E+02  0.7816164E-02  0.1186339E+00
        -11   -1    0    0    0    0  0.00000000000E+00  0.00000000000E+00  0.45593999997E+02  0.45594000000E+02  0.51100000000E-03 0. -1.
         11   -1    0    0    0    0 -0.00000000000E+00 -0.00000000000E+00 -0.45593999997E+02  0.45594000000E+02  0.51100000000E-03 0.  1.
    9900012    2    1    2    0    0 -0.10066728652E+01  0.15925945364E+00  0.59525498683E+00  0.90007710912E+02  0.89999971896E+02 0.  0.
         12    1    1    2    0    0  0.10066728652E+01 -0.15925945364E+00 -0.59525498683E+00  0.11802890877E+01  0.00000000000E+00 0. -1.
         11    1    3    3    0    0 -0.30818201386E+01 -0.32706859270E+02  0.16071456539E+02  0.36572229549E+02  0.51100000000E-03 0. -1.
        -11    1    3    3    0    0  0.20497382979E+01 -0.21717655857E+01  0.97916345355E+01  0.10236898944E+02  0.51100000000E-03 0.  1.
        -12    1    3    3    0    0  0.25408975494E-01  0.35037884309E+02 -0.25267836087E+02  0.43198582419E+02  0.00000000000E+00 0.  1.
</event>
<event>
 7    1  0.4331547E-015  0.9000751E+02  0.7816164E-02  0.1186340E+00
        -11   -1    0    0    0    0  0.00000000000E+00  0.00000000000E+00  0.45593999997E+02  0.45594000000E+02  0.51100000000E-03 0. -1.
         11   -1    0    0    0    0 -0.00000000000E+00 -0.00000000000E+00 -0.45593999997E+02  0.45594000000E+02  0.51100000000E-03 0.  1.
    9900012    2    1    2    0    0  0.11655057976E+01 -0.13591634165E+00  0.12913552362E+00  0.90007511542E+02  0.89999769894E+02 0.  0.
         12    1    1    2    0    0 -0.11655057976E+01  0.13591634165E+00 -0.12913552362E+00  0.11804884581E+01  0.00000000000E+00 0. -1.
         11    1    3    3    0    0  0.12025201084E+02  0.17316185306E+02  0.33204138690E+02  0.39331546640E+02  0.51100000000E-03 0. -1.
        -11    1    3    3    0    0 -0.12291533705E+02 -0.25166764270E+01  0.18333551957E+01  0.12679773366E+02  0.51100000000E-03 0.  1.
        -12    1    3    3    0    0  0.14318384191E+01 -0.14935425220E+02 -0.34908358362E+02  0.37996191537E+02  0.00000000000E+00 0.  1.
</event>
<event>
 7    1  0.4331547E-015  0.9000771E+02  0.7816164E-02  0.1186339E+00
        -11   -1    0    0    0    0  0.00000000000E+00  0.00000000000E+00  0.45593999997E+02  0.45594000000E+02  0.51100000000E-03 0.  1.
         11   -1    0    0    0    0 -0.00000000000E+00 -0.00000000000E+00 -0.45593999997E+02  0.45594000000E+02  0.51100000000E-03 0. -1.
    9900012    2    1    2    0    0 -0.45563024838E+00  0.76250040948E+00  0.77722615373E+00  0.90007709234E+02  0.89999970196E+02 0.  0.
         12    1    1    2    0    0  0.45563024838E+00 -0.76250040948E+00 -0.77722615373E+00  0.11802907658E+01  0.00000000000E+00 0. -1.
         11    1    3    3    0    0 -0.21595469676E+01 -0.85908908622E+01 -0.46784768954E+01  0.10017744019E+02  0.51100000000E-03 0. -1.
        -11    1    3    3    0    0 -0.57103855735E+00 -0.33263404389E+02  0.14621005851E+02  0.36339427196E+02  0.51100000000E-03 0.  1.
         12    1    3    3    0    0  0.22749552766E+01  0.42616795661E+02 -0.91653028019E+01  0.43650538019E+02  0.00000000000E+00 0. -1.
</event>
<event>
 7    1  0.4331547E-015  0.9000761E+02  0.7816164E-02  0.1186339E+00
        -11   -1    0    0    0    0  0.00000000000E+00  0.00000000000E+00  0.45593999997E+02  0.45594000000E+02  0.51100000000E-03 0.  1.
         11   -1    0    0    0    0 -0.00000000000E+00 -0.00000000000E+00 -0.45593999997E+02  0.45594000000E+02  0.51100000000E-03 0. -1.
    9900012    2    1    2    0    0  0.95825106435E+00 -0.59133735386E+00  0.35409781210E+00  0.90007614373E+02  0.89999874082E+02 0.  0.
         12    1    1    2    0    0 -0.95825106435E+00  0.59133735386E+00 -0.35409781210E+00  0.11803856272E+01  0.00000000000E+00 0. -1.
         11    1    3    3    0    0  0.11311590467E+02 -0.20026101490E+02  0.13311487196E+02  0.26574282896E+02  0.51100000000E-03 0. -1.
        -11    1    3    3    0    0 -0.20157347912E+02 -0.14376339309E+02 -0.13550825532E+02  0.28224504949E+02  0.51100000000E-03 0.  1.
        -12    1    3    3    0    0  0.98040085092E+01  0.33811103445E+02  0.59343614830E+00  0.35208826528E+02  0.00000000000E+00 0.  1.
</event>
<event>
 7    1  0.4331547E-015  0.9000697E+02  0.7816164E-02  0.1186341E+00
        -11   -1    0    0    0    0  0.00000000000E+00  0.00000000000E+00  0.45593999997E+02  0.45594000000E+02  0.51100000000E-03 0.  1.
         11   -1    0    0    0    0 -0.00000000000E+00 -0.00000000000E+00 -0.45593999997E+02  0.45594000000E+02  0.51100000000E-03 0. -1.
    9900012    2    1    2    0    0  0.76686416873E+00  0.31018051280E+00  0.84294066416E+00  0.90006965891E+02  0.89999217037E+02 0.  0.
         12    1    1    2    0    0 -0.76686416873E+00 -0.31018051280E+00 -0.84294066416E+00  0.11810341092E+01  0.00000000000E+00 0. -1.
         11    1    3    3    0    0 -0.37776883939E+02 -0.55477497239E+01  0.13556321381E+02  0.40517210378E+02  0.51100000000E-03 0. -1.
        -11    1    3    3    0    0  0.32909877560E+01 -0.82828617743E+01 -0.64308307232E+01  0.10990540643E+02  0.51100000000E-03 0.  1.
        -12    1    3    3    0    0  0.35252760352E+02  0.14140792011E+02 -0.62825499932E+01  0.38499214869E+02  0.00000000000E+00 0.  1.
</event>
<event>
 7    1  0.4331547E-015  0.9000783E+02  0.7816164E-02  0.1186339E+00
        -11   -1    0    0    0    0  0.00000000000E+00  0.00000000000E+00  0.45593999997E+02  0.45594000000E+02  0.51100000000E-03 0.  1.
         11   -1    0    0    0    0 -0.00000000000E+00 -0.00000000000E+00 -0.45593999997E+02  0.45594000000E+02  0.51100000000E-03 0. -1.
    9900012    2    1    2    0    0 -0.85906088780E-02  0.47105146009E+00  0.10820555381E+01  0.90007827358E+02  0.90000089879E+02 0.  0.
         12    1    1    2    0    0  0.85906088780E-02 -0.47105146009E+00 -0.10820555381E+01  0.11801726417E+01  0.00000000000E+00 0. -1.
         11    1    3    3    0    0 -0.82835810932E+01  0.95641972773E+00  0.28040309970E+01  0.87974453404E+01  0.51100000000E-03 0. -1.
        -11    1    3    3    0    0 -0.18483417680E+01 -0.63673819506E+01  0.38629648202E+02  0.39194510339E+02  0.51100000000E-03 0.  1.
         12    1    3    3    0    0  0.10123332252E+02  0.58820136829E+01 -0.40351623661E+02  0.42015871679E+02  0.00000000000E+00 0. -1.
</event>
<event>
 7    1  0.4331547E-015  0.9000775E+02  0.7816164E-02  0.1186339E+00
        -11   -1    0    0    0    0  0.00000000000E+00  0.00000000000E+00  0.45593999997E+02  0.45594000000E+02  0.51100000000E-03 0. -1.
         11   -1    0    0    0    0 -0.00000000000E+00 -0.00000000000E+00 -0.45593999997E+02  0.45594000000E+02  0.51100000000E-03 0.  1.
    9900012    2    1    2    0    0  0.10733444810E-01 -0.11796267357E+01 -0.36952994999E-01  0.90007745804E+02  0.90000007249E+02 0.  0.
         12    1    1    2    0    0 -0.10733444810E-01  0.11796267357E+01  0.36952994999E-01  0.11802541956E+01  0.00000000000E+00 0. -1.
         11    1    3    3    0    0 -0.25313028220E+01 -0.47468115745E+01  0.16095242755E+01  0.56151832343E+01  0.51100000000E-03 0. -1.
        -11    1    3    3    0    0  0.22695605805E+01 -0.39201725440E+02 -0.10648735895E+02  0.40685645615E+02  0.51100000000E-03 0.  1.
         12    1    3    3    0    0  0.27247568632E+00  0.42768910278E+02  0.90022586244E+01  0.43706916955E+02  0.00000000000E+00 0. -1.
</event>
<event>
 7    1  0.4331547E-015  0.9000762E+02  0.7816164E-02  0.1186339E+00
        -11   -1    0    0    0    0  0.00000000000E+00  0.00000000000E+00  0.45593999997E+02  0.45594000000E+02  0.51100000000E-03 0.  1.
         11   -1    0    0    0    0 -0.00000000000E+00 -0.00000000000E+00 -0.45593999997E+02  0.45594000000E+02  0.51100000000E-03 0. -1.
    9900012    2    1    2    0    0  0.10225986700E+01  0.58794748400E+00 -0.43599085577E-01  0.90007622448E+02  0.89999882265E+02 0.  0.
         12    1    1    2    0    0 -0.10225986700E+01 -0.58794748400E+00  0.43599085577E-01  0.11803775515E+01  0.00000000000E+00 0. -1.
         11    1    3    3    0    0 -0.33113297727E+02  0.44997210837E+01 -0.17947256352E+02  0.37932070692E+02  0.51100000000E-03 0. -1.
        -11    1    3    3    0    0 -0.21529093860E+01 -0.82976839848E+01 -0.40028053637E+01  0.94609211696E+01  0.51100000000E-03 0.  1.
        -12    1    3    3    0    0  0.36288805783E+02  0.43859103851E+01  0.21906462630E+02  0.42614630587E+02  0.00000000000E+00 0.  1.
</event>
<event>
 7    1  0.4331547E-015  0.9000772E+02  0.7816164E-02  0.1186339E+00
        -11   -1    0    0    0    0  0.00000000000E+00  0.00000000000E+00  0.45593999997E+02  0.45594000000E+02  0.51100000000E-03 0.  1.
         11   -1    0    0    0    0 -0.00000000000E+00 -0.00000000000E+00 -0.45593999997E+02  0.45594000000E+02  0.51100000000E-03 0. -1.
    9900012    2    1    2    0    0 -0.49578304086E+00  0.10592611399E+01 -0.15886039836E+00  0.90007715453E+02  0.89999976497E+02 0.  0.
         12    1    1    2    0    0  0.49578304086E+00 -0.10592611399E+01  0.15886039836E+00  0.11802845472E+01  0.00000000000E+00 0. -1.
         11    1    3    3    0    0  0.59445483418E+01  0.19390599606E+01 -0.96550520355E+01  0.11502940432E+02  0.51100000000E-03 0. -1.
        -11    1    3    3    0    0 -0.96367998368E+01 -0.17650528017E+02  0.39306296552E+02  0.44151942191E+02  0.51100000000E-03 0.  1.
         12    1    3    3    0    0  0.31964684542E+01  0.16770729197E+02 -0.29810104915E+02  0.34352832829E+02  0.00000000000E+00 0. -1.
</event>
<event>
 7    1  0.4331547E-015  0.9000782E+02  0.7816164E-02  0.1186339E+00
        -11   -1    0    0    0    0  0.00000000000E+00  0.00000000000E+00  0.45593999997E+02  0.45594000000E+02  0.51100000000E-03 0.  1.
         11   -1    0    0    0    0 -0.00000000000E+00 -0.00000000000E+00 -0.45593999997E+02  0.45594000000E+02  0.51100000000E-03 0. -1.
    9900012    2    1    2    0    0  0.48790253573E+00  0.10035274410E+01  0.38433257151E+00  0.90007818770E+02  0.90000081178E+02 0.  0.
         12    1    1    2    0    0 -0.48790253573E+00 -0.10035274410E+01 -0.38433257151E+00  0.11801812296E+01  0.00000000000E+00 0. -1.
         11    1    3    3    0    0  0.22837537884E+02 -0.14191161163E+02 -0.24527354406E+02  0.36394138349E+02  0.51100000000E-03 0. -1.
        -11    1    3    3    0    0  0.58607827102E+01 -0.78351002191E+01  0.55119573824E+00  0.98000707356E+01  0.51100000000E-03 0.  1.
        -12    1    3    3    0    0 -0.28210418058E+02  0.23029788823E+02  0.24360491240E+02  0.43813609686E+02  0.00000000000E+00 0.  1.
</event>
<event>
 7    1  0.4331547E-015  0.9000775E+02  0.7816164E-02  0.1186339E+00
        -11   -1    0    0    0    0  0.00000000000E+00  0.00000000000E+00  0.45593999997E+02  0.45594000000E+02  0.51100000000E-03 0. -1.
         11   -1    0    0    0    0 -0.00000000000E+00 -0.00000000000E+00 -0.45593999997E+02  0.45594000000E+02  0.51100000000E-03 0.  1.
    9900012    2    1    2    0    0  0.94775975102E-01 -0.97681479690E+00  0.65562611633E+00  0.90007747808E+02  0.90000009279E+02 0.  0.
         12    1    1    2    0    0 -0.94775975102E-01  0.97681479690E+00 -0.65562611633E+00  0.11802521923E+01  0.00000000000E+00 0. -1.
         11    1    3    3    0    0  0.55980721949E+01  0.68154488986E+01 -0.39239948525E+01  0.96533150706E+01  0.51100000000E-03 0. -1.
        -11    1    3    3    0    0  0.76554899419E+01  0.88006737887E+01 -0.34219028794E+02  0.36152459353E+02  0.51100000000E-03 0.  1.
         12    1    3    3    0    0 -0.13158786162E+02 -0.16592937484E+02  0.38798649763E+02  0.44201973384E+02  0.00000000000E+00 0. -1.
</event>
<event>
 7    1  0.4331547E-015  0.9000774E+02  0.7816164E-02  0.1186339E+00
        -11   -1    0    0    0    0  0.00000000000E+00  0.00000000000E+00  0.45593999997E+02  0.45594000000E+02  0.51100000000E-03 0.  1.
         11   -1    0    0    0    0 -0.00000000000E+00 -0.00000000000E+00 -0.45593999997E+02  0.45594000000E+02  0.51100000000E-03 0. -1.
    9900012    2    1    2    0    0  0.11720465604E+01  0.12983717445E+00  0.49585886949E-01  0.90007741727E+02  0.90000003117E+02 0.  0.
         12    1    1    2    0    0 -0.11720465604E+01 -0.12983717445E+00 -0.49585886949E-01  0.11802582733E+01  0.00000000000E+00 0. -1.
         11    1    3    3    0    0 -0.11677776713E+02  0.62856458676E+01 -0.11269049389E+02  0.17403197618E+02  0.51100000000E-03 0. -1.
        -11    1    3    3    0    0 -0.17213300732E+02 -0.26553398509E+02 -0.62402054137E+01  0.32254005307E+02  0.51100000000E-03 0.  1.
         12    1    3    3    0    0  0.30063124005E+02  0.20397589816E+02  0.17558840690E+02  0.40350538802E+02  0.00000000000E+00 0. -1.
</event>
<event>
 7    1  0.4331547E-015  0.9000773E+02  0.7816164E-02  0.1186339E+00
        -11   -1    0    0    0    0  0.00000000000E+00  0.00000000000E+00  0.45593999997E+02  0.45594000000E+02  0.51100000000E-03 0.  1.
         11   -1    0    0    0    0 -0.00000000000E+00 -0.00000000000E+00 -0.45593999997E+02  0.45594000000E+02  0.51100000000E-03 0. -1.
    9900012    2    1    2    0    0  0.37361101185E+00 -0.65757338787E+00  0.90612246979E+00  0.90007726354E+02  0.89999987542E+02 0.  0.
         12    1    1    2    0    0 -0.37361101185E+00  0.65757338787E+00 -0.90612246979E+00  0.11802736458E+01  0.00000000000E+00 0. -1.
         11    1    3    3    0    0  0.93673537122E+01 -0.15677758401E+01 -0.35449741517E+02  0.36699991970E+02  0.51100000000E-03 0. -1.
        -11    1    3    3    0    0 -0.68724839564E+01 -0.69177680912E+01 -0.51425860101E+01  0.11024188960E+02  0.51100000000E-03 0.  1.
        -12    1    3    3    0    0 -0.21212587439E+01  0.78279705434E+01  0.41498449997E+02  0.42283545425E+02  0.00000000000E+00 0.  1.
</event>
<event>
 7    1  0.4331547E-015  0.9000775E+02  0.7816164E-02  0.1186339E+00
        -11   -1    0    0    0    0  0.00000000000E+00  0.00000000000E+00  0.45593999997E+02  0.45594000000E+02  0.51100000000E-03 0. -1.
         11   -1    0    0    0    0 -0.00000000000E+00 -0.00000000000E+00 -0.45593999997E+02  0.45594000000E+02  0.51100000000E-03 0.  1.
    9900012    2    1    2    0    0 -0.55029540681E-01  0.11076994432E+01 -0.40369783118E+00  0.90007746533E+02  0.90000007987E+02 0.  0.
         12    1    1    2    0    0  0.55029540681E-01 -0.11076994432E+01  0.40369783118E+00  0.11802534668E+01  0.00000000000E+00 0. -1.
         11    1    3    3    0    0  0.35740939183E+02  0.87434869760E+01  0.54290597614E+01  0.37193251920E+02  0.51100000000E-03 0. -1.
        -11    1    3    3    0    0  0.66812999429E+01  0.15963207963E+01 -0.63322542217E+01  0.93426683983E+01  0.51100000000E-03 0.  1.
        -12    1    3    3    0    0 -0.42477268667E+02 -0.92321083290E+01  0.49949662910E+00  0.43471826215E+02  0.00000000000E+00 0.  1.
</event>
<event>
 7    1  0.4331547E-015  0.9000752E+02  0.7816164E-02  0.1186339E+00
        -11   -1    0    0    0    0  0.00000000000E+00  0.00000000000E+00  0.45593999997E+02  0.45594000000E+02  0.51100000000E-03 0. -1.
         11   -1    0    0    0    0 -0.00000000000E+00 -0.00000000000E+00 -0.45593999997E+02  0.45594000000E+02  0.51100000000E-03 0.  1.
    9900012    2    1    2    0    0 -0.67506129641E+00  0.72210026292E+00 -0.64528132965E+00  0.90007523597E+02  0.89999782108E+02 0.  0.
         12    1    1    2    0    0  0.67506129641E+00 -0.72210026292E+00  0.64528132965E+00  0.11804764030E+01  0.00000000000E+00 0. -1.
         11    1    3    3    0    0 -0.35181255724E+01 -0.76220754487E+01  0.17260386380E+01  0.85704405563E+01  0.51100000000E-03 0. -1.
        -11    1    3    3    0    0  0.31233781577E+02 -0.22606603794E+02 -0.69866647636E+01  0.39184450123E+02  0.51100000000E-03 0.  1.
         12    1    3    3    0    0 -0.28390717301E+02  0.30950779506E+02  0.46153447960E+01  0.42252632917E+02  0.00000000000E+00 0. -1.
</event>
<event>
 7    1  0.4331547E-015  0.9000754E+02  0.7816164E-02  0.1186339E+00
        -11   -1    0    0    0    0  0.00000000000E+00  0.00000000000E+00  0.45593999997E+02  0.45594000000E+02  0.51100000000E-03 0.  1.
         11   -1    0    0    0    0 -0.00000000000E+00 -0.00000000000E+00 -0.45593999997E+02  0.45594000000E+02  0.51100000000E-03 0. -1.
    9900012    2    1    2    0    0 -0.25586615824E+00  0.10912925077E+01  0.37027343815E+00  0.90007538545E+02  0.89999797253E+02 0.  0.
         12    1    1    2    0    0  0.25586615824E+00 -0.10912925077E+01 -0.37027343815E+00  0.11804614552E+01  0.00000000000E+00 0. -1.
         11    1    3    3    0    0  0.21937969652E+02  0.12306252708E+02  0.28600674512E+02  0.38088278393E+02  0.51100000000E-03 0. -1.
        -11    1    3    3    0    0 -0.43391771548E+01  0.10631894708E+02  0.70483063861E+00  0.11504887221E+02  0.51100000000E-03 0.  1.
        -12    1    3    3    0    0 -0.17854658655E+02 -0.21846854909E+02 -0.28935231713E+02  0.40414372931E+02  0.00000000000E+00 0.  1.
</event>
<event>
 7    1  0.4331547E-015  0.9000774E+02  0.7816164E-02  0.1186339E+00
        -11   -1    0    0    0    0  0.00000000000E+00  0.00000000000E+00  0.45593999997E+02  0.45594000000E+02  0.51100000000E-03 0.  1.
         11   -1    0    0    0    0 -0.00000000000E+00 -0.00000000000E+00 -0.45593999997E+02  0.45594000000E+02  0.51100000000E-03 0. -1.
    9900012    2    1    2    0    0 -0.56356154239E+00 -0.10366843578E+01 -0.26596130494E-01  0.90007735867E+02  0.89999997180E+02 0.  0.
         12    1    1    2    0    0  0.56356154239E+00  0.10366843578E+01  0.26596130494E-01  0.11802641331E+01  0.00000000000E+00 0. -1.
         11    1    3    3    0    0 -0.38134944326E+02 -0.17712020926E+02 -0.85208073775E+01  0.42902142402E+02  0.51100000000E-03 0. -1.
        -11    1    3    3    0    0  0.80114459417E+01 -0.49381981478E+01 -0.40910636606E+00  0.94200018738E+01  0.51100000000E-03 0.  1.
        -12    1    3    3    0    0  0.29559936842E+02  0.21613534716E+02  0.89033176131E+01  0.37685591591E+02  0.00000000000E+00 0.  1.
</event>
<event>
 7    1  0.4331547E-015  0.9000781E+02  0.7816164E-02  0.1186339E+00
        -11   -1    0    0    0    0  0.00000000000E+00  0.00000000000E+00  0.45593999997E+02  0.45594000000E+02  0.51100000000E-03 0.  1.
         11   -1    0    0    0    0 -0.00000000000E+00 -0.00000000000E+00 -0.45593999997E+02  0.45594000000E+02  0.51100000000E-03 0. -1.
    9900012    2    1    2    0    0 -0.83399317619E+00 -0.40877957216E+00  0.72814680524E+00  0.90007812249E+02  0.90000074571E+02 0.  0.
         12    1    1    2    0    0  0.83399317619E+00  0.40877957216E+00 -0.72814680524E+00  0.11801877505E+01  0.00000000000E+00 0. -1.
         11    1    3    3    0    0 -0.13928791791E+02 -0.29572302743E+02  0.10964203598E+02  0.34478197330E+02  0.51100000000E-03 0. -1.
        -11    1    3    3    0    0 -0.15480963521E+02  0.14332850274E+02  0.17641400025E+01  0.21170805812E+02  0.51100000000E-03 0.  1.
        -12    1    3    3    0    0  0.28575762136E+02  0.14830672896E+02 -0.12000196795E+02  0.34358809108E+02  0.00000000000E+00 0.  1.
</event>
<event>
 7    1  0.4331547E-015  0.9000674E+02  0.7816164E-02  0.1186341E+00
        -11   -1    0    0    0    0  0.00000000000E+00  0.00000000000E+00  0.45593999997E+02  0.45594000000E+02  0.51100000000E-03 0.  1.
         11   -1    0    0    0    0 -0.00000000000E+00 -0.00000000000E+00 -0.45593999997E+02  0.45594000000E+02  0.51100000000E-03 0. -1.
    9900012    2    1    2    0    0  0.34229256766E+00 -0.13680408203E+00  0.11222695080E+01  0.90006742870E+02  0.89998991070E+02 0.  0.
         12    1    1    2    0    0 -0.34229256766E+00  0.13680408203E+00 -0.11222695080E+01  0.11812571301E+01  0.00000000000E+00 0. -1.
         11    1    3    3    0    0 -0.22823056092E+02 -0.16307435250E+02 -0.22562302035E+02  0.35998358396E+02  0.51100000000E-03 0. -1.
        -11    1    3    3    0    0 -0.76427645075E+01 -0.65755039306E+01  0.31949316301E+01  0.10576232299E+02  0.51100000000E-03 0.  1.
        -12    1    3    3    0    0  0.30808113167E+02  0.22746135098E+02  0.20489639913E+02  0.43432152175E+02  0.00000000000E+00 0.  1.
</event>
<event>
 7    1  0.4331547E-015  0.9000771E+02  0.7816164E-02  0.1186339E+00
        -11   -1    0    0    0    0  0.00000000000E+00  0.00000000000E+00  0.45593999997E+02  0.45594000000E+02  0.51100000000E-03 0. -1.
         11   -1    0    0    0    0 -0.00000000000E+00 -0.00000000000E+00 -0.45593999997E+02  0.45594000000E+02  0.51100000000E-03 0.  1.
    9900012    2    1    2    0    0 -0.10133538462E+01 -0.29447848660E+00 -0.52865318475E+00  0.90007712837E+02  0.89999973847E+02 0.  0.
         12    1    1    2    0    0  0.10133538462E+01  0.29447848660E+00  0.52865318475E+00  0.11802871627E+01  0.00000000000E+00 0. -1.
         11    1    3    3    0    0  0.40713549164E+01  0.85557801051E+01 -0.21747852606E+01  0.97214708379E+01  0.51100000000E-03 0. -1.
        -11    1    3    3    0    0 -0.15424021685E+02  0.29450542096E+02 -0.15966630157E+02  0.36880457610E+02  0.51100000000E-03 0.  1.
         12    1    3    3    0    0  0.10339312922E+02 -0.38300800688E+02  0.17612762232E+02  0.43405784390E+02  0.00000000000E+00 0. -1.
</event>
<event>
 7    1  0.4331547E-015  0.9000767E+02  0.7816164E-02  0.1186339E+00
        -11   -1    0    0    0    0  0.00000000000E+00  0.00000000000E+00  0.45593999997E+02  0.45594000000E+02  0.51100000000E-03 0.  1.
         11   -1    0    0    0    0 -0.00000000000E+00 -0.00000000000E+00 -0.45593999997E+02  0.45594000000E+02  0.51100000000E-03 0. -1.
    9900012    2    1    2    0    0 -0.14487637954E+00  0.31759871232E+00  0.11275237114E+01  0.90007674694E+02  0.89999935200E+02 0.  0.
         12    1    1    2    0    0  0.14487637954E+00 -0.31759871232E+00 -0.11275237114E+01  0.11803253057E+01  0.00000000000E+00 0. -1.
         11    1    3    3    0    0  0.21787756598E+01  0.36078074162E+02 -0.20618558118E+02  0.41611289787E+02  0.51100000000E-03 0. -1.
        -11    1    3    3    0    0 -0.29035019396E+01 -0.94868267841E+01 -0.48181744262E+01  0.11029279714E+02  0.51100000000E-03 0.  1.
        -12    1    3    3    0    0  0.57984990030E+00 -0.26273648666E+02  0.26564256256E+02  0.37367105193E+02  0.00000000000E+00 0.  1.
</event>
<event>
 7    1  0.4531174E-015  0.9000796E+02  0.7816164E-02  0.1186339E+00
        -11   -1    0    0    0    0  0.00000000000E+00  0.00000000000E+00  0.45593999997E+02  0.45594000000E+02  0.51100000000E-03 0. -1.
         11   -1    0    0    0    0 -0.00000000000E+00 -0.00000000000E+00 -0.45593999997E+02  0.45594000000E+02  0.51100000000E-03 0.  1.
    9900012    2    1    2    0    0  0.41553840444E+00  0.81064973316E+00 -0.75011129152E+00  0.90007960973E+02  0.90000225258E+02 0.  0.
         12    1    1    2    0    0 -0.41553840444E+00 -0.81064973316E+00  0.75011129152E+00  0.11800390269E+01  0.00000000000E+00 0. -1.
         11    1    3    3    0    0  0.18125312111E+01 -0.25458484759E+01 -0.88110469933E+01  0.93488589267E+01  0.51100000000E-03 0. -1.
        -11    1    3    3    0    0  0.21836000160E+00  0.12670040607E+01 -0.36248365252E+02  0.36271158847E+02  0.51100000000E-03 0.  1.
         12    1    3    3    0    0 -0.16153528083E+01  0.20894941483E+01  0.44309300954E+02  0.44387943200E+02  0.00000000000E+00 0. -1.
</event>
<event>
 7    1  0.4331547E-015  0.9000733E+02  0.7816164E-02  0.1186340E+00
        -11   -1    0    0    0    0  0.00000000000E+00  0.00000000000E+00  0.45593999997E+02  0.45594000000E+02  0.51100000000E-03 0. -1.
         11   -1    0    0    0    0 -0.00000000000E+00 -0.00000000000E+00 -0.45593999997E+02  0.45594000000E+02  0.51100000000E-03 0.  1.
    9900012    2    1    2    0    0  0.10576283628E+01  0.46419044228E+00  0.24481588373E+00  0.90007328438E+02  0.89999584372E+02 0.  0.
         12    1    1    2    0    0 -0.10576283628E+01 -0.46419044228E+00 -0.24481588373E+00  0.11806715620E+01  0.00000000000E+00 0. -1.
         11    1    3    3    0    0  0.55235343515E+01 -0.41719090337E+01  0.52513861479E+01  0.86885737295E+01  0.51100000000E-03 0. -1.
        -11    1    3    3    0    0 -0.33906068101E+01 -0.37034837293E+02 -0.11943901431E+02  0.39060621725E+02  0.51100000000E-03 0.  1.
         12    1    3    3    0    0 -0.10752991787E+01  0.41670936769E+02  0.69373311665E+01  0.42258132984E+02  0.00000000000E+00 0. -1.
</event>
<event>
 7    1  0.4331547E-015  0.9000774E+02  0.7816164E-02  0.1186339E+00
        -11   -1    0    0    0    0  0.00000000000E+00  0.00000000000E+00  0.45593999997E+02  0.45594000000E+02  0.51100000000E-03 0. -1.
         11   -1    0    0    0    0 -0.00000000000E+00 -0.00000000000E+00 -0.45593999997E+02  0.45594000000E+02  0.51100000000E-03 0.  1.
    9900012    2    1    2    0    0 -0.35367502552E+00 -0.36671635794E+00 -0.10646304899E+01  0.90007743676E+02  0.90000005092E+02 0.  0.
         12    1    1    2    0    0  0.35367502552E+00  0.36671635794E+00  0.10646304899E+01  0.11802563242E+01  0.00000000000E+00 0. -1.
         11    1    3    3    0    0 -0.65224972648E+01 -0.32707739979E+02 -0.62472851166E+01  0.33931810984E+02  0.51100000000E-03 0. -1.
        -11    1    3    3    0    0  0.61064137067E+01 -0.10939565779E+02  0.18901509793E+01  0.12670243043E+02  0.51100000000E-03 0.  1.
        -12    1    3    3    0    0  0.62408532593E-01  0.43280589399E+02  0.32925036474E+01  0.43405689648E+02  0.00000000000E+00 0.  1.
</event>
<event>
 7    1  0.4331547E-015  0.9000778E+02  0.7816164E-02  0.1186339E+00
        -11   -1    0    0    0    0  0.00000000000E+00  0.00000000000E+00  0.45593999997E+02  0.45594000000E+02  0.51100000000E-03 0.  1.
         11   -1    0    0    0    0 -0.00000000000E+00 -0.00000000000E+00 -0.45593999997E+02  0.45594000000E+02  0.51100000000E-03 0. -1.
    9900012    2    1    2    0    0 -0.82264132943E+00 -0.79805019254E-01  0.84249743797E+00  0.90007784117E+02  0.90000046067E+02 0.  0.
         12    1    1    2    0    0  0.82264132943E+00  0.79805019254E-01 -0.84249743797E+00  0.11802158832E+01  0.00000000000E+00 0. -1.
         11    1    3    3    0    0  0.81582348836E+00 -0.32111204080E+01 -0.65212653988E+01  0.73146267780E+01  0.51100000000E-03 0. -1.
        -11    1    3    3    0    0 -0.80781844812E+01 -0.29333364631E+02  0.29895044333E+02  0.42654624849E+02  0.51100000000E-03 0.  1.
         12    1    3    3    0    0  0.64397196634E+01  0.32464680019E+02 -0.22531281496E+02  0.40038532490E+02  0.00000000000E+00 0. -1.
</event>
<event>
 7    1  0.4331547E-015  0.9000777E+02  0.7816164E-02  0.1186339E+00
        -11   -1    0    0    0    0  0.00000000000E+00  0.00000000000E+00  0.45593999997E+02  0.45594000000E+02  0.51100000000E-03 0.  1.
         11   -1    0    0    0    0 -0.00000000000E+00 -0.00000000000E+00 -0.45593999997E+02  0.45594000000E+02  0.51100000000E-03 0. -1.
    9900012    2    1    2    0    0  0.15623520368E+00 -0.88040369377E+00  0.77034280504E+00  0.90007767760E+02  0.90000029495E+02 0.  0.
         12    1    1    2    0    0 -0.15623520368E+00  0.88040369377E+00 -0.77034280504E+00  0.11802322399E+01  0.00000000000E+00 0. -1.
         11    1    3    3    0    0  0.44069418110E+01 -0.15654957991E+02 -0.32864149240E+02  0.36668121732E+02  0.51100000000E-03 0. -1.
        -11    1    3    3    0    0 -0.48506273620E+01 -0.41398468919E+01 -0.64143319373E+01  0.90449197098E+01  0.51100000000E-03 0.  1.
        -12    1    3    3    0    0  0.59992075468E+00  0.18914401189E+02  0.40048823982E+02  0.44294726318E+02  0.00000000000E+00 0.  1.
</event>
<event>
 7    1  0.4331547E-015  0.9000777E+02  0.7816164E-02  0.1186339E+00
        -11   -1    0    0    0    0  0.00000000000E+00  0.00000000000E+00  0.45593999997E+02  0.45594000000E+02  0.51100000000E-03 0.  1.
         11   -1    0    0    0    0 -0.00000000000E+00 -0.00000000000E+00 -0.45593999997E+02  0.45594000000E+02  0.51100000000E-03 0. -1.
    9900012    2    1    2    0    0 -0.10781884661E+01  0.10911607525E+00  0.46750091887E+00  0.90007765364E+02  0.90000027067E+02 0.  0.
         12    1    1    2    0    0  0.10781884661E+01 -0.10911607525E+00 -0.46750091887E+00  0.11802346357E+01  0.00000000000E+00 0. -1.
         11    1    3    3    0    0  0.36161022162E+02 -0.93855589277E+01 -0.16532198526E+02  0.40853663588E+02  0.51100000000E-03 0. -1.
        -11    1    3    3    0    0 -0.22187327786E+01  0.73269414945E+01 -0.36072787304E+01  0.84628190874E+01  0.51100000000E-03 0.  1.
        -12    1    3    3    0    0 -0.35020477849E+02  0.21677335085E+01  0.20606978175E+02  0.40691282689E+02  0.00000000000E+00 0.  1.
</event>
<event>
 7    1  0.4331547E-015  0.9000781E+02  0.7816164E-02  0.1186339E+00
        -11   -1    0    0    0    0  0.00000000000E+00  0.00000000000E+00  0.45593999997E+02  0.45594000000E+02  0.51100000000E-03 0. -1.
         11   -1    0    0    0    0 -0.00000000000E+00 -0.00000000000E+00 -0.45593999997E+02  0.45594000000E+02  0.51100000000E-03 0.  1.
    9900012    2    1    2    0    0  0.10477306032E+01 -0.53842970669E+00 -0.72071881152E-01  0.90007813438E+02  0.90000075775E+02 0.  0.
         12    1    1    2    0    0 -0.10477306032E+01  0.53842970669E+00  0.72071881152E-01  0.11801865624E+01  0.00000000000E+00 0. -1.
         11    1    3    3    0    0 -0.35263413911E+02  0.17099442299E+02 -0.10100841145E+02  0.40471301928E+02  0.51100000000E-03 0. -1.
        -11    1    3    3    0    0 -0.10650565873E+01 -0.46949581886E+01  0.87204981357E+01  0.99611277435E+01  0.51100000000E-03 0.  1.
        -12    1    3    3    0    0  0.37376201102E+02 -0.12942913818E+02  0.13082711283E+01  0.39575383766E+02  0.00000000000E+00 0.  1.
</event>
<event>
 7    1  0.4331547E-015  0.9000770E+02  0.7816164E-02  0.1186339E+00
        -11   -1    0    0    0    0  0.00000000000E+00  0.00000000000E+00  0.45593999997E+02  0.45594000000E+02  0.51100000000E-03 0. -1.
         11   -1    0    0    0    0 -0.00000000000E+00 -0.00000000000E+00 -0.45593999997E+02  0.45594000000E+02  0.51100000000E-03 0.  1.
    9900012    2    1    2    0    0  0.35263917948E+00 -0.33043780531E+00 -0.10768342734E+01  0.90007696824E+02  0.89999957622E+02 0.  0.
         12    1    1    2    0    0 -0.35263917948E+00  0.33043780531E+00  0.10768342734E+01  0.11803031757E+01  0.00000000000E+00 0. -1.
         11    1    3    3    0    0 -0.19463016273E+02  0.28125655631E+00 -0.20366424274E+01  0.19571306046E+02  0.51100000000E-03 0. -1.
        -11    1    3    3    0    0 -0.11221426893E+02 -0.25463672764E+02 -0.93592180983E+01  0.29358372158E+02  0.51100000000E-03 0.  1.
         12    1    3    3    0    0  0.31037082345E+02  0.24851978402E+02  0.10319026252E+02  0.41078018620E+02  0.00000000000E+00 0. -1.
</event>
<event>
 7    1  0.4331547E-015  0.9000798E+02  0.7816164E-02  0.1186339E+00
        -11   -1    0    0    0    0  0.00000000000E+00  0.00000000000E+00  0.45593999997E+02  0.45594000000E+02  0.51100000000E-03 0. -1.
         11   -1    0    0    0    0 -0.00000000000E+00 -0.00000000000E+00 -0.45593999997E+02  0.45594000000E+02  0.51100000000E-03 0.  1.
    9900012    2    1    2    0    0  0.61665498430E+00 -0.99983755101E+00 -0.11179883956E+00  0.90007984119E+02  0.90000248709E+02 0.  0.
         12    1    1    2    0    0 -0.61665498430E+00  0.99983755101E+00  0.11179883956E+00  0.11800158807E+01  0.00000000000E+00 0. -1.
         11    1    3    3    0    0  0.18341977088E+02  0.34923734034E+02  0.78789998211E+01  0.40226533045E+02  0.51100000000E-03 0. -1.
        -11    1    3    3    0    0 -0.94570523843E+01  0.22150766561E+01  0.90718058019E+00  0.97552745353E+01  0.51100000000E-03 0.  1.
        -12    1    3    3    0    0 -0.82682697192E+01 -0.38138648241E+02 -0.88979792409E+01  0.40026176539E+02  0.00000000000E+00 0.  1.
</event>
<event>
 7    1  0.4331547E-015  0.9000768E+02  0.7816164E-02  0.1186339E+00
        -11   -1    0    0    0    0  0.00000000000E+00  0.00000000000E+00  0.45593999997E+02  0.45594000000E+02  0.51100000000E-03 0.  1.
         11   -1    0    0    0    0 -0.00000000000E+00 -0.00000000000E+00 -0.45593999997E+02  0.45594000000E+02  0.51100000000E-03 0. -1.
    9900012    2    1    2    0    0  0.99954702542E+00 -0.56876014065E+00 -0.26565180558E+00  0.90007680876E+02  0.89999941463E+02 0.  0.
         12    1    1    2    0    0 -0.99954702542E+00  0.56876014065E+00  0.26565180558E+00  0.11803191244E+01  0.00000000000E+00 0. -1.
         11    1    3    3    0    0  0.33401830846E+02  0.67134254063E+01 -0.24028823586E+02  0.41690967220E+02  0.51100000000E-03 0. -1.
        -11    1    3    3    0    0 -0.65299831232E+01  0.42542894275E+01 -0.39064490860E+01  0.87177980502E+01  0.51100000000E-03 0.  1.
        -12    1    3    3    0    0 -0.25872300698E+02 -0.11536474974E+02  0.27669620866E+02  0.39598915605E+02  0.00000000000E+00 0.  1.
</event>
<event>
 7    1  0.4331547E-015  0.9000774E+02  0.7816164E-02  0.1186339E+00
        -11   -1    0    0    0    0  0.00000000000E+00  0.00000000000E+00  0.45593999997E+02  0.45594000000E+02  0.51100000000E-03 0.  1.
         11   -1    0    0    0    0 -0.00000000000E+00 -0.00000000000E+00 -0.45593999997E+02  0.45594000000E+02  0.51100000000E-03 0. -1.
    9900012    2    1    2    0    0 -0.10760090454E+00  0.11706121717E+01  0.10531447789E+00  0.90007744964E+02  0.90000006397E+02 0.  0.
         12    1    1    2    0    0  0.10760090454E+00 -0.11706121717E+01 -0.10531447789E+00  0.11802550361E+01  0.00000000000E+00 0. -1.
         11    1    3    3    0    0 -0.27175928704E+02 -0.26326066674E+02 -0.90018608429E+01  0.38892497816E+02  0.51100000000E-03 0. -1.
        -11    1    3    3    0    0  0.76613110346E+01 -0.40787623069E+01 -0.65575770514E+01  0.10878134296E+02  0.51100000000E-03 0.  1.
        -12    1    3    3    0    0  0.19407016765E+02  0.31575441153E+02  0.15664752372E+02  0.40237112851E+02  0.00000000000E+00 0.  1.
</event>
<event>
 7    1  0.4331547E-015  0.9000755E+02  0.7816164E-02  0.1186339E+00
        -11   -1    0    0    0    0  0.00000000000E+00  0.00000000000E+00  0.45593999997E+02  0.45594000000E+02  0.51100000000E-03 0. -1.
         11   -1    0    0    0    0 -0.00000000000E+00 -0.00000000000E+00 -0.45593999997E+02  0.45594000000E+02  0.51100000000E-03 0.  1.
    9900012    2    1    2    0    0  0.81377890006E-01  0.64866343793E+00 -0.98289112751E+00  0.90007550261E+02  0.89999809125E+02 0.  0.
         12    1    1    2    0    0 -0.81377890006E-01 -0.64866343793E+00  0.98289112751E+00  0.11804497385E+01  0.00000000000E+00 0. -1.
         11    1    3    3    0    0 -0.12052556435E+01 -0.37173784661E+02 -0.99967633459E+01  0.38513350735E+02  0.51100000000E-03 0. -1.
        -11    1    3    3    0    0 -0.12261972936E+01  0.26309351517E+00 -0.94734810940E+01  0.95561300902E+01  0.51100000000E-03 0.  1.
        -12    1    3    3    0    0  0.25128308272E+01  0.37559354584E+02  0.18487353312E+02  0.41938069436E+02  0.00000000000E+00 0.  1.
</event>
<event>
 7    1  0.4331547E-015  0.9000775E+02  0.7816164E-02  0.1186339E+00
        -11   -1    0    0    0    0  0.00000000000E+00  0.00000000000E+00  0.45593999997E+02  0.45594000000E+02  0.51100000000E-03 0.  1.
         11   -1    0    0    0    0 -0.00000000000E+00 -0.00000000000E+00 -0.45593999997E+02  0.45594000000E+02  0.51100000000E-03 0. -1.
    9900012    2    1    2    0    0 -0.77705399184E+00 -0.86783209369E+00 -0.18982694265E+00  0.90007754383E+02  0.90000015941E+02 0.  0.
         12    1    1    2    0    0  0.77705399184E+00  0.86783209369E+00  0.18982694265E+00  0.11802456173E+01  0.00000000000E+00 0. -1.
         11    1    3    3    0    0  0.12224452614E+02  0.30948694587E+02 -0.13668036315E+02  0.35973242213E+02  0.51100000000E-03 0. -1.
        -11    1    3    3    0    0  0.27815402729E+01  0.24691451875E+00 -0.10587386032E+02  0.10949460093E+02  0.51100000000E-03 0.  1.
        -12    1    3    3    0    0 -0.15783046879E+02 -0.32063441199E+02  0.24065595404E+02  0.43085052077E+02  0.00000000000E+00 0.  1.
</event>
<event>
 7    1  0.4331547E-015  0.9000781E+02  0.7816164E-02  0.1186339E+00
        -11   -1    0    0    0    0  0.00000000000E+00  0.00000000000E+00  0.45593999997E+02  0.45594000000E+02  0.51100000000E-03 0. -1.
         11   -1    0    0    0    0 -0.00000000000E+00 -0.00000000000E+00 -0.45593999997E+02  0.45594000000E+02  0.51100000000E-03 0.  1.
    9900012    2    1    2    0    0 -0.69942649979E+00  0.23825757349E+00 -0.92025942762E+00  0.90007812933E+02  0.90000075263E+02 0.  0.
         12    1    1    2    0    0  0.69942649979E+00 -0.23825757349E+00  0.92025942762E+00  0.11801870674E+01  0.00000000000E+00 0. -1.
         11    1    3    3    0    0  0.39223116011E+01  0.53247850251E+01  0.79210061295E+01  0.10318924470E+02  0.51100000000E-03 0. -1.
        -11    1    3    3    0    0  0.36583699095E+02  0.25392618026E+01 -0.90960575293E+01  0.37782974378E+02  0.51100000000E-03 0.  1.
         12    1    3    3    0    0 -0.41205437196E+02 -0.76257892542E+01  0.25479197218E+00  0.41905914084E+02  0.00000000000E+00 0. -1.
</event>
<event>
 7    1  0.4331547E-015  0.9000759E+02  0.7816164E-02  0.1186339E+00
        -11   -1    0    0    0    0  0.00000000000E+00  0.00000000000E+00  0.45593999997E+02  0.45594000000E+02  0.51100000000E-03 0. -1.
         11   -1    0    0    0    0 -0.00000000000E+00 -0.00000000000E+00 -0.45593999997E+02  0.45594000000E+02  0.51100000000E-03 0.  1.
    9900012    2    1    2    0    0 -0.96242377076E+00  0.13196543390E+00  0.67059856535E+00  0.90007586163E+02  0.89999845500E+02 0.  0.
         12    1    1    2    0    0  0.96242377076E+00 -0.13196543390E+00 -0.67059856535E+00  0.11804138368E+01  0.00000000000E+00 0. -1.
         11    1    3    3    0    0  0.52004730840E+01  0.84558147363E+01  0.45907734420E+01  0.10937135101E+02  0.51100000000E-03 0. -1.
        -11    1    3    3    0    0  0.28812478660E+02  0.29672832057E+01 -0.23616591599E+02  0.37372544671E+02  0.51100000000E-03 0.  1.
         12    1    3    3    0    0 -0.34975375515E+02 -0.11291132508E+02  0.19696416722E+02  0.41697906392E+02  0.00000000000E+00 0. -1.
</event>
<event>
 7    1  0.4331547E-015  0.9000761E+02  0.7816164E-02  0.1186339E+00
        -11   -1    0    0    0    0  0.00000000000E+00  0.00000000000E+00  0.45593999997E+02  0.45594000000E+02  0.51100000000E-03 0.  1.
         11   -1    0    0    0    0 -0.00000000000E+00 -0.00000000000E+00 -0.45593999997E+02  0.45594000000E+02  0.51100000000E-03 0. -1.
    9900012    2    1    2    0    0  0.87941840167E+00 -0.67569643448E+00 -0.40420663227E+00  0.90007607947E+02  0.89999867572E+02 0.  0.
         12    1    1    2    0    0 -0.87941840167E+00  0.67569643448E+00  0.40420663227E+00  0.11803920528E+01  0.00000000000E+00 0. -1.
         11    1    3    3    0    0  0.40480630697E+02  0.31911290677E+01 -0.33922388336E+01  0.40747663134E+02  0.51100000000E-03 0. -1.
        -11    1    3    3    0    0 -0.15348296983E+01 -0.45418242078E+00 -0.90495541920E+01  0.91900171495E+01  0.51100000000E-03 0.  1.
        -12    1    3    3    0    0 -0.38066382597E+02 -0.34126430814E+01  0.12037586393E+02  0.40069927664E+02  0.00000000000E+00 0.  1.
</event>
<event>
 7    1  0.4331547E-015  0.9000770E+02  0.7816164E-02  0.1186339E+00
        -11   -1    0    0    0    0  0.00000000000E+00  0.00000000000E+00  0.45593999997E+02  0.45594000000E+02  0.51100000000E-03 0. -1.
         11   -1    0    0    0    0 -0.00000000000E+00 -0.00000000000E+00 -0.45593999997E+02  0.45594000000E+02  0.51100000000E-03 0.  1.
    9900012    2    1    2    0    0  0.69918233569E+00  0.75651142690E+00 -0.57613648596E+00  0.90007703966E+02  0.89999964858E+02 0.  0.
         12    1    1    2    0    0 -0.69918233569E+00 -0.75651142690E+00  0.57613648596E+00  0.11802960341E+01  0.00000000000E+00 0. -1.
         11    1    3    3    0    0 -0.25946253748E+02 -0.65304897232E+01  0.14059365205E+02  0.30224512069E+02  0.51100000000E-03 0. -1.
        -11    1    3    3    0    0 -0.73304012852E+01 -0.95723828543E+01 -0.18044111674E+02  0.21701503701E+02  0.51100000000E-03 0.  1.
        -12    1    3    3    0    0  0.33975837368E+02  0.16859384004E+02  0.34086099830E+01  0.38081688197E+02  0.00000000000E+00 0.  1.
</event>
<event>
 7    1  0.4331547E-015  0.9000772E+02  0.7816164E-02  0.1186339E+00
        -11   -1    0    0    0    0  0.00000000000E+00  0.00000000000E+00  0.45593999997E+02  0.45594000000E+02  0.51100000000E-03 0. -1.
         11   -1    0    0    0    0 -0.00000000000E+00 -0.00000000000E+00 -0.45593999997E+02  0.45594000000E+02  0.51100000000E-03 0.  1.
    9900012    2    1    2    0    0  0.28457850488E+00  0.94516681819E+00 -0.64709705471E+00  0.90007720441E+02  0.89999981551E+02 0.  0.
         12    1    1    2    0    0 -0.28457850488E+00 -0.94516681819E+00  0.64709705471E+00  0.11802795592E+01  0.00000000000E+00 0. -1.
         11    1    3    3    0    0  0.65387248280E+01 -0.53758739892E+01 -0.61513838402E+01  0.10463960385E+02  0.51100000000E-03 0. -1.
        -11    1    3    3    0    0 -0.13442250329E+02  0.31276477930E+02 -0.22921974306E+02  0.41040578358E+02  0.51100000000E-03 0.  1.
         12    1    3    3    0    0  0.71881040057E+01 -0.24955437123E+02  0.28426261092E+02  0.38503181698E+02  0.00000000000E+00 0. -1.
</event>
<event>
 7    1  0.4331547E-015  0.9000773E+02  0.7816164E-02  0.1186339E+00
        -11   -1    0    0    0    0  0.00000000000E+00  0.00000000000E+00  0.45593999997E+02  0.45594000000E+02  0.51100000000E-03 0.  1.
         11   -1    0    0    0    0 -0.00000000000E+00 -0.00000000000E+00 -0.45593999997E+02  0.45594000000E+02  0.51100000000E-03 0. -1.
    9900012    2    1    2    0    0 -0.91933179460E+00 -0.69241375078E+00 -0.26156877540E+00  0.90007734786E+02  0.89999996085E+02 0.  0.
         12    1    1    2    0    0  0.91933179460E+00  0.69241375078E+00  0.26156877540E+00  0.11802652139E+01  0.00000000000E+00 0. -1.
         11    1    3    3    0    0 -0.12182567034E+02 -0.12580237308E+01 -0.35390769439E+01  0.12748436340E+02  0.51100000000E-03 0. -1.
        -11    1    3    3    0    0 -0.56802027323E+01 -0.19928561065E+02  0.31996156917E+02  0.38120418504E+02  0.51100000000E-03 0.  1.
         12    1    3    3    0    0  0.16943437972E+02  0.20494171045E+02 -0.28718648749E+02  0.39138879942E+02  0.00000000000E+00 0. -1.
</event>
<event>
 7    1  0.4331547E-015  0.9000774E+02  0.7816164E-02  0.1186339E+00
        -11   -1    0    0    0    0  0.00000000000E+00  0.00000000000E+00  0.45593999997E+02  0.45594000000E+02  0.51100000000E-03 0.  1.
         11   -1    0    0    0    0 -0.00000000000E+00 -0.00000000000E+00 -0.45593999997E+02  0.45594000000E+02  0.51100000000E-03 0. -1.
    9900012    2    1    2    0    0  0.79061632742E+00 -0.85899311269E+00  0.17339472726E+00  0.90007741945E+02  0.90000003339E+02 0.  0.
         12    1    1    2    0    0 -0.79061632742E+00  0.85899311269E+00 -0.17339472726E+00  0.11802580549E+01  0.00000000000E+00 0. -1.
         11    1    3    3    0    0 -0.70657840034E+01 -0.39467978058E+01 -0.38771480796E+02  0.39607199344E+02  0.51100000000E-03 0. -1.
        -11    1    3    3    0    0 -0.81276252398E+01  0.49996043333E+01  0.15229143383E+01  0.96630018043E+01  0.51100000000E-03 0.  1.
        -12    1    3    3    0    0  0.15984025571E+02 -0.19117996402E+01  0.37421961184E+02  0.40737540797E+02  0.00000000000E+00 0.  1.
</event>
<event>
 7    1  0.4331547E-015  0.9000780E+02  0.7816164E-02  0.1186339E+00
        -11   -1    0    0    0    0  0.00000000000E+00  0.00000000000E+00  0.45593999997E+02  0.45594000000E+02  0.51100000000E-03 0. -1.
         11   -1    0    0    0    0 -0.00000000000E+00 -0.00000000000E+00 -0.45593999997E+02  0.45594000000E+02  0.51100000000E-03 0.  1.
    9900012    2    1    2    0    0  0.23132434513E+00 -0.10664680759E+01  0.44945590600E+00  0.90007798440E+02  0.90000060580E+02 0.  0.
         12    1    1    2    0    0 -0.23132434513E+00  0.10664680759E+01 -0.44945590600E+00  0.11802015595E+01  0.00000000000E+00 0. -1.
         11    1    3    3    0    0  0.52121207726E+01  0.24701452496E+01 -0.67703974497E+01  0.88941611404E+01  0.51100000000E-03 0. -1.
        -11    1    3    3    0    0 -0.29820538751E+02  0.23986324554E+02 -0.10978070875E+02  0.39813645115E+02  0.51100000000E-03 0.  1.
         12    1    3    3    0    0  0.24839742323E+02 -0.27522937879E+02  0.18197924230E+02  0.41299992185E+02  0.00000000000E+00 0. -1.
</event>
<event>
 7    1  0.4331547E-015  0.9000774E+02  0.7816164E-02  0.1186339E+00
        -11   -1    0    0    0    0  0.00000000000E+00  0.00000000000E+00  0.45593999997E+02  0.45594000000E+02  0.51100000000E-03 0.  1.
         11   -1    0    0    0    0 -0.00000000000E+00 -0.00000000000E+00 -0.45593999997E+02  0.45594000000E+02  0.51100000000E-03 0. -1.
    9900012    2    1    2    0    0  0.26011309662E+00 -0.10168125248E+01  0.53986445223E+00  0.90007737249E+02  0.89999998581E+02 0.  0.
         12    1    1    2    0    0 -0.26011309662E+00  0.10168125248E+01 -0.53986445223E+00  0.11802627506E+01  0.00000000000E+00 0. -1.
         11    1    3    3    0    0 -0.17555678068E+01  0.25698844636E+01  0.76368891649E+01  0.82467206123E+01  0.51100000000E-03 0. -1.
        -11    1    3    3    0    0  0.31301274114E+02 -0.66215052195E+01  0.23195574827E+02  0.39517702165E+02  0.51100000000E-03 0.  1.
         12    1    3    3    0    0 -0.29285593211E+02  0.30348082311E+01 -0.30292599540E+02  0.42243314472E+02  0.00000000000E+00 0. -1.
</event>
<event>
 7    1  0.4331547E-015  0.9000762E+02  0.7816164E-02  0.1186339E+00
        -11   -1    0    0    0    0  0.00000000000E+00  0.00000000000E+00  0.45593999997E+02  0.45594000000E+02  0.51100000000E-03 0.  1.
         11   -1    0    0    0    0 -0.00000000000E+00 -0.00000000000E+00 -0.45593999997E+02  0.45594000000E+02  0.51100000000E-03 0. -1.
    9900012    2    1    2    0    0  0.55173173925E-01 -0.70010677925E+00  0.94873363616E+00  0.90007623325E+02  0.89999883153E+02 0.  0.
         12    1    1    2    0    0 -0.55173173925E-01  0.70010677925E+00 -0.94873363616E+00  0.11803766746E+01  0.00000000000E+00 0. -1.
         11    1    3    3    0    0  0.11697927590E+02 -0.28321884940E+02 -0.19574536241E+02  0.36361148851E+02  0.51100000000E-03 0. -1.
        -11    1    3    3    0    0 -0.14587189245E+01 -0.37380013821E+01 -0.87046171914E+01  0.95849296264E+01  0.51100000000E-03 0.  1.
        -12    1    3    3    0    0 -0.10184035491E+02  0.31359779543E+02  0.29227887068E+02  0.44061544848E+02  0.00000000000E+00 0.  1.
</event>
<event>
 7    1  0.4331547E-015  0.9000774E+02  0.7816164E-02  0.1186339E+00
        -11   -1    0    0    0    0  0.00000000000E+00  0.00000000000E+00  0.45593999997E+02  0.45594000000E+02  0.51100000000E-03 0.  1.
         11   -1    0    0    0    0 -0.00000000000E+00 -0.00000000000E+00 -0.45593999997E+02  0.45594000000E+02  0.51100000000E-03 0. -1.
    9900012    2    1    2    0    0  0.49747305437E+00 -0.12403329046E-01  0.10702205832E+01  0.90007743511E+02  0.90000004926E+02 0.  0.
         12    1    1    2    0    0 -0.49747305437E+00  0.12403329046E-01 -0.10702205832E+01  0.11802564887E+01  0.00000000000E+00 0. -1.
         11    1    3    3    0    0  0.16883474209E+02 -0.19076295915E+02 -0.32321754909E+02  0.41154010835E+02  0.51100000000E-03 0. -1.
        -11    1    3    3    0    0 -0.59631307539E+01  0.56616000351E+01 -0.29544823324E+01  0.87373685661E+01  0.51100000000E-03 0.  1.
        -12    1    3    3    0    0 -0.10422870400E+02  0.13402292551E+02  0.36346457825E+02  0.40116364110E+02  0.00000000000E+00 0.  1.
</event>
<event>
 7    1  0.4331547E-015  0.9000777E+02  0.7816164E-02  0.1186339E+00
        -11   -1    0    0    0    0  0.00000000000E+00  0.00000000000E+00  0.45593999997E+02  0.45594000000E+02  0.51100000000E-03 0. -1.
         11   -1    0    0    0    0 -0.00000000000E+00 -0.00000000000E+00 -0.45593999997E+02  0.45594000000E+02  0.51100000000E-03 0.  1.
    9900012    2    1    2    0    0 -0.45091646460E+00 -0.95073260455E+00  0.53452914372E+00  0.90007771400E+02  0.90000033182E+02 0.  0.
         12    1    1    2    0    0  0.45091646460E+00  0.95073260455E+00 -0.53452914372E+00  0.11802286003E+01  0.00000000000E+00 0. -1.
         11    1    3    3    0    0 -0.86887362439E+00 -0.33227443514E+01  0.81620562483E+01  0.88552094194E+01  0.51100000000E-03 0. -1.
        -11    1    3    3    0    0 -0.30026919978E+02 -0.23942067202E+02  0.55643274525E+01  0.38804642061E+02  0.51100000000E-03 0.  1.
         12    1    3    3    0    0  0.30444877138E+02  0.26314078948E+02 -0.13191854557E+02  0.42347919919E+02  0.00000000000E+00 0. -1.
</event>
<event>
 7    1  0.4331547E-015  0.9000772E+02  0.7816164E-02  0.1186339E+00
        -11   -1    0    0    0    0  0.00000000000E+00  0.00000000000E+00  0.45593999997E+02  0.45594000000E+02  0.51100000000E-03 0. -1.
         11   -1    0    0    0    0 -0.00000000000E+00 -0.00000000000E+00 -0.45593999997E+02  0.45594000000E+02  0.51100000000E-03 0.  1.
    9900012    2    1    2    0    0 -0.77222897860E+00 -0.87465305515E+00 -0.17807299268E+00  0.90007718020E+02  0.89999979098E+02 0.  0.
         12    1    1    2    0    0  0.77222897860E+00  0.87465305515E+00  0.17807299268E+00  0.11802819803E+01  0.00000000000E+00 0. -1.
         11    1    3    3    0    0  0.94897064638E+01 -0.20923895521E+01 -0.81364109850E+01  0.12674139292E+02  0.51100000000E-03 0. -1.
        -11    1    3    3    0    0 -0.30914026069E+02 -0.25381561934E+01 -0.23916537821E+02  0.39167844289E+02  0.51100000000E-03 0.  1.
         12    1    3    3    0    0  0.20652090626E+02  0.37558926904E+01  0.31874875814E+02  0.38165734439E+02  0.00000000000E+00 0. -1.
</event>
<event>
 7    1  0.4331547E-015  0.9000774E+02  0.7816164E-02  0.1186339E+00
        -11   -1    0    0    0    0  0.00000000000E+00  0.00000000000E+00  0.45593999997E+02  0.45594000000E+02  0.51100000000E-03 0.  1.
         11   -1    0    0    0    0 -0.00000000000E+00 -0.00000000000E+00 -0.45593999997E+02  0.45594000000E+02  0.51100000000E-03 0. -1.
    9900012    2    1    2    0    0  0.45839046241E+00 -0.79535338546E+00  0.74182547914E+00  0.90007739916E+02  0.90000001283E+02 0.  0.
         12    1    1    2    0    0 -0.45839046241E+00  0.79535338546E+00 -0.74182547914E+00  0.11802600838E+01  0.00000000000E+00 0. -1.
         11    1    3    3    0    0 -0.99504679754E+00  0.30967757049E+02  0.13073673022E+01  0.31011309297E+02  0.51100000000E-03 0. -1.
        -11    1    3    3    0    0  0.15269582858E+02  0.46441673798E+01  0.97627432730E+01  0.18709345467E+02  0.51100000000E-03 0.  1.
        -12    1    3    3    0    0 -0.13816145598E+02 -0.36407277815E+02 -0.10328285096E+02  0.40287085153E+02  0.00000000000E+00 0.  1.
</event>
<event>
 7    1  0.4331547E-015  0.9000777E+02  0.7816164E-02  0.1186339E+00
        -11   -1    0    0    0    0  0.00000000000E+00  0.00000000000E+00  0.45593999997E+02  0.45594000000E+02  0.51100000000E-03 0.  1.
         11   -1    0    0    0    0 -0.00000000000E+00 -0.00000000000E+00 -0.45593999997E+02  0.45594000000E+02  0.51100000000E-03 0. -1.
    9900012    2    1    2    0    0  0.11511427102E+01  0.25947814153E+00 -0.21858420420E-01  0.90007772803E+02  0.90000034604E+02 0.  0.
         12    1    1    2    0    0 -0.11511427102E+01 -0.25947814153E+00  0.21858420420E-01  0.11802271967E+01  0.00000000000E+00 0. -1.
         11    1    3    3    0    0 -0.83490818812E+01 -0.23716306618E+02 -0.34203733279E+02  0.42450744850E+02  0.51100000000E-03 0. -1.
        -11    1    3    3    0    0 -0.62341911717E+01  0.42398829930E+01  0.53893784578E+01  0.92675319142E+01  0.51100000000E-03 0.  1.
        -12    1    3    3    0    0  0.15734415763E+02  0.19735901766E+02  0.28792496401E+02  0.38289496039E+02  0.00000000000E+00 0.  1.
</event>
<event>
 7    1  0.4331547E-015  0.9000768E+02  0.7816164E-02  0.1186339E+00
        -11   -1    0    0    0    0  0.00000000000E+00  0.00000000000E+00  0.45593999997E+02  0.45594000000E+02  0.51100000000E-03 0.  1.
         11   -1    0    0    0    0 -0.00000000000E+00 -0.00000000000E+00 -0.45593999997E+02  0.45594000000E+02  0.51100000000E-03 0. -1.
    9900012    2    1    2    0    0 -0.47474976317E+00 -0.10152086160E+01  0.37030101556E+00  0.90007678555E+02  0.89999939112E+02 0.  0.
         12    1    1    2    0    0  0.47474976317E+00  0.10152086160E+01 -0.37030101556E+00  0.11803214451E+01  0.00000000000E+00 0. -1.
         11    1    3    3    0    0  0.17341171437E+01  0.28543142272E+02 -0.59065509998E+01  0.29199408864E+02  0.51100000000E-03 0. -1.
        -11    1    3    3    0    0  0.60830330800E+01  0.11665788165E+02 -0.91417548940E+01  0.16020786116E+02  0.51100000000E-03 0.  1.
        -12    1    3    3    0    0 -0.82918999870E+01 -0.41224139053E+02  0.15418606909E+02  0.44787483576E+02  0.00000000000E+00 0.  1.
</event>
<event>
 7    1  0.4331547E-015  0.9000791E+02  0.7816164E-02  0.1186339E+00
        -11   -1    0    0    0    0  0.00000000000E+00  0.00000000000E+00  0.45593999997E+02  0.45594000000E+02  0.51100000000E-03 0. -1.
         11   -1    0    0    0    0 -0.00000000000E+00 -0.00000000000E+00 -0.45593999997E+02  0.45594000000E+02  0.51100000000E-03 0.  1.
    9900012    2    1    2    0    0 -0.12808992189E+00 -0.11038153600E+01 -0.39724155486E+00  0.90007908381E+02  0.90000171971E+02 0.  0.
         12    1    1    2    0    0  0.12808992189E+00  0.11038153600E+01  0.39724155486E+00  0.11800916193E+01  0.00000000000E+00 0. -1.
         11    1    3    3    0    0 -0.26556681755E+02 -0.11566390754E+02  0.19558861615E+02  0.34951220420E+02  0.51100000000E-03 0. -1.
        -11    1    3    3    0    0  0.10766249044E+02  0.15883037151E+01  0.13333819232E+02  0.17211204570E+02  0.51100000000E-03 0.  1.
        -12    1    3    3    0    0  0.15662342789E+02  0.88742716787E+01 -0.33289922402E+02  0.37845483390E+02  0.00000000000E+00 0.  1.
</event>
<event>
 7    1  0.4331547E-015  0.9000771E+02  0.7816164E-02  0.1186339E+00
        -11   -1    0    0    0    0  0.00000000000E+00  0.00000000000E+00  0.45593999997E+02  0.45594000000E+02  0.51100000000E-03 0.  1.
         11   -1    0    0    0    0 -0.00000000000E+00 -0.00000000000E+00 -0.45593999997E+02  0.45594000000E+02  0.51100000000E-03 0. -1.
    9900012    2    1    2    0    0  0.95999978987E-01  0.36190922682E+00  0.11193254176E+01  0.90007710343E+02  0.89999971319E+02 0.  0.
         12    1    1    2    0    0 -0.95999978987E-01 -0.36190922682E+00 -0.11193254176E+01  0.11802896572E+01  0.00000000000E+00 0. -1.
         11    1    3    3    0    0 -0.98432098212E+01 -0.35494753845E+02  0.40117064162E+01  0.37052127047E+02  0.51100000000E-03 0. -1.
        -11    1    3    3    0    0 -0.61359742986E+01 -0.39027552936E+01  0.56722390199E+01  0.92225796410E+01  0.51100000000E-03 0.  1.
        -12    1    3    3    0    0  0.16075184099E+02  0.39759418365E+02 -0.85646200184E+01  0.43733003654E+02  0.00000000000E+00 0.  1.
</event>
<event>
 7    1  0.4331547E-015  0.9000782E+02  0.7816164E-02  0.1186339E+00
        -11   -1    0    0    0    0  0.00000000000E+00  0.00000000000E+00  0.45593999997E+02  0.45594000000E+02  0.51100000000E-03 0. -1.
         11   -1    0    0    0    0 -0.00000000000E+00 -0.00000000000E+00 -0.45593999997E+02  0.45594000000E+02  0.51100000000E-03 0.  1.
    9900012    2    1    2    0    0 -0.86272641943E+00 -0.73426179901E+00  0.33075495312E+00  0.90007815225E+02  0.90000077586E+02 0.  0.
         12    1    1    2    0    0  0.86272641943E+00  0.73426179901E+00 -0.33075495312E+00  0.11801847751E+01  0.00000000000E+00 0. -1.
         11    1    3    3    0    0 -0.77424587878E+00  0.77529898577E+01  0.16350237054E+01  0.79612568853E+01  0.51100000000E-03 0. -1.
        -11    1    3    3    0    0 -0.17962281572E+02 -0.16846831796E+01 -0.37216902347E+02  0.41359153005E+02  0.51100000000E-03 0.  1.
         12    1    3    3    0    0  0.17873801032E+02 -0.68025684771E+01  0.35912633595E+02  0.40687405335E+02  0.00000000000E+00 0. -1.
</event>
<event>
 7    1  0.4331547E-015  0.9000766E+02  0.7816164E-02  0.1186339E+00
        -11   -1    0    0    0    0  0.00000000000E+00  0.00000000000E+00  0.45593999997E+02  0.45594000000E+02  0.51100000000E-03 0.  1.
         11   -1    0    0    0    0 -0.00000000000E+00 -0.00000000000E+00 -0.45593999997E+02  0.45594000000E+02  0.51100000000E-03 0. -1.
    9900012    2    1    2    0    0  0.91810576397E+00  0.71563492029E+00  0.19534079700E+00  0.90007657016E+02  0.89999917289E+02 0.  0.
         12    1    1    2    0    0 -0.91810576397E+00 -0.71563492029E+00 -0.19534079700E+00  0.11803429840E+01  0.00000000000E+00 0. -1.
         11    1    3    3    0    0  0.62070030340E+01 -0.55487067223E+01  0.84832400413E+01  0.11886142975E+02  0.51100000000E-03 0. -1.
        -11    1    3    3    0    0 -0.36185974141E+02 -0.89856357671E+01  0.10687332030E+02  0.38786407939E+02  0.51100000000E-03 0.  1.
         12    1    3    3    0    0  0.30897076871E+02  0.15249977410E+02 -0.18975231274E+02  0.39335106102E+02  0.00000000000E+00 0. -1.
</event>
<event>
 7    1  0.4331547E-015  0.9000772E+02  0.7816164E-02  0.1186339E+00
        -11   -1    0    0    0    0  0.00000000000E+00  0.00000000000E+00  0.45593999997E+02  0.45594000000E+02  0.51100000000E-03 0. -1.
         11   -1    0    0    0    0 -0.00000000000E+00 -0.00000000000E+00 -0.45593999997E+02  0.45594000000E+02  0.51100000000E-03 0.  1.
    9900012    2    1    2    0    0 -0.89343541234E+00  0.58406315038E+00 -0.50369407934E+00  0.90007718540E+02  0.89999979625E+02 0.  0.
         12    1    1    2    0    0  0.89343541234E+00 -0.58406315038E+00  0.50369407934E+00  0.11802814602E+01  0.00000000000E+00 0. -1.
         11    1    3    3    0    0  0.50316180737E+01 -0.45206297334E+01 -0.61382122811E+01  0.91340529829E+01  0.51100000000E-03 0. -1.
        -11    1    3    3    0    0  0.27136041749E+02  0.11374851750E+02 -0.22476622175E+02  0.37026349520E+02  0.51100000000E-03 0.  1.
         12    1    3    3    0    0 -0.33061095235E+02 -0.62701588664E+01  0.28111140376E+02  0.43847316037E+02  0.00000000000E+00 0. -1.
</event>
<event>
 7    1  0.4331547E-015  0.9000775E+02  0.7816164E-02  0.1186339E+00
        -11   -1    0    0    0    0  0.00000000000E+00  0.00000000000E+00  0.45593999997E+02  0.45594000000E+02  0.51100000000E-03 0. -1.
         11   -1    0    0    0    0 -0.00000000000E+00 -0.00000000000E+00 -0.45593999997E+02  0.45594000000E+02  0.51100000000E-03 0.  1.
    9900012    2    1    2    0    0  0.84824890579E+00  0.66352268761E+00 -0.48291277537E+00  0.90007748623E+02  0.90000010105E+02 0.  0.
         12    1    1    2    0    0 -0.84824890579E+00 -0.66352268761E+00  0.48291277537E+00  0.11802513765E+01  0.00000000000E+00 0. -1.
         11    1    3    3    0    0  0.27973313019E+01 -0.31162873155E+00 -0.36853116653E+01  0.46372079111E+01  0.51100000000E-03 0. -1.
        -11    1    3    3    0    0  0.17093193612E+02  0.30174903863E+02 -0.23127377724E+02  0.41684261918E+02  0.51100000000E-03 0.  1.
         12    1    3    3    0    0 -0.19042276008E+02 -0.29199752444E+02  0.26329776614E+02  0.43686278794E+02  0.00000000000E+00 0. -1.
</event>
<event>
 7    1  0.4331547E-015  0.9000789E+02  0.7816164E-02  0.1186339E+00
        -11   -1    0    0    0    0  0.00000000000E+00  0.00000000000E+00  0.45593999997E+02  0.45594000000E+02  0.51100000000E-03 0. -1.
         11   -1    0    0    0    0 -0.00000000000E+00 -0.00000000000E+00 -0.45593999997E+02  0.45594000000E+02  0.51100000000E-03 0.  1.
    9900012    2    1    2    0    0 -0.89788956962E+00  0.72992186699E+00 -0.23166094047E+00  0.90007890512E+02  0.90000153867E+02 0.  0.
         12    1    1    2    0    0  0.89788956962E+00 -0.72992186699E+00  0.23166094047E+00  0.11801094875E+01  0.00000000000E+00 0. -1.
         11    1    3    3    0    0 -0.21499709433E+02  0.26887958641E+02  0.34292910749E+01  0.34597107728E+02  0.51100000000E-03 0. -1.
        -11    1    3    3    0    0 -0.13858634603E+02 -0.55005683999E+01 -0.30995008552E+01  0.15229081115E+02  0.51100000000E-03 0.  1.
        -12    1    3    3    0    0  0.34460454467E+02 -0.20657468374E+02 -0.56145116016E+00  0.40181701670E+02  0.00000000000E+00 0.  1.
</event>
<event>
 7    1  0.4589086E-015  0.9000775E+02  0.7816164E-02  0.1186339E+00
        -11   -1    0    0    0    0  0.00000000000E+00  0.00000000000E+00  0.45593999997E+02  0.45594000000E+02  0.51100000000E-03 0.  1.
         11   -1    0    0    0    0 -0.00000000000E+00 -0.00000000000E+00 -0.45593999997E+02  0.45594000000E+02  0.51100000000E-03 0. -1.
    9900012    2    1    2    0    0 -0.45741348216E-01  0.58693537497E+00  0.10229349701E+01  0.90007753687E+02  0.90000015236E+02 0.  0.
         12    1    1    2    0    0  0.45741348216E-01 -0.58693537497E+00 -0.10229349701E+01  0.11802463126E+01  0.00000000000E+00 0. -1.
         11    1    3    3    0    0  0.22610143195E+01 -0.82523734216E+01  0.40791584575E+01  0.94791026382E+01  0.51100000000E-03 0. -1.
        -11    1    3    3    0    0 -0.44465772463E+01 -0.21038696011E+02  0.29359420505E+02  0.36391954491E+02  0.51100000000E-03 0.  1.
         12    1    3    3    0    0  0.21398215786E+01  0.29878004807E+02 -0.32415643992E+02  0.44136696558E+02  0.00000000000E+00 0. -1.
</event>
<event>
 7    1  0.4331547E-015  0.9000774E+02  0.7816164E-02  0.1186339E+00
        -11   -1    0    0    0    0  0.00000000000E+00  0.00000000000E+00  0.45593999997E+02  0.45594000000E+02  0.51100000000E-03 0. -1.
         11   -1    0    0    0    0 -0.00000000000E+00 -0.00000000000E+00 -0.45593999997E+02  0.45594000000E+02  0.51100000000E-03 0.  1.
    9900012    2    1    2    0    0  0.64543322656E+00  0.14677243437E+00 -0.97718688054E+00  0.90007737149E+02  0.89999998480E+02 0.  0.
         12    1    1    2    0    0 -0.64543322656E+00 -0.14677243437E+00  0.97718688054E+00  0.11802628508E+01  0.00000000000E+00 0. -1.
         11    1    3    3    0    0  0.35696694048E+02  0.12644339309E+02  0.14077141840E+02  0.40401722800E+02  0.51100000000E-03 0. -1.
        -11    1    3    3    0    0  0.29366431052E+01 -0.72839324044E+01 -0.67891360821E+01  0.10381325205E+02  0.51100000000E-03 0.  1.
        -12    1    3    3    0    0 -0.37987903927E+02 -0.52136344702E+01 -0.82651926388E+01  0.39224689145E+02  0.00000000000E+00 0.  1.
</event>
<event>
 7    1  0.4331547E-015  0.9000760E+02  0.7816164E-02  0.1186339E+00
        -11   -1    0    0    0    0  0.00000000000E+00  0.00000000000E+00  0.45593999997E+02  0.45594000000E+02  0.51100000000E-03 0.  1.
         11   -1    0    0    0    0 -0.00000000000E+00 -0.00000000000E+00 -0.45593999997E+02  0.45594000000E+02  0.51100000000E-03 0. -1.
    9900012    2    1    2    0    0  0.39767719652E+00  0.19564258029E+00  0.10940380304E+01  0.90007600752E+02  0.89999860282E+02 0.  0.
         12    1    1    2    0    0 -0.39767719652E+00 -0.19564258029E+00 -0.10940380304E+01  0.11803992476E+01  0.00000000000E+00 0. -1.
         11    1    3    3    0    0 -0.17450889734E+01 -0.70111325298E+01 -0.40140559140E+01  0.82652259507E+01  0.51100000000E-03 0. -1.
        -11    1    3    3    0    0 -0.41712694467E+01  0.14714991531E+02  0.41406835624E+02  0.44141324190E+02  0.51100000000E-03 0.  1.
         12    1    3    3    0    0  0.63140356167E+01 -0.75082164214E+01 -0.36298741680E+02  0.37601050612E+02  0.00000000000E+00 0. -1.
</event>
<event>
 7    1  0.4331547E-015  0.9000772E+02  0.7816164E-02  0.1186339E+00
        -11   -1    0    0    0    0  0.00000000000E+00  0.00000000000E+00  0.45593999997E+02  0.45594000000E+02  0.51100000000E-03 0.  1.
         11   -1    0    0    0    0 -0.00000000000E+00 -0.00000000000E+00 -0.45593999997E+02  0.45594000000E+02  0.51100000000E-03 0. -1.
    9900012    2    1    2    0    0  0.19199035097E+00  0.10173659592E+01  0.56670694813E+00  0.90007724373E+02  0.89999985535E+02 0.  0.
         12    1    1    2    0    0 -0.19199035097E+00 -0.10173659592E+01 -0.56670694813E+00  0.11802756267E+01  0.00000000000E+00 0. -1.
         11    1    3    3    0    0  0.31488340625E+02  0.19629026865E+02  0.15173401393E+02  0.40087983250E+02  0.51100000000E-03 0. -1.
        -11    1    3    3    0    0  0.34265464531E+01 -0.29787839643E+01 -0.10720379729E+02  0.11642204100E+02  0.51100000000E-03 0.  1.
        -12    1    3    3    0    0 -0.34722896727E+02 -0.15632876941E+02 -0.38863147153E+01  0.38277537024E+02  0.00000000000E+00 0.  1.
</event>
<event>
 7    1  0.4331547E-015  0.9000738E+02  0.7816164E-02  0.1186340E+00
        -11   -1    0    0    0    0  0.00000000000E+00  0.00000000000E+00  0.45593999997E+02  0.45594000000E+02  0.51100000000E-03 0.  1.
         11   -1    0    0    0    0 -0.00000000000E+00 -0.00000000000E+00 -0.45593999997E+02  0.45594000000E+02  0.51100000000E-03 0. -1.
    9900012    2    1    2    0    0 -0.11574176779E+01 -0.11284183658E+00 -0.20373361123E+00  0.90007383066E+02  0.89999639721E+02 0.  0.
         12    1    1    2    0    0  0.11574176779E+01  0.11284183658E+00  0.20373361123E+00  0.11806169343E+01  0.00000000000E+00 0. -1.
         11    1    3    3    0    0 -0.13462107026E+02  0.38096344272E+02  0.41802688529E+01  0.40620615707E+02  0.51100000000E-03 0. -1.
        -11    1    3    3    0    0 -0.61023833923E+01 -0.37994531376E+01  0.55927758116E+01  0.91079124255E+01  0.51100000000E-03 0.  1.
        -12    1    3    3    0    0  0.18407072741E+02 -0.34409732971E+02 -0.99767782757E+01  0.40278854934E+02  0.00000000000E+00 0.  1.
</event>
<event>
 7    1  0.4331547E-015  0.9000775E+02  0.7816164E-02  0.1186339E+00
        -11   -1    0    0    0    0  0.00000000000E+00  0.00000000000E+00  0.45593999997E+02  0.45594000000E+02  0.51100000000E-03 0. -1.
         11   -1    0    0    0    0 -0.00000000000E+00 -0.00000000000E+00 -0.45593999997E+02  0.45594000000E+02  0.51100000000E-03 0.  1.
    9900012    2    1    2    0    0  0.34816070896E+00 -0.67903483883E+00 -0.90038030952E+00  0.90007750495E+02  0.90000012002E+02 0.  0.
         12    1    1    2    0    0 -0.34816070896E+00  0.67903483883E+00  0.90038030952E+00  0.11802495047E+01  0.00000000000E+00 0. -1.
         11    1    3    3    0    0  0.16290923221E+02  0.19930064871E+02  0.32078113521E+02  0.41129150641E+02  0.51100000000E-03 0. -1.
        -11    1    3    3    0    0 -0.72211894778E+01  0.29897805004E+01 -0.55002067185E+00  0.78349784885E+01  0.51100000000E-03 0.  1.
        -12    1    3    3    0    0 -0.87215730339E+01 -0.23598880210E+02 -0.32428473159E+02  0.41043621365E+02  0.00000000000E+00 0.  1.
</event>
<event>
 7    1  0.5003312E-015  0.9000856E+02  0.7816164E-02  0.1186337E+00
        -11   -1    0    0    0    0  0.00000000000E+00  0.00000000000E+00  0.45593999997E+02  0.45594000000E+02  0.51100000000E-03 0.  1.
         11   -1    0    0    0    0 -0.00000000000E+00 -0.00000000000E+00 -0.45593999997E+02  0.45594000000E+02  0.51100000000E-03 0. -1.
    9900012    2    1    2    0    0 -0.25486003694E+00  0.70622164512E+00 -0.90960223780E+00  0.90008559929E+02  0.90000832116E+02 0.  0.
         12    1    1    2    0    0  0.25486003694E+00 -0.70622164512E+00  0.90960223780E+00  0.11794400712E+01  0.00000000000E+00 0. -1.
         11    1    3    3    0    0 -0.74421469079E+00 -0.54007248234E+01  0.84256852234E+01  0.10035629321E+02  0.51100000000E-03 0. -1.
        -11    1    3    3    0    0 -0.11160306783E+02 -0.34701511488E+02 -0.89404610378E+01  0.37532375236E+02  0.51100000000E-03 0.  1.
         12    1    3    3    0    0  0.11649661437E+02  0.40808457956E+02 -0.39482642343E+00  0.42440555372E+02  0.00000000000E+00 0. -1.
</event>
<event>
 7    1  0.4331547E-015  0.9000770E+02  0.7816164E-02  0.1186339E+00
        -11   -1    0    0    0    0  0.00000000000E+00  0.00000000000E+00  0.45593999997E+02  0.45594000000E+02  0.51100000000E-03 0.  1.
         11   -1    0    0    0    0 -0.00000000000E+00 -0.00000000000E+00 -0.45593999997E+02  0.45594000000E+02  0.51100000000E-03 0. -1.
    9900012    2    1    2    0    0 -0.95887464951E+00 -0.48206657814E+00 -0.49119456243E+00  0.90007703055E+02  0.89999963936E+02 0.  0.
         12    1    1    2    0    0  0.95887464951E+00  0.48206657814E+00  0.49119456243E+00  0.11802969446E+01  0.00000000000E+00 0. -1.
         11    1    3    3    0    0 -0.94017508001E+01 -0.19835197436E+02 -0.10661115521E+02  0.24402609693E+02  0.51100000000E-03 0. -1.
        -11    1    3    3    0    0 -0.19861675294E+02  0.20809971939E+02 -0.10395671837E+02  0.30587760147E+02  0.51100000000E-03 0.  1.
        -12    1    3    3    0    0  0.28304551445E+02 -0.14568410818E+01  0.20565592796E+02  0.35017333215E+02  0.00000000000E+00 0.  1.
</event>
<event>
 7    1  0.4331547E-015  0.9000785E+02  0.7816164E-02  0.1186339E+00
        -11   -1    0    0    0    0  0.00000000000E+00  0.00000000000E+00  0.45593999997E+02  0.45594000000E+02  0.51100000000E-03 0. -1.
         11   -1    0    0    0    0 -0.00000000000E+00 -0.00000000000E+00 -0.45593999997E+02  0.45594000000E+02  0.51100000000E-03 0.  1.
    9900012    2    1    2    0    0  0.19900876673E+00 -0.18906680345E+00 -0.11477795878E+01  0.90007852243E+02  0.90000115093E+02 0.  0.
         12    1    1    2    0    0 -0.19900876673E+00  0.18906680345E+00  0.11477795878E+01  0.11801477567E+01  0.00000000000E+00 0. -1.
         11    1    3    3    0    0 -0.24934581636E+02  0.28252303843E+02  0.11446612541E+02  0.39382114884E+02  0.51100000000E-03 0. -1.
        -11    1    3    3    0    0 -0.15042597073E+01 -0.25635520555E+01  0.77358080267E+01  0.82871781986E+01  0.51100000000E-03 0.  1.
        -12    1    3    3    0    0  0.26637850110E+02 -0.25877818591E+02 -0.20330200155E+02  0.42338559161E+02  0.00000000000E+00 0.  1.
</event>
<event>
 7    1  0.4331547E-015  0.9000825E+02  0.7816164E-02  0.1186338E+00
        -11   -1    0    0    0    0  0.00000000000E+00  0.00000000000E+00  0.45593999997E+02  0.45594000000E+02  0.51100000000E-03 0.  1.
         11   -1    0    0    0    0 -0.00000000000E+00 -0.00000000000E+00 -0.45593999997E+02  0.45594000000E+02  0.51100000000E-03 0. -1.
    9900012    2    1    2    0    0 -0.10195920123E+01  0.26148401599E+00  0.53278514257E+00  0.90008253514E+02  0.90000521659E+02 0.  0.
         12    1    1    2    0    0  0.10195920123E+01 -0.26148401599E+00 -0.53278514257E+00  0.11797464856E+01  0.00000000000E+00 0. -1.
         11    1    3    3    0    0 -0.95085897636E+01  0.55646196438E+01  0.11530864686E+02  0.15948012783E+02  0.51100000000E-03 0. -1.
        -11    1    3    3    0    0 -0.13830707867E+01  0.45291752825E+00  0.30745908366E+02  0.30780333017E+02  0.51100000000E-03 0.  1.
         12    1    3    3    0    0  0.98720685379E+01 -0.57560531560E+01 -0.41743987910E+02  0.43279907714E+02  0.00000000000E+00 0. -1.
</event>
<event>
 7    1  0.4331547E-015  0.9000790E+02  0.7816164E-02  0.1186339E+00
        -11   -1    0    0    0    0  0.00000000000E+00  0.00000000000E+00  0.45593999997E+02  0.45594000000E+02  0.51100000000E-03 0.  1.
         11   -1    0    0    0    0 -0.00000000000E+00 -0.00000000000E+00 -0.45593999997E+02  0.45594000000E+02  0.51100000000E-03 0. -1.
    9900012    2    1    2    0    0 -0.10610069687E+01  0.37898938078E+00 -0.35108750149E+00  0.90007902050E+02  0.90000165557E+02 0.  0.
         12    1    1    2    0    0  0.10610069687E+01 -0.37898938078E+00  0.35108750149E+00  0.11800979502E+01  0.00000000000E+00 0. -1.
         11    1    3    3    0    0 -0.70664318486E+01  0.34487807964E+02 -0.18516847773E+02  0.39777091509E+02  0.51100000000E-03 0. -1.
        -11    1    3    3    0    0 -0.11621775613E+02 -0.56896718715E+01  0.20245630569E+01  0.13097209254E+02  0.51100000000E-03 0.  1.
        -12    1    3    3    0    0  0.17627200493E+02 -0.28419146711E+02  0.16141197214E+02  0.37133601287E+02  0.00000000000E+00 0.  1.
</event>
<event>
 7    1  0.4331547E-015  0.9000780E+02  0.7816164E-02  0.1186339E+00
        -11   -1    0    0    0    0  0.00000000000E+00  0.00000000000E+00  0.45593999997E+02  0.45594000000E+02  0.51100000000E-03 0. -1.
         11   -1    0    0    0    0 -0.00000000000E+00 -0.00000000000E+00 -0.45593999997E+02  0.45594000000E+02  0.51100000000E-03 0.  1.
    9900012    2    1    2    0    0 -0.11491684219E+01  0.22443523850E+00  0.14803602888E+00  0.90007799210E+02  0.90000061360E+02 0.  0.
         12    1    1    2    0    0  0.11491684219E+01 -0.22443523850E+00 -0.14803602888E+00  0.11802007897E+01  0.00000000000E+00 0. -1.
         11    1    3    3    0    0 -0.18824518386E+02 -0.12676383416E+02  0.28452208983E+02  0.36394798877E+02  0.51100000000E-03 0. -1.
        -11    1    3    3    0    0 -0.86672475557E+01 -0.31137510539E+01  0.29915363653E+01  0.96832802244E+01  0.51100000000E-03 0.  1.
        -12    1    3    3    0    0  0.26342597520E+02  0.16014569708E+02 -0.31295709320E+02  0.43929720109E+02  0.00000000000E+00 0.  1.
</event>
<event>
 7    1  0.4331547E-015  0.9000788E+02  0.7816164E-02  0.1186339E+00
        -11   -1    0    0    0    0  0.00000000000E+00  0.00000000000E+00  0.45593999997E+02  0.45594000000E+02  0.51100000000E-03 0. -1.
         11   -1    0    0    0    0 -0.00000000000E+00 -0.00000000000E+00 -0.45593999997E+02  0.45594000000E+02  0.51100000000E-03 0.  1.
    9900012    2    1    2    0    0 -0.56510438765E+00 -0.92227240984E+00 -0.47197936313E+00  0.90007875479E+02  0.90000138635E+02 0.  0.
         12    1    1    2    0    0  0.56510438765E+00  0.92227240984E+00  0.47197936313E+00  0.11801245214E+01  0.00000000000E+00 0. -1.
         11    1    3    3    0    0 -0.70875768954E+01  0.52744954996E+01  0.26319742999E+01  0.92185323126E+01  0.51100000000E-03 0. -1.
        -11    1    3    3    0    0  0.27883624864E+02 -0.34201710282E+02 -0.91123810643E+01  0.45058728462E+02  0.51100000000E-03 0.  1.
         12    1    3    3    0    0 -0.21361152356E+02  0.28004942372E+02  0.60084274013E+01  0.35730614703E+02  0.00000000000E+00 0. -1.
</event>
<event>
 7    1  0.4331547E-015  0.9000783E+02  0.7816164E-02  0.1186339E+00
        -11   -1    0    0    0    0  0.00000000000E+00  0.00000000000E+00  0.45593999997E+02  0.45594000000E+02  0.51100000000E-03 0. -1.
         11   -1    0    0    0    0 -0.00000000000E+00 -0.00000000000E+00 -0.45593999997E+02  0.45594000000E+02  0.51100000000E-03 0.  1.
    9900012    2    1    2    0    0  0.65255288273E+00  0.26440382263E+00 -0.94713513932E+00  0.90007830682E+02  0.90000093247E+02 0.  0.
         12    1    1    2    0    0 -0.65255288273E+00 -0.26440382263E+00  0.94713513932E+00  0.11801693176E+01  0.00000000000E+00 0. -1.
         11    1    3    3    0    0  0.10630186266E+01 -0.10005707391E+02  0.16603481211E+01  0.10198085366E+02  0.51100000000E-03 0. -1.
        -11    1    3    3    0    0 -0.36982507624E+02  0.44064739880E+00 -0.15076323929E+02  0.39939899646E+02  0.51100000000E-03 0.  1.
         12    1    3    3    0    0  0.36572041880E+02  0.98294638148E+01  0.12468840669E+02  0.39869845670E+02  0.00000000000E+00 0. -1.
</event>
<event>
 7    1  0.4331547E-015  0.9000778E+02  0.7816164E-02  0.1186339E+00
        -11   -1    0    0    0    0  0.00000000000E+00  0.00000000000E+00  0.45593999997E+02  0.45594000000E+02  0.51100000000E-03 0. -1.
         11   -1    0    0    0    0 -0.00000000000E+00 -0.00000000000E+00 -0.45593999997E+02  0.45594000000E+02  0.51100000000E-03 0.  1.
    9900012    2    1    2    0    0  0.61453255115E+00 -0.96571617981E+00 -0.28749655678E+00  0.90007782958E+02  0.90000044893E+02 0.  0.
         12    1    1    2    0    0 -0.61453255115E+00  0.96571617981E+00  0.28749655678E+00  0.11802170421E+01  0.00000000000E+00 0. -1.
         11    1    3    3    0    0 -0.45308606563E+00 -0.53795384598E+01  0.81643169516E+01  0.97877879305E+01  0.51100000000E-03 0. -1.
        -11    1    3    3    0    0  0.17373003641E+02 -0.52889123754E-01  0.31980909879E+02  0.36395091011E+02  0.51100000000E-03 0.  1.
         12    1    3    3    0    0 -0.16305385024E+02  0.44667114038E+01 -0.40432723387E+02  0.43824904016E+02  0.00000000000E+00 0. -1.
</event>
<event>
 7    1  0.4331547E-015  0.9000772E+02  0.7816164E-02  0.1186339E+00
        -11   -1    0    0    0    0  0.00000000000E+00  0.00000000000E+00  0.45593999997E+02  0.45594000000E+02  0.51100000000E-03 0. -1.
         11   -1    0    0    0    0 -0.00000000000E+00 -0.00000000000E+00 -0.45593999997E+02  0.45594000000E+02  0.51100000000E-03 0.  1.
    9900012    2    1    2    0    0  0.93560285233E+00  0.44015982613E+00 -0.56917762984E+00  0.90007721836E+02  0.89999982964E+02 0.  0.
         12    1    1    2    0    0 -0.93560285233E+00 -0.44015982613E+00  0.56917762984E+00  0.11802781639E+01  0.00000000000E+00 0. -1.
         11    1    3    3    0    0 -0.96348963999E+01 -0.49401790388E+01 -0.16878302556E+01  0.10958346992E+02  0.51100000000E-03 0. -1.
        -11    1    3    3    0    0  0.35629576060E+02  0.18916604901E+02 -0.18586560894E+02  0.44415817872E+02  0.51100000000E-03 0.  1.
         12    1    3    3    0    0 -0.25059076807E+02 -0.13536266036E+02  0.19705213519E+02  0.34633556971E+02  0.00000000000E+00 0. -1.
</event>
<event>
 7    1  0.4331547E-015  0.9000776E+02  0.7816164E-02  0.1186339E+00
        -11   -1    0    0    0    0  0.00000000000E+00  0.00000000000E+00  0.45593999997E+02  0.45594000000E+02  0.51100000000E-03 0. -1.
         11   -1    0    0    0    0 -0.00000000000E+00 -0.00000000000E+00 -0.45593999997E+02  0.45594000000E+02  0.51100000000E-03 0.  1.
    9900012    2    1    2    0    0  0.12331040805E-01  0.49942377738E+00 -0.10692905224E+01  0.90007763420E+02  0.90000025097E+02 0.  0.
         12    1    1    2    0    0 -0.12331040805E-01 -0.49942377738E+00  0.10692905224E+01  0.11802365802E+01  0.00000000000E+00 0. -1.
         11    1    3    3    0    0 -0.71558650214E+01 -0.71421495159E+01  0.41970036383E+01  0.10946759507E+02  0.51100000000E-03 0. -1.
        -11    1    3    3    0    0 -0.22983463468E+02 -0.15527249517E+02 -0.23993346541E+02  0.36674456357E+02  0.51100000000E-03 0.  1.
         12    1    3    3    0    0  0.30151659530E+02  0.23168822810E+02  0.18727052380E+02  0.42386547556E+02  0.00000000000E+00 0. -1.
</event>
<event>
 7    1  0.4331547E-015  0.9000774E+02  0.7816164E-02  0.1186339E+00
        -11   -1    0    0    0    0  0.00000000000E+00  0.00000000000E+00  0.45593999997E+02  0.45594000000E+02  0.51100000000E-03 0. -1.
         11   -1    0    0    0    0 -0.00000000000E+00 -0.00000000000E+00 -0.45593999997E+02  0.45594000000E+02  0.51100000000E-03 0.  1.
    9900012    2    1    2    0    0 -0.11589851483E+01  0.21513745822E+00 -0.58918938604E-01  0.90007744883E+02  0.90000006315E+02 0.  0.
         12    1    1    2    0    0  0.11589851483E+01 -0.21513745822E+00  0.58918938604E-01  0.11802551170E+01  0.00000000000E+00 0. -1.
         11    1    3    3    0    0  0.62639166194E+01 -0.34159169336E+02  0.22969001572E+02  0.41637249364E+02  0.51100000000E-03 0. -1.
        -11    1    3    3    0    0  0.18933793324E+01 -0.13982209509E+01 -0.82179438860E+01  0.85483629485E+01  0.51100000000E-03 0.  1.
        -12    1    3    3    0    0 -0.93162811001E+01  0.35772527745E+02 -0.14809976625E+02  0.39822132570E+02  0.00000000000E+00 0.  1.
</event>
<event>
 7    1  0.4331547E-015  0.9000746E+02  0.7816164E-02  0.1186340E+00
        -11   -1    0    0    0    0  0.00000000000E+00  0.00000000000E+00  0.45593999997E+02  0.45594000000E+02  0.51100000000E-03 0. -1.
         11   -1    0    0    0    0 -0.00000000000E+00 -0.00000000000E+00 -0.45593999997E+02  0.45594000000E+02  0.51100000000E-03 0.  1.
    9900012    2    1    2    0    0 -0.11497888928E+01 -0.13036730235E+00 -0.23382659245E+00  0.90007455631E+02  0.89999713245E+02 0.  0.
         12    1    1    2    0    0  0.11497888928E+01  0.13036730235E+00  0.23382659245E+00  0.11805443688E+01  0.00000000000E+00 0. -1.
         11    1    3    3    0    0 -0.75326846045E+01 -0.92172375045E+00 -0.48533805622E+01  0.90081194023E+01  0.51100000000E-03 0. -1.
        -11    1    3    3    0    0 -0.43354788127E+01  0.31058339900E+02 -0.22803389859E+02  0.38773849992E+02  0.51100000000E-03 0.  1.
         12    1    3    3    0    0  0.10718374524E+02 -0.30266983452E+02  0.27422943829E+02  0.42225486237E+02  0.00000000000E+00 0. -1.
</event>
<event>
 7    1  0.4331547E-015  0.9000775E+02  0.7816164E-02  0.1186339E+00
        -11   -1    0    0    0    0  0.00000000000E+00  0.00000000000E+00  0.45593999997E+02  0.45594000000E+02  0.51100000000E-03 0. -1.
         11   -1    0    0    0    0 -0.00000000000E+00 -0.00000000000E+00 -0.45593999997E+02  0.45594000000E+02  0.51100000000E-03 0.  1.
    9900012    2    1    2    0    0 -0.98288940630E+00 -0.12097265264E+00 -0.64210080543E+00  0.90007746039E+02  0.90000007487E+02 0.  0.
         12    1    1    2    0    0  0.98288940630E+00  0.12097265264E+00  0.64210080543E+00  0.11802539608E+01  0.00000000000E+00 0. -1.
         11    1    3    3    0    0 -0.54825765845E+01  0.30710705742E+01  0.48583428034E+01  0.79431489683E+01  0.51100000000E-03 0. -1.
        -11    1    3    3    0    0  0.22032116567E+01  0.38422517923E+02  0.57061766947E+01  0.38906355238E+02  0.51100000000E-03 0.  1.
         12    1    3    3    0    0  0.22964755214E+01 -0.41614561150E+02 -0.11206620303E+02  0.43158241833E+02  0.00000000000E+00 0. -1.
</event>
<event>
 7    1  0.4331547E-015  0.9000774E+02  0.7816164E-02  0.1186339E+00
        -11   -1    0    0    0    0  0.00000000000E+00  0.00000000000E+00  0.45593999997E+02  0.45594000000E+02  0.51100000000E-03 0.  1.
         11   -1    0    0    0    0 -0.00000000000E+00 -0.00000000000E+00 -0.45593999997E+02  0.45594000000E+02  0.51100000000E-03 0. -1.
    9900012    2    1    2    0    0  0.43240489169E+00  0.98593177389E+00  0.48372334111E+00  0.90007735740E+02  0.89999997052E+02 0.  0.
         12    1    1    2    0    0 -0.43240489169E+00 -0.98593177389E+00 -0.48372334111E+00  0.11802642602E+01  0.00000000000E+00 0. -1.
         11    1    3    3    0    0  0.33946304547E+01 -0.11024757417E+02  0.90364293994E+00  0.11570884273E+02  0.51100000000E-03 0. -1.
        -11    1    3    3    0    0 -0.12117393680E+02  0.22562769230E+02  0.33258085907E+02  0.41976303593E+02  0.51100000000E-03 0.  1.
         12    1    3    3    0    0  0.91551681168E+01 -0.10552080039E+02 -0.33678005506E+02  0.36460547873E+02  0.00000000000E+00 0. -1.
</event>
<event>
 7    1  0.4331547E-015  0.9000779E+02  0.7816164E-02  0.1186339E+00
        -11   -1    0    0    0    0  0.00000000000E+00  0.00000000000E+00  0.45593999997E+02  0.45594000000E+02  0.51100000000E-03 0. -1.
         11   -1    0    0    0    0 -0.00000000000E+00 -0.00000000000E+00 -0.45593999997E+02  0.45594000000E+02  0.51100000000E-03 0.  1.
    9900012    2    1    2    0    0 -0.76376113376E+00 -0.82473411332E+00 -0.35969563368E+00  0.90007788843E+02  0.90000050855E+02 0.  0.
         12    1    1    2    0    0  0.76376113376E+00  0.82473411332E+00  0.35969563368E+00  0.11802111574E+01  0.00000000000E+00 0. -1.
         11    1    3    3    0    0  0.20556258458E+02  0.28606633004E+01  0.34771225234E+02  0.40494212683E+02  0.51100000000E-03 0. -1.
        -11    1    3    3    0    0 -0.11524516824E+02  0.24351129752E+01  0.76628081141E+00  0.11803874354E+02  0.51100000000E-03 0.  1.
        -12    1    3    3    0    0 -0.97955027678E+01 -0.61205103889E+01 -0.35897201679E+02  0.37709701806E+02  0.00000000000E+00 0.  1.
</event>
<event>
 7    1  0.4331547E-015  0.9000770E+02  0.7816164E-02  0.1186339E+00
        -11   -1    0    0    0    0  0.00000000000E+00  0.00000000000E+00  0.45593999997E+02  0.45594000000E+02  0.51100000000E-03 0.  1.
         11   -1    0    0    0    0 -0.00000000000E+00 -0.00000000000E+00 -0.45593999997E+02  0.45594000000E+02  0.51100000000E-03 0. -1.
    9900012    2    1    2    0    0  0.61525966374E+00  0.91347331663E+00  0.42441654481E+00  0.90007700310E+02  0.89999961154E+02 0.  0.
         12    1    1    2    0    0 -0.61525966374E+00 -0.91347331663E+00 -0.42441654481E+00  0.11802996897E+01  0.00000000000E+00 0. -1.
         11    1    3    3    0    0 -0.57127898046E+01  0.99706608890E+00 -0.84721272903E+01  0.10266793522E+02  0.51100000000E-03 0. -1.
        -11    1    3    3    0    0  0.24102342813E+02 -0.31000457828E+02  0.17601079756E+02  0.43031957003E+02  0.51100000000E-03 0.  1.
         12    1    3    3    0    0 -0.17774293344E+02  0.30916865056E+02 -0.87045359211E+01  0.36708949786E+02  0.00000000000E+00 0. -1.
</event>
<event>
 7    1  0.4331547E-015  0.9000770E+02  0.7816164E-02  0.1186339E+00
        -11   -1    0    0    0    0  0.00000000000E+00  0.00000000000E+00  0.45593999997E+02  0.45594000000E+02  0.51100000000E-03 0. -1.
         11   -1    0    0    0    0 -0.00000000000E+00 -0.00000000000E+00 -0.45593999997E+02  0.45594000000E+02  0.51100000000E-03 0.  1.
    9900012    2    1    2    0    0 -0.36955809236E+00 -0.52807525758E+00 -0.98876929238E+00  0.90007702845E+02  0.89999963722E+02 0.  0.
         12    1    1    2    0    0  0.36955809236E+00  0.52807525758E+00  0.98876929238E+00  0.11802971553E+01  0.00000000000E+00 0. -1.
         11    1    3    3    0    0  0.19909343079E+01  0.30840768298E+01  0.11679336620E+02  0.12242640788E+02  0.51100000000E-03 0. -1.
        -11    1    3    3    0    0  0.10512910759E+01  0.36456773695E+02 -0.72861685434E+01  0.37192604285E+02  0.51100000000E-03 0.  1.
         12    1    3    3    0    0 -0.34117834761E+01 -0.40068925782E+02 -0.53819373691E+01  0.40572457772E+02  0.00000000000E+00 0. -1.
</event>
<event>
 7    1  0.4331547E-015  0.9000786E+02  0.7816164E-02  0.1186339E+00
        -11   -1    0    0    0    0  0.00000000000E+00  0.00000000000E+00  0.45593999997E+02  0.45594000000E+02  0.51100000000E-03 0.  1.
         11   -1    0    0    0    0 -0.00000000000E+00 -0.00000000000E+00 -0.45593999997E+02  0.45594000000E+02  0.51100000000E-03 0. -1.
    9900012    2    1    2    0    0  0.29885253733E+00  0.83001420727E+00  0.78388966615E+00  0.90007864655E+02  0.90000127669E+02 0.  0.
         12    1    1    2    0    0 -0.29885253733E+00 -0.83001420727E+00 -0.78388966615E+00  0.11801353448E+01  0.00000000000E+00 0. -1.
         11    1    3    3    0    0 -0.36704196420E+02 -0.39520013391E+01  0.69773961687E+01  0.37569940205E+02  0.51100000000E-03 0. -1.
        -11    1    3    3    0    0 -0.21818022647E+01  0.83016315862E+00  0.96935419329E+01  0.99706663497E+01  0.51100000000E-03 0.  1.
        -12    1    3    3    0    0  0.39184851222E+02  0.39518523878E+01 -0.15887048435E+02  0.42467258101E+02  0.00000000000E+00 0.  1.
</event>
<event>
 7    1  0.4331547E-015  0.9000771E+02  0.7816164E-02  0.1186339E+00
        -11   -1    0    0    0    0  0.00000000000E+00  0.00000000000E+00  0.45593999997E+02  0.45594000000E+02  0.51100000000E-03 0. -1.
         11   -1    0    0    0    0 -0.00000000000E+00 -0.00000000000E+00 -0.45593999997E+02  0.45594000000E+02  0.51100000000E-03 0.  1.
    9900012    2    1    2    0    0 -0.62093422471E+00 -0.94300712540E-01 -0.99931236247E+00  0.90007713114E+02  0.89999974127E+02 0.  0.
         12    1    1    2    0    0  0.62093422471E+00  0.94300712540E-01  0.99931236247E+00  0.11802868861E+01  0.00000000000E+00 0. -1.
         11    1    3    3    0    0 -0.59451872117E+00 -0.10000074925E+02  0.54211087335E+01  0.11390494773E+02  0.51100000000E-03 0. -1.
        -11    1    3    3    0    0 -0.33682047069E+02 -0.12326524456E+02 -0.12166709056E+02  0.37874164142E+02  0.51100000000E-03 0.  1.
         12    1    3    3    0    0  0.33655631565E+02  0.22232298668E+02  0.57462879605E+01  0.40743054199E+02  0.00000000000E+00 0. -1.
</event>
<event>
 7    1  0.4331547E-015  0.9000771E+02  0.7816164E-02  0.1186339E+00
        -11   -1    0    0    0    0  0.00000000000E+00  0.00000000000E+00  0.45593999997E+02  0.45594000000E+02  0.51100000000E-03 0. -1.
         11   -1    0    0    0    0 -0.00000000000E+00 -0.00000000000E+00 -0.45593999997E+02  0.45594000000E+02  0.51100000000E-03 0.  1.
    9900012    2    1    2    0    0 -0.86074838092E+00 -0.78126928883E+00 -0.20447769258E+00  0.90007711644E+02  0.89999972638E+02 0.  0.
         12    1    1    2    0    0  0.86074838092E+00  0.78126928883E+00  0.20447769258E+00  0.11802883562E+01  0.00000000000E+00 0. -1.
         11    1    3    3    0    0 -0.14003382136E+02  0.34065764125E+02  0.21336919945E+02  0.42565656927E+02  0.51100000000E-03 0. -1.
        -11    1    3    3    0    0  0.42123401972E+01 -0.82086981867E+01  0.34397292429E+01  0.98467392259E+01  0.51100000000E-03 0.  1.
        -12    1    3    3    0    0  0.89302935579E+01 -0.26638335227E+02 -0.24981126880E+02  0.37595315491E+02  0.00000000000E+00 0.  1.
</event>
<event>
 7    1  0.4331547E-015  0.9000769E+02  0.7816164E-02  0.1186339E+00
        -11   -1    0    0    0    0  0.00000000000E+00  0.00000000000E+00  0.45593999997E+02  0.45594000000E+02  0.51100000000E-03 0. -1.
         11   -1    0    0    0    0 -0.00000000000E+00 -0.00000000000E+00 -0.45593999997E+02  0.45594000000E+02  0.51100000000E-03 0.  1.
    9900012    2    1    2    0    0  0.36522844177E+00  0.11186028653E+01 -0.91957675452E-01  0.90007694786E+02  0.89999955557E+02 0.  0.
         12    1    1    2    0    0 -0.36522844177E+00 -0.11186028653E+01  0.91957675452E-01  0.11803052144E+01  0.00000000000E+00 0. -1.
         11    1    3    3    0    0 -0.51857947688E+01  0.31269483415E+02  0.19929013429E+02  0.37441135626E+02  0.51100000000E-03 0. -1.
        -11    1    3    3    0    0 -0.23575475944E+01  0.86322265792E+01 -0.25783299799E+01  0.93124192410E+01  0.51100000000E-03 0.  1.
        -12    1    3    3    0    0  0.79085708050E+01 -0.38783107129E+02 -0.17442641124E+02  0.43254139919E+02  0.00000000000E+00 0.  1.
</event>
<event>
 7    1  0.4638942E-015  0.9000800E+02  0.7816164E-02  0.1186339E+00
        -11   -1    0    0    0    0  0.00000000000E+00  0.00000000000E+00  0.45593999997E+02  0.45594000000E+02  0.51100000000E-03 0. -1.
         11   -1    0    0    0    0 -0.00000000000E+00 -0.00000000000E+00 -0.45593999997E+02  0.45594000000E+02  0.51100000000E-03 0.  1.
    9900012    2    1    2    0    0 -0.84959121276E+00 -0.49156138556E+00 -0.65495686404E+00  0.90007997323E+02  0.90000262087E+02 0.  0.
         12    1    1    2    0    0  0.84959121276E+00  0.49156138556E+00  0.65495686404E+00  0.11800026773E+01  0.00000000000E+00 0. -1.
         11    1    3    3    0    0  0.85871263897E+00 -0.76647509718E+01  0.55934944337E+01  0.95274852452E+01  0.51100000000E-03 0. -1.
        -11    1    3    3    0    0  0.38798313464E+02 -0.41011381053E+00 -0.60524449665E+01  0.39269700932E+02  0.51100000000E-03 0.  1.
         12    1    3    3    0    0 -0.40506617316E+02  0.75833033968E+01 -0.19600633120E+00  0.41210811145E+02  0.00000000000E+00 0. -1.
</event>
<event>
 7    1  0.4331547E-015  0.9000765E+02  0.7816164E-02  0.1186339E+00
        -11   -1    0    0    0    0  0.00000000000E+00  0.00000000000E+00  0.45593999997E+02  0.45594000000E+02  0.51100000000E-03 0.  1.
         11   -1    0    0    0    0 -0.00000000000E+00 -0.00000000000E+00 -0.45593999997E+02  0.45594000000E+02  0.51100000000E-03 0. -1.
    9900012    2    1    2    0    0 -0.80418879318E+00  0.54620780843E+00  0.66944684343E+00  0.90007651890E+02  0.89999912095E+02 0.  0.
         12    1    1    2    0    0  0.80418879318E+00 -0.54620780843E+00 -0.66944684343E+00  0.11803481102E+01  0.00000000000E+00 0. -1.
         11    1    3    3    0    0 -0.47004515525E+01 -0.99326862025E+01 -0.10749556987E+01  0.11041196946E+02  0.51100000000E-03 0. -1.
        -11    1    3    3    0    0 -0.35372474489E+02  0.16264258965E+02  0.44265423694E+01  0.39183317225E+02  0.51100000000E-03 0.  1.
         12    1    3    3    0    0  0.39268737248E+02 -0.57853649539E+01 -0.26821398273E+01  0.39783137719E+02  0.00000000000E+00 0. -1.
</event>
<event>
 7    1  0.4331547E-015  0.9000758E+02  0.7816164E-02  0.1186339E+00
        -11   -1    0    0    0    0  0.00000000000E+00  0.00000000000E+00  0.45593999997E+02  0.45594000000E+02  0.51100000000E-03 0.  1.
         11   -1    0    0    0    0 -0.00000000000E+00 -0.00000000000E+00 -0.45593999997E+02  0.45594000000E+02  0.51100000000E-03 0. -1.
    9900012    2    1    2    0    0 -0.10366695515E+01  0.28345323415E+00 -0.48822304215E+00  0.90007580060E+02  0.89999839317E+02 0.  0.
         12    1    1    2    0    0  0.10366695515E+01 -0.28345323415E+00  0.48822304215E+00  0.11804199396E+01  0.00000000000E+00 0. -1.
         11    1    3    3    0    0 -0.67290021908E+01  0.44176911020E+01 -0.45207980969E+01  0.92321763876E+01  0.51100000000E-03 0. -1.
        -11    1    3    3    0    0 -0.24697993001E+02 -0.22602688645E+02  0.22857585455E+02  0.40538149999E+02  0.51100000000E-03 0.  1.
         12    1    3    3    0    0  0.30390325641E+02  0.18468450777E+02 -0.18825010400E+02  0.40237253674E+02  0.00000000000E+00 0. -1.
</event>
<event>
 7    1  0.4331547E-015  0.9000757E+02  0.7816164E-02  0.1186339E+00
        -11   -1    0    0    0    0  0.00000000000E+00  0.00000000000E+00  0.45593999997E+02  0.45594000000E+02  0.51100000000E-03 0.  1.
         11   -1    0    0    0    0 -0.00000000000E+00 -0.00000000000E+00 -0.45593999997E+02  0.45594000000E+02  0.51100000000E-03 0. -1.
    9900012    2    1    2    0    0  0.24308595401E-01  0.13429544663E+00  0.11725181069E+01  0.90007565806E+02  0.89999824875E+02 0.  0.
         12    1    1    2    0    0 -0.24308595401E-01 -0.13429544663E+00 -0.11725181069E+01  0.11804341938E+01  0.00000000000E+00 0. -1.
         11    1    3    3    0    0 -0.62205373786E+00  0.21753758907E+02 -0.36387458712E+02  0.42398822262E+02  0.51100000000E-03 0. -1.
        -11    1    3    3    0    0 -0.38652362478E+01  0.19947673072E+01  0.10758486434E+02  0.11604489583E+02  0.51100000000E-03 0.  1.
        -12    1    3    3    0    0  0.45115985811E+01 -0.23614230768E+02  0.26801490384E+02  0.36004253962E+02  0.00000000000E+00 0.  1.
</event>
<event>
 7    1  0.4331547E-015  0.9000774E+02  0.7816164E-02  0.1186339E+00
        -11   -1    0    0    0    0  0.00000000000E+00  0.00000000000E+00  0.45593999997E+02  0.45594000000E+02  0.51100000000E-03 0. -1.
         11   -1    0    0    0    0 -0.00000000000E+00 -0.00000000000E+00 -0.45593999997E+02  0.45594000000E+02  0.51100000000E-03 0.  1.
    9900012    2    1    2    0    0  0.84294841208E+00 -0.60586362180E+00 -0.56159282211E+00  0.90007737634E+02  0.89999998971E+02 0.  0.
         12    1    1    2    0    0 -0.84294841208E+00  0.60586362180E+00  0.56159282211E+00  0.11802623655E+01  0.00000000000E+00 0. -1.
         11    1    3    3    0    0  0.61518120324E+01  0.11737473541E+02  0.34213432446E+02  0.36690217176E+02  0.51100000000E-03 0. -1.
        -11    1    3    3    0    0 -0.39314332988E+00  0.91803956922E+01  0.29124849740E+01  0.96393358551E+01  0.51100000000E-03 0.  1.
        -12    1    3    3    0    0 -0.49157202904E+01 -0.21523732855E+02 -0.37687510242E+02  0.43678184603E+02  0.00000000000E+00 0.  1.
</event>
<event>
 7    1  0.4331547E-015  0.9000775E+02  0.7816164E-02  0.1186339E+00
        -11   -1    0    0    0    0  0.00000000000E+00  0.00000000000E+00  0.45593999997E+02  0.45594000000E+02  0.51100000000E-03 0.  1.
         11   -1    0    0    0    0 -0.00000000000E+00 -0.00000000000E+00 -0.45593999997E+02  0.45594000000E+02  0.51100000000E-03 0. -1.
    9900012    2    1    2    0    0 -0.67260504229E+00  0.96377927588E+00 -0.10823502343E+00  0.90007753053E+02  0.90000014593E+02 0.  0.
         12    1    1    2    0    0  0.67260504229E+00 -0.96377927588E+00  0.10823502343E+00  0.11802469470E+01  0.00000000000E+00 0. -1.
         11    1    3    3    0    0  0.38614826906E+01  0.20281496324E+01  0.86149878941E+01  0.96562133457E+01  0.51100000000E-03 0. -1.
        -11    1    3    3    0    0  0.17686700184E+02 -0.34727889263E+02 -0.90705611878E+01  0.40014006755E+02  0.51100000000E-03 0.  1.
         12    1    3    3    0    0 -0.22220787917E+02  0.33663518906E+02  0.34733827017E+00  0.40337532952E+02  0.00000000000E+00 0. -1.
</event>
<event>
 7    1  0.4331547E-015  0.9000762E+02  0.7816164E-02  0.1186339E+00
        -11   -1    0    0    0    0  0.00000000000E+00  0.00000000000E+00  0.45593999997E+02  0.45594000000E+02  0.51100000000E-03 0. -1.
         11   -1    0    0    0    0 -0.00000000000E+00 -0.00000000000E+00 -0.45593999997E+02  0.45594000000E+02  0.51100000000E-03 0.  1.
    9900012    2    1    2    0    0  0.47658791600E-01 -0.33549335124E+00 -0.11306953118E+01  0.90007619113E+02  0.89999878886E+02 0.  0.
         12    1    1    2    0    0 -0.47658791600E-01  0.33549335124E+00  0.11306953118E+01  0.11803808866E+01  0.00000000000E+00 0. -1.
         11    1    3    3    0    0  0.52295206211E+00  0.37657084549E+02 -0.12974534141E+01  0.37683058278E+02  0.51100000000E-03 0. -1.
        -11    1    3    3    0    0  0.16975162182E+01  0.43681362211E+01  0.79226314411E+01  0.92049043759E+01  0.51100000000E-03 0.  1.
        -12    1    3    3    0    0 -0.21728094887E+01 -0.42360714121E+02 -0.77558733388E+01  0.43119656459E+02  0.00000000000E+00 0.  1.
</event>
<event>
 7    1  0.4331547E-015  0.9000774E+02  0.7816164E-02  0.1186339E+00
        -11   -1    0    0    0    0  0.00000000000E+00  0.00000000000E+00  0.45593999997E+02  0.45594000000E+02  0.51100000000E-03 0.  1.
         11   -1    0    0    0    0 -0.00000000000E+00 -0.00000000000E+00 -0.45593999997E+02  0.45594000000E+02  0.51100000000E-03 0. -1.
    9900012    2    1    2    0    0  0.65217450207E+00 -0.20415715978E+00  0.96229008534E+00  0.90007739887E+02  0.90000001253E+02 0.  0.
         12    1    1    2    0    0 -0.65217450207E+00  0.20415715978E+00 -0.96229008534E+00  0.11802601134E+01  0.00000000000E+00 0. -1.
         11    1    3    3    0    0  0.59665225712E+01  0.16829944365E+01  0.57701573426E+01  0.84691544965E+01  0.51100000000E-03 0. -1.
        -11    1    3    3    0    0  0.33559300014E+01  0.88406620569E+01  0.36647943171E+02  0.37848266945E+02  0.51100000000E-03 0.  1.
         12    1    3    3    0    0 -0.86702780705E+01 -0.10727813653E+02 -0.41455810428E+02  0.43690318445E+02  0.00000000000E+00 0. -1.
</event>
<event>
 7    1  0.4331547E-015  0.9000769E+02  0.7816164E-02  0.1186339E+00
        -11   -1    0    0    0    0  0.00000000000E+00  0.00000000000E+00  0.45593999997E+02  0.45594000000E+02  0.51100000000E-03 0. -1.
         11   -1    0    0    0    0 -0.00000000000E+00 -0.00000000000E+00 -0.45593999997E+02  0.45594000000E+02  0.51100000000E-03 0.  1.
    9900012    2    1    2    0    0  0.55909491790E+00 -0.30292554024E+00 -0.99437554905E+00  0.90007689133E+02  0.89999949830E+02 0.  0.
         12    1    1    2    0    0 -0.55909491790E+00  0.30292554024E+00  0.99437554905E+00  0.11803108670E+01  0.00000000000E+00 0. -1.
         11    1    3    3    0    0 -0.21008668005E+02  0.29509788412E+02  0.16014302973E+02  0.39606181884E+02  0.51100000000E-03 0. -1.
        -11    1    3    3    0    0  0.68046282353E+01  0.40101074567E+01  0.29675558090E+01  0.84374353316E+01  0.51100000000E-03 0.  1.
        -12    1    3    3    0    0  0.14763134687E+02 -0.33822821409E+02 -0.19976234331E+02  0.41964071917E+02  0.00000000000E+00 0.  1.
</event>
<event>
 7    1  0.4331547E-015  0.9000780E+02  0.7816164E-02  0.1186339E+00
        -11   -1    0    0    0    0  0.00000000000E+00  0.00000000000E+00  0.45593999997E+02  0.45594000000E+02  0.51100000000E-03 0.  1.
         11   -1    0    0    0    0 -0.00000000000E+00 -0.00000000000E+00 -0.45593999997E+02  0.45594000000E+02  0.51100000000E-03 0. -1.
    9900012    2    1    2    0    0 -0.79054356182E+00  0.21387082770E+00 -0.84980182934E+00  0.90007803828E+02  0.90000066039E+02 0.  0.
         12    1    1    2    0    0  0.79054356182E+00 -0.21387082770E+00  0.84980182934E+00  0.11801961715E+01  0.00000000000E+00 0. -1.
         11    1    3    3    0    0  0.44442995638E+01  0.32251557731E+02 -0.25284522304E+02  0.41221618637E+02  0.51100000000E-03 0. -1.
        -11    1    3    3    0    0 -0.95020337043E+01 -0.42318806447E+01 -0.15179855613E+01  0.10511980724E+02  0.51100000000E-03 0.  1.
        -12    1    3    3    0    0  0.42671905787E+01 -0.27805806258E+02  0.25952706035E+02  0.38274204468E+02  0.00000000000E+00 0.  1.
</event>
<event>
 7    1  0.4331547E-015  0.9000767E+02  0.7816164E-02  0.1186339E+00
        -11   -1    0    0    0    0  0.00000000000E+00  0.00000000000E+00  0.45593999997E+02  0.45594000000E+02  0.51100000000E-03 0.  1.
         11   -1    0    0    0    0 -0.00000000000E+00 -0.00000000000E+00 -0.45593999997E+02  0.45594000000E+02  0.51100000000E-03 0. -1.
    9900012    2    1    2    0    0 -0.87838109617E+00 -0.78132822536E+00  0.10562973856E+00  0.90007667510E+02  0.89999927921E+02 0.  0.
         12    1    1    2    0    0  0.87838109617E+00  0.78132822536E+00 -0.10562973856E+00  0.11803324902E+01  0.00000000000E+00 0. -1.
         11    1    3    3    0    0  0.23093869614E+02 -0.29341729412E+02 -0.57830790146E+01  0.37785022189E+02  0.51100000000E-03 0. -1.
        -11    1    3    3    0    0 -0.47382967857E+00 -0.45051908846E+01 -0.81273680877E+01  0.93045887478E+01  0.51100000000E-03 0.  1.
        -12    1    3    3    0    0 -0.23498421032E+02  0.33065592071E+02  0.14016076841E+02  0.42918056573E+02  0.00000000000E+00 0.  1.
</event>
<event>
 7    1  0.4331547E-015  0.9000777E+02  0.7816164E-02  0.1186339E+00
        -11   -1    0    0    0    0  0.00000000000E+00  0.00000000000E+00  0.45593999997E+02  0.45594000000E+02  0.51100000000E-03 0. -1.
         11   -1    0    0    0    0 -0.00000000000E+00 -0.00000000000E+00 -0.45593999997E+02  0.45594000000E+02  0.51100000000E-03 0.  1.
    9900012    2    1    2    0    0  0.89239867729E+00 -0.25865173099E+00  0.72777420291E+00  0.90007774849E+02  0.90000036677E+02 0.  0.
         12    1    1    2    0    0 -0.89239867729E+00  0.25865173099E+00 -0.72777420291E+00  0.11802251512E+01  0.00000000000E+00 0. -1.
         11    1    3    3    0    0  0.89035987553E+01 -0.47653129243E+01  0.14072046633E+01  0.10196200434E+02  0.51100000000E-03 0. -1.
        -11    1    3    3    0    0  0.25932146956E+02  0.17514445243E+02 -0.21456516340E+02  0.37942247319E+02  0.51100000000E-03 0.  1.
         12    1    3    3    0    0 -0.33943347034E+02 -0.13007784050E+02  0.20777085879E+02  0.41869327096E+02  0.00000000000E+00 0. -1.
</event>
<event>
 7    1  0.4331547E-015  0.9000775E+02  0.7816164E-02  0.1186339E+00
        -11   -1    0    0    0    0  0.00000000000E+00  0.00000000000E+00  0.45593999997E+02  0.45594000000E+02  0.51100000000E-03 0.  1.
         11   -1    0    0    0    0 -0.00000000000E+00 -0.00000000000E+00 -0.45593999997E+02  0.45594000000E+02  0.51100000000E-03 0. -1.
    9900012    2    1    2    0    0  0.48966796019E-01  0.93536642943E+00  0.71810562626E+00  0.90007752655E+02  0.90000014190E+02 0.  0.
         12    1    1    2    0    0 -0.48966796019E-01 -0.93536642943E+00 -0.71810562626E+00  0.11802473448E+01  0.00000000000E+00 0. -1.
         11    1    3    3    0    0  0.27350164045E+01  0.80241127995E+01  0.11418144180E+02  0.14221136303E+02  0.51100000000E-03 0. -1.
        -11    1    3    3    0    0 -0.31054745236E+02 -0.10226359626E+02 -0.27452165420E+02  0.42691884701E+02  0.51100000000E-03 0.  1.
         12    1    3    3    0    0  0.28368695627E+02  0.31376132559E+01  0.16752126866E+02  0.33094731651E+02  0.00000000000E+00 0. -1.
</event>
<event>
 7    1  0.4331547E-015  0.9000765E+02  0.7816164E-02  0.1186339E+00
        -11   -1    0    0    0    0  0.00000000000E+00  0.00000000000E+00  0.45593999997E+02  0.45594000000E+02  0.51100000000E-03 0.  1.
         11   -1    0    0    0    0 -0.00000000000E+00 -0.00000000000E+00 -0.45593999997E+02  0.45594000000E+02  0.51100000000E-03 0. -1.
    9900012    2    1    2    0    0  0.78982052081E+00  0.35389793760E+00  0.80259741722E+00  0.90007651399E+02  0.89999911598E+02 0.  0.
         12    1    1    2    0    0 -0.78982052081E+00 -0.35389793760E+00 -0.80259741722E+00  0.11803486008E+01  0.00000000000E+00 0. -1.
         11    1    3    3    0    0 -0.38432700768E+01  0.20257965416E+01 -0.85305766321E+01  0.95731559294E+01  0.51100000000E-03 0. -1.
        -11    1    3    3    0    0  0.44902237400E+01  0.28889902695E+02  0.31274222486E+02  0.42811979391E+02  0.51100000000E-03 0.  1.
         12    1    3    3    0    0  0.14286685758E+00 -0.30561801299E+02 -0.21941048437E+02  0.37622516079E+02  0.00000000000E+00 0. -1.
</event>
<event>
 7    1  0.4331547E-015  0.9000761E+02  0.7816164E-02  0.1186339E+00
        -11   -1    0    0    0    0  0.00000000000E+00  0.00000000000E+00  0.45593999997E+02  0.45594000000E+02  0.51100000000E-03 0. -1.
         11   -1    0    0    0    0 -0.00000000000E+00 -0.00000000000E+00 -0.45593999997E+02  0.45594000000E+02  0.51100000000E-03 0.  1.
    9900012    2    1    2    0    0  0.74559031459E-02 -0.87091668042E-01 -0.11771477116E+01  0.90007611384E+02  0.89999871054E+02 0.  0.
         12    1    1    2    0    0 -0.74559031459E-02  0.87091668042E-01  0.11771477116E+01  0.11803886157E+01  0.00000000000E+00 0. -1.
         11    1    3    3    0    0  0.11890450394E+01 -0.22062326714E+02 -0.14438392195E+02  0.26393697308E+02  0.51100000000E-03 0. -1.
        -11    1    3    3    0    0 -0.70355670031E+01 -0.19187607191E+02  0.19735223121E+01  0.20531884067E+02  0.51100000000E-03 0.  1.
         12    1    3    3    0    0  0.58539778668E+01  0.41162842237E+02  0.11287722171E+02  0.43082030009E+02  0.00000000000E+00 0. -1.
</event>
<event>
 7    1  0.4331547E-015  0.9000770E+02  0.7816164E-02  0.1186339E+00
        -11   -1    0    0    0    0  0.00000000000E+00  0.00000000000E+00  0.45593999997E+02  0.45594000000E+02  0.51100000000E-03 0. -1.
         11   -1    0    0    0    0 -0.00000000000E+00 -0.00000000000E+00 -0.45593999997E+02  0.45594000000E+02  0.51100000000E-03 0.  1.
    9900012    2    1    2    0    0  0.10658074053E+01 -0.48488991180E+00 -0.14849347713E+00  0.90007697511E+02  0.89999958319E+02 0.  0.
         12    1    1    2    0    0 -0.10658074053E+01  0.48488991180E+00  0.14849347713E+00  0.11803024886E+01  0.00000000000E+00 0. -1.
         11    1    3    3    0    0  0.25121144710E+01  0.31640522894E+01 -0.82050159387E+01  0.91457221050E+01  0.51100000000E-03 0. -1.
        -11    1    3    3    0    0  0.32654221426E+02 -0.22444364885E+02  0.12792575037E+02  0.41637695282E+02  0.51100000000E-03 0.  1.
         12    1    3    3    0    0 -0.34100528492E+02  0.18795422684E+02 -0.47360525751E+01  0.39224280125E+02  0.00000000000E+00 0. -1.
</event>
<event>
 7    1  0.4331547E-015  0.9000771E+02  0.7816164E-02  0.1186339E+00
        -11   -1    0    0    0    0  0.00000000000E+00  0.00000000000E+00  0.45593999997E+02  0.45594000000E+02  0.51100000000E-03 0. -1.
         11   -1    0    0    0    0 -0.00000000000E+00 -0.00000000000E+00 -0.45593999997E+02  0.45594000000E+02  0.51100000000E-03 0.  1.
    9900012    2    1    2    0    0  0.11186230166E+01  0.21471647236E+00  0.30929984042E+00  0.90007708931E+02  0.89999969889E+02 0.  0.
         12    1    1    2    0    0 -0.11186230166E+01 -0.21471647236E+00 -0.30929984042E+00  0.11802910692E+01  0.00000000000E+00 0. -1.
         11    1    3    3    0    0  0.14615219462E+02  0.34056920177E+02  0.19294024088E+02  0.41782027448E+02  0.51100000000E-03 0. -1.
        -11    1    3    3    0    0 -0.10322044409E+02 -0.71015754601E+00 -0.10025896537E+01  0.10394907927E+02  0.51100000000E-03 0.  1.
        -12    1    3    3    0    0 -0.31745520357E+01 -0.33132046159E+02 -0.17982134594E+02  0.37830773556E+02  0.00000000000E+00 0.  1.
</event>
<event>
 7    1  0.4331547E-015  0.9000778E+02  0.7816164E-02  0.1186339E+00
        -11   -1    0    0    0    0  0.00000000000E+00  0.00000000000E+00  0.45593999997E+02  0.45594000000E+02  0.51100000000E-03 0.  1.
         11   -1    0    0    0    0 -0.00000000000E+00 -0.00000000000E+00 -0.45593999997E+02  0.45594000000E+02  0.51100000000E-03 0. -1.
    9900012    2    1    2    0    0 -0.95764627515E-01 -0.11722504623E+01  0.97812123757E-01  0.90007784248E+02  0.90000046200E+02 0.  0.
         12    1    1    2    0    0  0.95764627515E-01  0.11722504623E+01 -0.97812123757E-01  0.11802157522E+01  0.00000000000E+00 0. -1.
         11    1    3    3    0    0 -0.81244025512E+01  0.12164045377E+01 -0.43363281754E+01  0.92892033630E+01  0.51100000000E-03 0. -1.
        -11    1    3    3    0    0  0.77243119282E+01  0.38467854841E+02 -0.23298949523E+01  0.39304824915E+02  0.51100000000E-03 0.  1.
         12    1    3    3    0    0  0.30432599554E+00 -0.40856509841E+02  0.67640352515E+01  0.41413755970E+02  0.00000000000E+00 0. -1.
</event>
<event>
 7    1  0.4331547E-015  0.9000773E+02  0.7816164E-02  0.1186339E+00
        -11   -1    0    0    0    0  0.00000000000E+00  0.00000000000E+00  0.45593999997E+02  0.45594000000E+02  0.51100000000E-03 0. -1.
         11   -1    0    0    0    0 -0.00000000000E+00 -0.00000000000E+00 -0.45593999997E+02  0.45594000000E+02  0.51100000000E-03 0.  1.
    9900012    2    1    2    0    0  0.66411887287E+00 -0.67428421010E+00 -0.70521577963E+00  0.90007727841E+02  0.89999989049E+02 0.  0.
         12    1    1    2    0    0 -0.66411887287E+00  0.67428421010E+00  0.70521577963E+00  0.11802721589E+01  0.00000000000E+00 0. -1.
         11    1    3    3    0    0  0.20624171859E+02  0.21049528670E+02 -0.31493851020E+02  0.43131215778E+02  0.51100000000E-03 0. -1.
        -11    1    3    3    0    0 -0.76085731518E+01 -0.21926372606E+01 -0.55186858267E+00  0.79374178897E+01  0.51100000000E-03 0.  1.
        -12    1    3    3    0    0 -0.12351479835E+02 -0.19531175620E+02  0.31340503823E+02  0.38939094174E+02  0.00000000000E+00 0.  1.
</event>
<event>
 7    1  0.4331547E-015  0.9000701E+02  0.7816164E-02  0.1186341E+00
        -11   -1    0    0    0    0  0.00000000000E+00  0.00000000000E+00  0.45593999997E+02  0.45594000000E+02  0.51100000000E-03 0. -1.
         11   -1    0    0    0    0 -0.00000000000E+00 -0.00000000000E+00 -0.45593999997E+02  0.45594000000E+02  0.51100000000E-03 0.  1.
    9900012    2    1    2    0    0 -0.81506381568E+00  0.85004827045E+00  0.88457788993E-01  0.90007010641E+02  0.89999262378E+02 0.  0.
         12    1    1    2    0    0  0.81506381568E+00 -0.85004827045E+00 -0.88457788993E-01  0.11809893590E+01  0.00000000000E+00 0. -1.
         11    1    3    3    0    0  0.10327669475E+02 -0.81378600728E+01  0.92933557885E+00  0.13181395534E+02  0.51100000000E-03 0. -1.
        -11    1    3    3    0    0 -0.15692984127E+02 -0.22931266040E+02 -0.24331276548E+02  0.36934045699E+02  0.51100000000E-03 0.  1.
         12    1    3    3    0    0  0.45502508368E+01  0.31919174383E+02  0.23490398758E+02  0.39891569407E+02  0.00000000000E+00 0. -1.
</event>
<event>
 7    1  0.4331547E-015  0.9000787E+02  0.7816164E-02  0.1186339E+00
        -11   -1    0    0    0    0  0.00000000000E+00  0.00000000000E+00  0.45593999997E+02  0.45594000000E+02  0.51100000000E-03 0. -1.
         11   -1    0    0    0    0 -0.00000000000E+00 -0.00000000000E+00 -0.45593999997E+02  0.45594000000E+02  0.51100000000E-03 0.  1.
    9900012    2    1    2    0    0  0.92905981637E+00 -0.62959827257E+00  0.36491871825E+00  0.90007867890E+02  0.90000130946E+02 0.  0.
         12    1    1    2    0    0 -0.92905981637E+00  0.62959827257E+00 -0.36491871825E+00  0.11801321105E+01  0.00000000000E+00 0. -1.
         11    1    3    3    0    0 -0.96620494495E+01 -0.22082715184E+01 -0.39454986748E+01  0.10667643728E+02  0.51100000000E-03 0. -1.
        -11    1    3    3    0    0  0.24832933267E+02 -0.30820341073E+02 -0.10540791169E+02  0.40959446740E+02  0.51100000000E-03 0.  1.
         12    1    3    3    0    0 -0.14241824001E+02  0.32399014319E+02  0.14851208562E+02  0.38380777421E+02  0.00000000000E+00 0. -1.
</event>
<event>
 7    1  0.4331547E-015  0.9000769E+02  0.7816164E-02  0.1186339E+00
        -11   -1    0    0    0    0  0.00000000000E+00  0.00000000000E+00  0.45593999997E+02  0.45594000000E+02  0.51100000000E-03 0.  1.
         11   -1    0    0    0    0 -0.00000000000E+00 -0.00000000000E+00 -0.45593999997E+02  0.45594000000E+02  0.51100000000E-03 0. -1.
    9900012    2    1    2    0    0 -0.10485388689E+01  0.13042062597E+00  0.52601279680E+00  0.90007689549E+02  0.89999950251E+02 0.  0.
         12    1    1    2    0    0  0.10485388689E+01 -0.13042062597E+00 -0.52601279680E+00  0.11803104514E+01  0.00000000000E+00 0. -1.
         11    1    3    3    0    0 -0.37471594935E+01  0.19486719421E+02 -0.20836497895E+02  0.28773826350E+02  0.51100000000E-03 0. -1.
        -11    1    3    3    0    0 -0.88168861516E+01  0.12006674530E+02 -0.78637563479E+01  0.16844476211E+02  0.51100000000E-03 0.  1.
        -12    1    3    3    0    0  0.11515506776E+02 -0.31362973324E+02  0.29226267039E+02  0.44389386987E+02  0.00000000000E+00 0.  1.
</event>
<event>
 7    1  0.4331547E-015  0.9000770E+02  0.7816164E-02  0.1186339E+00
        -11   -1    0    0    0    0  0.00000000000E+00  0.00000000000E+00  0.45593999997E+02  0.45594000000E+02  0.51100000000E-03 0.  1.
         11   -1    0    0    0    0 -0.00000000000E+00 -0.00000000000E+00 -0.45593999997E+02  0.45594000000E+02  0.51100000000E-03 0. -1.
    9900012    2    1    2    0    0 -0.10269544368E+01  0.40562427847E+00  0.41706718101E+00  0.90007698554E+02  0.89999959375E+02 0.  0.
         12    1    1    2    0    0  0.10269544368E+01 -0.40562427847E+00 -0.41706718101E+00  0.11803014463E+01  0.00000000000E+00 0. -1.
         11    1    3    3    0    0 -0.12442340230E+01 -0.10613912290E+02 -0.43074437602E+01  0.11522036470E+02  0.51100000000E-03 0. -1.
        -11    1    3    3    0    0 -0.28091605498E+02  0.24920528420E+02 -0.15924631419E+02  0.40789274599E+02  0.51100000000E-03 0.  1.
         12    1    3    3    0    0  0.28308885085E+02 -0.13900991851E+02  0.20649142360E+02  0.37696387485E+02  0.00000000000E+00 0. -1.
</event>
<event>
 7    1  0.4331547E-015  0.9000771E+02  0.7816164E-02  0.1186339E+00
        -11   -1    0    0    0    0  0.00000000000E+00  0.00000000000E+00  0.45593999997E+02  0.45594000000E+02  0.51100000000E-03 0.  1.
         11   -1    0    0    0    0 -0.00000000000E+00 -0.00000000000E+00 -0.45593999997E+02  0.45594000000E+02  0.51100000000E-03 0. -1.
    9900012    2    1    2    0    0 -0.10210103210E+01 -0.36160570062E+00 -0.46889107729E+00  0.90007712069E+02  0.89999973068E+02 0.  0.
         12    1    1    2    0    0  0.10210103210E+01  0.36160570062E+00  0.46889107729E+00  0.11802879312E+01  0.00000000000E+00 0. -1.
         11    1    3    3    0    0 -0.24706912943E+02 -0.57902686119E+01 -0.27291685524E+02  0.37266538030E+02  0.51100000000E-03 0. -1.
        -11    1    3    3    0    0 -0.53809786812E+01  0.70095084449E+01 -0.45535450670E+01  0.99409714387E+01  0.51100000000E-03 0.  1.
        -12    1    3    3    0    0  0.29066881303E+02 -0.15808455336E+01  0.31376339514E+02  0.42800202600E+02  0.00000000000E+00 0.  1.
</event>
<event>
 7    1  0.4331547E-015  0.9000765E+02  0.7816164E-02  0.1186339E+00
        -11   -1    0    0    0    0  0.00000000000E+00  0.00000000000E+00  0.45593999997E+02  0.45594000000E+02  0.51100000000E-03 0.  1.
         11   -1    0    0    0    0 -0.00000000000E+00 -0.00000000000E+00 -0.45593999997E+02  0.45594000000E+02  0.51100000000E-03 0. -1.
    9900012    2    1    2    0    0  0.49033108371E+00 -0.10081840856E+01  0.36928750244E+00  0.90007647095E+02  0.89999907236E+02 0.  0.
         12    1    1    2    0    0 -0.49033108371E+00  0.10081840856E+01 -0.36928750244E+00  0.11803529055E+01  0.00000000000E+00 0. -1.
         11    1    3    3    0    0  0.25948613993E+01  0.29501814730E+01 -0.89603980520E+01  0.97839465410E+01  0.51100000000E-03 0. -1.
        -11    1    3    3    0    0 -0.39761573439E+02  0.70885421033E+01  0.33556236960E+01  0.40527649354E+02  0.51100000000E-03 0.  1.
         12    1    3    3    0    0  0.37657043124E+02 -0.11046907662E+02  0.59740618585E+01  0.39696051199E+02  0.00000000000E+00 0. -1.
</event>
<event>
 7    1  0.4331547E-015  0.9000774E+02  0.7816164E-02  0.1186339E+00
        -11   -1    0    0    0    0  0.00000000000E+00  0.00000000000E+00  0.45593999997E+02  0.45594000000E+02  0.51100000000E-03 0.  1.
         11   -1    0    0    0    0 -0.00000000000E+00 -0.00000000000E+00 -0.45593999997E+02  0.45594000000E+02  0.51100000000E-03 0. -1.
    9900012    2    1    2    0    0 -0.62787918704E+00 -0.99903763105E+00  0.26767096442E-01  0.90007735225E+02  0.89999996530E+02 0.  0.
         12    1    1    2    0    0  0.62787918704E+00  0.99903763105E+00 -0.26767096442E-01  0.11802647750E+01  0.00000000000E+00 0. -1.
         11    1    3    3    0    0  0.27535003425E+02 -0.26717821889E+02 -0.25563245129E+01  0.38451959838E+02  0.51100000000E-03 0. -1.
        -11    1    3    3    0    0 -0.38954073392E+01 -0.77196667063E+01  0.53141460502E+01  0.10149266028E+02  0.51100000000E-03 0.  1.
        -12    1    3    3    0    0 -0.24267475273E+02  0.33438450964E+02 -0.27310544409E+01  0.41406509360E+02  0.00000000000E+00 0.  1.
</event>
<event>
 7    1  0.4331547E-015  0.9000786E+02  0.7816164E-02  0.1186339E+00
        -11   -1    0    0    0    0  0.00000000000E+00  0.00000000000E+00  0.45593999997E+02  0.45594000000E+02  0.51100000000E-03 0.  1.
         11   -1    0    0    0    0 -0.00000000000E+00 -0.00000000000E+00 -0.45593999997E+02  0.45594000000E+02  0.51100000000E-03 0. -1.
    9900012    2    1    2    0    0  0.99745909488E+00 -0.14760112946E-01  0.63054754284E+00  0.90007859029E+02  0.90000121968E+02 0.  0.
         12    1    1    2    0    0 -0.99745909488E+00  0.14760112946E-01 -0.63054754284E+00  0.11801409707E+01  0.00000000000E+00 0. -1.
         11    1    3    3    0    0 -0.66812485685E+01 -0.80041762108E+01  0.16333569109E+01  0.10553377389E+02  0.51100000000E-03 0. -1.
        -11    1    3    3    0    0 -0.13440486639E+02  0.39347295019E+02 -0.20933960418E+01  0.41632182428E+02  0.51100000000E-03 0.  1.
         12    1    3    3    0    0  0.21119194303E+02 -0.31357878922E+02  0.10905866738E+01  0.37822299213E+02  0.00000000000E+00 0. -1.
</event>
<event>
 7    1  0.4331547E-015  0.9000774E+02  0.7816164E-02  0.1186339E+00
        -11   -1    0    0    0    0  0.00000000000E+00  0.00000000000E+00  0.45593999997E+02  0.45594000000E+02  0.51100000000E-03 0. -1.
         11   -1    0    0    0    0 -0.00000000000E+00 -0.00000000000E+00 -0.45593999997E+02  0.45594000000E+02  0.51100000000E-03 0.  1.
    9900012    2    1    2    0    0  0.88883100282E-01 -0.10585894440E+01 -0.51429159787E+00  0.90007742543E+02  0.90000003945E+02 0.  0.
         12    1    1    2    0    0 -0.88883100282E-01  0.10585894440E+01  0.51429159787E+00  0.11802574567E+01  0.00000000000E+00 0. -1.
         11    1    3    3    0    0 -0.13311580682E+00  0.66799828045E+01 -0.50579821425E+01  0.83799208649E+01  0.51100000000E-03 0. -1.
        -11    1    3    3    0    0 -0.12537214971E+02 -0.21808249270E+02 -0.31844144880E+02  0.40581166307E+02  0.51100000000E-03 0.  1.
         12    1    3    3    0    0  0.12759213878E+02  0.14069677021E+02  0.36387835425E+02  0.41046655371E+02  0.00000000000E+00 0. -1.
</event>
<event>
 7    1  0.4331547E-015  0.9000771E+02  0.7816164E-02  0.1186339E+00
        -11   -1    0    0    0    0  0.00000000000E+00  0.00000000000E+00  0.45593999997E+02  0.45594000000E+02  0.51100000000E-03 0.  1.
         11   -1    0    0    0    0 -0.00000000000E+00 -0.00000000000E+00 -0.45593999997E+02  0.45594000000E+02  0.51100000000E-03 0. -1.
    9900012    2    1    2    0    0  0.82019594925E+00 -0.69719465117E+00  0.48403562332E+00  0.90007706705E+02  0.89999967634E+02 0.  0.
         12    1    1    2    0    0 -0.82019594925E+00  0.69719465117E+00 -0.48403562332E+00  0.11802932947E+01  0.00000000000E+00 0. -1.
         11    1    3    3    0    0  0.68015161752E+01  0.44130181037E+01  0.14382098437E+01  0.82343062173E+01  0.51100000000E-03 0. -1.
        -11    1    3    3    0    0 -0.25799286214E+01 -0.42621375066E+02  0.70223660843E+01  0.43272985451E+02  0.51100000000E-03 0.  1.
         12    1    3    3    0    0 -0.34013916045E+01  0.37511162311E+02 -0.79765403047E+01  0.38500415037E+02  0.00000000000E+00 0. -1.
</event>
<event>
 7    1  0.4331547E-015  0.9000765E+02  0.7816164E-02  0.1186339E+00
        -11   -1    0    0    0    0  0.00000000000E+00  0.00000000000E+00  0.45593999997E+02  0.45594000000E+02  0.51100000000E-03 0.  1.
         11   -1    0    0    0    0 -0.00000000000E+00 -0.00000000000E+00 -0.45593999997E+02  0.45594000000E+02  0.51100000000E-03 0. -1.
    9900012    2    1    2    0    0 -0.49389480038E+00 -0.10098257689E+01 -0.35990882471E+00  0.90007654915E+02  0.89999915160E+02 0.  0.
         12    1    1    2    0    0  0.49389480038E+00  0.10098257689E+01  0.35990882471E+00  0.11803450849E+01  0.00000000000E+00 0. -1.
         11    1    3    3    0    0  0.68546822394E+01 -0.61355749762E+01  0.24355268916E+01  0.95164983262E+01  0.51100000000E-03 0. -1.
        -11    1    3    3    0    0  0.97182057291E+00  0.33525136807E+02  0.23459964947E+02  0.40929808072E+02  0.51100000000E-03 0.  1.
         12    1    3    3    0    0 -0.83203976127E+01 -0.28399387600E+02 -0.26255400664E+02  0.39561348517E+02  0.00000000000E+00 0. -1.
</event>
<event>
 7    1  0.4331547E-015  0.9000791E+02  0.7816164E-02  0.1186339E+00
        -11   -1    0    0    0    0  0.00000000000E+00  0.00000000000E+00  0.45593999997E+02  0.45594000000E+02  0.51100000000E-03 0. -1.
         11   -1    0    0    0    0 -0.00000000000E+00 -0.00000000000E+00 -0.45593999997E+02  0.45594000000E+02  0.51100000000E-03 0.  1.
    9900012    2    1    2    0    0  0.72268156792E+00  0.58059913817E+00  0.73024011296E+00  0.90007909058E+02  0.90000172658E+02 0.  0.
         12    1    1    2    0    0 -0.72268156792E+00 -0.58059913817E+00 -0.73024011296E+00  0.11800909416E+01  0.00000000000E+00 0. -1.
         11    1    3    3    0    0  0.60448609309E+01 -0.68838277293E+01 -0.42953164168E+00  0.91712553979E+01  0.51100000000E-03 0. -1.
        -11    1    3    3    0    0 -0.29323518626E+02 -0.11205328855E+02 -0.25463899940E+02  0.40420766195E+02  0.51100000000E-03 0.  1.
         12    1    3    3    0    0  0.24001339263E+02  0.18669755723E+02  0.26623671694E+02  0.40415887466E+02  0.00000000000E+00 0. -1.
</event>
<event>
 7    1  0.4856740E-015  0.9000773E+02  0.7816164E-02  0.1186339E+00
        -11   -1    0    0    0    0  0.00000000000E+00  0.00000000000E+00  0.45593999997E+02  0.45594000000E+02  0.51100000000E-03 0. -1.
         11   -1    0    0    0    0 -0.00000000000E+00 -0.00000000000E+00 -0.45593999997E+02  0.45594000000E+02  0.51100000000E-03 0.  1.
    9900012    2    1    2    0    0  0.24178168555E+00 -0.49875287474E+00 -0.10420299113E+01  0.90007729205E+02  0.89999990430E+02 0.  0.
         12    1    1    2    0    0 -0.24178168555E+00  0.49875287474E+00  0.10420299113E+01  0.11802707950E+01  0.00000000000E+00 0. -1.
         11    1    3    3    0    0 -0.88689972166E+01  0.25559979110E+01  0.32671413789E+01  0.97911414044E+01  0.51100000000E-03 0. -1.
        -11    1    3    3    0    0 -0.32873721077E+02  0.25741065133E+01 -0.15452177676E+02  0.36415345075E+02  0.51100000000E-03 0.  1.
         12    1    3    3    0    0  0.41984499979E+02 -0.56288572990E+01  0.11143006385E+02  0.43801242725E+02  0.00000000000E+00 0. -1.
</event>
<event>
 7    1  0.4331547E-015  0.9000770E+02  0.7816164E-02  0.1186339E+00
        -11   -1    0    0    0    0  0.00000000000E+00  0.00000000000E+00  0.45593999997E+02  0.45594000000E+02  0.51100000000E-03 0.  1.
         11   -1    0    0    0    0 -0.00000000000E+00 -0.00000000000E+00 -0.45593999997E+02  0.45594000000E+02  0.51100000000E-03 0. -1.
    9900012    2    1    2    0    0  0.67914974908E+00 -0.96304302549E+00  0.66493573714E-01  0.90007695952E+02  0.89999956738E+02 0.  0.
         12    1    1    2    0    0 -0.67914974908E+00  0.96304302549E+00 -0.66493573714E-01  0.11803040481E+01  0.00000000000E+00 0. -1.
         11    1    3    3    0    0 -0.11925715006E+02 -0.77035178733E+01 -0.31048810389E+02  0.34140818573E+02  0.51100000000E-03 0. -1.
        -11    1    3    3    0    0 -0.23567142590E+01 -0.54020157307E+01 -0.93474236352E+01  0.11050348634E+02  0.51100000000E-03 0.  1.
        -12    1    3    3    0    0  0.14961579014E+02  0.12142490579E+02  0.40462727598E+02  0.44816528745E+02  0.00000000000E+00 0.  1.
</event>
<event>
 7    1  0.4331547E-015  0.9000773E+02  0.7816164E-02  0.1186339E+00
        -11   -1    0    0    0    0  0.00000000000E+00  0.00000000000E+00  0.45593999997E+02  0.45594000000E+02  0.51100000000E-03 0. -1.
         11   -1    0    0    0    0 -0.00000000000E+00 -0.00000000000E+00 -0.45593999997E+02  0.45594000000E+02  0.51100000000E-03 0.  1.
    9900012    2    1    2    0    0 -0.10817296526E+01 -0.39383495030E+00 -0.26035195682E+00  0.90007733864E+02  0.89999995151E+02 0.  0.
         12    1    1    2    0    0  0.10817296526E+01  0.39383495030E+00  0.26035195682E+00  0.11802661356E+01  0.00000000000E+00 0. -1.
         11    1    3    3    0    0  0.18607920769E+02  0.35823653709E+02  0.23901525433E+01  0.40438863854E+02  0.51100000000E-03 0. -1.
        -11    1    3    3    0    0 -0.97651475915E+01  0.82407631054E+00  0.41147071542E+01  0.10628641704E+02  0.51100000000E-03 0.  1.
        -12    1    3    3    0    0 -0.99245028299E+01 -0.37041564969E+02 -0.67652116544E+01  0.38940228306E+02  0.00000000000E+00 0.  1.
</event>
<event>
 7    1  0.4331547E-015  0.9000772E+02  0.7816164E-02  0.1186339E+00
        -11   -1    0    0    0    0  0.00000000000E+00  0.00000000000E+00  0.45593999997E+02  0.45594000000E+02  0.51100000000E-03 0. -1.
         11   -1    0    0    0    0 -0.00000000000E+00 -0.00000000000E+00 -0.45593999997E+02  0.45594000000E+02  0.51100000000E-03 0.  1.
    9900012    2    1    2    0    0 -0.88114892070E-01  0.11745748794E+01 -0.75275075802E-01  0.90007721762E+02  0.89999982890E+02 0.  0.
         12    1    1    2    0    0  0.88114892070E-01 -0.11745748794E+01  0.75275075802E-01  0.11802782377E+01  0.00000000000E+00 0. -1.
         11    1    3    3    0    0 -0.35612157262E+02  0.88915399288E+01  0.53481505029E+01  0.37092963500E+02  0.51100000000E-03 0. -1.
        -11    1    3    3    0    0 -0.65424946197E+01 -0.21121594490E+01  0.58251953352E+01  0.90110129476E+01  0.51100000000E-03 0.  1.
        -12    1    3    3    0    0  0.42066536990E+02 -0.56048056004E+01 -0.11248620914E+02  0.43903745314E+02  0.00000000000E+00 0.  1.
</event>
<event>
 7    1  0.4331547E-015  0.9000801E+02  0.7816164E-02  0.1186338E+00
        -11   -1    0    0    0    0  0.00000000000E+00  0.00000000000E+00  0.45593999997E+02  0.45594000000E+02  0.51100000000E-03 0. -1.
         11   -1    0    0    0    0 -0.00000000000E+00 -0.00000000000E+00 -0.45593999997E+02  0.45594000000E+02  0.51100000000E-03 0.  1.
    9900012    2    1    2    0    0  0.66864931418E+00  0.35848232328E+00 -0.90374968958E+00  0.90008014838E+02  0.90000279833E+02 0.  0.
         12    1    1    2    0    0 -0.66864931418E+00 -0.35848232328E+00  0.90374968958E+00  0.11799851621E+01  0.00000000000E+00 0. -1.
         11    1    3    3    0    0  0.22944029452E+01  0.95230168108E+01  0.26445038665E+01  0.10146207913E+02  0.51100000000E-03 0. -1.
        -11    1    3    3    0    0  0.17485874593E+01 -0.15690632827E+02 -0.39829382985E+02  0.42844290936E+02  0.51100000000E-03 0.  1.
         12    1    3    3    0    0 -0.33743410903E+01  0.65260983397E+01  0.36281129429E+02  0.37017515989E+02  0.00000000000E+00 0. -1.
</event>
<event>
 7    1  0.4331547E-015  0.9000762E+02  0.7816164E-02  0.1186339E+00
        -11   -1    0    0    0    0  0.00000000000E+00  0.00000000000E+00  0.45593999997E+02  0.45594000000E+02  0.51100000000E-03 0.  1.
         11   -1    0    0    0    0 -0.00000000000E+00 -0.00000000000E+00 -0.45593999997E+02  0.45594000000E+02  0.51100000000E-03 0. -1.
    9900012    2    1    2    0    0  0.63179180262E+00 -0.86911277314E+00  0.48864721150E+00  0.90007621251E+02  0.89999881051E+02 0.  0.
         12    1    1    2    0    0 -0.63179180262E+00  0.86911277314E+00 -0.48864721150E+00  0.11803787492E+01  0.00000000000E+00 0. -1.
         11    1    3    3    0    0 -0.83534780625E+01 -0.30607308309E+01 -0.49659240952E+01  0.10188673679E+02  0.51100000000E-03 0. -1.
        -11    1    3    3    0    0  0.18435030916E+02  0.10530312541E+01  0.39962576872E+02  0.44022344215E+02  0.51100000000E-03 0.  1.
         12    1    3    3    0    0 -0.94497610505E+01  0.11385868036E+01 -0.34508005565E+02  0.35796603357E+02  0.00000000000E+00 0. -1.
</event>
<event>
 7    1  0.4331547E-015  0.9000732E+02  0.7816164E-02  0.1186340E+00
        -11   -1    0    0    0    0  0.00000000000E+00  0.00000000000E+00  0.45593999997E+02  0.45594000000E+02  0.51100000000E-03 0.  1.
         11   -1    0    0    0    0 -0.00000000000E+00 -0.00000000000E+00 -0.45593999997E+02  0.45594000000E+02  0.51100000000E-03 0. -1.
    9900012    2    1    2    0    0  0.85074117927E+00 -0.70968861093E+00  0.40815323959E+00  0.90007319033E+02  0.89999574843E+02 0.  0.
         12    1    1    2    0    0 -0.85074117927E+00  0.70968861093E+00 -0.40815323959E+00  0.11806809669E+01  0.00000000000E+00 0. -1.
         11    1    3    3    0    0 -0.43079726596E+01 -0.34803137740E+02 -0.10829396419E+02  0.36702763548E+02  0.51100000000E-03 0. -1.
        -11    1    3    3    0    0 -0.75407556509E+01 -0.54586392079E+01  0.67981826180E+01  0.11527142966E+02  0.51100000000E-03 0.  1.
        -12    1    3    3    0    0  0.12699469490E+02  0.39552088337E+02  0.44393670405E+01  0.41777412520E+02  0.00000000000E+00 0.  1.
</event>
<event>
 7    1  0.4331547E-015  0.9000771E+02  0.7816164E-02  0.1186339E+00
        -11   -1    0    0    0    0  0.00000000000E+00  0.00000000000E+00  0.45593999997E+02  0.45594000000E+02  0.51100000000E-03 0.  1.
         11   -1    0    0    0    0 -0.00000000000E+00 -0.00000000000E+00 -0.45593999997E+02  0.45594000000E+02  0.51100000000E-03 0. -1.
    9900012    2    1    2    0    0  0.11281090040E+01 -0.16934110265E+00  0.30295217051E+00  0.90007709209E+02  0.89999970170E+02 0.  0.
         12    1    1    2    0    0 -0.11281090040E+01  0.16934110265E+00 -0.30295217051E+00  0.11802907911E+01  0.00000000000E+00 0. -1.
         11    1    3    3    0    0 -0.11382061471E+01 -0.17621825635E+00 -0.11249105236E+02  0.11307914705E+02  0.51100000000E-03 0. -1.
        -11    1    3    3    0    0  0.32054156329E+02  0.18107893025E+02 -0.94453418141E+01  0.38007620420E+02  0.51100000000E-03 0.  1.
         12    1    3    3    0    0 -0.29787841178E+02 -0.18101015871E+02  0.20997399221E+02  0.40692174083E+02  0.00000000000E+00 0. -1.
</event>
<event>
 7    1  0.4331547E-015  0.9000779E+02  0.7816164E-02  0.1186339E+00
        -11   -1    0    0    0    0  0.00000000000E+00  0.00000000000E+00  0.45593999997E+02  0.45594000000E+02  0.51100000000E-03 0.  1.
         11   -1    0    0    0    0 -0.00000000000E+00 -0.00000000000E+00 -0.45593999997E+02  0.45594000000E+02  0.51100000000E-03 0. -1.
    9900012    2    1    2    0    0 -0.16106383568E+00 -0.43152188373E+00  0.10866185376E+01  0.90007791314E+02  0.90000053360E+02 0.  0.
         12    1    1    2    0    0  0.16106383568E+00  0.43152188373E+00 -0.10866185376E+01  0.11802086856E+01  0.00000000000E+00 0. -1.
         11    1    3    3    0    0 -0.24742031299E+02 -0.20941677745E+02 -0.21559066492E+02  0.38929620187E+02  0.51100000000E-03 0. -1.
        -11    1    3    3    0    0  0.40811216475E+00 -0.83678168168E+00 -0.71266936403E+01  0.71872471521E+01  0.51100000000E-03 0.  1.
        -12    1    3    3    0    0  0.24172855299E+02  0.21346937543E+02  0.29772378670E+02  0.43890923976E+02  0.00000000000E+00 0.  1.
</event>
<event>
 7    1  0.6527553E-015  0.9000775E+02  0.7816164E-02  0.1186339E+00
        -11   -1    0    0    0    0  0.00000000000E+00  0.00000000000E+00  0.45593999997E+02  0.45594000000E+02  0.51100000000E-03 0. -1.
         11   -1    0    0    0    0 -0.00000000000E+00 -0.00000000000E+00 -0.45593999997E+02  0.45594000000E+02  0.51100000000E-03 0.  1.
    9900012    2    1    2    0    0  0.67342827529E+00 -0.72982413076E+00 -0.63783547169E+00  0.90007752995E+02  0.90000014535E+02 0.  0.
         12    1    1    2    0    0 -0.67342827529E+00  0.72982413076E+00  0.63783547169E+00  0.11802470050E+01  0.00000000000E+00 0. -1.
         11    1    3    3    0    0 -0.38273055844E+01  0.80082458020E+01 -0.13170900727E+01  0.89730148435E+01  0.51100000000E-03 0. -1.
        -11    1    3    3    0    0  0.16243429837E+02  0.23642343917E+02 -0.25017370499E+02  0.38061506351E+02  0.51100000000E-03 0.  1.
         12    1    3    3    0    0 -0.11742695977E+02 -0.32380413849E+02  0.25696625100E+02  0.42973231801E+02  0.00000000000E+00 0. -1.
</event>
<event>
 7    1  0.4331547E-015  0.9000774E+02  0.7816164E-02  0.1186339E+00
        -11   -1    0    0    0    0  0.00000000000E+00  0.00000000000E+00  0.45593999997E+02  0.45594000000E+02  0.51100000000E-03 0.  1.
         11   -1    0    0    0    0 -0.00000000000E+00 -0.00000000000E+00 -0.45593999997E+02  0.45594000000E+02  0.51100000000E-03 0. -1.
    9900012    2    1    2    0    0  0.10666698023E+01 -0.46964531038E+00  0.18615614764E+00  0.90007743547E+02  0.90000004961E+02 0.  0.
         12    1    1    2    0    0 -0.10666698023E+01  0.46964531038E+00 -0.18615614764E+00  0.11802564534E+01  0.00000000000E+00 0. -1.
         11    1    3    3    0    0  0.16928199923E+02  0.32470294822E+02 -0.35939010747E+00  0.36619846531E+02  0.51100000000E-03 0. -1.
        -11    1    3    3    0    0  0.22439618862E+01  0.63579850508E+01  0.69096910500E+01  0.96541788631E+01  0.51100000000E-03 0.  1.
        -12    1    3    3    0    0 -0.18105492007E+02 -0.39297925183E+02 -0.63641447948E+01  0.43733718153E+02  0.00000000000E+00 0.  1.
</event>
<event>
 7    1  0.4331547E-015  0.9000777E+02  0.7816164E-02  0.1186339E+00
        -11   -1    0    0    0    0  0.00000000000E+00  0.00000000000E+00  0.45593999997E+02  0.45594000000E+02  0.51100000000E-03 0.  1.
         11   -1    0    0    0    0 -0.00000000000E+00 -0.00000000000E+00 -0.45593999997E+02  0.45594000000E+02  0.51100000000E-03 0. -1.
    9900012    2    1    2    0    0 -0.84770515601E+00  0.63772611259E+00  0.51735343514E+00  0.90007765615E+02  0.90000027321E+02 0.  0.
         12    1    1    2    0    0  0.84770515601E+00 -0.63772611259E+00 -0.51735343514E+00  0.11802343848E+01  0.00000000000E+00 0. -1.
         11    1    3    3    0    0 -0.72131262605E+01  0.58232695868E+01  0.45698491401E+01  0.10335530008E+02  0.51100000000E-03 0. -1.
        -11    1    3    3    0    0 -0.23406655674E+02 -0.18472462030E+02  0.22718842795E+02  0.37486653645E+02  0.51100000000E-03 0.  1.
         12    1    3    3    0    0  0.29772076778E+02  0.13286918555E+02 -0.26771338500E+02  0.42185581962E+02  0.00000000000E+00 0. -1.
</event>
<event>
 7    1  0.4331547E-015  0.9000765E+02  0.7816164E-02  0.1186339E+00
        -11   -1    0    0    0    0  0.00000000000E+00  0.00000000000E+00  0.45593999997E+02  0.45594000000E+02  0.51100000000E-03 0. -1.
         11   -1    0    0    0    0 -0.00000000000E+00 -0.00000000000E+00 -0.45593999997E+02  0.45594000000E+02  0.51100000000E-03 0.  1.
    9900012    2    1    2    0    0 -0.85613016330E+00  0.23224107707E+00 -0.77867011005E+00  0.90007651782E+02  0.89999911986E+02 0.  0.
         12    1    1    2    0    0  0.85613016330E+00 -0.23224107707E+00  0.77867011005E+00  0.11803482175E+01  0.00000000000E+00 0. -1.
         11    1    3    3    0    0  0.47492837908E+01 -0.32640120029E+00  0.78834303936E+01  0.92092730061E+01  0.51100000000E-03 0. -1.
        -11    1    3    3    0    0  0.24277569705E+02 -0.25930434096E+02  0.97345147994E+01  0.36831353245E+02  0.51100000000E-03 0.  1.
         12    1    3    3    0    0 -0.29882983659E+02  0.26489076373E+02 -0.18396615303E+02  0.43967025532E+02  0.00000000000E+00 0. -1.
</event>
<event>
 7    1  0.4331547E-015  0.9000770E+02  0.7816164E-02  0.1186339E+00
        -11   -1    0    0    0    0  0.00000000000E+00  0.00000000000E+00  0.45593999997E+02  0.45594000000E+02  0.51100000000E-03 0. -1.
         11   -1    0    0    0    0 -0.00000000000E+00 -0.00000000000E+00 -0.45593999997E+02  0.45594000000E+02  0.51100000000E-03 0.  1.
    9900012    2    1    2    0    0 -0.47957939017E+00 -0.85103953537E+00 -0.66244650840E+00  0.90007703402E+02  0.89999964287E+02 0.  0.
         12    1    1    2    0    0  0.47957939017E+00  0.85103953537E+00  0.66244650840E+00  0.11802965978E+01  0.00000000000E+00 0. -1.
         11    1    3    3    0    0  0.46913395266E+00 -0.46448098353E+01 -0.79823357057E+01  0.92472714165E+01  0.51100000000E-03 0. -1.
        -11    1    3    3    0    0 -0.36402008116E+02 -0.65875645791E+01 -0.12232481090E+02  0.38963262130E+02  0.51100000000E-03 0.  1.
         12    1    3    3    0    0  0.35453294773E+02  0.10381334879E+02  0.19552370287E+02  0.41797169856E+02  0.00000000000E+00 0. -1.
</event>
<event>
 7    1  0.4331547E-015  0.9000815E+02  0.7816164E-02  0.1186338E+00
        -11   -1    0    0    0    0  0.00000000000E+00  0.00000000000E+00  0.45593999997E+02  0.45594000000E+02  0.51100000000E-03 0. -1.
         11   -1    0    0    0    0 -0.00000000000E+00 -0.00000000000E+00 -0.45593999997E+02  0.45594000000E+02  0.51100000000E-03 0.  1.
    9900012    2    1    2    0    0  0.14176439760E+00 -0.20632193388E+00 -0.11529912435E+01  0.90008146326E+02  0.90000413056E+02 0.  0.
         12    1    1    2    0    0 -0.14176439760E+00  0.20632193388E+00  0.11529912435E+01  0.11798536741E+01  0.00000000000E+00 0. -1.
         11    1    3    3    0    0  0.36844387932E+01 -0.63877426521E+00 -0.10158633987E+02  0.10825015775E+02  0.51100000000E-03 0. -1.
        -11    1    3    3    0    0  0.36756679087E+02 -0.40060373188E+01  0.11045159892E+02  0.38588824157E+02  0.51100000000E-03 0.  1.
         12    1    3    3    0    0 -0.40299353482E+02  0.44384896501E+01 -0.20395171487E+01  0.40594306395E+02  0.00000000000E+00 0. -1.
</event>
<event>
 7    1  0.4331547E-015  0.9000748E+02  0.7816164E-02  0.1186340E+00
        -11   -1    0    0    0    0  0.00000000000E+00  0.00000000000E+00  0.45593999997E+02  0.45594000000E+02  0.51100000000E-03 0. -1.
         11   -1    0    0    0    0 -0.00000000000E+00 -0.00000000000E+00 -0.45593999997E+02  0.45594000000E+02  0.51100000000E-03 0.  1.
    9900012    2    1    2    0    0 -0.36816299232E+00 -0.10744512730E+01  0.32193153180E+00  0.90007479167E+02  0.89999737091E+02 0.  0.
         12    1    1    2    0    0  0.36816299232E+00  0.10744512730E+01 -0.32193153180E+00  0.11805208334E+01  0.00000000000E+00 0. -1.
         11    1    3    3    0    0 -0.88561173020E+01  0.17354935355E+02  0.33171235595E+02  0.38470189316E+02  0.51100000000E-03 0. -1.
        -11    1    3    3    0    0 -0.86156345771E+01  0.43933630854E+01 -0.15142427926E+02  0.17967301470E+02  0.51100000000E-03 0.  1.
        -12    1    3    3    0    0  0.17103588887E+02 -0.22822749714E+02 -0.17706876138E+02  0.33569988380E+02  0.00000000000E+00 0.  1.
</event>
<event>
 7    1  0.4331547E-015  0.9000770E+02  0.7816164E-02  0.1186339E+00
        -11   -1    0    0    0    0  0.00000000000E+00  0.00000000000E+00  0.45593999997E+02  0.45594000000E+02  0.51100000000E-03 0. -1.
         11   -1    0    0    0    0 -0.00000000000E+00 -0.00000000000E+00 -0.45593999997E+02  0.45594000000E+02  0.51100000000E-03 0.  1.
    9900012    2    1    2    0    0  0.80424900341E+00  0.76251319534E+00 -0.40604729862E+00  0.90007696123E+02  0.89999956912E+02 0.  0.
         12    1    1    2    0    0 -0.80424900341E+00 -0.76251319534E+00  0.40604729862E+00  0.11803038767E+01  0.00000000000E+00 0. -1.
         11    1    3    3    0    0 -0.83602112953E+01  0.91257670787E-01  0.96416838983E+01  0.12761799619E+02  0.51100000000E-03 0. -1.
        -11    1    3    3    0    0  0.40326781176E+02 -0.72761125602E+01 -0.16964520354E+02  0.44350716399E+02  0.51100000000E-03 0.  1.
         12    1    3    3    0    0 -0.31162320877E+02  0.79473680848E+01  0.69167891567E+01  0.32895180105E+02  0.00000000000E+00 0. -1.
</event>
<event>
 7    1  0.4331547E-015  0.9000768E+02  0.7816164E-02  0.1186339E+00
        -11   -1    0    0    0    0  0.00000000000E+00  0.00000000000E+00  0.45593999997E+02  0.45594000000E+02  0.51100000000E-03 0. -1.
         11   -1    0    0    0    0 -0.00000000000E+00 -0.00000000000E+00 -0.45593999997E+02  0.45594000000E+02  0.51100000000E-03 0.  1.
    9900012    2    1    2    0    0 -0.57013324893E+00  0.47328580415E+00 -0.91875677518E+00  0.90007675729E+02  0.89999936248E+02 0.  0.
         12    1    1    2    0    0  0.57013324893E+00 -0.47328580415E+00  0.91875677518E+00  0.11803242715E+01  0.00000000000E+00 0. -1.
         11    1    3    3    0    0  0.17048638747E+02 -0.41479973214E+01  0.17478233524E+02  0.24765916342E+02  0.51100000000E-03 0. -1.
        -11    1    3    3    0    0 -0.30972003748E+01 -0.12098234076E+02  0.18433865633E+02  0.22265833026E+02  0.51100000000E-03 0.  1.
        -12    1    3    3    0    0 -0.14521571621E+02  0.16719517201E+02 -0.36830855932E+02  0.42975926360E+02  0.00000000000E+00 0.  1.
</event>
<event>
 7    1  0.4331547E-015  0.9000775E+02  0.7816164E-02  0.1186339E+00
        -11   -1    0    0    0    0  0.00000000000E+00  0.00000000000E+00  0.45593999997E+02  0.45594000000E+02  0.51100000000E-03 0.  1.
         11   -1    0    0    0    0 -0.00000000000E+00 -0.00000000000E+00 -0.45593999997E+02  0.45594000000E+02  0.51100000000E-03 0. -1.
    9900012    2    1    2    0    0  0.23226407898E+00  0.39761973451E+00  0.10867103388E+01  0.90007751121E+02  0.90000012636E+02 0.  0.
         12    1    1    2    0    0 -0.23226407898E+00 -0.39761973451E+00 -0.10867103388E+01  0.11802488789E+01  0.00000000000E+00 0. -1.
         11    1    3    3    0    0 -0.35870218930E+02 -0.23274000299E+02  0.45021184399E+01  0.42995590085E+02  0.51100000000E-03 0. -1.
        -11    1    3    3    0    0  0.38792020988E+01  0.27870068004E+01 -0.69689473060E+01  0.84487775829E+01  0.51100000000E-03 0.  1.
        -12    1    3    3    0    0  0.32223280910E+02  0.20884613233E+02  0.35535392049E+01  0.38563383454E+02  0.00000000000E+00 0.  1.
</event>
<event>
 7    1  0.4331547E-015  0.9000779E+02  0.7816164E-02  0.1186339E+00
        -11   -1    0    0    0    0  0.00000000000E+00  0.00000000000E+00  0.45593999997E+02  0.45594000000E+02  0.51100000000E-03 0. -1.
         11   -1    0    0    0    0 -0.00000000000E+00 -0.00000000000E+00 -0.45593999997E+02  0.45594000000E+02  0.51100000000E-03 0.  1.
    9900012    2    1    2    0    0 -0.26039134724E+00  0.80776938493E+00 -0.82012211245E+00  0.90007790141E+02  0.90000052170E+02 0.  0.
         12    1    1    2    0    0  0.26039134724E+00 -0.80776938493E+00  0.82012211245E+00  0.11802098594E+01  0.00000000000E+00 0. -1.
         11    1    3    3    0    0  0.32151643472E+01  0.35025018652E+02 -0.20697077847E+02  0.40810026281E+02  0.51100000000E-03 0. -1.
        -11    1    3    3    0    0 -0.10790991070E+02 -0.13231056591E+01  0.20089892984E+01  0.11055864287E+02  0.51100000000E-03 0.  1.
        -12    1    3    3    0    0  0.73154353756E+01 -0.32894143608E+02  0.17867966436E+02  0.38141899573E+02  0.00000000000E+00 0.  1.
</event>
<event>
 7    1  0.4331547E-015  0.9000771E+02  0.7816164E-02  0.1186339E+00
        -11   -1    0    0    0    0  0.00000000000E+00  0.00000000000E+00  0.45593999997E+02  0.45594000000E+02  0.51100000000E-03 0.  1.
         11   -1    0    0    0    0 -0.00000000000E+00 -0.00000000000E+00 -0.45593999997E+02  0.45594000000E+02  0.51100000000E-03 0. -1.
    9900012    2    1    2    0    0 -0.96071763520E+00  0.22661800079E+00 -0.64711153997E+00  0.90007708749E+02  0.89999969704E+02 0.  0.
         12    1    1    2    0    0  0.96071763520E+00 -0.22661800079E+00  0.64711153997E+00  0.11802912514E+01  0.00000000000E+00 0. -1.
         11    1    3    3    0    0 -0.22545571212E+02  0.20837961346E+02 -0.23983672078E+02  0.38958181951E+02  0.51100000000E-03 0. -1.
        -11    1    3    3    0    0  0.95793588098E+01  0.38005033030E+01  0.21429178092E+02  0.23778511613E+02  0.51100000000E-03 0.  1.
        -12    1    3    3    0    0  0.12005494768E+02 -0.24411846648E+02  0.19073824452E+01  0.27271015184E+02  0.00000000000E+00 0.  1.
</event>
<event>
 7    1  0.4331547E-015  0.9000770E+02  0.7816164E-02  0.1186339E+00
        -11   -1    0    0    0    0  0.00000000000E+00  0.00000000000E+00  0.45593999997E+02  0.45594000000E+02  0.51100000000E-03 0. -1.
         11   -1    0    0    0    0 -0.00000000000E+00 -0.00000000000E+00 -0.45593999997E+02  0.45594000000E+02  0.51100000000E-03 0.  1.
    9900012    2    1    2    0    0  0.28343436310E-01  0.11226596207E+01  0.36323977970E+00  0.90007698720E+02  0.89999959543E+02 0.  0.
         12    1    1    2    0    0 -0.28343436310E-01 -0.11226596207E+01 -0.36323977970E+00  0.11803012801E+01  0.00000000000E+00 0. -1.
         11    1    3    3    0    0 -0.34162287972E+02 -0.13766325687E+02 -0.14082528779E+02  0.39432109498E+02  0.51100000000E-03 0. -1.
        -11    1    3    3    0    0  0.41943470718E+00 -0.61511526182E+01 -0.33175330778E+01  0.70013305871E+01  0.51100000000E-03 0.  1.
        -12    1    3    3    0    0  0.33771196701E+02  0.21040137926E+02  0.17763301637E+02  0.43574258635E+02  0.00000000000E+00 0.  1.
</event>
<event>
 7    1  0.4331547E-015  0.9000766E+02  0.7816164E-02  0.1186339E+00
        -11   -1    0    0    0    0  0.00000000000E+00  0.00000000000E+00  0.45593999997E+02  0.45594000000E+02  0.51100000000E-03 0.  1.
         11   -1    0    0    0    0 -0.00000000000E+00 -0.00000000000E+00 -0.45593999997E+02  0.45594000000E+02  0.51100000000E-03 0. -1.
    9900012    2    1    2    0    0  0.45418543811E+00 -0.10864248134E+01 -0.81199473144E-01  0.90007662488E+02  0.89999922833E+02 0.  0.
         12    1    1    2    0    0 -0.45418543811E+00  0.10864248134E+01  0.81199473144E-01  0.11803375118E+01  0.00000000000E+00 0. -1.
         11    1    3    3    0    0  0.60205203543E+01 -0.42741415225E+01 -0.41289510546E+02  0.41944470821E+02  0.51100000000E-03 0. -1.
        -11    1    3    3    0    0  0.66521642183E+01 -0.40815969838E+01  0.52764348373E+01  0.94208007929E+01  0.51100000000E-03 0.  1.
        -12    1    3    3    0    0 -0.12218499135E+02  0.72693136929E+01  0.35931876235E+02  0.38642390874E+02  0.00000000000E+00 0.  1.
</event>
<event>
 7    1  0.4331547E-015  0.9000775E+02  0.7816164E-02  0.1186339E+00
        -11   -1    0    0    0    0  0.00000000000E+00  0.00000000000E+00  0.45593999997E+02  0.45594000000E+02  0.51100000000E-03 0.  1.
         11   -1    0    0    0    0 -0.00000000000E+00 -0.00000000000E+00 -0.45593999997E+02  0.45594000000E+02  0.51100000000E-03 0. -1.
    9900012    2    1    2    0    0  0.93526851640E+00  0.49838296161E+00  0.51948655330E+00  0.90007754664E+02  0.90000016226E+02 0.  0.
         12    1    1    2    0    0 -0.93526851640E+00 -0.49838296161E+00 -0.51948655330E+00  0.11802453360E+01  0.00000000000E+00 0. -1.
         11    1    3    3    0    0 -0.28852197634E+02 -0.29845653117E+02 -0.36325097715E+01  0.41670222531E+02  0.51100000000E-03 0. -1.
        -11    1    3    3    0    0  0.38653506354E+01  0.60137560541E+01 -0.80351780312E+01  0.10755012025E+02  0.51100000000E-03 0.  1.
        -12    1    3    3    0    0  0.25922115515E+02  0.24330280025E+02  0.12187174356E+02  0.37582520107E+02  0.00000000000E+00 0.  1.
</event>
<event>
 7    1  0.4331547E-015  0.9000775E+02  0.7816164E-02  0.1186339E+00
        -11   -1    0    0    0    0  0.00000000000E+00  0.00000000000E+00  0.45593999997E+02  0.45594000000E+02  0.51100000000E-03 0. -1.
         11   -1    0    0    0    0 -0.00000000000E+00 -0.00000000000E+00 -0.45593999997E+02  0.45594000000E+02  0.51100000000E-03 0.  1.
    9900012    2    1    2    0    0 -0.80904248058E-01  0.14324314426E-01 -0.11773852794E+01  0.90007751391E+02  0.90000012909E+02 0.  0.
         12    1    1    2    0    0  0.80904248058E-01 -0.14324314426E-01  0.11773852794E+01  0.11802486092E+01  0.00000000000E+00 0. -1.
         11    1    3    3    0    0  0.25022816042E+02 -0.11418759646E+02  0.21208419120E+02  0.34732210358E+02  0.51100000000E-03 0. -1.
        -11    1    3    3    0    0  0.48528370591E+01 -0.96143072089E+01  0.24377806107E+01  0.11042087900E+02  0.51100000000E-03 0.  1.
        -12    1    3    3    0    0 -0.29956557350E+02  0.21047391169E+02 -0.24823585010E+02  0.44233453132E+02  0.00000000000E+00 0.  1.
</event>
<event>
 7    1  0.4331547E-015  0.9000760E+02  0.7816164E-02  0.1186339E+00
        -11   -1    0    0    0    0  0.00000000000E+00  0.00000000000E+00  0.45593999997E+02  0.45594000000E+02  0.51100000000E-03 0.  1.
         11   -1    0    0    0    0 -0.00000000000E+00 -0.00000000000E+00 -0.45593999997E+02  0.45594000000E+02  0.51100000000E-03 0. -1.
    9900012    2    1    2    0    0  0.74379023223E+00 -0.10937124719E+00  0.91003620283E+00  0.90007596734E+02  0.89999856211E+02 0.  0.
         12    1    1    2    0    0 -0.74379023223E+00  0.10937124719E+00 -0.91003620283E+00  0.11804032657E+01  0.00000000000E+00 0. -1.
         11    1    3    3    0    0 -0.15984245643E+01  0.20017710234E+01  0.87448621063E+01  0.91123356960E+01  0.51100000000E-03 0. -1.
        -11    1    3    3    0    0  0.86354128471E+01 -0.29962432798E+02  0.23093031492E+02  0.38802137029E+02  0.51100000000E-03 0.  1.
         12    1    3    3    0    0 -0.62931980506E+01  0.27851290528E+02 -0.30927857396E+02  0.42093124009E+02  0.00000000000E+00 0. -1.
</event>
<event>
 7    1  0.4331547E-015  0.9000785E+02  0.7816164E-02  0.1186339E+00
        -11   -1    0    0    0    0  0.00000000000E+00  0.00000000000E+00  0.45593999997E+02  0.45594000000E+02  0.51100000000E-03 0.  1.
         11   -1    0    0    0    0 -0.00000000000E+00 -0.00000000000E+00 -0.45593999997E+02  0.45594000000E+02  0.51100000000E-03 0. -1.
    9900012    2    1    2    0    0 -0.66346310818E+00 -0.33421184769E+00  0.91699046100E+00  0.90007850704E+02  0.90000113533E+02 0.  0.
         12    1    1    2    0    0  0.66346310818E+00  0.33421184769E+00 -0.91699046100E+00  0.11801492959E+01  0.00000000000E+00 0. -1.
         11    1    3    3    0    0 -0.59195782360E+01 -0.39350825365E+01  0.24516113696E+01  0.75190876860E+01  0.51100000000E-03 0. -1.
        -11    1    3    3    0    0 -0.31412356610E+02 -0.18996252241E+02 -0.11132041049E+02  0.38360345217E+02  0.51100000000E-03 0.  1.
         12    1    3    3    0    0  0.36668471738E+02  0.22597122929E+02  0.95974201406E+01  0.44128417801E+02  0.00000000000E+00 0. -1.
</event>
<event>
 7    1  0.4331547E-015  0.9000762E+02  0.7816164E-02  0.1186339E+00
        -11   -1    0    0    0    0  0.00000000000E+00  0.00000000000E+00  0.45593999997E+02  0.45594000000E+02  0.51100000000E-03 0. -1.
         11   -1    0    0    0    0 -0.00000000000E+00 -0.00000000000E+00 -0.45593999997E+02  0.45594000000E+02  0.51100000000E-03 0.  1.
    9900012    2    1    2    0    0  0.23397204362E+00  0.23527745846E-02 -0.11569551197E+01  0.90007621416E+02  0.89999881219E+02 0.  0.
         12    1    1    2    0    0 -0.23397204362E+00 -0.23527745846E-02  0.11569551197E+01  0.11803785841E+01  0.00000000000E+00 0. -1.
         11    1    3    3    0    0 -0.88268693410E+00  0.58827346939E+01  0.55248751728E+01  0.81184942963E+01  0.51100000000E-03 0. -1.
        -11    1    3    3    0    0 -0.60571324785E+01  0.33919992225E+02 -0.19339396873E+02  0.39512871296E+02  0.51100000000E-03 0.  1.
         12    1    3    3    0    0  0.71737914563E+01 -0.39800374144E+02  0.12657566581E+02  0.42376255823E+02  0.00000000000E+00 0. -1.
</event>
<event>
 7    1  0.4331547E-015  0.9000782E+02  0.7816164E-02  0.1186339E+00
        -11   -1    0    0    0    0  0.00000000000E+00  0.00000000000E+00  0.45593999997E+02  0.45594000000E+02  0.51100000000E-03 0. -1.
         11   -1    0    0    0    0 -0.00000000000E+00 -0.00000000000E+00 -0.45593999997E+02  0.45594000000E+02  0.51100000000E-03 0.  1.
    9900012    2    1    2    0    0 -0.17469006060E+00  0.77007994473E+00 -0.87709012905E+00  0.90007819152E+02  0.90000081565E+02 0.  0.
         12    1    1    2    0    0  0.17469006060E+00 -0.77007994473E+00  0.87709012905E+00  0.11801808476E+01  0.00000000000E+00 0. -1.
         11    1    3    3    0    0 -0.98033718807E+01  0.78351823506E+01  0.80057623180E+01  0.14885846071E+02  0.51100000000E-03 0. -1.
        -11    1    3    3    0    0 -0.31040942981E+02 -0.10220327841E+02  0.24885383098E+01  0.32774808398E+02  0.51100000000E-03 0.  1.
         12    1    3    3    0    0  0.40669624801E+02  0.31552254352E+01 -0.11371390757E+02  0.42347164684E+02  0.00000000000E+00 0. -1.
</event>
<event>
 7    1  0.4331547E-015  0.9000770E+02  0.7816164E-02  0.1186339E+00
        -11   -1    0    0    0    0  0.00000000000E+00  0.00000000000E+00  0.45593999997E+02  0.45594000000E+02  0.51100000000E-03 0.  1.
         11   -1    0    0    0    0 -0.00000000000E+00 -0.00000000000E+00 -0.45593999997E+02  0.45594000000E+02  0.51100000000E-03 0. -1.
    9900012    2    1    2    0    0 -0.69466426986E+00  0.84303984461E+00 -0.44703299647E+00  0.90007697866E+02  0.89999958678E+02 0.  0.
         12    1    1    2    0    0  0.69466426986E+00 -0.84303984461E+00  0.44703299647E+00  0.11803021339E+01  0.00000000000E+00 0. -1.
         11    1    3    3    0    0 -0.21041429301E+02  0.23373907416E+02 -0.23410228851E+02  0.39206123374E+02  0.51100000000E-03 0. -1.
        -11    1    3    3    0    0  0.35478347403E+01 -0.37507661028E+00 -0.82571814238E+01  0.89949351935E+01  0.51100000000E-03 0.  1.
        -12    1    3    3    0    0  0.16798930291E+02 -0.22155790961E+02  0.31220377279E+02  0.41806639298E+02  0.00000000000E+00 0.  1.
</event>
<event>
 7    1  0.4331547E-015  0.9000775E+02  0.7816164E-02  0.1186339E+00
        -11   -1    0    0    0    0  0.00000000000E+00  0.00000000000E+00  0.45593999997E+02  0.45594000000E+02  0.51100000000E-03 0.  1.
         11   -1    0    0    0    0 -0.00000000000E+00 -0.00000000000E+00 -0.45593999997E+02  0.45594000000E+02  0.51100000000E-03 0. -1.
    9900012    2    1    2    0    0  0.55722158104E+00 -0.41155756119E+00  0.95556426776E+00  0.90007754862E+02  0.90000016426E+02 0.  0.
         12    1    1    2    0    0 -0.55722158104E+00  0.41155756119E+00 -0.95556426776E+00  0.11802451383E+01  0.00000000000E+00 0. -1.
         11    1    3    3    0    0 -0.77278726340E+01 -0.55955193573E+00  0.47579914600E+01  0.90923922491E+01  0.51100000000E-03 0. -1.
        -11    1    3    3    0    0 -0.49712928842E+01  0.36367259231E+02  0.12870953674E+02  0.38896693248E+02  0.51100000000E-03 0.  1.
         12    1    3    3    0    0  0.13256387099E+02 -0.36219264856E+02 -0.16673380866E+02  0.42018669365E+02  0.00000000000E+00 0. -1.
</event>
<event>
 7    1  0.4331547E-015  0.9000776E+02  0.7816164E-02  0.1186339E+00
        -11   -1    0    0    0    0  0.00000000000E+00  0.00000000000E+00  0.45593999997E+02  0.45594000000E+02  0.51100000000E-03 0.  1.
         11   -1    0    0    0    0 -0.00000000000E+00 -0.00000000000E+00 -0.45593999997E+02  0.45594000000E+02  0.51100000000E-03 0. -1.
    9900012    2    1    2    0    0 -0.76506433522E+00 -0.16945503003E+00  0.88257234380E+00  0.90007757488E+02  0.90000019087E+02 0.  0.
         12    1    1    2    0    0  0.76506433522E+00  0.16945503003E+00 -0.88257234380E+00  0.11802425116E+01  0.00000000000E+00 0. -1.
         11    1    3    3    0    0 -0.15651668979E+02 -0.98147890418E+01 -0.31131043879E+02  0.36200092804E+02  0.51100000000E-03 0. -1.
        -11    1    3    3    0    0 -0.70848196559E+01 -0.59074697810E+01 -0.29473082365E+01  0.96839813543E+01  0.51100000000E-03 0.  1.
        -12    1    3    3    0    0  0.21971424299E+02  0.15552803793E+02  0.34960924459E+02  0.44123683330E+02  0.00000000000E+00 0.  1.
</event>
<event>
 7    1  0.4331547E-015  0.9000773E+02  0.7816164E-02  0.1186339E+00
        -11   -1    0    0    0    0  0.00000000000E+00  0.00000000000E+00  0.45593999997E+02  0.45594000000E+02  0.51100000000E-03 0. -1.
         11   -1    0    0    0    0 -0.00000000000E+00 -0.00000000000E+00 -0.45593999997E+02  0.45594000000E+02  0.51100000000E-03 0.  1.
    9900012    2    1    2    0    0 -0.71686834866E+00 -0.79980584822E-01 -0.93420718438E+00  0.90007728766E+02  0.89999989985E+02 0.  0.
         12    1    1    2    0    0  0.71686834866E+00  0.79980584822E-01  0.93420718438E+00  0.11802712343E+01  0.00000000000E+00 0. -1.
         11    1    3    3    0    0 -0.10682588935E+01  0.10253288176E+02 -0.59478282474E+01  0.11901586306E+02  0.51100000000E-03 0. -1.
        -11    1    3    3    0    0 -0.93949710574E+01  0.34940033196E+01 -0.34072395721E+02  0.35516217293E+02  0.51100000000E-03 0.  1.
         12    1    3    3    0    0  0.97463616023E+01 -0.13827272081E+02  0.39086016784E+02  0.42589925167E+02  0.00000000000E+00 0. -1.
</event>
<event>
 7    1  0.4331547E-015  0.9000765E+02  0.7816164E-02  0.1186339E+00
        -11   -1    0    0    0    0  0.00000000000E+00  0.00000000000E+00  0.45593999997E+02  0.45594000000E+02  0.51100000000E-03 0.  1.
         11   -1    0    0    0    0 -0.00000000000E+00 -0.00000000000E+00 -0.45593999997E+02  0.45594000000E+02  0.51100000000E-03 0. -1.
    9900012    2    1    2    0    0  0.34298017658E+00 -0.63669927148E+00 -0.93284822760E+00  0.90007649552E+02  0.89999909726E+02 0.  0.
         12    1    1    2    0    0 -0.34298017658E+00  0.63669927148E+00  0.93284822760E+00  0.11803504478E+01  0.00000000000E+00 0. -1.
         11    1    3    3    0    0  0.90763915436E+01  0.69193437907E+00 -0.39808075890E+01  0.99351137870E+01  0.51100000000E-03 0. -1.
        -11    1    3    3    0    0  0.32239671268E+02  0.15132584619E+02  0.44673994199E+01  0.35893581300E+02  0.51100000000E-03 0.  1.
         12    1    3    3    0    0 -0.40973082635E+02 -0.16461218270E+02 -0.14194400584E+01  0.44178954465E+02  0.00000000000E+00 0. -1.
</event>
<event>
 7    1  0.4331547E-015  0.9000765E+02  0.7816164E-02  0.1186339E+00
        -11   -1    0    0    0    0  0.00000000000E+00  0.00000000000E+00  0.45593999997E+02  0.45594000000E+02  0.51100000000E-03 0.  1.
         11   -1    0    0    0    0 -0.00000000000E+00 -0.00000000000E+00 -0.45593999997E+02  0.45594000000E+02  0.51100000000E-03 0. -1.
    9900012    2    1    2    0    0 -0.11511796228E+00 -0.43310391791E+00  0.10919728616E+01  0.90007645867E+02  0.89999905992E+02 0.  0.
         12    1    1    2    0    0  0.11511796228E+00  0.43310391791E+00 -0.10919728616E+01  0.11803541331E+01  0.00000000000E+00 0. -1.
         11    1    3    3    0    0  0.63263044555E+01 -0.13224417529E+01  0.76122892632E+01  0.99858864575E+01  0.51100000000E-03 0. -1.
        -11    1    3    3    0    0 -0.20117071187E+02 -0.22457441601E+02  0.24507017733E+02  0.38853920714E+02  0.51100000000E-03 0.  1.
         12    1    3    3    0    0  0.13675648769E+02  0.23346779436E+02 -0.31027334135E+02  0.41167838695E+02  0.00000000000E+00 0. -1.
</event>
<event>
 7    1  0.4331547E-015  0.9000771E+02  0.7816164E-02  0.1186339E+00
        -11   -1    0    0    0    0  0.00000000000E+00  0.00000000000E+00  0.45593999997E+02  0.45594000000E+02  0.51100000000E-03 0.  1.
         11   -1    0    0    0    0 -0.00000000000E+00 -0.00000000000E+00 -0.45593999997E+02  0.45594000000E+02  0.51100000000E-03 0. -1.
    9900012    2    1    2    0    0 -0.16209556917E+00  0.10562091045E+01 -0.50123325496E+00  0.90007708756E+02  0.89999969711E+02 0.  0.
         12    1    1    2    0    0  0.16209556917E+00 -0.10562091045E+01  0.50123325496E+00  0.11802912445E+01  0.00000000000E+00 0. -1.
         11    1    3    3    0    0 -0.15547335971E+01 -0.89790060375E+00  0.11270108392E+02  0.11412220006E+02  0.51100000000E-03 0. -1.
        -11    1    3    3    0    0 -0.26355761712E+02 -0.43655806765E+01  0.21874455770E+02  0.34527905896E+02  0.51100000000E-03 0.  1.
         12    1    3    3    0    0  0.27748399740E+02  0.63196903847E+01 -0.33645797417E+02  0.44067582853E+02  0.00000000000E+00 0. -1.
</event>
<event>
 7    1  0.4331547E-015  0.9000774E+02  0.7816164E-02  0.1186339E+00
        -11   -1    0    0    0    0  0.00000000000E+00  0.00000000000E+00  0.45593999997E+02  0.45594000000E+02  0.51100000000E-03 0.  1.
         11   -1    0    0    0    0 -0.00000000000E+00 -0.00000000000E+00 -0.45593999997E+02  0.45594000000E+02  0.51100000000E-03 0. -1.
    9900012    2    1    2    0    0  0.83402062626E+00  0.69046875905E+00  0.46976157766E+00  0.90007740091E+02  0.90000001461E+02 0.  0.
         12    1    1    2    0    0 -0.83402062626E+00 -0.69046875905E+00 -0.46976157766E+00  0.11802599087E+01  0.00000000000E+00 0. -1.
         11    1    3    3    0    0  0.10078762059E+02  0.32890492948E+02 -0.19206898714E+02  0.39398869647E+02  0.51100000000E-03 0. -1.
        -11    1    3    3    0    0 -0.39399914734E+01 -0.22781145326E+01 -0.81952056943E+01  0.93741525093E+01  0.51100000000E-03 0.  1.
        -12    1    3    3    0    0 -0.53047499588E+01 -0.29921909656E+02  0.27871865986E+02  0.41234717935E+02  0.00000000000E+00 0.  1.
</event>
<event>
 7    1  0.4331547E-015  0.9000777E+02  0.7816164E-02  0.1186339E+00
        -11   -1    0    0    0    0  0.00000000000E+00  0.00000000000E+00  0.45593999997E+02  0.45594000000E+02  0.51100000000E-03 0. -1.
         11   -1    0    0    0    0 -0.00000000000E+00 -0.00000000000E+00 -0.45593999997E+02  0.45594000000E+02  0.51100000000E-03 0.  1.
    9900012    2    1    2    0    0  0.19537890094E+00 -0.99796107476E+00 -0.59902609586E+00  0.90007774816E+02  0.90000036643E+02 0.  0.
         12    1    1    2    0    0 -0.19537890094E+00  0.99796107476E+00  0.59902609586E+00  0.11802251841E+01  0.00000000000E+00 0. -1.
         11    1    3    3    0    0 -0.18411811161E+02  0.22646495250E+01  0.30723937859E+02  0.35889884166E+02  0.51100000000E-03 0. -1.
        -11    1    3    3    0    0  0.16254220660E+01 -0.15490940745E+00  0.95814554203E+01  0.97195824009E+01  0.51100000000E-03 0.  1.
        -12    1    3    3    0    0  0.16981767996E+02 -0.31077011923E+01 -0.40904419375E+02  0.44398308249E+02  0.00000000000E+00 0.  1.
</event>
<event>
 7    1  0.4331547E-015  0.9000770E+02  0.7816164E-02  0.1186339E+00
        -11   -1    0    0    0    0  0.00000000000E+00  0.00000000000E+00  0.45593999997E+02  0.45594000000E+02  0.51100000000E-03 0.  1.
         11   -1    0    0    0    0 -0.00000000000E+00 -0.00000000000E+00 -0.45593999997E+02  0.45594000000E+02  0.51100000000E-03 0. -1.
    9900012    2    1    2    0    0  0.10017059358E+01  0.15602871630E+00 -0.60444113937E+00  0.90007699685E+02  0.89999960521E+02 0.  0.
         12    1    1    2    0    0 -0.10017059358E+01 -0.15602871630E+00  0.60444113937E+00  0.11803003147E+01  0.00000000000E+00 0. -1.
         11    1    3    3    0    0  0.34568122925E+01  0.11895134777E+01 -0.79035735198E+01  0.87080978510E+01  0.51100000000E-03 0. -1.
        -11    1    3    3    0    0  0.13024917617E+02 -0.36459905811E+02 -0.83240917591E+01  0.39601309506E+02  0.51100000000E-03 0.  1.
         12    1    3    3    0    0 -0.15480023974E+02  0.35426421050E+02  0.15623224140E+02  0.41698292329E+02  0.00000000000E+00 0. -1.
</event>
<event>
 7    1  0.4331547E-015  0.9000779E+02  0.7816164E-02  0.1186339E+00
        -11   -1    0    0    0    0  0.00000000000E+00  0.00000000000E+00  0.45593999997E+02  0.45594000000E+02  0.51100000000E-03 0. -1.
         11   -1    0    0    0    0 -0.00000000000E+00 -0.00000000000E+00 -0.45593999997E+02  0.45594000000E+02  0.51100000000E-03 0.  1.
    9900012    2    1    2    0    0  0.19593608080E+00  0.87830429847E+00 -0.76360687793E+00  0.90007786099E+02  0.90000048075E+02 0.  0.
         12    1    1    2    0    0 -0.19593608080E+00 -0.87830429847E+00  0.76360687793E+00  0.11802139012E+01  0.00000000000E+00 0. -1.
         11    1    3    3    0    0 -0.84739908769E+01 -0.20944718530E+02  0.30895439123E+02  0.38275552440E+02  0.51100000000E-03 0. -1.
        -11    1    3    3    0    0 -0.33729168626E+01 -0.79908437973E+01 -0.81356107409E+01  0.11891943287E+02  0.51100000000E-03 0.  1.
        -12    1    3    3    0    0  0.12042843820E+02  0.29813866626E+02 -0.23523435260E+02  0.39840290372E+02  0.00000000000E+00 0.  1.
</event>
<event>
 7    1  0.4331547E-015  0.9000773E+02  0.7816164E-02  0.1186339E+00
        -11   -1    0    0    0    0  0.00000000000E+00  0.00000000000E+00  0.45593999997E+02  0.45594000000E+02  0.51100000000E-03 0.  1.
         11   -1    0    0    0    0 -0.00000000000E+00 -0.00000000000E+00 -0.45593999997E+02  0.45594000000E+02  0.51100000000E-03 0. -1.
    9900012    2    1    2    0    0 -0.11518332630E+01  0.20709691750E+00 -0.15307369930E+00  0.90007728609E+02  0.89999989827E+02 0.  0.
         12    1    1    2    0    0  0.11518332630E+01 -0.20709691750E+00  0.15307369930E+00  0.11802713910E+01  0.00000000000E+00 0. -1.
         11    1    3    3    0    0  0.39557356355E+02 -0.10594791147E+02  0.25270157205E+01  0.41029499752E+02  0.51100000000E-03 0. -1.
        -11    1    3    3    0    0 -0.76330030977E+01 -0.77927907101E+01  0.34016905233E+00  0.10913571303E+02  0.51100000000E-03 0.  1.
        -12    1    3    3    0    0 -0.33076186520E+02  0.18594678775E+02 -0.30202584722E+01  0.38064657554E+02  0.00000000000E+00 0.  1.
</event>
<event>
 7    1  0.4331547E-015  0.9000775E+02  0.7816164E-02  0.1186339E+00
        -11   -1    0    0    0    0  0.00000000000E+00  0.00000000000E+00  0.45593999997E+02  0.45594000000E+02  0.51100000000E-03 0. -1.
         11   -1    0    0    0    0 -0.00000000000E+00 -0.00000000000E+00 -0.45593999997E+02  0.45594000000E+02  0.51100000000E-03 0.  1.
    9900012    2    1    2    0    0 -0.91056688623E-01 -0.10919106369E+01 -0.43867525282E+00  0.90007747427E+02  0.90000008893E+02 0.  0.
         12    1    1    2    0    0  0.91056688623E-01  0.10919106369E+01  0.43867525282E+00  0.11802525734E+01  0.00000000000E+00 0. -1.
         11    1    3    3    0    0 -0.15795148456E+02  0.33537348741E+02 -0.73931619591E+01  0.37800784639E+02  0.51100000000E-03 0. -1.
        -11    1    3    3    0    0  0.46733044027E+01  0.69812670548E+01  0.32216655551E+01  0.89976104017E+01  0.51100000000E-03 0.  1.
        -12    1    3    3    0    0  0.11030787364E+02 -0.41610526433E+02  0.37328211512E+01  0.43209352386E+02  0.00000000000E+00 0.  1.
</event>
<event>
 7    1  0.4331547E-015  0.9000809E+02  0.7816164E-02  0.1186338E+00
        -11   -1    0    0    0    0  0.00000000000E+00  0.00000000000E+00  0.45593999997E+02  0.45594000000E+02  0.51100000000E-03 0.  1.
         11   -1    0    0    0    0 -0.00000000000E+00 -0.00000000000E+00 -0.45593999997E+02  0.45594000000E+02  0.51100000000E-03 0. -1.
    9900012    2    1    2    0    0  0.32513069738E+00  0.87330482725E+00  0.72374742931E+00  0.90008092532E+02  0.90000358553E+02 0.  0.
         12    1    1    2    0    0 -0.32513069738E+00 -0.87330482725E+00 -0.72374742931E+00  0.11799074680E+01  0.00000000000E+00 0. -1.
         11    1    3    3    0    0  0.23424239713E+01  0.69791881069E+01 -0.59358604604E+01  0.94567677543E+01  0.51100000000E-03 0. -1.
        -11    1    3    3    0    0 -0.16798372013E+02  0.33539252767E+02 -0.11365731991E+01  0.37528103834E+02  0.51100000000E-03 0.  1.
         12    1    3    3    0    0  0.14781078739E+02 -0.39645136046E+02  0.77961810888E+01  0.43023220944E+02  0.00000000000E+00 0. -1.
</event>
<event>
 7    1  0.4331547E-015  0.9000769E+02  0.7816164E-02  0.1186339E+00
        -11   -1    0    0    0    0  0.00000000000E+00  0.00000000000E+00  0.45593999997E+02  0.45594000000E+02  0.51100000000E-03 0.  1.
         11   -1    0    0    0    0 -0.00000000000E+00 -0.00000000000E+00 -0.45593999997E+02  0.45594000000E+02  0.51100000000E-03 0. -1.
    9900012    2    1    2    0    0 -0.86572901253E+00  0.79027505137E+00  0.13819788940E+00  0.90007694939E+02  0.89999955712E+02 0.  0.
         12    1    1    2    0    0  0.86572901253E+00 -0.79027505137E+00 -0.13819788940E+00  0.11803050608E+01  0.00000000000E+00 0. -1.
         11    1    3    3    0    0  0.44563072857E+01 -0.10163186295E+02 -0.28319673982E+01  0.11452906614E+02  0.51100000000E-03 0. -1.
        -11    1    3    3    0    0 -0.35808994086E+02 -0.11991406697E+02  0.11462234945E+02  0.39464676893E+02  0.51100000000E-03 0.  1.
         12    1    3    3    0    0  0.30486957788E+02  0.22944868044E+02 -0.84920696575E+01  0.39090111432E+02  0.00000000000E+00 0. -1.
</event>
<event>
 7    1  0.4331547E-015  0.9000772E+02  0.7816164E-02  0.1186339E+00
        -11   -1    0    0    0    0  0.00000000000E+00  0.00000000000E+00  0.45593999997E+02  0.45594000000E+02  0.51100000000E-03 0. -1.
         11   -1    0    0    0    0 -0.00000000000E+00 -0.00000000000E+00 -0.45593999997E+02  0.45594000000E+02  0.51100000000E-03 0.  1.
    9900012    2    1    2    0    0 -0.74869862992E+00 -0.58623614842E+00 -0.69916331762E+00  0.90007723844E+02  0.89999984999E+02 0.  0.
         12    1    1    2    0    0  0.74869862992E+00  0.58623614842E+00  0.69916331762E+00  0.11802761562E+01  0.00000000000E+00 0. -1.
         11    1    3    3    0    0  0.25495215892E+02 -0.35442518315E+01  0.31923702342E+02  0.41008420183E+02  0.51100000000E-03 0. -1.
        -11    1    3    3    0    0 -0.77707007415E+01 -0.91214882525E+01 -0.35506645813E+01  0.12497702076E+02  0.51100000000E-03 0.  1.
        -12    1    3    3    0    0 -0.18473213780E+02  0.12079503936E+02 -0.29072201079E+02  0.36501601585E+02  0.00000000000E+00 0.  1.
</event>
<event>
 7    1  0.4331547E-015  0.9000803E+02  0.7816164E-02  0.1186338E+00
        -11   -1    0    0    0    0  0.00000000000E+00  0.00000000000E+00  0.45593999997E+02  0.45594000000E+02  0.51100000000E-03 0.  1.
         11   -1    0    0    0    0 -0.00000000000E+00 -0.00000000000E+00 -0.45593999997E+02  0.45594000000E+02  0.51100000000E-03 0. -1.
    9900012    2    1    2    0    0 -0.27502043809E+00 -0.81254895810E+00  0.81022135728E+00  0.90008029365E+02  0.90000294553E+02 0.  0.
         12    1    1    2    0    0  0.27502043809E+00  0.81254895810E+00 -0.81022135728E+00  0.11799706346E+01  0.00000000000E+00 0. -1.
         11    1    3    3    0    0  0.47595166116E+01 -0.57621354992E+01 -0.44228798326E+01  0.86843002114E+01  0.51100000000E-03 0. -1.
        -11    1    3    3    0    0 -0.18049848645E+02 -0.26060816057E+02  0.26681790107E+02  0.41435263885E+02  0.51100000000E-03 0.  1.
         12    1    3    3    0    0  0.13015311596E+02  0.31010402598E+02 -0.21448688917E+02  0.39888465269E+02  0.00000000000E+00 0. -1.
</event>
<event>
 7    1  0.4331547E-015  0.9000770E+02  0.7816164E-02  0.1186339E+00
        -11   -1    0    0    0    0  0.00000000000E+00  0.00000000000E+00  0.45593999997E+02  0.45594000000E+02  0.51100000000E-03 0.  1.
         11   -1    0    0    0    0 -0.00000000000E+00 -0.00000000000E+00 -0.45593999997E+02  0.45594000000E+02  0.51100000000E-03 0. -1.
    9900012    2    1    2    0    0 -0.80578488957E+00 -0.48649147658E+00 -0.71213645389E+00  0.90007702760E+02  0.89999963637E+02 0.  0.
         12    1    1    2    0    0  0.80578488957E+00  0.48649147658E+00  0.71213645389E+00  0.11802972397E+01  0.00000000000E+00 0. -1.
         11    1    3    3    0    0  0.95269942066E+01 -0.39160491042E+02  0.13585488339E+02  0.42530849638E+02  0.51100000000E-03 0. -1.
        -11    1    3    3    0    0 -0.74697530796E+01  0.11746376022E+01 -0.12191423112E+01  0.76591966160E+01  0.51100000000E-03 0.  1.
        -12    1    3    3    0    0 -0.28630260166E+01  0.37499361963E+02 -0.13078482481E+02  0.39817656506E+02  0.00000000000E+00 0.  1.
</event>
<event>
 7    1  0.4331547E-015  0.9000801E+02  0.7816164E-02  0.1186339E+00
        -11   -1    0    0    0    0  0.00000000000E+00  0.00000000000E+00  0.45593999997E+02  0.45594000000E+02  0.51100000000E-03 0. -1.
         11   -1    0    0    0    0 -0.00000000000E+00 -0.00000000000E+00 -0.45593999997E+02  0.45594000000E+02  0.51100000000E-03 0.  1.
    9900012    2    1    2    0    0 -0.71543089463E+00  0.20865406285E+00 -0.91487353722E+00  0.90008012088E+02  0.90000277047E+02 0.  0.
         12    1    1    2    0    0  0.71543089463E+00 -0.20865406285E+00  0.91487353722E+00  0.11799879118E+01  0.00000000000E+00 0. -1.
         11    1    3    3    0    0 -0.46355997842E+01  0.62805772764E+01  0.97199565301E+01  0.12466434594E+02  0.51100000000E-03 0. -1.
        -11    1    3    3    0    0 -0.57886287526E+01 -0.36225366123E+02 -0.23263318444E+02  0.43439237550E+02  0.51100000000E-03 0.  1.
         12    1    3    3    0    0  0.97087976421E+01  0.30153442910E+02  0.12628488377E+02  0.34102339944E+02  0.00000000000E+00 0. -1.
</event>
<event>
 7    1  0.4331547E-015  0.9000771E+02  0.7816164E-02  0.1186339E+00
        -11   -1    0    0    0    0  0.00000000000E+00  0.00000000000E+00  0.45593999997E+02  0.45594000000E+02  0.51100000000E-03 0.  1.
         11   -1    0    0    0    0 -0.00000000000E+00 -0.00000000000E+00 -0.45593999997E+02  0.45594000000E+02  0.51100000000E-03 0. -1.
    9900012    2    1    2    0    0  0.10626147049E+01  0.39788377720E+00  0.32501258407E+00  0.90007705676E+02  0.89999966591E+02 0.  0.
         12    1    1    2    0    0 -0.10626147049E+01 -0.39788377720E+00 -0.32501258407E+00  0.11802943239E+01  0.00000000000E+00 0. -1.
         11    1    3    3    0    0 -0.27024854849E+02  0.13783235239E+01 -0.34891636947E+02  0.44155055027E+02  0.51100000000E-03 0. -1.
        -11    1    3    3    0    0  0.29912799174E+01 -0.19206232287E+01  0.83544577068E+01  0.90792903338E+01  0.51100000000E-03 0.  1.
        -12    1    3    3    0    0  0.25096189636E+02  0.94018348198E+00  0.26862191825E+02  0.36773360315E+02  0.00000000000E+00 0.  1.
</event>
