<event>
 7    1  0.4083500E-009  0.4778727E+02  0.7816164E-02  0.1312668E+00
        -11   -1    0    0    0    0  0.00000000000E+00  0.00000000000E+00  0.45593999997E+02  0.45594000000E+02  0.51100000000E-03 0.  1.
         11   -1    0    0    0    0 -0.00000000000E+00 -0.00000000000E+00 -0.45593999997E+02  0.45594000000E+02  0.51100000000E-03 0. -1.
    9900012    2    1    2    0    0 -0.27292541517E+02 -0.22713249890E+01 -0.33668704844E+02  0.47787269297E+02  0.19999992034E+02 0.  0.
        -12    1    1    2    0    0  0.27292541517E+02  0.22713249890E+01  0.33668704844E+02  0.43400730703E+02  0.00000000000E+00 0.  1.
         11    1    3    3    0    0 -0.34069619372E+01  0.10167837956E+01 -0.86149126845E+01  0.93197617862E+01  0.51100000000E-03 0. -1.
        -11    1    3    3    0    0 -0.19734728887E+02  0.19564717334E+01 -0.10475631768E+02  0.22428244851E+02  0.51100000000E-03 0.  1.
        -12    1    3    3    0    0 -0.41508506929E+01 -0.52445805181E+01 -0.14578160392E+02  0.16039262661E+02  0.00000000000E+00 0.  1.
</event>
<event>
 7    1  0.4083500E-009  0.4778727E+02  0.7816164E-02  0.1312668E+00
        -11   -1    0    0    0    0  0.00000000000E+00  0.00000000000E+00  0.45593999997E+02  0.45594000000E+02  0.51100000000E-03 0.  1.
         11   -1    0    0    0    0 -0.00000000000E+00 -0.00000000000E+00 -0.45593999997E+02  0.45594000000E+02  0.51100000000E-03 0. -1.
    9900012    2    1    2    0    0  0.78028691479E+01  0.25337910350E+02 -0.34361737482E+02  0.47787268778E+02  0.19999989665E+02 0.  0.
        -12    1    1    2    0    0 -0.78028691479E+01 -0.25337910350E+02  0.34361737482E+02  0.43400731222E+02  0.00000000000E+00 0.  1.
         11    1    3    3    0    0  0.12657548911E+01  0.31427493732E+00 -0.93481218605E+01  0.94386591612E+01  0.51100000000E-03 0. -1.
        -11    1    3    3    0    0 -0.40192960215E+01  0.68696452822E+01 -0.54369484447E+01  0.96388368314E+01  0.51100000000E-03 0.  1.
        -12    1    3    3    0    0  0.10556410278E+02  0.18153990130E+02 -0.19576667177E+02  0.28709772785E+02  0.00000000000E+00 0.  1.
</event>
<event>
 7    1  0.4083500E-009  0.4778728E+02  0.7816164E-02  0.1312668E+00
        -11   -1    0    0    0    0  0.00000000000E+00  0.00000000000E+00  0.45593999997E+02  0.45594000000E+02  0.51100000000E-03 0.  1.
         11   -1    0    0    0    0 -0.00000000000E+00 -0.00000000000E+00 -0.45593999997E+02  0.45594000000E+02  0.51100000000E-03 0. -1.
    9900012    2    1    2    0    0 -0.97347107478E+01 -0.22635846984E+02 -0.35727805606E+02  0.47787282777E+02  0.20000053494E+02 0.  0.
        -12    1    1    2    0    0  0.97347107478E+01  0.22635846984E+02  0.35727805606E+02  0.43400717223E+02  0.00000000000E+00 0.  1.
         11    1    3    3    0    0 -0.56481604833E+01 -0.25247016437E+01 -0.34605953896E+01  0.70888331865E+01  0.51100000000E-03 0. -1.
        -11    1    3    3    0    0  0.39428362289E+01 -0.83712981836E+01 -0.66410341302E+01  0.11389816741E+02  0.51100000000E-03 0.  1.
         12    1    3    3    0    0 -0.80293864934E+01 -0.11739847157E+02 -0.25626176086E+02  0.29308632850E+02  0.00000000000E+00 0. -1.
</event>
<event>
 7    1  0.4083500E-009  0.4778727E+02  0.7816164E-02  0.1312668E+00
        -11   -1    0    0    0    0  0.00000000000E+00  0.00000000000E+00  0.45593999997E+02  0.45594000000E+02  0.51100000000E-03 0.  1.
         11   -1    0    0    0    0 -0.00000000000E+00 -0.00000000000E+00 -0.45593999997E+02  0.45594000000E+02  0.51100000000E-03 0. -1.
    9900012    2    1    2    0    0  0.17851560756E+02  0.28231832476E+02 -0.27711173644E+02  0.47787265777E+02  0.19999975983E+02 0.  0.
        -12    1    1    2    0    0 -0.17851560756E+02 -0.28231832476E+02  0.27711173644E+02  0.43400734223E+02  0.00000000000E+00 0.  1.
         11    1    3    3    0    0  0.92069425472E+01  0.10112050940E+02 -0.15187881406E+02  0.20437541612E+02  0.51100000000E-03 0.  1.
        -11    1    3    3    0    0  0.68107299621E+01  0.10272120804E+02 -0.14521415116E+02  0.19046627147E+02  0.51100000000E-03 0. -1.
        -12    1    3    3    0    0  0.18338882463E+01  0.78476607319E+01  0.19981228776E+01  0.83030970184E+01  0.00000000000E+00 0.  1.
</event>
<event>
 7    1  0.4083500E-009  0.4778727E+02  0.7816164E-02  0.1312668E+00
        -11   -1    0    0    0    0  0.00000000000E+00  0.00000000000E+00  0.45593999997E+02  0.45594000000E+02  0.51100000000E-03 0.  1.
         11   -1    0    0    0    0 -0.00000000000E+00 -0.00000000000E+00 -0.45593999997E+02  0.45594000000E+02  0.51100000000E-03 0. -1.
    9900012    2    1    2    0    0  0.37505482188E+02  0.55436795194E+00 -0.21832433009E+02  0.47787266722E+02  0.19999980293E+02 0.  0.
        -12    1    1    2    0    0 -0.37505482188E+02 -0.55436795194E+00  0.21832433009E+02  0.43400733278E+02  0.00000000000E+00 0.  1.
         11    1    3    3    0    0  0.26963292743E+02 -0.34560751701E+01 -0.64215933797E+01  0.27932068898E+02  0.51100000000E-03 0. -1.
        -11    1    3    3    0    0 -0.24823566750E+00  0.12365033880E+01 -0.84984772207E+00  0.15207902508E+01  0.51100000000E-03 0.  1.
         12    1    3    3    0    0  0.10790425112E+02  0.27739397340E+01 -0.14560991907E+02  0.18334407573E+02  0.00000000000E+00 0. -1.
</event>
<event>
 7    1  0.4083500E-009  0.4778727E+02  0.7816164E-02  0.1312668E+00
        -11   -1    0    0    0    0  0.00000000000E+00  0.00000000000E+00  0.45593999997E+02  0.45594000000E+02  0.51100000000E-03 0. -1.
         11   -1    0    0    0    0 -0.00000000000E+00 -0.00000000000E+00 -0.45593999997E+02  0.45594000000E+02  0.51100000000E-03 0.  1.
    9900012    2    1    2    0    0 -0.14392484475E+02  0.90052720169E+01  0.39942269792E+02  0.47787269020E+02  0.19999990769E+02 0.  0.
        -12    1    1    2    0    0  0.14392484475E+02 -0.90052720169E+01 -0.39942269792E+02  0.43400730980E+02  0.00000000000E+00 0.  1.
         11    1    3    3    0    0 -0.51208695818E+01  0.34250106818E+01  0.18986438130E+02  0.19960932758E+02  0.51100000000E-03 0. -1.
        -11    1    3    3    0    0 -0.43007931892E+01 -0.49874748371E+01  0.84871136513E+01  0.10742570721E+02  0.51100000000E-03 0.  1.
         12    1    3    3    0    0 -0.49708217045E+01  0.10567736172E+02  0.12468718010E+02  0.17083765541E+02  0.00000000000E+00 0. -1.
</event>
<event>
 7    1  0.4083500E-009  0.4778727E+02  0.7816164E-02  0.1312668E+00
        -11   -1    0    0    0    0  0.00000000000E+00  0.00000000000E+00  0.45593999997E+02  0.45594000000E+02  0.51100000000E-03 0.  1.
         11   -1    0    0    0    0 -0.00000000000E+00 -0.00000000000E+00 -0.45593999997E+02  0.45594000000E+02  0.51100000000E-03 0. -1.
    9900012    2    1    2    0    0 -0.82981994008E+01 -0.31096438492E+01 -0.42486387583E+02  0.47787272724E+02  0.20000007660E+02 0.  0.
        -12    1    1    2    0    0  0.82981994008E+01  0.31096438492E+01  0.42486387583E+02  0.43400727276E+02  0.00000000000E+00 0.  1.
         11    1    3    3    0    0 -0.31591709128E+01 -0.22322977478E+01 -0.69130167538E+01  0.79216989965E+01  0.51100000000E-03 0. -1.
        -11    1    3    3    0    0  0.61654617771E+01  0.15785615142E+01 -0.14241904373E+02  0.15599250488E+02  0.51100000000E-03 0.  1.
        -12    1    3    3    0    0 -0.11304490265E+02 -0.24559076156E+01 -0.21331466457E+02  0.24266323240E+02  0.00000000000E+00 0.  1.
</event>
<event>
 7    1  0.4083500E-009  0.4778726E+02  0.7816164E-02  0.1312668E+00
        -11   -1    0    0    0    0  0.00000000000E+00  0.00000000000E+00  0.45593999997E+02  0.45594000000E+02  0.51100000000E-03 0. -1.
         11   -1    0    0    0    0 -0.00000000000E+00 -0.00000000000E+00 -0.45593999997E+02  0.45594000000E+02  0.51100000000E-03 0.  1.
    9900012    2    1    2    0    0  0.26191101974E+02  0.34198769426E+02  0.53004081528E+01  0.47787262916E+02  0.19999962937E+02 0.  0.
        -12    1    1    2    0    0 -0.26191101974E+02 -0.34198769426E+02 -0.53004081528E+01  0.43400737084E+02  0.00000000000E+00 0.  1.
         11    1    3    3    0    0  0.11214996015E+01  0.13896053692E+02  0.62646587731E+01  0.15284110028E+02  0.51100000000E-03 0.  1.
        -11    1    3    3    0    0  0.12638658072E+02  0.80748612938E+01  0.48696678108E+00  0.15005872173E+02  0.51100000000E-03 0. -1.
        -12    1    3    3    0    0  0.12430944301E+02  0.12227854441E+02 -0.14512174014E+01  0.17497280714E+02  0.00000000000E+00 0.  1.
</event>
<event>
 7    1  0.4083500E-009  0.4778727E+02  0.7816164E-02  0.1312668E+00
        -11   -1    0    0    0    0  0.00000000000E+00  0.00000000000E+00  0.45593999997E+02  0.45594000000E+02  0.51100000000E-03 0. -1.
         11   -1    0    0    0    0 -0.00000000000E+00 -0.00000000000E+00 -0.45593999997E+02  0.45594000000E+02  0.51100000000E-03 0.  1.
    9900012    2    1    2    0    0  0.33388620168E+02 -0.20890894504E+02  0.18231666537E+02  0.47787273110E+02  0.20000009417E+02 0.  0.
        -12    1    1    2    0    0 -0.33388620168E+02  0.20890894504E+02 -0.18231666537E+02  0.43400726890E+02  0.00000000000E+00 0.  1.
         11    1    3    3    0    0  0.87394089775E+01 -0.18744483188E+01 -0.28027443532E+00  0.89425600247E+01  0.51100000000E-03 0. -1.
        -11    1    3    3    0    0  0.13580932418E+02 -0.40356578150E+01  0.27232077891E+01  0.14427200708E+02  0.51100000000E-03 0.  1.
         12    1    3    3    0    0  0.11068278772E+02 -0.14980788370E+02  0.15788733183E+02  0.24417512377E+02  0.00000000000E+00 0. -1.
</event>
<event>
 7    1  0.4083500E-009  0.4778727E+02  0.7816164E-02  0.1312668E+00
        -11   -1    0    0    0    0  0.00000000000E+00  0.00000000000E+00  0.45593999997E+02  0.45594000000E+02  0.51100000000E-03 0. -1.
         11   -1    0    0    0    0 -0.00000000000E+00 -0.00000000000E+00 -0.45593999997E+02  0.45594000000E+02  0.51100000000E-03 0.  1.
    9900012    2    1    2    0    0  0.25713681312E+02  0.26943181571E+02  0.22282159907E+02  0.47787273164E+02  0.20000009663E+02 0.  0.
        -12    1    1    2    0    0 -0.25713681312E+02 -0.26943181571E+02 -0.22282159907E+02  0.43400726836E+02  0.00000000000E+00 0.  1.
         11    1    3    3    0    0  0.21513592773E+02  0.17998547505E+02  0.62345161736E+01  0.28734153519E+02  0.51100000000E-03 0.  1.
        -11    1    3    3    0    0  0.37862230843E+00  0.31833758948E+01  0.36484428086E+01  0.48567861934E+01  0.51100000000E-03 0. -1.
        -12    1    3    3    0    0  0.38214662299E+01  0.57612581716E+01  0.12399200925E+02  0.14196333451E+02  0.00000000000E+00 0.  1.
</event>
<event>
 7    1  0.4083500E-009  0.4778728E+02  0.7816164E-02  0.1312668E+00
        -11   -1    0    0    0    0  0.00000000000E+00  0.00000000000E+00  0.45593999997E+02  0.45594000000E+02  0.51100000000E-03 0.  1.
         11   -1    0    0    0    0 -0.00000000000E+00 -0.00000000000E+00 -0.45593999997E+02  0.45594000000E+02  0.51100000000E-03 0. -1.
    9900012    2    1    2    0    0 -0.21379699643E+02  0.37767950906E+02  0.33562196994E+00  0.47787282096E+02  0.20000050390E+02 0.  0.
        -12    1    1    2    0    0  0.21379699643E+02 -0.37767950906E+02 -0.33562196994E+00  0.43400717904E+02  0.00000000000E+00 0.  1.
         11    1    3    3    0    0 -0.75869886498E+01  0.24331592424E+02 -0.74422958169E+01  0.26551394577E+02  0.51100000000E-03 0. -1.
        -11    1    3    3    0    0 -0.91823077152E+01  0.10713073591E+02  0.39451921554E+01  0.14650913355E+02  0.51100000000E-03 0.  1.
         12    1    3    3    0    0 -0.46104032778E+01  0.27232848902E+01  0.38327256315E+01  0.65849741642E+01  0.00000000000E+00 0. -1.
</event>
<event>
 7    1  0.4083500E-009  0.4778727E+02  0.7816164E-02  0.1312668E+00
        -11   -1    0    0    0    0  0.00000000000E+00  0.00000000000E+00  0.45593999997E+02  0.45594000000E+02  0.51100000000E-03 0.  1.
         11   -1    0    0    0    0 -0.00000000000E+00 -0.00000000000E+00 -0.45593999997E+02  0.45594000000E+02  0.51100000000E-03 0. -1.
    9900012    2    1    2    0    0 -0.26780484611E+02  0.21858099712E+02 -0.26242185646E+02  0.47787272051E+02  0.20000004589E+02 0.  0.
        -12    1    1    2    0    0  0.26780484611E+02 -0.21858099712E+02  0.26242185646E+02  0.43400727949E+02  0.00000000000E+00 0.  1.
         11    1    3    3    0    0  0.25948420185E+01  0.81992875716E+00 -0.86632876152E-01  0.27226813593E+01  0.51100000000E-03 0. -1.
        -11    1    3    3    0    0 -0.85822249118E+01  0.96550943896E+01 -0.78704262708E+01  0.15126765750E+02  0.51100000000E-03 0.  1.
         12    1    3    3    0    0 -0.20793101718E+02  0.11383076565E+02 -0.18285126499E+02  0.29937824942E+02  0.00000000000E+00 0. -1.
</event>
<event>
 7    1  0.4083500E-009  0.4778727E+02  0.7816164E-02  0.1312668E+00
        -11   -1    0    0    0    0  0.00000000000E+00  0.00000000000E+00  0.45593999997E+02  0.45594000000E+02  0.51100000000E-03 0. -1.
         11   -1    0    0    0    0 -0.00000000000E+00 -0.00000000000E+00 -0.45593999997E+02  0.45594000000E+02  0.51100000000E-03 0.  1.
    9900012    2    1    2    0    0  0.11263728716E+02 -0.31095101584E+02 -0.28104205911E+02  0.47787270548E+02  0.19999997736E+02 0.  0.
        -12    1    1    2    0    0 -0.11263728716E+02  0.31095101584E+02  0.28104205911E+02  0.43400729452E+02  0.00000000000E+00 0.  1.
         11    1    3    3    0    0  0.96929555657E+01 -0.19664623253E+02 -0.99206447886E+01  0.24063873099E+02  0.51100000000E-03 0. -1.
        -11    1    3    3    0    0 -0.25867780227E+00 -0.12009177574E+02 -0.10998812594E+02  0.16286839440E+02  0.51100000000E-03 0.  1.
        -12    1    3    3    0    0  0.18294509526E+01  0.57869924254E+00 -0.71847485279E+01  0.74365580083E+01  0.00000000000E+00 0.  1.
</event>
<event>
 7    1  0.4083500E-009  0.4778727E+02  0.7816164E-02  0.1312668E+00
        -11   -1    0    0    0    0  0.00000000000E+00  0.00000000000E+00  0.45593999997E+02  0.45594000000E+02  0.51100000000E-03 0.  1.
         11   -1    0    0    0    0 -0.00000000000E+00 -0.00000000000E+00 -0.45593999997E+02  0.45594000000E+02  0.51100000000E-03 0. -1.
    9900012    2    1    2    0    0 -0.66144883806E+01 -0.11473628925E+02 -0.41330709252E+02  0.47787272535E+02  0.20000006797E+02 0.  0.
        -12    1    1    2    0    0  0.66144883806E+01  0.11473628925E+02  0.41330709252E+02  0.43400727465E+02  0.00000000000E+00 0.  1.
         11    1    3    3    0    0  0.31070471572E+01 -0.33674396552E+01 -0.41223998214E+01  0.61634059105E+01  0.51100000000E-03 0. -1.
        -11    1    3    3    0    0 -0.58598817988E+01 -0.52096781689E+01 -0.55662774172E+01  0.96157374062E+01  0.51100000000E-03 0.  1.
         12    1    3    3    0    0 -0.38616537390E+01 -0.28965111004E+01 -0.31642032013E+02  0.32008129218E+02  0.00000000000E+00 0. -1.
</event>
<event>
 7    1  0.4083500E-009  0.4778727E+02  0.7816164E-02  0.1312668E+00
        -11   -1    0    0    0    0  0.00000000000E+00  0.00000000000E+00  0.45593999997E+02  0.45594000000E+02  0.51100000000E-03 0. -1.
         11   -1    0    0    0    0 -0.00000000000E+00 -0.00000000000E+00 -0.45593999997E+02  0.45594000000E+02  0.51100000000E-03 0.  1.
    9900012    2    1    2    0    0  0.47832422749E+01  0.33118898574E+01  0.43009010618E+02  0.47787274022E+02  0.20000013574E+02 0.  0.
        -12    1    1    2    0    0 -0.47832422749E+01 -0.33118898574E+01 -0.43009010618E+02  0.43400725978E+02  0.00000000000E+00 0.  1.
         11    1    3    3    0    0  0.80581733282E+00 -0.21386662406E+01  0.19804765734E+01  0.30241565074E+01  0.51100000000E-03 0. -1.
        -11    1    3    3    0    0  0.77190934019E+01 -0.32281659012E+01  0.17144952474E+02  0.19077600835E+02  0.51100000000E-03 0.  1.
         12    1    3    3    0    0 -0.37416684599E+01  0.86787219992E+01  0.23883581571E+02  0.25685516679E+02  0.00000000000E+00 0. -1.
</event>
<event>
 7    1  0.4083500E-009  0.4778727E+02  0.7816164E-02  0.1312668E+00
        -11   -1    0    0    0    0  0.00000000000E+00  0.00000000000E+00  0.45593999997E+02  0.45594000000E+02  0.51100000000E-03 0.  1.
         11   -1    0    0    0    0 -0.00000000000E+00 -0.00000000000E+00 -0.45593999997E+02  0.45594000000E+02  0.51100000000E-03 0. -1.
    9900012    2    1    2    0    0 -0.89315615706E+01  0.29807471733E+02 -0.30255002798E+02  0.47787270081E+02  0.19999995609E+02 0.  0.
        -12    1    1    2    0    0  0.89315615706E+01 -0.29807471733E+02  0.30255002798E+02  0.43400729919E+02  0.00000000000E+00 0.  1.
         11    1    3    3    0    0  0.82126044990E+00  0.79207978587E+01 -0.16970295422E+02  0.18745784444E+02  0.51100000000E-03 0. -1.
        -11    1    3    3    0    0 -0.56227285048E+01  0.33270465378E+01 -0.53269737446E+01  0.84297665472E+01  0.51100000000E-03 0.  1.
         12    1    3    3    0    0 -0.41300935157E+01  0.18559627336E+02 -0.79577336312E+01  0.20611719090E+02  0.00000000000E+00 0. -1.
</event>
<event>
 7    1  0.4083500E-009  0.4778731E+02  0.7816164E-02  0.1312668E+00
        -11   -1    0    0    0    0  0.00000000000E+00  0.00000000000E+00  0.45593999997E+02  0.45594000000E+02  0.51100000000E-03 0.  1.
         11   -1    0    0    0    0 -0.00000000000E+00 -0.00000000000E+00 -0.45593999997E+02  0.45594000000E+02  0.51100000000E-03 0. -1.
    9900012    2    1    2    0    0 -0.10237233570E+02 -0.36283507050E+02 -0.21501760998E+02  0.47787313818E+02  0.20000195023E+02 0.  0.
        -12    1    1    2    0    0  0.10237233570E+02  0.36283507050E+02  0.21501760998E+02  0.43400686182E+02  0.00000000000E+00 0.  1.
         11    1    3    3    0    0  0.26452409531E+01 -0.18531700266E+02 -0.42811431977E+01  0.19202848793E+02  0.51100000000E-03 0. -1.
        -11    1    3    3    0    0 -0.24171338449E+01 -0.74863157445E+00 -0.58661432186E+00  0.25975184084E+01  0.51100000000E-03 0.  1.
         12    1    3    3    0    0 -0.10465340679E+02 -0.17003175209E+02 -0.16634003479E+02  0.25986946617E+02  0.00000000000E+00 0. -1.
</event>
<event>
 7    1  0.4083500E-009  0.4778727E+02  0.7816164E-02  0.1312668E+00
        -11   -1    0    0    0    0  0.00000000000E+00  0.00000000000E+00  0.45593999997E+02  0.45594000000E+02  0.51100000000E-03 0.  1.
         11   -1    0    0    0    0 -0.00000000000E+00 -0.00000000000E+00 -0.45593999997E+02  0.45594000000E+02  0.51100000000E-03 0. -1.
    9900012    2    1    2    0    0 -0.12872540568E+01  0.19853008833E+02 -0.38572326090E+02  0.47787270482E+02  0.19999997435E+02 0.  0.
        -12    1    1    2    0    0  0.12872540568E+01 -0.19853008833E+02  0.38572326090E+02  0.43400729518E+02  0.00000000000E+00 0.  1.
         11    1    3    3    0    0  0.44177538714E+01  0.95337383365E+01 -0.10679409186E+02  0.14981939019E+02  0.51100000000E-03 0. -1.
        -11    1    3    3    0    0  0.39982714152E+01  0.27558699193E+01 -0.96295706423E+01  0.10784693984E+02  0.51100000000E-03 0.  1.
        -12    1    3    3    0    0 -0.97032793434E+01  0.75634005771E+01 -0.18263346261E+02  0.22020637478E+02  0.00000000000E+00 0.  1.
</event>
<event>
 7    1  0.4083500E-009  0.4778727E+02  0.7816164E-02  0.1312668E+00
        -11   -1    0    0    0    0  0.00000000000E+00  0.00000000000E+00  0.45593999997E+02  0.45594000000E+02  0.51100000000E-03 0.  1.
         11   -1    0    0    0    0 -0.00000000000E+00 -0.00000000000E+00 -0.45593999997E+02  0.45594000000E+02  0.51100000000E-03 0. -1.
    9900012    2    1    2    0    0  0.17659353379E+02 -0.38715784080E+02 -0.85357311092E+01  0.47787269542E+02  0.19999993150E+02 0.  0.
        -12    1    1    2    0    0 -0.17659353379E+02  0.38715784080E+02  0.85357311092E+01  0.43400730458E+02  0.00000000000E+00 0.  1.
         11    1    3    3    0    0  0.34390519653E+01 -0.26724213433E+02 -0.47698149876E+01  0.27363512153E+02  0.51100000000E-03 0. -1.
        -11    1    3    3    0    0  0.76493595647E+00 -0.43427148230E+00  0.16568472953E+01  0.18758629905E+01  0.51100000000E-03 0.  1.
        -12    1    3    3    0    0  0.13455365457E+02 -0.11557299165E+02 -0.54227634169E+01  0.18547894399E+02  0.00000000000E+00 0.  1.
</event>
<event>
 7    1  0.4083500E-009  0.4778727E+02  0.7816164E-02  0.1312668E+00
        -11   -1    0    0    0    0  0.00000000000E+00  0.00000000000E+00  0.45593999997E+02  0.45594000000E+02  0.51100000000E-03 0.  1.
         11   -1    0    0    0    0 -0.00000000000E+00 -0.00000000000E+00 -0.45593999997E+02  0.45594000000E+02  0.51100000000E-03 0. -1.
    9900012    2    1    2    0    0 -0.12019237276E+02  0.21919522277E+02 -0.35478101791E+02  0.47787271570E+02  0.20000002397E+02 0.  0.
        -12    1    1    2    0    0  0.12019237276E+02 -0.21919522277E+02  0.35478101791E+02  0.43400728430E+02  0.00000000000E+00 0.  1.
         11    1    3    3    0    0 -0.61309931879E+01  0.64541816118E+01 -0.17070850512E+02  0.19252518672E+02  0.51100000000E-03 0. -1.
        -11    1    3    3    0    0 -0.69993529245E+01  0.16205612169E+01 -0.99517057407E+01  0.12274103121E+02  0.51100000000E-03 0.  1.
        -12    1    3    3    0    0  0.11111088363E+01  0.13844779449E+02 -0.84555455381E+01  0.16260649777E+02  0.00000000000E+00 0.  1.
</event>
<event>
 7    1  0.4083500E-009  0.4778727E+02  0.7816164E-02  0.1312668E+00
        -11   -1    0    0    0    0  0.00000000000E+00  0.00000000000E+00  0.45593999997E+02  0.45594000000E+02  0.51100000000E-03 0. -1.
         11   -1    0    0    0    0 -0.00000000000E+00 -0.00000000000E+00 -0.45593999997E+02  0.45594000000E+02  0.51100000000E-03 0.  1.
    9900012    2    1    2    0    0 -0.10405631670E+02 -0.42134273895E+02  0.22169799672E+00  0.47787270085E+02  0.19999995627E+02 0.  0.
        -12    1    1    2    0    0  0.10405631670E+02  0.42134273895E+02 -0.22169799672E+00  0.43400729915E+02  0.00000000000E+00 0.  1.
         11    1    3    3    0    0  0.92070075198E+00 -0.42683986010E+01  0.39442742038E+01  0.58842345082E+01  0.51100000000E-03 0. -1.
        -11    1    3    3    0    0 -0.61251248689E+01 -0.31720592497E+02  0.14407759326E+01  0.32338660742E+02  0.51100000000E-03 0.  1.
        -12    1    3    3    0    0 -0.52012075535E+01 -0.61452827971E+01 -0.51633521397E+01  0.95643748352E+01  0.00000000000E+00 0.  1.
</event>
<event>
 7    1  0.4083500E-009  0.4778728E+02  0.7816164E-02  0.1312668E+00
        -11   -1    0    0    0    0  0.00000000000E+00  0.00000000000E+00  0.45593999997E+02  0.45594000000E+02  0.51100000000E-03 0.  1.
         11   -1    0    0    0    0 -0.00000000000E+00 -0.00000000000E+00 -0.45593999997E+02  0.45594000000E+02  0.51100000000E-03 0. -1.
    9900012    2    1    2    0    0 -0.92626329337E+01 -0.25637144791E+02  0.33772218444E+02  0.47787282258E+02  0.20000051127E+02 0.  0.
        -12    1    1    2    0    0  0.92626329337E+01  0.25637144791E+02 -0.33772218444E+02  0.43400717742E+02  0.00000000000E+00 0.  1.
         11    1    3    3    0    0 -0.12285062243E+01 -0.50399816522E+00 -0.11808955774E+01  0.17770076870E+01  0.51100000000E-03 0. -1.
        -11    1    3    3    0    0  0.29457454078E+01 -0.63758534638E+01  0.14746579081E+02  0.16333723343E+02  0.51100000000E-03 0.  1.
        -12    1    3    3    0    0 -0.10979872117E+02 -0.18757293162E+02  0.20206534940E+02  0.29676551228E+02  0.00000000000E+00 0.  1.
</event>
<event>
 7    1  0.4083500E-009  0.4778726E+02  0.7816164E-02  0.1312668E+00
        -11   -1    0    0    0    0  0.00000000000E+00  0.00000000000E+00  0.45593999997E+02  0.45594000000E+02  0.51100000000E-03 0.  1.
         11   -1    0    0    0    0 -0.00000000000E+00 -0.00000000000E+00 -0.45593999997E+02  0.45594000000E+02  0.51100000000E-03 0. -1.
    9900012    2    1    2    0    0  0.44866421420E+01 -0.10528199189E+02 -0.41864679734E+02  0.47787258703E+02  0.19999943730E+02 0.  0.
        -12    1    1    2    0    0 -0.44866421420E+01  0.10528199189E+02  0.41864679734E+02  0.43400741297E+02  0.00000000000E+00 0.  1.
         11    1    3    3    0    0  0.67834031006E+01 -0.35644648440E+01 -0.10039622411E+02  0.12629884626E+02  0.51100000000E-03 0. -1.
        -11    1    3    3    0    0  0.19692457283E+01  0.89635916642E+00 -0.67598863336E-01  0.21647074539E+01  0.51100000000E-03 0.  1.
         12    1    3    3    0    0 -0.42660066868E+01 -0.78600935112E+01 -0.31757458460E+02  0.32992666623E+02  0.00000000000E+00 0. -1.
</event>
<event>
 7    1  0.4083500E-009  0.4778729E+02  0.7816164E-02  0.1312668E+00
        -11   -1    0    0    0    0  0.00000000000E+00  0.00000000000E+00  0.45593999997E+02  0.45594000000E+02  0.51100000000E-03 0.  1.
         11   -1    0    0    0    0 -0.00000000000E+00 -0.00000000000E+00 -0.45593999997E+02  0.45594000000E+02  0.51100000000E-03 0. -1.
    9900012    2    1    2    0    0 -0.34974862495E+01  0.18711449123E+02 -0.39003467487E+02  0.47787294772E+02  0.20000108181E+02 0.  0.
        -12    1    1    2    0    0  0.34974862495E+01 -0.18711449123E+02  0.39003467487E+02  0.43400705228E+02  0.00000000000E+00 0.  1.
         11    1    3    3    0    0  0.13057277020E+00  0.18827286278E+01 -0.67925266989E+00  0.20057668820E+01  0.51100000000E-03 0. -1.
        -11    1    3    3    0    0 -0.58968313282E+01  0.65096960228E+01 -0.36122215051E+01  0.94972051933E+01  0.51100000000E-03 0.  1.
         12    1    3    3    0    0  0.22687723084E+01  0.10319024472E+02 -0.34711993312E+02  0.36284322696E+02  0.00000000000E+00 0. -1.
</event>
<event>
 7    1  0.4083500E-009  0.4778727E+02  0.7816164E-02  0.1312668E+00
        -11   -1    0    0    0    0  0.00000000000E+00  0.00000000000E+00  0.45593999997E+02  0.45594000000E+02  0.51100000000E-03 0. -1.
         11   -1    0    0    0    0 -0.00000000000E+00 -0.00000000000E+00 -0.45593999997E+02  0.45594000000E+02  0.51100000000E-03 0.  1.
    9900012    2    1    2    0    0  0.10356417955E+02  0.79432801254E+01  0.41391689088E+02  0.47787273997E+02  0.20000013462E+02 0.  0.
        -12    1    1    2    0    0 -0.10356417955E+02 -0.79432801254E+01 -0.41391689088E+02  0.43400726003E+02  0.00000000000E+00 0.  1.
         11    1    3    3    0    0  0.40967338609E+01  0.25653754977E+01  0.30802897208E+01  0.57317156940E+01  0.51100000000E-03 0. -1.
        -11    1    3    3    0    0  0.31218141462E+01  0.69141560848E+01  0.63198276062E+01  0.98737783630E+01  0.51100000000E-03 0.  1.
         12    1    3    3    0    0  0.31378699478E+01 -0.15362514572E+01  0.31991571761E+02  0.32181779940E+02  0.00000000000E+00 0. -1.
</event>
<event>
 7    1  0.4083500E-009  0.4778727E+02  0.7816164E-02  0.1312668E+00
        -11   -1    0    0    0    0  0.00000000000E+00  0.00000000000E+00  0.45593999997E+02  0.45594000000E+02  0.51100000000E-03 0.  1.
         11   -1    0    0    0    0 -0.00000000000E+00 -0.00000000000E+00 -0.45593999997E+02  0.45594000000E+02  0.51100000000E-03 0. -1.
    9900012    2    1    2    0    0  0.42055436581E+02 -0.49120076133E+01 -0.95307673568E+01  0.47787273149E+02  0.20000009595E+02 0.  0.
        -12    1    1    2    0    0 -0.42055436581E+02  0.49120076133E+01  0.95307673568E+01  0.43400726851E+02  0.00000000000E+00 0.  1.
         11    1    3    3    0    0  0.15793567490E+02 -0.41561013889E+01 -0.57058124036E+01  0.17299313520E+02  0.51100000000E-03 0. -1.
        -11    1    3    3    0    0  0.20137961771E+02 -0.22109291978E+01 -0.91630345925E+01  0.22234813141E+02  0.51100000000E-03 0.  1.
        -12    1    3    3    0    0  0.61239073191E+01  0.14550229733E+01  0.53380796393E+01  0.82531464873E+01  0.00000000000E+00 0.  1.
</event>
<event>
 7    1  0.4083500E-009  0.4778726E+02  0.7816164E-02  0.1312668E+00
        -11   -1    0    0    0    0  0.00000000000E+00  0.00000000000E+00  0.45593999997E+02  0.45594000000E+02  0.51100000000E-03 0.  1.
         11   -1    0    0    0    0 -0.00000000000E+00 -0.00000000000E+00 -0.45593999997E+02  0.45594000000E+02  0.51100000000E-03 0. -1.
    9900012    2    1    2    0    0 -0.24386654077E+02 -0.31768253268E+02 -0.16724038409E+02  0.47787259528E+02  0.19999947493E+02 0.  0.
        -12    1    1    2    0    0  0.24386654077E+02  0.31768253268E+02  0.16724038409E+02  0.43400740472E+02  0.00000000000E+00 0.  1.
         11    1    3    3    0    0 -0.11918791049E+02 -0.11232205923E+02 -0.36500602329E+01  0.16779242233E+02  0.51100000000E-03 0. -1.
        -11    1    3    3    0    0 -0.14796691063E+02 -0.13629935049E+02 -0.63608364913E+01  0.21099228350E+02  0.51100000000E-03 0.  1.
        -12    1    3    3    0    0  0.23288280345E+01 -0.69061122967E+01 -0.67131416853E+01  0.99087889449E+01  0.00000000000E+00 0.  1.
</event>
<event>
 7    1  0.4083500E-009  0.4778728E+02  0.7816164E-02  0.1312668E+00
        -11   -1    0    0    0    0  0.00000000000E+00  0.00000000000E+00  0.45593999997E+02  0.45594000000E+02  0.51100000000E-03 0.  1.
         11   -1    0    0    0    0 -0.00000000000E+00 -0.00000000000E+00 -0.45593999997E+02  0.45594000000E+02  0.51100000000E-03 0. -1.
    9900012    2    1    2    0    0 -0.47291443786E+01 -0.37487053803E+02 -0.21353647000E+02  0.47787282845E+02  0.20000053803E+02 0.  0.
        -12    1    1    2    0    0  0.47291443786E+01  0.37487053803E+02  0.21353647000E+02  0.43400717155E+02  0.00000000000E+00 0.  1.
         11    1    3    3    0    0 -0.28476002172E+01 -0.43632400247E+01 -0.46710061103E+00  0.52311445930E+01  0.51100000000E-03 0.  1.
        -11    1    3    3    0    0  0.49093693958E+00 -0.27550669287E+02 -0.86137405673E+01  0.28870000417E+02  0.51100000000E-03 0. -1.
         12    1    3    3    0    0 -0.23724811010E+01 -0.55731444907E+01 -0.12272805822E+02  0.13686137835E+02  0.00000000000E+00 0. -1.
</event>
<event>
 7    1  0.4083500E-009  0.4778726E+02  0.7816164E-02  0.1312668E+00
        -11   -1    0    0    0    0  0.00000000000E+00  0.00000000000E+00  0.45593999997E+02  0.45594000000E+02  0.51100000000E-03 0.  1.
         11   -1    0    0    0    0 -0.00000000000E+00 -0.00000000000E+00 -0.45593999997E+02  0.45594000000E+02  0.51100000000E-03 0. -1.
    9900012    2    1    2    0    0  0.37078859408E+02 -0.40152912556E+01 -0.22195934205E+02  0.47787264130E+02  0.19999968474E+02 0.  0.
        -12    1    1    2    0    0 -0.37078859408E+02  0.40152912556E+01  0.22195934205E+02  0.43400735870E+02  0.00000000000E+00 0.  1.
         11    1    3    3    0    0  0.13496783324E+02 -0.57626100283E+00 -0.10586041292E+02  0.17162736010E+02  0.51100000000E-03 0. -1.
        -11    1    3    3    0    0  0.22294601103E+02 -0.61204617811E+01 -0.13805276073E+02  0.26927586941E+02  0.51100000000E-03 0.  1.
        -12    1    3    3    0    0  0.12874749805E+01  0.26814315283E+01  0.21953831597E+01  0.36969411794E+01  0.00000000000E+00 0.  1.
</event>
<event>
 7    1  0.4083500E-009  0.4778727E+02  0.7816164E-02  0.1312668E+00
        -11   -1    0    0    0    0  0.00000000000E+00  0.00000000000E+00  0.45593999997E+02  0.45594000000E+02  0.51100000000E-03 0.  1.
         11   -1    0    0    0    0 -0.00000000000E+00 -0.00000000000E+00 -0.45593999997E+02  0.45594000000E+02  0.51100000000E-03 0. -1.
    9900012    2    1    2    0    0  0.24912452771E+01 -0.39758865209E+02 -0.17223518792E+02  0.47787271143E+02  0.20000000450E+02 0.  0.
        -12    1    1    2    0    0 -0.24912452771E+01  0.39758865209E+02  0.17223518792E+02  0.43400728857E+02  0.00000000000E+00 0.  1.
         11    1    3    3    0    0  0.43309698367E+01 -0.12864953699E+02 -0.10421074098E+02  0.17113243966E+02  0.51100000000E-03 0. -1.
        -11    1    3    3    0    0 -0.61372907976E+00  0.13464268483E+01  0.34088343339E+00  0.15184631762E+01  0.51100000000E-03 0.  1.
        -12    1    3    3    0    0 -0.12259954798E+01 -0.28240338358E+02 -0.71433281266E+01  0.29155564001E+02  0.00000000000E+00 0.  1.
</event>
<event>
 7    1  0.4083500E-009  0.4778727E+02  0.7816164E-02  0.1312668E+00
        -11   -1    0    0    0    0  0.00000000000E+00  0.00000000000E+00  0.45593999997E+02  0.45594000000E+02  0.51100000000E-03 0.  1.
         11   -1    0    0    0    0 -0.00000000000E+00 -0.00000000000E+00 -0.45593999997E+02  0.45594000000E+02  0.51100000000E-03 0. -1.
    9900012    2    1    2    0    0  0.44093530695E+01  0.24074236865E+02 -0.35841485843E+02  0.47787269793E+02  0.19999994293E+02 0.  0.
        -12    1    1    2    0    0 -0.44093530695E+01 -0.24074236865E+02  0.35841485843E+02  0.43400730207E+02  0.00000000000E+00 0.  1.
         11    1    3    3    0    0  0.33907888324E+01  0.65622466116E+01 -0.10993716341E+02  0.13244709462E+02  0.51100000000E-03 0. -1.
        -11    1    3    3    0    0  0.10330286269E+01  0.40174960467E+01  0.19159434123E+01  0.45692736895E+01  0.51100000000E-03 0.  1.
         12    1    3    3    0    0 -0.14464389866E-01  0.13494494207E+02 -0.26763712914E+02  0.29973286641E+02  0.00000000000E+00 0. -1.
</event>
<event>
 7    1  0.4083500E-009  0.4778731E+02  0.7816164E-02  0.1312668E+00
        -11   -1    0    0    0    0  0.00000000000E+00  0.00000000000E+00  0.45593999997E+02  0.45594000000E+02  0.51100000000E-03 0.  1.
         11   -1    0    0    0    0 -0.00000000000E+00 -0.00000000000E+00 -0.45593999997E+02  0.45594000000E+02  0.51100000000E-03 0. -1.
    9900012    2    1    2    0    0  0.40090693924E+02  0.16485449077E+02  0.21416202094E+01  0.47787305217E+02  0.20000155805E+02 0.  0.
        -12    1    1    2    0    0 -0.40090693924E+02 -0.16485449077E+02 -0.21416202094E+01  0.43400694783E+02  0.00000000000E+00 0.  1.
         11    1    3    3    0    0  0.30077849584E+02  0.95406781788E+01 -0.19206524028E+00  0.31555323877E+02  0.51100000000E-03 0. -1.
        -11    1    3    3    0    0  0.80352741495E+01  0.58020756515E+00  0.44952680731E+01  0.92254922246E+01  0.51100000000E-03 0.  1.
        -12    1    3    3    0    0  0.19775701905E+01  0.63645633331E+01 -0.21615826235E+01  0.70064891149E+01  0.00000000000E+00 0.  1.
</event>
<event>
 7    1  0.4083500E-009  0.4778727E+02  0.7816164E-02  0.1312668E+00
        -11   -1    0    0    0    0  0.00000000000E+00  0.00000000000E+00  0.45593999997E+02  0.45594000000E+02  0.51100000000E-03 0.  1.
         11   -1    0    0    0    0 -0.00000000000E+00 -0.00000000000E+00 -0.45593999997E+02  0.45594000000E+02  0.51100000000E-03 0. -1.
    9900012    2    1    2    0    0 -0.17612219359E+02  0.39006329460E+02 -0.72068865223E+01  0.47787271641E+02  0.20000002722E+02 0.  0.
        -12    1    1    2    0    0  0.17612219359E+02 -0.39006329460E+02  0.72068865223E+01  0.43400728359E+02  0.00000000000E+00 0.  1.
         11    1    3    3    0    0 -0.54285518823E+01  0.28312410779E+02 -0.69394720222E+01  0.29651611286E+02  0.51100000000E-03 0. -1.
        -11    1    3    3    0    0  0.43832425910E+00  0.34948863520E+01 -0.73211840014E+00  0.35975486629E+01  0.51100000000E-03 0.  1.
        -12    1    3    3    0    0 -0.12621991736E+02  0.71990323292E+01  0.46470390010E+00  0.14538111692E+02  0.00000000000E+00 0.  1.
</event>
<event>
 7    1  0.4083500E-009  0.4778727E+02  0.7816164E-02  0.1312668E+00
        -11   -1    0    0    0    0  0.00000000000E+00  0.00000000000E+00  0.45593999997E+02  0.45594000000E+02  0.51100000000E-03 0. -1.
         11   -1    0    0    0    0 -0.00000000000E+00 -0.00000000000E+00 -0.45593999997E+02  0.45594000000E+02  0.51100000000E-03 0.  1.
    9900012    2    1    2    0    0  0.35756621921E+02  0.12994653017E+02 -0.20886027581E+02  0.47787272284E+02  0.20000005651E+02 0.  0.
        -12    1    1    2    0    0 -0.35756621921E+02 -0.12994653017E+02  0.20886027581E+02  0.43400727716E+02  0.00000000000E+00 0.  1.
         11    1    3    3    0    0  0.32456474407E+01 -0.22082080729E+00  0.11924017767E+00  0.32553352545E+01  0.51100000000E-03 0. -1.
        -11    1    3    3    0    0  0.16196674281E+02  0.76682896953E+01 -0.20588817340E+02  0.27295316894E+02  0.51100000000E-03 0.  1.
         12    1    3    3    0    0  0.16314300199E+02  0.55471841287E+01 -0.41645041842E+00  0.17236620136E+02  0.00000000000E+00 0. -1.
</event>
<event>
 7    1  0.4083500E-009  0.4778727E+02  0.7816164E-02  0.1312668E+00
        -11   -1    0    0    0    0  0.00000000000E+00  0.00000000000E+00  0.45593999997E+02  0.45594000000E+02  0.51100000000E-03 0.  1.
         11   -1    0    0    0    0 -0.00000000000E+00 -0.00000000000E+00 -0.45593999997E+02  0.45594000000E+02  0.51100000000E-03 0. -1.
    9900012    2    1    2    0    0 -0.37962074839E+02  0.17579025925E+02  0.11553437546E+02  0.47787271922E+02  0.20000004001E+02 0.  0.
        -12    1    1    2    0    0  0.37962074839E+02 -0.17579025925E+02 -0.11553437546E+02  0.43400728078E+02  0.00000000000E+00 0.  1.
         11    1    3    3    0    0 -0.10437360582E+02  0.14248795548E+00  0.46253104583E+01  0.11417192993E+02  0.51100000000E-03 0.  1.
        -11    1    3    3    0    0 -0.12148707757E+02  0.24286954016E+01  0.81824505813E+01  0.14847294680E+02  0.51100000000E-03 0. -1.
         12    1    3    3    0    0 -0.15376006500E+02  0.15007842568E+02 -0.12543234940E+01  0.21522784250E+02  0.00000000000E+00 0. -1.
</event>
<event>
 7    1  0.4083500E-009  0.4778730E+02  0.7816164E-02  0.1312668E+00
        -11   -1    0    0    0    0  0.00000000000E+00  0.00000000000E+00  0.45593999997E+02  0.45594000000E+02  0.51100000000E-03 0.  1.
         11   -1    0    0    0    0 -0.00000000000E+00 -0.00000000000E+00 -0.45593999997E+02  0.45594000000E+02  0.51100000000E-03 0. -1.
    9900012    2    1    2    0    0  0.19660807261E+02  0.39889254940E+01 -0.38485871304E+02  0.47787295411E+02  0.20000111098E+02 0.  0.
        -12    1    1    2    0    0 -0.19660807261E+02 -0.39889254940E+01  0.38485871304E+02  0.43400704589E+02  0.00000000000E+00 0.  1.
         11    1    3    3    0    0  0.18523596871E+01  0.58221583279E+00  0.34194769909E+00  0.19715831650E+01  0.51100000000E-03 0. -1.
        -11    1    3    3    0    0  0.18332391170E+02  0.33463344956E+01 -0.21386720459E+02  0.28366641197E+02  0.51100000000E-03 0.  1.
         12    1    3    3    0    0 -0.52394359596E+00  0.60375165561E-01 -0.17441098544E+02  0.17449071049E+02  0.00000000000E+00 0. -1.
</event>
<event>
 7    1  0.4083500E-009  0.4778728E+02  0.7816164E-02  0.1312668E+00
        -11   -1    0    0    0    0  0.00000000000E+00  0.00000000000E+00  0.45593999997E+02  0.45594000000E+02  0.51100000000E-03 0.  1.
         11   -1    0    0    0    0 -0.00000000000E+00 -0.00000000000E+00 -0.45593999997E+02  0.45594000000E+02  0.51100000000E-03 0. -1.
    9900012    2    1    2    0    0 -0.37106554897E+01  0.22156230006E+02 -0.37134285880E+02  0.47787277886E+02  0.20000031193E+02 0.  0.
        -12    1    1    2    0    0  0.37106554897E+01 -0.22156230006E+02  0.37134285880E+02  0.43400722114E+02  0.00000000000E+00 0.  1.
         11    1    3    3    0    0  0.38538313942E+01  0.97640445975E+01 -0.12272150288E+02  0.16149125557E+02  0.51100000000E-03 0. -1.
        -11    1    3    3    0    0  0.15297062027E+01  0.89591344229E+01 -0.16400725161E+02  0.18750730032E+02  0.51100000000E-03 0.  1.
        -12    1    3    3    0    0 -0.90941930866E+01  0.34330509854E+01 -0.84614104314E+01  0.12887422297E+02  0.00000000000E+00 0.  1.
</event>
<event>
 7    1  0.4083500E-009  0.4778725E+02  0.7816164E-02  0.1312668E+00
        -11   -1    0    0    0    0  0.00000000000E+00  0.00000000000E+00  0.45593999997E+02  0.45594000000E+02  0.51100000000E-03 0. -1.
         11   -1    0    0    0    0 -0.00000000000E+00 -0.00000000000E+00 -0.45593999997E+02  0.45594000000E+02  0.51100000000E-03 0.  1.
    9900012    2    1    2    0    0 -0.36878502896E+02 -0.11427772742E+02  0.19824402343E+02  0.47787252381E+02  0.19999914904E+02 0.  0.
        -12    1    1    2    0    0  0.36878502896E+02  0.11427772742E+02 -0.19824402343E+02  0.43400747619E+02  0.00000000000E+00 0.  1.
         11    1    3    3    0    0 -0.45018223794E+01 -0.42298203815E+00  0.38246717611E+01  0.59222827424E+01  0.51100000000E-03 0. -1.
        -11    1    3    3    0    0 -0.14728576738E+01 -0.63888858801E+01 -0.41414755030E+00  0.65695274541E+01  0.51100000000E-03 0.  1.
        -12    1    3    3    0    0 -0.30903822843E+02 -0.46159048238E+01  0.16413878132E+02  0.35295442184E+02  0.00000000000E+00 0.  1.
</event>
<event>
 7    1  0.4083500E-009  0.4778727E+02  0.7816164E-02  0.1312668E+00
        -11   -1    0    0    0    0  0.00000000000E+00  0.00000000000E+00  0.45593999997E+02  0.45594000000E+02  0.51100000000E-03 0.  1.
         11   -1    0    0    0    0 -0.00000000000E+00 -0.00000000000E+00 -0.45593999997E+02  0.45594000000E+02  0.51100000000E-03 0. -1.
    9900012    2    1    2    0    0 -0.30202467643E+02  0.12696898357E+02 -0.28464415858E+02  0.47787271322E+02  0.20000001265E+02 0.  0.
        -12    1    1    2    0    0  0.30202467643E+02 -0.12696898357E+02  0.28464415858E+02  0.43400728678E+02  0.00000000000E+00 0.  1.
         11    1    3    3    0    0  0.13894135179E+00  0.59531048170E+00  0.33367696353E+00  0.69644802101E+00  0.51100000000E-03 0. -1.
        -11    1    3    3    0    0 -0.18119025197E+02  0.13514854300E+02 -0.10218461576E+02  0.24806598277E+02  0.51100000000E-03 0.  1.
         12    1    3    3    0    0 -0.12222383798E+02 -0.14132664244E+01 -0.18579631245E+02  0.22284225024E+02  0.00000000000E+00 0. -1.
</event>
<event>
 7    1  0.4083500E-009  0.4778727E+02  0.7816164E-02  0.1312668E+00
        -11   -1    0    0    0    0  0.00000000000E+00  0.00000000000E+00  0.45593999997E+02  0.45594000000E+02  0.51100000000E-03 0. -1.
         11   -1    0    0    0    0 -0.00000000000E+00 -0.00000000000E+00 -0.45593999997E+02  0.45594000000E+02  0.51100000000E-03 0.  1.
    9900012    2    1    2    0    0  0.20923728492E+02  0.36749118884E+02  0.97633547354E+01  0.47787271337E+02  0.20000001334E+02 0.  0.
        -12    1    1    2    0    0 -0.20923728492E+02 -0.36749118884E+02 -0.97633547354E+01  0.43400728663E+02  0.00000000000E+00 0.  1.
         11    1    3    3    0    0  0.16742659218E+02  0.34079690541E+02  0.12620547243E+02  0.40012749943E+02  0.51100000000E-03 0. -1.
        -11    1    3    3    0    0  0.41502836633E+01  0.13921154142E+01  0.28064785817E+00  0.43865251958E+01  0.51100000000E-03 0.  1.
         12    1    3    3    0    0  0.30785610793E-01  0.12773129297E+01 -0.31378403660E+01  0.33879961979E+01  0.00000000000E+00 0. -1.
</event>
<event>
 7    1  0.4083500E-009  0.4778728E+02  0.7816164E-02  0.1312668E+00
        -11   -1    0    0    0    0  0.00000000000E+00  0.00000000000E+00  0.45593999997E+02  0.45594000000E+02  0.51100000000E-03 0.  1.
         11   -1    0    0    0    0 -0.00000000000E+00 -0.00000000000E+00 -0.45593999997E+02  0.45594000000E+02  0.51100000000E-03 0. -1.
    9900012    2    1    2    0    0  0.27578807051E+02 -0.32581899951E+02 -0.78391308895E+01  0.47787276782E+02  0.20000026158E+02 0.  0.
        -12    1    1    2    0    0 -0.27578807051E+02  0.32581899951E+02  0.78391308895E+01  0.43400723218E+02  0.00000000000E+00 0.  1.
         11    1    3    3    0    0  0.17290774255E+02 -0.19215149939E+02 -0.55935625908E+01  0.26447699413E+02  0.51100000000E-03 0. -1.
        -11    1    3    3    0    0  0.12724983576E+02 -0.98739434547E+01  0.76396279551E+00  0.16124627306E+02  0.51100000000E-03 0.  1.
        -12    1    3    3    0    0 -0.24369507794E+01 -0.34928065574E+01 -0.30095310943E+01  0.52149500627E+01  0.00000000000E+00 0.  1.
</event>
<event>
 7    1  0.4083500E-009  0.4778727E+02  0.7816164E-02  0.1312668E+00
        -11   -1    0    0    0    0  0.00000000000E+00  0.00000000000E+00  0.45593999997E+02  0.45594000000E+02  0.51100000000E-03 0. -1.
         11   -1    0    0    0    0 -0.00000000000E+00 -0.00000000000E+00 -0.45593999997E+02  0.45594000000E+02  0.51100000000E-03 0.  1.
    9900012    2    1    2    0    0 -0.23131719742E+02  0.36542766722E+02 -0.36294461369E+01  0.47787272619E+02  0.20000007179E+02 0.  0.
        -12    1    1    2    0    0  0.23131719742E+02 -0.36542766722E+02  0.36294461369E+01  0.43400727381E+02  0.00000000000E+00 0.  1.
         11    1    3    3    0    0 -0.11603746809E+02  0.21261557704E+02  0.29305174055E+00  0.24223679646E+02  0.51100000000E-03 0. -1.
        -11    1    3    3    0    0 -0.52762748721E+01  0.71740072458E+01  0.47976618770E+01  0.10115483984E+02  0.51100000000E-03 0.  1.
        -12    1    3    3    0    0 -0.62516980618E+01  0.81072017721E+01 -0.87201597544E+01  0.13448108989E+02  0.00000000000E+00 0.  1.
</event>
<event>
 7    1  0.4083500E-009  0.4778727E+02  0.7816164E-02  0.1312668E+00
        -11   -1    0    0    0    0  0.00000000000E+00  0.00000000000E+00  0.45593999997E+02  0.45594000000E+02  0.51100000000E-03 0.  1.
         11   -1    0    0    0    0 -0.00000000000E+00 -0.00000000000E+00 -0.45593999997E+02  0.45594000000E+02  0.51100000000E-03 0. -1.
    9900012    2    1    2    0    0  0.22024185137E+02 -0.37116615715E+02  0.45733387027E+01  0.47787270513E+02  0.19999997577E+02 0.  0.
        -12    1    1    2    0    0 -0.22024185137E+02  0.37116615715E+02 -0.45733387027E+01  0.43400729487E+02  0.00000000000E+00 0.  1.
         11    1    3    3    0    0  0.18118394160E+02 -0.21442675965E+02 -0.37010046136E+01  0.28315402079E+02  0.51100000000E-03 0. -1.
        -11    1    3    3    0    0  0.14836379864E+01 -0.30859833608E+00  0.24124602713E+01  0.28489260133E+01  0.51100000000E-03 0.  1.
         12    1    3    3    0    0  0.24221529901E+01 -0.15365341415E+02  0.58618830450E+01  0.16622942421E+02  0.00000000000E+00 0. -1.
</event>
<event>
 7    1  0.4083500E-009  0.4778727E+02  0.7816164E-02  0.1312668E+00
        -11   -1    0    0    0    0  0.00000000000E+00  0.00000000000E+00  0.45593999997E+02  0.45594000000E+02  0.51100000000E-03 0. -1.
         11   -1    0    0    0    0 -0.00000000000E+00 -0.00000000000E+00 -0.45593999997E+02  0.45594000000E+02  0.51100000000E-03 0.  1.
    9900012    2    1    2    0    0  0.39367687913E+02  0.69053427716E+01  0.16915226652E+02  0.47787268404E+02  0.19999987959E+02 0.  0.
        -12    1    1    2    0    0 -0.39367687913E+02 -0.69053427716E+01 -0.16915226652E+02  0.43400731596E+02  0.00000000000E+00 0.  1.
         11    1    3    3    0    0  0.23463301414E+02  0.34258673506E+01  0.13699634346E+02  0.27385088311E+02  0.51100000000E-03 0. -1.
        -11    1    3    3    0    0  0.13436831505E+01  0.38755498516E+01  0.41125764939E+01  0.58084986649E+01  0.51100000000E-03 0.  1.
         12    1    3    3    0    0  0.14560703349E+02 -0.39607443062E+00 -0.89698418813E+00  0.14593681427E+02  0.00000000000E+00 0. -1.
</event>
<event>
 7    1  0.4083500E-009  0.4778728E+02  0.7816164E-02  0.1312668E+00
        -11   -1    0    0    0    0  0.00000000000E+00  0.00000000000E+00  0.45593999997E+02  0.45594000000E+02  0.51100000000E-03 0.  1.
         11   -1    0    0    0    0 -0.00000000000E+00 -0.00000000000E+00 -0.45593999997E+02  0.45594000000E+02  0.51100000000E-03 0. -1.
    9900012    2    1    2    0    0  0.62381687567E+01 -0.45760866028E+01 -0.42705590524E+02  0.47787276733E+02  0.20000025938E+02 0.  0.
        -12    1    1    2    0    0 -0.62381687567E+01  0.45760866028E+01  0.42705590524E+02  0.43400723267E+02  0.00000000000E+00 0.  1.
         11    1    3    3    0    0 -0.21778426672E+01  0.55527094405E+01 -0.12421104240E+02  0.13778948132E+02  0.51100000000E-03 0. -1.
        -11    1    3    3    0    0  0.36091518451E+01 -0.79384543140E+00 -0.29562241549E+01  0.47323809151E+01  0.51100000000E-03 0.  1.
         12    1    3    3    0    0  0.48068595788E+01 -0.93349506119E+01 -0.27328262129E+02  0.29275947686E+02  0.00000000000E+00 0. -1.
</event>
<event>
 7    1  0.4720562E-009  0.4778727E+02  0.7816164E-02  0.1312668E+00
        -11   -1    0    0    0    0  0.00000000000E+00  0.00000000000E+00  0.45593999997E+02  0.45594000000E+02  0.51100000000E-03 0. -1.
         11   -1    0    0    0    0 -0.00000000000E+00 -0.00000000000E+00 -0.45593999997E+02  0.45594000000E+02  0.51100000000E-03 0.  1.
    9900012    2    1    2    0    0  0.42672893568E+02 -0.78997645179E+01 -0.49092592177E+00  0.47787272665E+02  0.20000007391E+02 0.  0.
        -12    1    1    2    0    0 -0.42672893568E+02  0.78997645179E+01  0.49092592177E+00  0.43400727335E+02  0.00000000000E+00 0.  1.
         11    1    3    3    0    0  0.57814314321E+01 -0.62831619892E+01 -0.16163478398E+01  0.86899743721E+01  0.51100000000E-03 0.  1.
        -11    1    3    3    0    0 -0.33560194260E+00  0.16639976506E+01 -0.15072315962E+00  0.17041814977E+01  0.51100000000E-03 0. -1.
         12    1    3    3    0    0  0.37227064079E+02 -0.32806001793E+01  0.12761450776E+01  0.37393116796E+02  0.00000000000E+00 0. -1.
</event>
<event>
 7    1  0.4083500E-009  0.4778728E+02  0.7816164E-02  0.1312668E+00
        -11   -1    0    0    0    0  0.00000000000E+00  0.00000000000E+00  0.45593999997E+02  0.45594000000E+02  0.51100000000E-03 0.  1.
         11   -1    0    0    0    0 -0.00000000000E+00 -0.00000000000E+00 -0.45593999997E+02  0.45594000000E+02  0.51100000000E-03 0. -1.
    9900012    2    1    2    0    0 -0.40730095291E+02 -0.41543116566E+01 -0.14402216616E+02  0.47787276375E+02  0.20000024304E+02 0.  0.
        -12    1    1    2    0    0  0.40730095291E+02  0.41543116566E+01  0.14402216616E+02  0.43400723625E+02  0.00000000000E+00 0.  1.
         11    1    3    3    0    0 -0.56839391942E+01 -0.46062670488E+01  0.23295424944E+01  0.76779964432E+01  0.51100000000E-03 0.  1.
        -11    1    3    3    0    0 -0.17559880688E+02 -0.23122319203E+01 -0.13119107846E+02  0.22041025773E+02  0.51100000000E-03 0. -1.
        -12    1    3    3    0    0 -0.17486275409E+02  0.27641873125E+01 -0.36126512644E+01  0.18068254158E+02  0.00000000000E+00 0.  1.
</event>
<event>
 7    1  0.4083500E-009  0.4778727E+02  0.7816164E-02  0.1312668E+00
        -11   -1    0    0    0    0  0.00000000000E+00  0.00000000000E+00  0.45593999997E+02  0.45594000000E+02  0.51100000000E-03 0.  1.
         11   -1    0    0    0    0 -0.00000000000E+00 -0.00000000000E+00 -0.45593999997E+02  0.45594000000E+02  0.51100000000E-03 0. -1.
    9900012    2    1    2    0    0  0.17745287910E+02 -0.23420802744E+02 -0.31940475009E+02  0.47787272034E+02  0.20000004511E+02 0.  0.
        -12    1    1    2    0    0 -0.17745287910E+02  0.23420802744E+02  0.31940475009E+02  0.43400727966E+02  0.00000000000E+00 0.  1.
         11    1    3    3    0    0  0.42321034020E+01 -0.16281986375E+02 -0.13710510752E+02  0.21702347451E+02  0.51100000000E-03 0. -1.
        -11    1    3    3    0    0  0.72530405325E+01 -0.94749287807E+01 -0.10824573578E+02  0.16110625866E+02  0.51100000000E-03 0.  1.
         12    1    3    3    0    0  0.62601439755E+01  0.23361124121E+01 -0.74053906786E+01  0.99742987172E+01  0.00000000000E+00 0. -1.
</event>
<event>
 7    1  0.4083500E-009  0.4778727E+02  0.7816164E-02  0.1312668E+00
        -11   -1    0    0    0    0  0.00000000000E+00  0.00000000000E+00  0.45593999997E+02  0.45594000000E+02  0.51100000000E-03 0.  1.
         11   -1    0    0    0    0 -0.00000000000E+00 -0.00000000000E+00 -0.45593999997E+02  0.45594000000E+02  0.51100000000E-03 0. -1.
    9900012    2    1    2    0    0 -0.37698948430E+02  0.10472693830E+02 -0.18781241282E+02  0.47787273591E+02  0.20000011609E+02 0.  0.
        -12    1    1    2    0    0  0.37698948430E+02 -0.10472693830E+02  0.18781241282E+02  0.43400726409E+02  0.00000000000E+00 0.  1.
         11    1    3    3    0    0 -0.42159722730E+01  0.12544007657E+01 -0.46630988497E+01  0.64103381058E+01  0.51100000000E-03 0. -1.
        -11    1    3    3    0    0 -0.16761210674E+01 -0.32473284651E+01  0.13236452841E+01  0.38867159778E+01  0.51100000000E-03 0.  1.
         12    1    3    3    0    0 -0.31806855089E+02  0.12465621530E+02 -0.15441787717E+02  0.37490219507E+02  0.00000000000E+00 0. -1.
</event>
<event>
 7    1  0.4083500E-009  0.4778727E+02  0.7816164E-02  0.1312668E+00
        -11   -1    0    0    0    0  0.00000000000E+00  0.00000000000E+00  0.45593999997E+02  0.45594000000E+02  0.51100000000E-03 0.  1.
         11   -1    0    0    0    0 -0.00000000000E+00 -0.00000000000E+00 -0.45593999997E+02  0.45594000000E+02  0.51100000000E-03 0. -1.
    9900012    2    1    2    0    0 -0.18509664046E+02  0.41349102613E+01 -0.39037396063E+02  0.47787269161E+02  0.19999991413E+02 0.  0.
        -12    1    1    2    0    0  0.18509664046E+02 -0.41349102613E+01  0.39037396063E+02  0.43400730839E+02  0.00000000000E+00 0.  1.
         11    1    3    3    0    0  0.14853857988E+01  0.78836933462E+00 -0.67424627202E+00  0.18117686043E+01  0.51100000000E-03 0.  1.
        -11    1    3    3    0    0 -0.45401568356E+01  0.71569031973E+01 -0.78131082839E+01  0.11527313164E+02  0.51100000000E-03 0. -1.
        -12    1    3    3    0    0 -0.15454893009E+02 -0.38103622705E+01 -0.30550041507E+02  0.34448187393E+02  0.00000000000E+00 0.  1.
</event>
<event>
 7    1  0.4083500E-009  0.4778727E+02  0.7816164E-02  0.1312668E+00
        -11   -1    0    0    0    0  0.00000000000E+00  0.00000000000E+00  0.45593999997E+02  0.45594000000E+02  0.51100000000E-03 0.  1.
         11   -1    0    0    0    0 -0.00000000000E+00 -0.00000000000E+00 -0.45593999997E+02  0.45594000000E+02  0.51100000000E-03 0. -1.
    9900012    2    1    2    0    0  0.24421305896E+02 -0.20071706068E+02 -0.29738014811E+02  0.47787273151E+02  0.20000009603E+02 0.  0.
        -12    1    1    2    0    0 -0.24421305896E+02  0.20071706068E+02  0.29738014811E+02  0.43400726849E+02  0.00000000000E+00 0.  1.
         11    1    3    3    0    0  0.48439145951E+01 -0.88112771048E+01 -0.11521473867E+02  0.15292039535E+02  0.51100000000E-03 0. -1.
        -11    1    3    3    0    0  0.29924744022E+01  0.23207166624E+01 -0.77817522260E+01  0.86542646622E+01  0.51100000000E-03 0.  1.
         12    1    3    3    0    0  0.16584916898E+02 -0.13581145626E+02 -0.10434788719E+02  0.23840968953E+02  0.00000000000E+00 0. -1.
</event>
<event>
 7    1  0.4083500E-009  0.4778727E+02  0.7816164E-02  0.1312668E+00
        -11   -1    0    0    0    0  0.00000000000E+00  0.00000000000E+00  0.45593999997E+02  0.45594000000E+02  0.51100000000E-03 0. -1.
         11   -1    0    0    0    0 -0.00000000000E+00 -0.00000000000E+00 -0.45593999997E+02  0.45594000000E+02  0.51100000000E-03 0.  1.
    9900012    2    1    2    0    0 -0.37959618638E+02  0.56883421702E+01 -0.20256686358E+02  0.47787271596E+02  0.20000002516E+02 0.  0.
        -12    1    1    2    0    0  0.37959618638E+02 -0.56883421702E+01  0.20256686358E+02  0.43400728404E+02  0.00000000000E+00 0.  1.
         11    1    3    3    0    0 -0.12957782752E+02 -0.48753775704E+01 -0.54916845820E+01  0.14894026994E+02  0.51100000000E-03 0.  1.
        -11    1    3    3    0    0 -0.21444967611E+02  0.40948687774E+01 -0.94136185705E+01  0.23775424308E+02  0.51100000000E-03 0. -1.
        -12    1    3    3    0    0 -0.35568682746E+01  0.64688509631E+01 -0.53513832056E+01  0.91178202943E+01  0.00000000000E+00 0.  1.
</event>
<event>
 7    1  0.4083500E-009  0.4778727E+02  0.7816164E-02  0.1312668E+00
        -11   -1    0    0    0    0  0.00000000000E+00  0.00000000000E+00  0.45593999997E+02  0.45594000000E+02  0.51100000000E-03 0. -1.
         11   -1    0    0    0    0 -0.00000000000E+00 -0.00000000000E+00 -0.45593999997E+02  0.45594000000E+02  0.51100000000E-03 0.  1.
    9900012    2    1    2    0    0 -0.39941152394E+02 -0.12131412777E+02  0.11880922558E+02  0.47787272456E+02  0.20000006434E+02 0.  0.
        -12    1    1    2    0    0  0.39941152394E+02  0.12131412777E+02 -0.11880922558E+02  0.43400727544E+02  0.00000000000E+00 0.  1.
         11    1    3    3    0    0 -0.23987520276E+01 -0.52446750414E+01  0.44947848807E+01  0.73118888780E+01  0.51100000000E-03 0. -1.
        -11    1    3    3    0    0 -0.71878069834E+01  0.26979111156E+01  0.33939213228E+01  0.83941643911E+01  0.51100000000E-03 0.  1.
         12    1    3    3    0    0 -0.30354593383E+02 -0.95846488509E+01  0.39922163545E+01  0.32081219186E+02  0.00000000000E+00 0. -1.
</event>
<event>
 7    1  0.4083500E-009  0.4778727E+02  0.7816164E-02  0.1312668E+00
        -11   -1    0    0    0    0  0.00000000000E+00  0.00000000000E+00  0.45593999997E+02  0.45594000000E+02  0.51100000000E-03 0. -1.
         11   -1    0    0    0    0 -0.00000000000E+00 -0.00000000000E+00 -0.45593999997E+02  0.45594000000E+02  0.51100000000E-03 0.  1.
    9900012    2    1    2    0    0 -0.33724331522E+02 -0.10887283289E+02  0.25055140516E+02  0.47787267975E+02  0.19999986004E+02 0.  0.
        -12    1    1    2    0    0  0.33724331522E+02  0.10887283289E+02 -0.25055140516E+02  0.43400732025E+02  0.00000000000E+00 0.  1.
         11    1    3    3    0    0 -0.78534560717E+01 -0.74938137803E+01  0.55991492462E+01  0.12214110274E+02  0.51100000000E-03 0. -1.
        -11    1    3    3    0    0 -0.68499939098E+01  0.37066960389E+01  0.51294394952E+00  0.78054547494E+01  0.51100000000E-03 0.  1.
        -12    1    3    3    0    0 -0.19020881541E+02 -0.71001655480E+01  0.18943047320E+02  0.27767702951E+02  0.00000000000E+00 0.  1.
</event>
<event>
 7    1  0.4083500E-009  0.4778726E+02  0.7816164E-02  0.1312668E+00
        -11   -1    0    0    0    0  0.00000000000E+00  0.00000000000E+00  0.45593999997E+02  0.45594000000E+02  0.51100000000E-03 0.  1.
         11   -1    0    0    0    0 -0.00000000000E+00 -0.00000000000E+00 -0.45593999997E+02  0.45594000000E+02  0.51100000000E-03 0. -1.
    9900012    2    1    2    0    0  0.74254239908E+01  0.64462942026E+01 -0.42272123148E+02  0.47787262381E+02  0.19999960501E+02 0.  0.
        -12    1    1    2    0    0 -0.74254239908E+01 -0.64462942026E+01  0.42272123148E+02  0.43400737619E+02  0.00000000000E+00 0.  1.
         11    1    3    3    0    0 -0.12451332684E+01  0.23888327963E+01 -0.58555404414E+01  0.64454816040E+01  0.51100000000E-03 0. -1.
        -11    1    3    3    0    0  0.80023873636E+00  0.15539787643E+01  0.16415124419E+01  0.23978730978E+01  0.51100000000E-03 0.  1.
         12    1    3    3    0    0  0.78703185229E+01  0.25034826420E+01 -0.38058095149E+02  0.38943907679E+02  0.00000000000E+00 0. -1.
</event>
<event>
 7    1  0.4083500E-009  0.4778727E+02  0.7816164E-02  0.1312668E+00
        -11   -1    0    0    0    0  0.00000000000E+00  0.00000000000E+00  0.45593999997E+02  0.45594000000E+02  0.51100000000E-03 0.  1.
         11   -1    0    0    0    0 -0.00000000000E+00 -0.00000000000E+00 -0.45593999997E+02  0.45594000000E+02  0.51100000000E-03 0. -1.
    9900012    2    1    2    0    0 -0.24843903080E+02  0.25265433458E+02 -0.25061159299E+02  0.47787270127E+02  0.19999995817E+02 0.  0.
        -12    1    1    2    0    0  0.24843903080E+02 -0.25265433458E+02  0.25061159299E+02  0.43400729873E+02  0.00000000000E+00 0.  1.
         11    1    3    3    0    0 -0.17045661540E+02  0.88995902081E+01 -0.16372543212E+02  0.25255048103E+02  0.51100000000E-03 0. -1.
        -11    1    3    3    0    0 -0.28873228362E+01 -0.74093185853E+00 -0.15072688059E+01  0.33402803316E+01  0.51100000000E-03 0.  1.
         12    1    3    3    0    0 -0.49109187046E+01  0.17106775109E+02 -0.71813472806E+01  0.19191941692E+02  0.00000000000E+00 0. -1.
</event>
<event>
 7    1  0.4083500E-009  0.4778726E+02  0.7816164E-02  0.1312668E+00
        -11   -1    0    0    0    0  0.00000000000E+00  0.00000000000E+00  0.45593999997E+02  0.45594000000E+02  0.51100000000E-03 0.  1.
         11   -1    0    0    0    0 -0.00000000000E+00 -0.00000000000E+00 -0.45593999997E+02  0.45594000000E+02  0.51100000000E-03 0. -1.
    9900012    2    1    2    0    0  0.13285560199E+02  0.39647983471E+02 -0.11625622456E+02  0.47787264976E+02  0.19999972334E+02 0.  0.
        -12    1    1    2    0    0 -0.13285560199E+02 -0.39647983471E+02  0.11625622456E+02  0.43400735024E+02  0.00000000000E+00 0.  1.
         11    1    3    3    0    0  0.16509897263E+02  0.31525962392E+02 -0.14700388924E+02  0.38504083513E+02  0.51100000000E-03 0. -1.
        -11    1    3    3    0    0 -0.78305339999E+00  0.16947721193E+01  0.89702128471E+00  0.20712490459E+01  0.51100000000E-03 0.  1.
         12    1    3    3    0    0 -0.24412836644E+01  0.64272489589E+01  0.21777451833E+01  0.72119324174E+01  0.00000000000E+00 0. -1.
</event>
<event>
 7    1  0.4083500E-009  0.4778727E+02  0.7816164E-02  0.1312668E+00
        -11   -1    0    0    0    0  0.00000000000E+00  0.00000000000E+00  0.45593999997E+02  0.45594000000E+02  0.51100000000E-03 0. -1.
         11   -1    0    0    0    0 -0.00000000000E+00 -0.00000000000E+00 -0.45593999997E+02  0.45594000000E+02  0.51100000000E-03 0.  1.
    9900012    2    1    2    0    0 -0.40912296186E+02 -0.13337671552E+02  0.56492391426E+01  0.47787270000E+02  0.19999995240E+02 0.  0.
        -12    1    1    2    0    0  0.40912296186E+02  0.13337671552E+02 -0.56492391426E+01  0.43400730000E+02  0.00000000000E+00 0.  1.
         11    1    3    3    0    0 -0.32399607955E+02 -0.13420275903E+02  0.21242607019E+01  0.35133330111E+02  0.51100000000E-03 0. -1.
        -11    1    3    3    0    0 -0.89833931399E+01  0.26155677384E+01  0.17326763447E+01  0.95154986457E+01  0.51100000000E-03 0.  1.
        -12    1    3    3    0    0  0.47070490881E+00 -0.25329633876E+01  0.17923020960E+01  0.31384412433E+01  0.00000000000E+00 0.  1.
</event>
<event>
 7    1  0.4083500E-009  0.4778727E+02  0.7816164E-02  0.1312668E+00
        -11   -1    0    0    0    0  0.00000000000E+00  0.00000000000E+00  0.45593999997E+02  0.45594000000E+02  0.51100000000E-03 0. -1.
         11   -1    0    0    0    0 -0.00000000000E+00 -0.00000000000E+00 -0.45593999997E+02  0.45594000000E+02  0.51100000000E-03 0.  1.
    9900012    2    1    2    0    0  0.35413668552E+02 -0.24753980177E+02 -0.40909454246E+01  0.47787270866E+02  0.19999999184E+02 0.  0.
        -12    1    1    2    0    0 -0.35413668552E+02  0.24753980177E+02  0.40909454246E+01  0.43400729134E+02  0.00000000000E+00 0.  1.
         11    1    3    3    0    0  0.30299774339E+02 -0.25006727977E+02 -0.44142914560E+01  0.39533514117E+02  0.51100000000E-03 0. -1.
        -11    1    3    3    0    0  0.47468230752E+01 -0.15937724233E+01  0.23120629628E+01  0.55152584028E+01  0.51100000000E-03 0.  1.
         12    1    3    3    0    0  0.36707113869E+00  0.18465202239E+01 -0.19887169314E+01  0.27384983460E+01  0.00000000000E+00 0. -1.
</event>
<event>
 7    1  0.4083500E-009  0.4778727E+02  0.7816164E-02  0.1312668E+00
        -11   -1    0    0    0    0  0.00000000000E+00  0.00000000000E+00  0.45593999997E+02  0.45594000000E+02  0.51100000000E-03 0.  1.
         11   -1    0    0    0    0 -0.00000000000E+00 -0.00000000000E+00 -0.45593999997E+02  0.45594000000E+02  0.51100000000E-03 0. -1.
    9900012    2    1    2    0    0  0.11792812462E+02 -0.35415129948E+02 -0.22143204769E+02  0.47787269909E+02  0.19999994822E+02 0.  0.
        -12    1    1    2    0    0 -0.11792812462E+02  0.35415129948E+02  0.22143204769E+02  0.43400730091E+02  0.00000000000E+00 0.  1.
         11    1    3    3    0    0  0.65174510267E+01 -0.13589282496E+02 -0.13058063026E+02  0.19941383525E+02  0.51100000000E-03 0. -1.
        -11    1    3    3    0    0  0.45971727279E+01 -0.16630289774E+02 -0.12748296089E+02  0.21452729161E+02  0.51100000000E-03 0.  1.
        -12    1    3    3    0    0  0.67818870788E+00 -0.51955576780E+01  0.36631543455E+01  0.63931572223E+01  0.00000000000E+00 0.  1.
</event>
<event>
 7    1  0.4083500E-009  0.4778727E+02  0.7816164E-02  0.1312668E+00
        -11   -1    0    0    0    0  0.00000000000E+00  0.00000000000E+00  0.45593999997E+02  0.45594000000E+02  0.51100000000E-03 0.  1.
         11   -1    0    0    0    0 -0.00000000000E+00 -0.00000000000E+00 -0.45593999997E+02  0.45594000000E+02  0.51100000000E-03 0. -1.
    9900012    2    1    2    0    0 -0.29622873448E+02  0.27366157186E+02 -0.16037520473E+02  0.47787271280E+02  0.20000001075E+02 0.  0.
        -12    1    1    2    0    0  0.29622873448E+02 -0.27366157186E+02  0.16037520473E+02  0.43400728720E+02  0.00000000000E+00 0.  1.
         11    1    3    3    0    0 -0.15482783448E+02  0.65841881009E+01 -0.12024030942E+02  0.20679589855E+02  0.51100000000E-03 0. -1.
        -11    1    3    3    0    0 -0.58047046206E+00  0.30562048827E+01 -0.36385959357E+01  0.47871405752E+01  0.51100000000E-03 0.  1.
        -12    1    3    3    0    0 -0.13559619539E+02  0.17725764203E+02 -0.37489359551E+00  0.22320540850E+02  0.00000000000E+00 0.  1.
</event>
<event>
 7    1  0.4083500E-009  0.4778724E+02  0.7816164E-02  0.1312668E+00
        -11   -1    0    0    0    0  0.00000000000E+00  0.00000000000E+00  0.45593999997E+02  0.45594000000E+02  0.51100000000E-03 0.  1.
         11   -1    0    0    0    0 -0.00000000000E+00 -0.00000000000E+00 -0.45593999997E+02  0.45594000000E+02  0.51100000000E-03 0. -1.
    9900012    2    1    2    0    0  0.11627511789E+02 -0.28011252376E+02 -0.31045080658E+02  0.47787235915E+02  0.19999839829E+02 0.  0.
        -12    1    1    2    0    0 -0.11627511789E+02  0.28011252376E+02  0.31045080658E+02  0.43400764085E+02  0.00000000000E+00 0.  1.
         11    1    3    3    0    0  0.11141425783E+02 -0.10802482241E+02 -0.23647974154E+02  0.28285184690E+02  0.51100000000E-03 0.  1.
        -11    1    3    3    0    0  0.21851553990E+00 -0.64936723881E+01 -0.57135931481E+01  0.86522064844E+01  0.51100000000E-03 0. -1.
         12    1    3    3    0    0  0.26757046577E+00 -0.10715097747E+02 -0.16835133559E+01  0.10849844741E+02  0.00000000000E+00 0. -1.
</event>
<event>
 7    1  0.4083500E-009  0.4778727E+02  0.7816164E-02  0.1312668E+00
        -11   -1    0    0    0    0  0.00000000000E+00  0.00000000000E+00  0.45593999997E+02  0.45594000000E+02  0.51100000000E-03 0. -1.
         11   -1    0    0    0    0 -0.00000000000E+00 -0.00000000000E+00 -0.45593999997E+02  0.45594000000E+02  0.51100000000E-03 0.  1.
    9900012    2    1    2    0    0  0.32396299107E+02 -0.43627225119E+01  0.28549425516E+02  0.47787271425E+02  0.20000001736E+02 0.  0.
        -12    1    1    2    0    0 -0.32396299107E+02  0.43627225119E+01 -0.28549425516E+02  0.43400728575E+02  0.00000000000E+00 0.  1.
         11    1    3    3    0    0  0.31140027520E+01  0.13793770415E+01  0.23535561828E+01  0.41399180099E+01  0.51100000000E-03 0. -1.
        -11    1    3    3    0    0  0.20959640411E+02  0.42005476600E+01  0.20012328800E+02  0.29282152091E+02  0.51100000000E-03 0.  1.
        -12    1    3    3    0    0  0.83226559441E+01 -0.99426472134E+01  0.61835405331E+01  0.14365201325E+02  0.00000000000E+00 0.  1.
</event>
<event>
 7    1  0.4083500E-009  0.4778728E+02  0.7816164E-02  0.1312668E+00
        -11   -1    0    0    0    0  0.00000000000E+00  0.00000000000E+00  0.45593999997E+02  0.45594000000E+02  0.51100000000E-03 0.  1.
         11   -1    0    0    0    0 -0.00000000000E+00 -0.00000000000E+00 -0.45593999997E+02  0.45594000000E+02  0.51100000000E-03 0. -1.
    9900012    2    1    2    0    0  0.47216866969E+01 -0.16499405869E+02 -0.39863492849E+02  0.47787276718E+02  0.20000025869E+02 0.  0.
        -12    1    1    2    0    0 -0.47216866969E+01  0.16499405869E+02  0.39863492849E+02  0.43400723282E+02  0.00000000000E+00 0.  1.
         11    1    3    3    0    0  0.47160884443E+01 -0.72937646583E+00 -0.17487293372E+02  0.18126745709E+02  0.51100000000E-03 0. -1.
        -11    1    3    3    0    0  0.28835844910E+01  0.50825794437E+00 -0.37239037823E+01  0.47371769331E+01  0.51100000000E-03 0.  1.
         12    1    3    3    0    0 -0.28779862385E+01 -0.16278287347E+02 -0.18652295694E+02  0.24923354076E+02  0.00000000000E+00 0. -1.
</event>
<event>
 7    1  0.4083500E-009  0.4778727E+02  0.7816164E-02  0.1312668E+00
        -11   -1    0    0    0    0  0.00000000000E+00  0.00000000000E+00  0.45593999997E+02  0.45594000000E+02  0.51100000000E-03 0.  1.
         11   -1    0    0    0    0 -0.00000000000E+00 -0.00000000000E+00 -0.45593999997E+02  0.45594000000E+02  0.51100000000E-03 0. -1.
    9900012    2    1    2    0    0 -0.47262235171E+00  0.37098271250E+02 -0.22519283903E+02  0.47787271329E+02  0.20000001299E+02 0.  0.
        -12    1    1    2    0    0  0.47262235171E+00 -0.37098271250E+02  0.22519283903E+02  0.43400728671E+02  0.00000000000E+00 0.  1.
         11    1    3    3    0    0  0.29646485802E+01  0.23444039949E+02 -0.47232860654E+01  0.24098165529E+02  0.51100000000E-03 0. -1.
        -11    1    3    3    0    0 -0.26810567906E+01  0.30820888238E+01 -0.17175122218E+01  0.44313864112E+01  0.51100000000E-03 0.  1.
         12    1    3    3    0    0 -0.75621414133E+00  0.10572142478E+02 -0.16078485615E+02  0.19257719390E+02  0.00000000000E+00 0. -1.
</event>
<event>
 7    1  0.4083500E-009  0.4778730E+02  0.7816164E-02  0.1312668E+00
        -11   -1    0    0    0    0  0.00000000000E+00  0.00000000000E+00  0.45593999997E+02  0.45594000000E+02  0.51100000000E-03 0. -1.
         11   -1    0    0    0    0 -0.00000000000E+00 -0.00000000000E+00 -0.45593999997E+02  0.45594000000E+02  0.51100000000E-03 0.  1.
    9900012    2    1    2    0    0  0.21492209700E+02  0.37703473993E+02 -0.39223576343E+00  0.47787298648E+02  0.20000125856E+02 0.  0.
        -12    1    1    2    0    0 -0.21492209700E+02 -0.37703473993E+02  0.39223576343E+00  0.43400701352E+02  0.00000000000E+00 0.  1.
         11    1    3    3    0    0  0.60226234432E+01  0.17611040187E+02 -0.53571189723E+01  0.19368000763E+02  0.51100000000E-03 0. -1.
        -11    1    3    3    0    0  0.70307820690E+01  0.10585205091E+02 -0.34584016949E+01  0.13169624363E+02  0.51100000000E-03 0.  1.
         12    1    3    3    0    0  0.84388041880E+01  0.95072287147E+01  0.84232849038E+01  0.15249673522E+02  0.00000000000E+00 0. -1.
</event>
<event>
 7    1  0.4083500E-009  0.4778727E+02  0.7816164E-02  0.1312668E+00
        -11   -1    0    0    0    0  0.00000000000E+00  0.00000000000E+00  0.45593999997E+02  0.45594000000E+02  0.51100000000E-03 0. -1.
         11   -1    0    0    0    0 -0.00000000000E+00 -0.00000000000E+00 -0.45593999997E+02  0.45594000000E+02  0.51100000000E-03 0.  1.
    9900012    2    1    2    0    0  0.22216744519E+02  0.25190568756E+01  0.37198038235E+02  0.47787269210E+02  0.19999991636E+02 0.  0.
        -12    1    1    2    0    0 -0.22216744519E+02 -0.25190568756E+01 -0.37198038235E+02  0.43400730790E+02  0.00000000000E+00 0.  1.
         11    1    3    3    0    0  0.10284477858E+02 -0.78632443516E+00  0.15871292235E+02  0.18928462917E+02  0.51100000000E-03 0. -1.
        -11    1    3    3    0    0  0.11849308166E+02  0.34756586194E+01  0.23569316862E+02  0.26608250684E+02  0.51100000000E-03 0.  1.
        -12    1    3    3    0    0  0.82958495172E-01 -0.17027730855E+00 -0.22425708626E+01  0.22505556086E+01  0.00000000000E+00 0.  1.
</event>
<event>
 7    1  0.4083500E-009  0.4778727E+02  0.7816164E-02  0.1312668E+00
        -11   -1    0    0    0    0  0.00000000000E+00  0.00000000000E+00  0.45593999997E+02  0.45594000000E+02  0.51100000000E-03 0.  1.
         11   -1    0    0    0    0 -0.00000000000E+00 -0.00000000000E+00 -0.45593999997E+02  0.45594000000E+02  0.51100000000E-03 0. -1.
    9900012    2    1    2    0    0  0.16296752317E+02  0.39211610847E+02 -0.89715527698E+01  0.47787270508E+02  0.19999997555E+02 0.  0.
        -12    1    1    2    0    0 -0.16296752317E+02 -0.39211610847E+02  0.89715527698E+01  0.43400729492E+02  0.00000000000E+00 0.  1.
         11    1    3    3    0    0 -0.93303063904E+00  0.97790008643E+01 -0.45495164713E+01  0.10825779624E+02  0.51100000000E-03 0. -1.
        -11    1    3    3    0    0 -0.11893430864E+01  0.46151563486E+01 -0.37230622355E+01  0.60477597315E+01  0.51100000000E-03 0.  1.
         12    1    3    3    0    0  0.18419126042E+02  0.24817453634E+02 -0.69897406310E+00  0.30913731153E+02  0.00000000000E+00 0. -1.
</event>
<event>
 7    1  0.4083500E-009  0.4778727E+02  0.7816164E-02  0.1312668E+00
        -11   -1    0    0    0    0  0.00000000000E+00  0.00000000000E+00  0.45593999997E+02  0.45594000000E+02  0.51100000000E-03 0.  1.
         11   -1    0    0    0    0 -0.00000000000E+00 -0.00000000000E+00 -0.45593999997E+02  0.45594000000E+02  0.51100000000E-03 0. -1.
    9900012    2    1    2    0    0 -0.40279714221E+02 -0.11586635525E+02 -0.11265769526E+02  0.47787273467E+02  0.20000011047E+02 0.  0.
        -12    1    1    2    0    0  0.40279714221E+02  0.11586635525E+02  0.11265769526E+02  0.43400726533E+02  0.00000000000E+00 0.  1.
         11    1    3    3    0    0 -0.11206901330E+02  0.32013494713E+01  0.81106188336E+00  0.11683368414E+02  0.51100000000E-03 0. -1.
        -11    1    3    3    0    0 -0.26086850459E+01  0.77185132589E+00 -0.30881695866E+01  0.41155538868E+01  0.51100000000E-03 0.  1.
        -12    1    3    3    0    0 -0.26464127845E+02 -0.15559836323E+02 -0.89886618227E+01  0.31988351167E+02  0.00000000000E+00 0.  1.
</event>
<event>
 7    1  0.4083500E-009  0.4778727E+02  0.7816164E-02  0.1312668E+00
        -11   -1    0    0    0    0  0.00000000000E+00  0.00000000000E+00  0.45593999997E+02  0.45594000000E+02  0.51100000000E-03 0.  1.
         11   -1    0    0    0    0 -0.00000000000E+00 -0.00000000000E+00 -0.45593999997E+02  0.45594000000E+02  0.51100000000E-03 0. -1.
    9900012    2    1    2    0    0  0.11407710022E+01  0.77693286590E+01 -0.42684412943E+02  0.47787274953E+02  0.20000017822E+02 0.  0.
        -12    1    1    2    0    0 -0.11407710022E+01 -0.77693286590E+01  0.42684412943E+02  0.43400725047E+02  0.00000000000E+00 0.  1.
         11    1    3    3    0    0  0.27852565541E+01  0.87816925290E+01 -0.24460444032E+02  0.26137886300E+02  0.51100000000E-03 0. -1.
        -11    1    3    3    0    0  0.20682940593E+01  0.45486996135E+01 -0.80554406140E+01  0.94793793171E+01  0.51100000000E-03 0.  1.
         12    1    3    3    0    0 -0.37127796112E+01 -0.55610634835E+01 -0.10168528297E+02  0.12170009336E+02  0.00000000000E+00 0. -1.
</event>
<event>
 7    1  0.4083500E-009  0.4778727E+02  0.7816164E-02  0.1312668E+00
        -11   -1    0    0    0    0  0.00000000000E+00  0.00000000000E+00  0.45593999997E+02  0.45594000000E+02  0.51100000000E-03 0.  1.
         11   -1    0    0    0    0 -0.00000000000E+00 -0.00000000000E+00 -0.45593999997E+02  0.45594000000E+02  0.51100000000E-03 0. -1.
    9900012    2    1    2    0    0  0.23417752366E+02 -0.28573826049E+02 -0.22776488406E+02  0.47787273219E+02  0.20000009917E+02 0.  0.
        -12    1    1    2    0    0 -0.23417752366E+02  0.28573826049E+02  0.22776488406E+02  0.43400726781E+02  0.00000000000E+00 0.  1.
         11    1    3    3    0    0  0.38920443827E+01 -0.67596197145E+01 -0.90994969738E+01  0.11985045415E+02  0.51100000000E-03 0. -1.
        -11    1    3    3    0    0  0.11003173804E+02 -0.16043964912E+01 -0.53726461862E+01  0.12349463517E+02  0.51100000000E-03 0.  1.
         12    1    3    3    0    0  0.85225341796E+01 -0.20209809844E+02 -0.83043452462E+01  0.23452764287E+02  0.00000000000E+00 0. -1.
</event>
<event>
 7    1  0.4083500E-009  0.4778727E+02  0.7816164E-02  0.1312668E+00
        -11   -1    0    0    0    0  0.00000000000E+00  0.00000000000E+00  0.45593999997E+02  0.45594000000E+02  0.51100000000E-03 0. -1.
         11   -1    0    0    0    0 -0.00000000000E+00 -0.00000000000E+00 -0.45593999997E+02  0.45594000000E+02  0.51100000000E-03 0.  1.
    9900012    2    1    2    0    0  0.30805911357E+02 -0.17058389001E+02  0.25369878814E+02  0.47787267738E+02  0.19999984926E+02 0.  0.
        -12    1    1    2    0    0 -0.30805911357E+02  0.17058389001E+02 -0.25369878814E+02  0.43400732262E+02  0.00000000000E+00 0.  1.
         11    1    3    3    0    0  0.10298129201E+02 -0.15811713475E+01  0.15943530659E+01  0.10540091548E+02  0.51100000000E-03 0.  1.
        -11    1    3    3    0    0  0.36936568475E+01  0.38201819276E+00 -0.47798681922E+00  0.37439965901E+01  0.51100000000E-03 0. -1.
         12    1    3    3    0    0  0.16814125308E+02 -0.15859235846E+02  0.24253512567E+02  0.33503179600E+02  0.00000000000E+00 0. -1.
</event>
<event>
 7    1  0.4083500E-009  0.4778727E+02  0.7816164E-02  0.1312668E+00
        -11   -1    0    0    0    0  0.00000000000E+00  0.00000000000E+00  0.45593999997E+02  0.45594000000E+02  0.51100000000E-03 0.  1.
         11   -1    0    0    0    0 -0.00000000000E+00 -0.00000000000E+00 -0.45593999997E+02  0.45594000000E+02  0.51100000000E-03 0. -1.
    9900012    2    1    2    0    0  0.21752510717E+02 -0.25627707919E+02 -0.27453093446E+02  0.47787268723E+02  0.19999989416E+02 0.  0.
        -12    1    1    2    0    0 -0.21752510717E+02  0.25627707919E+02  0.27453093446E+02  0.43400731277E+02  0.00000000000E+00 0.  1.
         11    1    3    3    0    0  0.32864182263E+01 -0.49398623033E+01 -0.11974683483E+02  0.13363975049E+02  0.51100000000E-03 0. -1.
        -11    1    3    3    0    0  0.11244465395E+02 -0.42744816471E+01 -0.10085768419E+02  0.15698150217E+02  0.51100000000E-03 0.  1.
        -12    1    3    3    0    0  0.72216270951E+01 -0.16413363968E+02 -0.53926415433E+01  0.18725143457E+02  0.00000000000E+00 0.  1.
</event>
<event>
 7    1  0.4083500E-009  0.4778727E+02  0.7816164E-02  0.1312668E+00
        -11   -1    0    0    0    0  0.00000000000E+00  0.00000000000E+00  0.45593999997E+02  0.45594000000E+02  0.51100000000E-03 0.  1.
         11   -1    0    0    0    0 -0.00000000000E+00 -0.00000000000E+00 -0.45593999997E+02  0.45594000000E+02  0.51100000000E-03 0. -1.
    9900012    2    1    2    0    0  0.12846233260E+02  0.21836038601E+02 -0.35238975012E+02  0.47787266704E+02  0.19999980208E+02 0.  0.
        -12    1    1    2    0    0 -0.12846233260E+02 -0.21836038601E+02  0.35238975012E+02  0.43400733296E+02  0.00000000000E+00 0.  1.
         11    1    3    3    0    0  0.13970562234E+01  0.13979910142E+02 -0.18367515447E+02  0.23124776272E+02  0.51100000000E-03 0.  1.
        -11    1    3    3    0    0  0.23934015258E+01  0.66257948855E+01 -0.12899177114E+02  0.14697560995E+02  0.51100000000E-03 0. -1.
        -12    1    3    3    0    0  0.90557755105E+01  0.12303335737E+01 -0.39722824511E+01  0.99649294363E+01  0.00000000000E+00 0.  1.
</event>
<event>
 7    1  0.4083500E-009  0.4778727E+02  0.7816164E-02  0.1312668E+00
        -11   -1    0    0    0    0  0.00000000000E+00  0.00000000000E+00  0.45593999997E+02  0.45594000000E+02  0.51100000000E-03 0. -1.
         11   -1    0    0    0    0 -0.00000000000E+00 -0.00000000000E+00 -0.45593999997E+02  0.45594000000E+02  0.51100000000E-03 0.  1.
    9900012    2    1    2    0    0 -0.21021043211E+02 -0.24811552890E+01  0.37889086836E+02  0.47787270853E+02  0.19999999125E+02 0.  0.
        -12    1    1    2    0    0  0.21021043211E+02  0.24811552890E+01 -0.37889086836E+02  0.43400729147E+02  0.00000000000E+00 0.  1.
         11    1    3    3    0    0 -0.18462874689E+01  0.50420141547E+01  0.51330717262E+01  0.74282642496E+01  0.51100000000E-03 0. -1.
        -11    1    3    3    0    0 -0.66450144862E+01  0.77384759693E+00  0.36953355414E+01  0.76426803316E+01  0.51100000000E-03 0.  1.
         12    1    3    3    0    0 -0.12529741256E+02 -0.82970170406E+01  0.29060679569E+02  0.32716326271E+02  0.00000000000E+00 0. -1.
</event>
<event>
 7    1  0.4083500E-009  0.4778727E+02  0.7816164E-02  0.1312668E+00
        -11   -1    0    0    0    0  0.00000000000E+00  0.00000000000E+00  0.45593999997E+02  0.45594000000E+02  0.51100000000E-03 0.  1.
         11   -1    0    0    0    0 -0.00000000000E+00 -0.00000000000E+00 -0.45593999997E+02  0.45594000000E+02  0.51100000000E-03 0. -1.
    9900012    2    1    2    0    0 -0.14887149596E+02  0.19072610518E+02 -0.36030977781E+02  0.47787273567E+02  0.20000011502E+02 0.  0.
        -12    1    1    2    0    0  0.14887149596E+02 -0.19072610518E+02  0.36030977781E+02  0.43400726433E+02  0.00000000000E+00 0.  1.
         11    1    3    3    0    0 -0.17701568149E+01  0.92710423501E+01 -0.90783588265E+01  0.13095887929E+02  0.51100000000E-03 0. -1.
        -11    1    3    3    0    0 -0.58824480858E+01 -0.76083502417E+00 -0.18304899330E+02  0.19241917918E+02  0.51100000000E-03 0.  1.
         12    1    3    3    0    0 -0.72345446950E+01  0.10562403192E+02 -0.86477196242E+01  0.15449467720E+02  0.00000000000E+00 0. -1.
</event>
<event>
 7    1  0.4083500E-009  0.4778727E+02  0.7816164E-02  0.1312668E+00
        -11   -1    0    0    0    0  0.00000000000E+00  0.00000000000E+00  0.45593999997E+02  0.45594000000E+02  0.51100000000E-03 0. -1.
         11   -1    0    0    0    0 -0.00000000000E+00 -0.00000000000E+00 -0.45593999997E+02  0.45594000000E+02  0.51100000000E-03 0.  1.
    9900012    2    1    2    0    0 -0.40341434631E+02 -0.48725073324E+01  0.15246331914E+02  0.47787270598E+02  0.19999997964E+02 0.  0.
        -12    1    1    2    0    0  0.40341434631E+02  0.48725073324E+01 -0.15246331914E+02  0.43400729402E+02  0.00000000000E+00 0.  1.
         11    1    3    3    0    0 -0.88331061281E+00  0.82355133874E+00  0.50275165293E+00  0.13081414036E+01  0.51100000000E-03 0. -1.
        -11    1    3    3    0    0  0.21042564233E+01 -0.51519522198E+00  0.37249712130E+00  0.21981982572E+01  0.51100000000E-03 0.  1.
         12    1    3    3    0    0 -0.41562380441E+02 -0.51808634492E+01  0.14371083140E+02  0.44280930937E+02  0.00000000000E+00 0. -1.
</event>
<event>
 7    1  0.4083500E-009  0.4778727E+02  0.7816164E-02  0.1312668E+00
        -11   -1    0    0    0    0  0.00000000000E+00  0.00000000000E+00  0.45593999997E+02  0.45594000000E+02  0.51100000000E-03 0.  1.
         11   -1    0    0    0    0 -0.00000000000E+00 -0.00000000000E+00 -0.45593999997E+02  0.45594000000E+02  0.51100000000E-03 0. -1.
    9900012    2    1    2    0    0 -0.21109056179E+02  0.68017242532E+01 -0.37306403269E+02  0.47787269240E+02  0.19999991773E+02 0.  0.
        -12    1    1    2    0    0  0.21109056179E+02 -0.68017242532E+01  0.37306403269E+02  0.43400730760E+02  0.00000000000E+00 0.  1.
         11    1    3    3    0    0 -0.83169914859E+01 -0.12911971268E+01 -0.21733349550E+02  0.23306179874E+02  0.51100000000E-03 0. -1.
        -11    1    3    3    0    0 -0.85825567560E+01 -0.98636388318E+00 -0.91796780661E+01  0.12605541791E+02  0.51100000000E-03 0.  1.
        -12    1    3    3    0    0 -0.42095079373E+01  0.90792852631E+01 -0.63933756529E+01  0.11875547575E+02  0.00000000000E+00 0.  1.
</event>
<event>
 7    1  0.4083500E-009  0.4778727E+02  0.7816164E-02  0.1312668E+00
        -11   -1    0    0    0    0  0.00000000000E+00  0.00000000000E+00  0.45593999997E+02  0.45594000000E+02  0.51100000000E-03 0.  1.
         11   -1    0    0    0    0 -0.00000000000E+00 -0.00000000000E+00 -0.45593999997E+02  0.45594000000E+02  0.51100000000E-03 0. -1.
    9900012    2    1    2    0    0  0.21286324098E+02 -0.17230332576E+02 -0.33669437701E+02  0.47787274322E+02  0.20000014945E+02 0.  0.
        -12    1    1    2    0    0 -0.21286324098E+02  0.17230332576E+02  0.33669437701E+02  0.43400725678E+02  0.00000000000E+00 0.  1.
         11    1    3    3    0    0  0.12643084866E+02 -0.10654176294E+02 -0.27563554698E+02  0.32142007020E+02  0.51100000000E-03 0. -1.
        -11    1    3    3    0    0  0.53364674836E+01 -0.10372002489E+01 -0.72825708668E+01  0.90878769936E+01  0.51100000000E-03 0.  1.
        -12    1    3    3    0    0  0.33067717482E+01 -0.55389560329E+01  0.11766878642E+01  0.65573903085E+01  0.00000000000E+00 0.  1.
</event>
<event>
 7    1  0.4083500E-009  0.4778727E+02  0.7816164E-02  0.1312668E+00
        -11   -1    0    0    0    0  0.00000000000E+00  0.00000000000E+00  0.45593999997E+02  0.45594000000E+02  0.51100000000E-03 0.  1.
         11   -1    0    0    0    0 -0.00000000000E+00 -0.00000000000E+00 -0.45593999997E+02  0.45594000000E+02  0.51100000000E-03 0. -1.
    9900012    2    1    2    0    0 -0.21584650942E+02 -0.20975532074E+02 -0.31269039765E+02  0.47787274777E+02  0.20000017018E+02 0.  0.
        -12    1    1    2    0    0  0.21584650942E+02  0.20975532074E+02  0.31269039765E+02  0.43400725223E+02  0.00000000000E+00 0.  1.
         11    1    3    3    0    0  0.26954000325E+01 -0.37938391770E+01 -0.31213047047E+01  0.56036541967E+01  0.51100000000E-03 0. -1.
        -11    1    3    3    0    0 -0.45074813622E+01 -0.12358508428E+01 -0.59986468035E+00  0.47121707770E+01  0.51100000000E-03 0.  1.
         12    1    3    3    0    0 -0.19772569612E+02 -0.15945842055E+02 -0.27547870380E+02  0.37471449803E+02  0.00000000000E+00 0. -1.
</event>
<event>
 7    1  0.4083500E-009  0.4778727E+02  0.7816164E-02  0.1312668E+00
        -11   -1    0    0    0    0  0.00000000000E+00  0.00000000000E+00  0.45593999997E+02  0.45594000000E+02  0.51100000000E-03 0.  1.
         11   -1    0    0    0    0 -0.00000000000E+00 -0.00000000000E+00 -0.45593999997E+02  0.45594000000E+02  0.51100000000E-03 0. -1.
    9900012    2    1    2    0    0 -0.29984817529E+02 -0.28979872865E+02 -0.12029171038E+02  0.47787271096E+02  0.20000000234E+02 0.  0.
        -12    1    1    2    0    0  0.29984817529E+02  0.28979872865E+02  0.12029171038E+02  0.43400728904E+02  0.00000000000E+00 0.  1.
         11    1    3    3    0    0 -0.49190169343E+01 -0.70680925854E+01 -0.36958015096E+01  0.93708916041E+01  0.51100000000E-03 0. -1.
        -11    1    3    3    0    0 -0.18506816695E+02 -0.10163686032E+02  0.23382243044E+01  0.21243118206E+02  0.51100000000E-03 0.  1.
         12    1    3    3    0    0 -0.65589838995E+01 -0.11748094248E+02 -0.10671593833E+02  0.17173261286E+02  0.00000000000E+00 0. -1.
</event>
<event>
 7    1  0.4083500E-009  0.4778727E+02  0.7816164E-02  0.1312668E+00
        -11   -1    0    0    0    0  0.00000000000E+00  0.00000000000E+00  0.45593999997E+02  0.45594000000E+02  0.51100000000E-03 0. -1.
         11   -1    0    0    0    0 -0.00000000000E+00 -0.00000000000E+00 -0.45593999997E+02  0.45594000000E+02  0.51100000000E-03 0.  1.
    9900012    2    1    2    0    0 -0.70591334514E+01 -0.33033739597E+02  0.27250023899E+02  0.47787272825E+02  0.20000008117E+02 0.  0.
        -12    1    1    2    0    0  0.70591334514E+01  0.33033739597E+02 -0.27250023899E+02  0.43400727175E+02  0.00000000000E+00 0.  1.
         11    1    3    3    0    0 -0.58270186122E+01 -0.16095970240E+02  0.95739685692E+01  0.19613650306E+02  0.51100000000E-03 0. -1.
        -11    1    3    3    0    0 -0.72975454704E+01 -0.10892716021E+02  0.85162569317E+01  0.15634323286E+02  0.51100000000E-03 0.  1.
         12    1    3    3    0    0  0.60654306313E+01 -0.60450533350E+01  0.91597983985E+01  0.12539299233E+02  0.00000000000E+00 0. -1.
</event>
<event>
 7    1  0.4083500E-009  0.4778726E+02  0.7816164E-02  0.1312668E+00
        -11   -1    0    0    0    0  0.00000000000E+00  0.00000000000E+00  0.45593999997E+02  0.45594000000E+02  0.51100000000E-03 0. -1.
         11   -1    0    0    0    0 -0.00000000000E+00 -0.00000000000E+00 -0.45593999997E+02  0.45594000000E+02  0.51100000000E-03 0.  1.
    9900012    2    1    2    0    0  0.24385832817E+02  0.35076122884E+02  0.76564166804E+01  0.47787263196E+02  0.19999964215E+02 0.  0.
        -12    1    1    2    0    0 -0.24385832817E+02 -0.35076122884E+02 -0.76564166804E+01  0.43400736804E+02  0.00000000000E+00 0.  1.
         11    1    3    3    0    0  0.68245137557E+01  0.20008866978E+02  0.25132419661E+01  0.21289554509E+02  0.51100000000E-03 0. -1.
        -11    1    3    3    0    0  0.38935980862E+01  0.55076505993E+01  0.69936692727E+01  0.97162611810E+01  0.51100000000E-03 0.  1.
        -12    1    3    3    0    0  0.13667720976E+02  0.95596053060E+01 -0.18504945584E+01  0.16781447506E+02  0.00000000000E+00 0.  1.
</event>
<event>
 7    1  0.4083500E-009  0.4778727E+02  0.7816164E-02  0.1312668E+00
        -11   -1    0    0    0    0  0.00000000000E+00  0.00000000000E+00  0.45593999997E+02  0.45594000000E+02  0.51100000000E-03 0.  1.
         11   -1    0    0    0    0 -0.00000000000E+00 -0.00000000000E+00 -0.45593999997E+02  0.45594000000E+02  0.51100000000E-03 0. -1.
    9900012    2    1    2    0    0 -0.28959534206E+02  0.22200970167E+02 -0.23496500482E+02  0.47787271519E+02  0.20000002162E+02 0.  0.
        -12    1    1    2    0    0  0.28959534206E+02 -0.22200970167E+02  0.23496500482E+02  0.43400728481E+02  0.00000000000E+00 0.  1.
         11    1    3    3    0    0 -0.24443128485E+01  0.39178546603E+01 -0.68956409658E+01  0.82990430190E+01  0.51100000000E-03 0. -1.
        -11    1    3    3    0    0 -0.17850726074E+02  0.27812453807E+01 -0.80719907720E+01  0.19787389482E+02  0.51100000000E-03 0.  1.
         12    1    3    3    0    0 -0.86644952842E+01  0.15501870126E+02 -0.85288687440E+01  0.19700839018E+02  0.00000000000E+00 0. -1.
</event>
<event>
 7    1  0.4083500E-009  0.4778728E+02  0.7816164E-02  0.1312668E+00
        -11   -1    0    0    0    0  0.00000000000E+00  0.00000000000E+00  0.45593999997E+02  0.45594000000E+02  0.51100000000E-03 0.  1.
         11   -1    0    0    0    0 -0.00000000000E+00 -0.00000000000E+00 -0.45593999997E+02  0.45594000000E+02  0.51100000000E-03 0. -1.
    9900012    2    1    2    0    0 -0.25711759626E+02 -0.30924657309E+02 -0.16315441377E+02  0.47787278347E+02  0.20000033293E+02 0.  0.
        -12    1    1    2    0    0  0.25711759626E+02  0.30924657309E+02  0.16315441377E+02  0.43400721653E+02  0.00000000000E+00 0.  1.
         11    1    3    3    0    0 -0.23410650760E+01 -0.84728102949E+01  0.22978015289E+00  0.87932871648E+01  0.51100000000E-03 0. -1.
        -11    1    3    3    0    0 -0.40767564372E+01 -0.98345832492E+01 -0.10948393767E+02  0.15271093513E+02  0.51100000000E-03 0.  1.
        -12    1    3    3    0    0 -0.19293938113E+02 -0.12617263765E+02 -0.55968277620E+01  0.23722897669E+02  0.00000000000E+00 0.  1.
</event>
<event>
 7    1  0.4083500E-009  0.4778727E+02  0.7816164E-02  0.1312668E+00
        -11   -1    0    0    0    0  0.00000000000E+00  0.00000000000E+00  0.45593999997E+02  0.45594000000E+02  0.51100000000E-03 0.  1.
         11   -1    0    0    0    0 -0.00000000000E+00 -0.00000000000E+00 -0.45593999997E+02  0.45594000000E+02  0.51100000000E-03 0. -1.
    9900012    2    1    2    0    0  0.25877981515E+02  0.27823566089E+02  0.20971463552E+02  0.47787273731E+02  0.20000012249E+02 0.  0.
        -12    1    1    2    0    0 -0.25877981515E+02 -0.27823566089E+02 -0.20971463552E+02  0.43400726269E+02  0.00000000000E+00 0.  1.
         11    1    3    3    0    0  0.87982857681E+01  0.38341721470E+01  0.23613530305E+00  0.96003369031E+01  0.51100000000E-03 0. -1.
        -11    1    3    3    0    0  0.56060161372E+00 -0.88125632851E+00 -0.84835790630E+00  0.13455847369E+01  0.51100000000E-03 0.  1.
        -12    1    3    3    0    0  0.16519094133E+02  0.24870650270E+02  0.21583686155E+02  0.36841352091E+02  0.00000000000E+00 0.  1.
</event>
<event>
 7    1  0.4083500E-009  0.4778726E+02  0.7816164E-02  0.1312668E+00
        -11   -1    0    0    0    0  0.00000000000E+00  0.00000000000E+00  0.45593999997E+02  0.45594000000E+02  0.51100000000E-03 0.  1.
         11   -1    0    0    0    0 -0.00000000000E+00 -0.00000000000E+00 -0.45593999997E+02  0.45594000000E+02  0.51100000000E-03 0. -1.
    9900012    2    1    2    0    0  0.85422507631E+01  0.27464014754E+02 -0.32502029155E+02  0.47787262061E+02  0.19999959040E+02 0.  0.
        -12    1    1    2    0    0 -0.85422507631E+01 -0.27464014754E+02  0.32502029155E+02  0.43400737939E+02  0.00000000000E+00 0.  1.
         11    1    3    3    0    0  0.29186445888E+01  0.17616005382E+02 -0.17952224020E+02  0.25320436003E+02  0.51100000000E-03 0. -1.
        -11    1    3    3    0    0 -0.36921228917E+01  0.39248669858E+01 -0.19878367443E+01  0.57435048087E+01  0.51100000000E-03 0.  1.
         12    1    3    3    0    0  0.93157290660E+01  0.59231423858E+01 -0.12561968390E+02  0.16723321249E+02  0.00000000000E+00 0. -1.
</event>
<event>
 7    1  0.4083500E-009  0.4778727E+02  0.7816164E-02  0.1312668E+00
        -11   -1    0    0    0    0  0.00000000000E+00  0.00000000000E+00  0.45593999997E+02  0.45594000000E+02  0.51100000000E-03 0.  1.
         11   -1    0    0    0    0 -0.00000000000E+00 -0.00000000000E+00 -0.45593999997E+02  0.45594000000E+02  0.51100000000E-03 0. -1.
    9900012    2    1    2    0    0  0.40127519308E+02  0.14119415294E+02  0.86050876472E+01  0.47787271579E+02  0.20000002436E+02 0.  0.
        -12    1    1    2    0    0 -0.40127519308E+02 -0.14119415294E+02 -0.86050876472E+01  0.43400728421E+02  0.00000000000E+00 0.  1.
         11    1    3    3    0    0  0.96417272015E+01  0.13261736213E+01 -0.29301631598E+01  0.10164029531E+02  0.51100000000E-03 0. -1.
        -11    1    3    3    0    0  0.61699048770E+01 -0.10142062692E+01 -0.19894871676E+01  0.65615851742E+01  0.51100000000E-03 0.  1.
        -12    1    3    3    0    0  0.24315887230E+02  0.13807447942E+02  0.13524737975E+02  0.31061656873E+02  0.00000000000E+00 0.  1.
</event>
<event>
 7    1  0.4083500E-009  0.4778728E+02  0.7816164E-02  0.1312668E+00
        -11   -1    0    0    0    0  0.00000000000E+00  0.00000000000E+00  0.45593999997E+02  0.45594000000E+02  0.51100000000E-03 0. -1.
         11   -1    0    0    0    0 -0.00000000000E+00 -0.00000000000E+00 -0.45593999997E+02  0.45594000000E+02  0.51100000000E-03 0.  1.
    9900012    2    1    2    0    0  0.23708433724E+02 -0.18391802989E+02  0.31357206298E+02  0.47787278420E+02  0.20000033629E+02 0.  0.
        -12    1    1    2    0    0 -0.23708433724E+02  0.18391802989E+02 -0.31357206298E+02  0.43400721580E+02  0.00000000000E+00 0.  1.
         11    1    3    3    0    0  0.10419608625E+02 -0.10367167031E+02  0.20639685795E+02  0.25338567957E+02  0.51100000000E-03 0. -1.
        -11    1    3    3    0    0  0.15249075167E+02 -0.71275005785E+01  0.11227467747E+02  0.20233427544E+02  0.51100000000E-03 0.  1.
        -12    1    3    3    0    0 -0.19602500674E+01 -0.89713537978E+00 -0.50994724398E+00  0.22152829183E+01  0.00000000000E+00 0.  1.
</event>
<event>
 7    1  0.4083500E-009  0.4778727E+02  0.7816164E-02  0.1312668E+00
        -11   -1    0    0    0    0  0.00000000000E+00  0.00000000000E+00  0.45593999997E+02  0.45594000000E+02  0.51100000000E-03 0.  1.
         11   -1    0    0    0    0 -0.00000000000E+00 -0.00000000000E+00 -0.45593999997E+02  0.45594000000E+02  0.51100000000E-03 0. -1.
    9900012    2    1    2    0    0 -0.14582236801E+01  0.17388153556E+02 -0.39738508082E+02  0.47787270456E+02  0.19999997318E+02 0.  0.
        -12    1    1    2    0    0  0.14582236801E+01 -0.17388153556E+02  0.39738508082E+02  0.43400729544E+02  0.00000000000E+00 0.  1.
         11    1    3    3    0    0  0.29615809488E+01  0.15816852298E+02 -0.18971286901E+02  0.24876766375E+02  0.51100000000E-03 0.  1.
        -11    1    3    3    0    0 -0.43183779695E+01  0.47758553350E+01 -0.12984729467E+02  0.14493459975E+02  0.51100000000E-03 0. -1.
        -12    1    3    3    0    0 -0.10142665936E+00 -0.32045540774E+01 -0.77824917138E+01  0.84170441057E+01  0.00000000000E+00 0.  1.
</event>
<event>
 7    1  0.4083500E-009  0.4778727E+02  0.7816164E-02  0.1312668E+00
        -11   -1    0    0    0    0  0.00000000000E+00  0.00000000000E+00  0.45593999997E+02  0.45594000000E+02  0.51100000000E-03 0.  1.
         11   -1    0    0    0    0 -0.00000000000E+00 -0.00000000000E+00 -0.45593999997E+02  0.45594000000E+02  0.51100000000E-03 0. -1.
    9900012    2    1    2    0    0 -0.37795642084E+02  0.98190110433E+01 -0.18939383165E+02  0.47787265293E+02  0.19999973778E+02 0.  0.
        -12    1    1    2    0    0  0.37795642084E+02 -0.98190110433E+01  0.18939383165E+02  0.43400734707E+02  0.00000000000E+00 0.  1.
         11    1    3    3    0    0 -0.76295853813E+00 -0.12193419914E+01 -0.34497339188E+01  0.37375881253E+01  0.51100000000E-03 0. -1.
        -11    1    3    3    0    0 -0.11361459659E+02  0.57155615233E+01 -0.12205770971E+02  0.17627570858E+02  0.51100000000E-03 0.  1.
         12    1    3    3    0    0 -0.25671223886E+02  0.53227915114E+01 -0.32838782758E+01  0.26422106310E+02  0.00000000000E+00 0. -1.
</event>
<event>
 7    1  0.4083500E-009  0.4778727E+02  0.7816164E-02  0.1312668E+00
        -11   -1    0    0    0    0  0.00000000000E+00  0.00000000000E+00  0.45593999997E+02  0.45594000000E+02  0.51100000000E-03 0. -1.
         11   -1    0    0    0    0 -0.00000000000E+00 -0.00000000000E+00 -0.45593999997E+02  0.45594000000E+02  0.51100000000E-03 0.  1.
    9900012    2    1    2    0    0 -0.29577615546E+02  0.25604723436E+02  0.18793247692E+02  0.47787270024E+02  0.19999995348E+02 0.  0.
        -12    1    1    2    0    0  0.29577615546E+02 -0.25604723436E+02 -0.18793247692E+02  0.43400729976E+02  0.00000000000E+00 0.  1.
         11    1    3    3    0    0 -0.28594749041E+01 -0.16720090811E+00 -0.15459809388E+01  0.32549362812E+01  0.51100000000E-03 0.  1.
        -11    1    3    3    0    0 -0.24913993857E+02  0.27083701861E+02  0.17049365301E+02  0.40557549899E+02  0.51100000000E-03 0. -1.
         12    1    3    3    0    0 -0.18041467848E+01 -0.13117775167E+01  0.32898633297E+01  0.39747838435E+01  0.00000000000E+00 0. -1.
</event>
<event>
 7    1  0.4083500E-009  0.4778727E+02  0.7816164E-02  0.1312668E+00
        -11   -1    0    0    0    0  0.00000000000E+00  0.00000000000E+00  0.45593999997E+02  0.45594000000E+02  0.51100000000E-03 0. -1.
         11   -1    0    0    0    0 -0.00000000000E+00 -0.00000000000E+00 -0.45593999997E+02  0.45594000000E+02  0.51100000000E-03 0.  1.
    9900012    2    1    2    0    0  0.17455807859E+02 -0.39179921423E+02  0.66220821661E+01  0.47787269097E+02  0.19999991122E+02 0.  0.
        -12    1    1    2    0    0 -0.17455807859E+02  0.39179921423E+02 -0.66220821661E+01  0.43400730903E+02  0.00000000000E+00 0.  1.
         11    1    3    3    0    0 -0.53256830679E+00 -0.19429838094E+02  0.46284316775E+01  0.19980606033E+02  0.51100000000E-03 0. -1.
        -11    1    3    3    0    0  0.28031549803E+01 -0.21237684974E+01 -0.22254543366E+01  0.41618166393E+01  0.51100000000E-03 0.  1.
         12    1    3    3    0    0  0.15185221185E+02 -0.17626314831E+02  0.42191048252E+01  0.23644846425E+02  0.00000000000E+00 0. -1.
</event>
<event>
 7    1  0.4083500E-009  0.4778727E+02  0.7816164E-02  0.1312668E+00
        -11   -1    0    0    0    0  0.00000000000E+00  0.00000000000E+00  0.45593999997E+02  0.45594000000E+02  0.51100000000E-03 0.  1.
         11   -1    0    0    0    0 -0.00000000000E+00 -0.00000000000E+00 -0.45593999997E+02  0.45594000000E+02  0.51100000000E-03 0. -1.
    9900012    2    1    2    0    0  0.30747596076E+02  0.20591702375E+02 -0.22675766673E+02  0.47787271143E+02  0.20000000449E+02 0.  0.
        -12    1    1    2    0    0 -0.30747596076E+02 -0.20591702375E+02  0.22675766673E+02  0.43400728857E+02  0.00000000000E+00 0.  1.
         11    1    3    3    0    0  0.14688200595E+02  0.13427790836E+02 -0.11093613156E+02  0.22784140461E+02  0.51100000000E-03 0. -1.
        -11    1    3    3    0    0  0.90611794663E+01  0.69402345487E+01 -0.13563090427E+02  0.17726512661E+02  0.51100000000E-03 0.  1.
         12    1    3    3    0    0  0.69982160145E+01  0.22367699078E+00  0.19809369104E+01  0.72766180211E+01  0.00000000000E+00 0. -1.
</event>
<event>
 7    1  0.4083500E-009  0.4778729E+02  0.7816164E-02  0.1312668E+00
        -11   -1    0    0    0    0  0.00000000000E+00  0.00000000000E+00  0.45593999997E+02  0.45594000000E+02  0.51100000000E-03 0.  1.
         11   -1    0    0    0    0 -0.00000000000E+00 -0.00000000000E+00 -0.45593999997E+02  0.45594000000E+02  0.51100000000E-03 0. -1.
    9900012    2    1    2    0    0 -0.26031106502E+02  0.19395409932E+02 -0.28806621145E+02  0.47787287403E+02  0.20000074584E+02 0.  0.
        -12    1    1    2    0    0  0.26031106502E+02 -0.19395409932E+02  0.28806621145E+02  0.43400712597E+02  0.00000000000E+00 0.  1.
         11    1    3    3    0    0  0.53659865822E+00 -0.51015754822E+00  0.48857118868E+00  0.88707435513E+00  0.51100000000E-03 0. -1.
        -11    1    3    3    0    0 -0.21550339257E+02  0.10733420844E+02 -0.12526106652E+02  0.27139027124E+02  0.51100000000E-03 0.  1.
         12    1    3    3    0    0 -0.50173659036E+01  0.91721466360E+01 -0.16769085681E+02  0.19761185924E+02  0.00000000000E+00 0. -1.
</event>
<event>
 7    1  0.4447237E-009  0.4778727E+02  0.7816164E-02  0.1312668E+00
        -11   -1    0    0    0    0  0.00000000000E+00  0.00000000000E+00  0.45593999997E+02  0.45594000000E+02  0.51100000000E-03 0. -1.
         11   -1    0    0    0    0 -0.00000000000E+00 -0.00000000000E+00 -0.45593999997E+02  0.45594000000E+02  0.51100000000E-03 0.  1.
    9900012    2    1    2    0    0  0.20643505978E+02  0.28812640879E+02  0.25045972287E+02  0.47787270268E+02  0.19999996458E+02 0.  0.
        -12    1    1    2    0    0 -0.20643505978E+02 -0.28812640879E+02 -0.25045972287E+02  0.43400729732E+02  0.00000000000E+00 0.  1.
         11    1    3    3    0    0  0.32131168273E+01  0.64424842079E+01  0.10443194071E+00  0.72000436670E+01  0.51100000000E-03 0. -1.
        -11    1    3    3    0    0 -0.10101644679E+01 -0.94544218162E+00  0.39792927606E+01  0.42129638387E+01  0.51100000000E-03 0.  1.
         12    1    3    3    0    0  0.18440553619E+02  0.23315598852E+02  0.20962247586E+02  0.36374262762E+02  0.00000000000E+00 0. -1.
</event>
<event>
 7    1  0.4083500E-009  0.4778727E+02  0.7816164E-02  0.1312668E+00
        -11   -1    0    0    0    0  0.00000000000E+00  0.00000000000E+00  0.45593999997E+02  0.45594000000E+02  0.51100000000E-03 0. -1.
         11   -1    0    0    0    0 -0.00000000000E+00 -0.00000000000E+00 -0.45593999997E+02  0.45594000000E+02  0.51100000000E-03 0.  1.
    9900012    2    1    2    0    0 -0.40732904956E+02  0.11746035076E+02  0.92996944101E+01  0.47787271869E+02  0.20000003760E+02 0.  0.
        -12    1    1    2    0    0  0.40732904956E+02 -0.11746035076E+02 -0.92996944101E+01  0.43400728131E+02  0.00000000000E+00 0.  1.
         11    1    3    3    0    0 -0.93545379439E+01  0.10343163143E+01  0.17854841739E+01  0.95794125278E+01  0.51100000000E-03 0. -1.
        -11    1    3    3    0    0 -0.54421295586E+01  0.91439536983E+01 -0.14112053081E+01  0.10734065588E+02  0.51100000000E-03 0.  1.
        -12    1    3    3    0    0 -0.25936237454E+02  0.15677650637E+01  0.89254155442E+01  0.27473793753E+02  0.00000000000E+00 0.  1.
</event>
<event>
 7    1  0.4083500E-009  0.4778728E+02  0.7816164E-02  0.1312668E+00
        -11   -1    0    0    0    0  0.00000000000E+00  0.00000000000E+00  0.45593999997E+02  0.45594000000E+02  0.51100000000E-03 0.  1.
         11   -1    0    0    0    0 -0.00000000000E+00 -0.00000000000E+00 -0.45593999997E+02  0.45594000000E+02  0.51100000000E-03 0. -1.
    9900012    2    1    2    0    0 -0.25880247466E+02 -0.71691962854E+01 -0.34094549095E+02  0.47787275787E+02  0.20000021623E+02 0.  0.
        -12    1    1    2    0    0  0.25880247466E+02  0.71691962854E+01  0.34094549095E+02  0.43400724213E+02  0.00000000000E+00 0.  1.
         11    1    3    3    0    0  0.40514724739E+00  0.85414393763E+00  0.52296000479E+00  0.10803673385E+01  0.51100000000E-03 0. -1.
        -11    1    3    3    0    0 -0.94746978453E+01 -0.73985074875E+01 -0.58198976443E+01  0.13355860929E+02  0.51100000000E-03 0.  1.
         12    1    3    3    0    0 -0.16810696868E+02 -0.62483273549E+00 -0.28797611455E+02  0.33351047519E+02  0.00000000000E+00 0. -1.
</event>
<event>
 7    1  0.4083500E-009  0.4778726E+02  0.7816164E-02  0.1312668E+00
        -11   -1    0    0    0    0  0.00000000000E+00  0.00000000000E+00  0.45593999997E+02  0.45594000000E+02  0.51100000000E-03 0.  1.
         11   -1    0    0    0    0 -0.00000000000E+00 -0.00000000000E+00 -0.45593999997E+02  0.45594000000E+02  0.51100000000E-03 0. -1.
    9900012    2    1    2    0    0  0.52655210081E+01 -0.29202118619E+02 -0.31672297697E+02  0.47787264007E+02  0.19999967912E+02 0.  0.
        -12    1    1    2    0    0 -0.52655210081E+01  0.29202118619E+02  0.31672297697E+02  0.43400735993E+02  0.00000000000E+00 0.  1.
         11    1    3    3    0    0  0.41927287205E+01  0.26689861183E+00 -0.12584110903E+01  0.43856365246E+01  0.51100000000E-03 0. -1.
        -11    1    3    3    0    0  0.51871566126E+01 -0.14377706272E+02 -0.13986739657E+02  0.20718443905E+02  0.51100000000E-03 0.  1.
        -12    1    3    3    0    0 -0.41143643250E+01 -0.15091310960E+02 -0.16427146950E+02  0.22683183577E+02  0.00000000000E+00 0.  1.
</event>
<event>
 7    1  0.4083500E-009  0.4778729E+02  0.7816164E-02  0.1312668E+00
        -11   -1    0    0    0    0  0.00000000000E+00  0.00000000000E+00  0.45593999997E+02  0.45594000000E+02  0.51100000000E-03 0.  1.
         11   -1    0    0    0    0 -0.00000000000E+00 -0.00000000000E+00 -0.45593999997E+02  0.45594000000E+02  0.51100000000E-03 0. -1.
    9900012    2    1    2    0    0 -0.15789142244E+02 -0.21700938952E+02 -0.34108556511E+02  0.47787292731E+02  0.20000098876E+02 0.  0.
        -12    1    1    2    0    0  0.15789142244E+02  0.21700938952E+02  0.34108556511E+02  0.43400707269E+02  0.00000000000E+00 0.  1.
         11    1    3    3    0    0 -0.60174404472E+01 -0.21433038805E+01 -0.74672224239E+01  0.98266348284E+01  0.51100000000E-03 0. -1.
        -11    1    3    3    0    0 -0.12158648758E+02 -0.98337731135E+01 -0.10070409881E+02  0.18599703995E+02  0.51100000000E-03 0.  1.
         12    1    3    3    0    0  0.23869469608E+01 -0.97238619582E+01 -0.16570924206E+02  0.19360953907E+02  0.00000000000E+00 0. -1.
</event>
<event>
 7    1  0.4083500E-009  0.4778727E+02  0.7816164E-02  0.1312668E+00
        -11   -1    0    0    0    0  0.00000000000E+00  0.00000000000E+00  0.45593999997E+02  0.45594000000E+02  0.51100000000E-03 0.  1.
         11   -1    0    0    0    0 -0.00000000000E+00 -0.00000000000E+00 -0.45593999997E+02  0.45594000000E+02  0.51100000000E-03 0. -1.
    9900012    2    1    2    0    0  0.52743549210E+01 -0.30126869244E+02 -0.30792464704E+02  0.47787274743E+02  0.20000016862E+02 0.  0.
        -12    1    1    2    0    0 -0.52743549210E+01  0.30126869244E+02  0.30792464704E+02  0.43400725257E+02  0.00000000000E+00 0.  1.
         11    1    3    3    0    0 -0.55429219285E+00 -0.67744238994E+01 -0.17834303901E+01  0.70271390495E+01  0.51100000000E-03 0. -1.
        -11    1    3    3    0    0  0.95044334723E+01 -0.20324283759E+02 -0.17998671923E+02  0.28763917626E+02  0.51100000000E-03 0.  1.
         12    1    3    3    0    0 -0.36757863584E+01 -0.30281615863E+01 -0.11010362391E+02  0.11996218067E+02  0.00000000000E+00 0. -1.
</event>
<event>
 7    1  0.4083500E-009  0.4778727E+02  0.7816164E-02  0.1312668E+00
        -11   -1    0    0    0    0  0.00000000000E+00  0.00000000000E+00  0.45593999997E+02  0.45594000000E+02  0.51100000000E-03 0.  1.
         11   -1    0    0    0    0 -0.00000000000E+00 -0.00000000000E+00 -0.45593999997E+02  0.45594000000E+02  0.51100000000E-03 0. -1.
    9900012    2    1    2    0    0  0.13819796844E+02 -0.37553051391E+02 -0.16804905488E+02  0.47787270720E+02  0.19999998519E+02 0.  0.
        -12    1    1    2    0    0 -0.13819796844E+02  0.37553051391E+02  0.16804905488E+02  0.43400729280E+02  0.00000000000E+00 0.  1.
         11    1    3    3    0    0  0.20842866152E+01 -0.25805873002E+01 -0.37606626774E+01  0.50146052230E+01  0.51100000000E-03 0. -1.
        -11    1    3    3    0    0 -0.10961096183E+01 -0.24154319265E+01  0.32296366352E+01  0.41792727529E+01  0.51100000000E-03 0.  1.
         12    1    3    3    0    0  0.12831619847E+02 -0.32557032164E+02 -0.16273879446E+02  0.38593392744E+02  0.00000000000E+00 0. -1.
</event>
<event>
 7    1  0.4083500E-009  0.4778727E+02  0.7816164E-02  0.1312668E+00
        -11   -1    0    0    0    0  0.00000000000E+00  0.00000000000E+00  0.45593999997E+02  0.45594000000E+02  0.51100000000E-03 0.  1.
         11   -1    0    0    0    0 -0.00000000000E+00 -0.00000000000E+00 -0.45593999997E+02  0.45594000000E+02  0.51100000000E-03 0. -1.
    9900012    2    1    2    0    0  0.26463610457E+02  0.12059556510E+02 -0.32215952591E+02  0.47787272092E+02  0.20000004775E+02 0.  0.
        -12    1    1    2    0    0 -0.26463610457E+02 -0.12059556510E+02  0.32215952591E+02  0.43400727908E+02  0.00000000000E+00 0.  1.
         11    1    3    3    0    0  0.37994777417E+00  0.49793175186E+00 -0.99990753020E+01  0.10018672741E+02  0.51100000000E-03 0. -1.
        -11    1    3    3    0    0  0.10472013148E+02  0.14432149503E+01 -0.29258766572E+01  0.10968440329E+02  0.51100000000E-03 0.  1.
         12    1    3    3    0    0  0.15611649534E+02  0.10118409808E+02 -0.19291000631E+02  0.26800159022E+02  0.00000000000E+00 0. -1.
</event>
<event>
 7    1  0.4083500E-009  0.4778727E+02  0.7816164E-02  0.1312668E+00
        -11   -1    0    0    0    0  0.00000000000E+00  0.00000000000E+00  0.45593999997E+02  0.45594000000E+02  0.51100000000E-03 0.  1.
         11   -1    0    0    0    0 -0.00000000000E+00 -0.00000000000E+00 -0.45593999997E+02  0.45594000000E+02  0.51100000000E-03 0. -1.
    9900012    2    1    2    0    0 -0.21165937857E+02  0.24038990828E+02 -0.29287421875E+02  0.47787273215E+02  0.20000009897E+02 0.  0.
        -12    1    1    2    0    0  0.21165937857E+02 -0.24038990828E+02  0.29287421875E+02  0.43400726785E+02  0.00000000000E+00 0.  1.
         11    1    3    3    0    0 -0.12574142895E+02  0.12126527889E+02 -0.21662263299E+02  0.27828320102E+02  0.51100000000E-03 0. -1.
        -11    1    3    3    0    0 -0.62970873510E+01  0.13914206330E+02 -0.71981001558E+01  0.16884048478E+02  0.51100000000E-03 0.  1.
         12    1    3    3    0    0 -0.22947076107E+01 -0.20017433907E+01 -0.42705842001E+00  0.30749046351E+01  0.00000000000E+00 0. -1.
</event>
<event>
 7    1  0.4083500E-009  0.4778727E+02  0.7816164E-02  0.1312668E+00
        -11   -1    0    0    0    0  0.00000000000E+00  0.00000000000E+00  0.45593999997E+02  0.45594000000E+02  0.51100000000E-03 0. -1.
         11   -1    0    0    0    0 -0.00000000000E+00 -0.00000000000E+00 -0.45593999997E+02  0.45594000000E+02  0.51100000000E-03 0.  1.
    9900012    2    1    2    0    0 -0.19641500391E+02 -0.30032713698E+02  0.24410468480E+02  0.47787269579E+02  0.19999993318E+02 0.  0.
        -12    1    1    2    0    0  0.19641500391E+02  0.30032713698E+02 -0.24410468480E+02  0.43400730421E+02  0.00000000000E+00 0.  1.
         11    1    3    3    0    0 -0.15322715960E+02 -0.22935390592E+02  0.26630189006E+02  0.38340379925E+02  0.51100000000E-03 0. -1.
        -11    1    3    3    0    0 -0.49007861173E-01 -0.22215892180E+01  0.71227701947E+00  0.23334950692E+01  0.51100000000E-03 0.  1.
        -12    1    3    3    0    0 -0.42697765706E+01 -0.48757338879E+01 -0.29319975464E+01  0.71133945849E+01  0.00000000000E+00 0.  1.
</event>
<event>
 7    1  0.4083500E-009  0.4778727E+02  0.7816164E-02  0.1312668E+00
        -11   -1    0    0    0    0  0.00000000000E+00  0.00000000000E+00  0.45593999997E+02  0.45594000000E+02  0.51100000000E-03 0.  1.
         11   -1    0    0    0    0 -0.00000000000E+00 -0.00000000000E+00 -0.45593999997E+02  0.45594000000E+02  0.51100000000E-03 0. -1.
    9900012    2    1    2    0    0  0.10958230245E+02 -0.10720364469E+02 -0.40603135703E+02  0.47787266672E+02  0.19999980065E+02 0.  0.
        -12    1    1    2    0    0 -0.10958230245E+02  0.10720364469E+02  0.40603135703E+02  0.43400733328E+02  0.00000000000E+00 0.  1.
         11    1    3    3    0    0 -0.83184079710E+00  0.11181374648E+01 -0.33903987345E+01  0.36656506028E+01  0.51100000000E-03 0. -1.
        -11    1    3    3    0    0 -0.16243542564E+01 -0.21815657759E+01  0.66027925500E+00  0.27988792293E+01  0.51100000000E-03 0.  1.
         12    1    3    3    0    0  0.13414425299E+02 -0.96569361583E+01 -0.37873016224E+02  0.41322736840E+02  0.00000000000E+00 0. -1.
</event>
<event>
 7    1  0.4083500E-009  0.4778727E+02  0.7816164E-02  0.1312668E+00
        -11   -1    0    0    0    0  0.00000000000E+00  0.00000000000E+00  0.45593999997E+02  0.45594000000E+02  0.51100000000E-03 0.  1.
         11   -1    0    0    0    0 -0.00000000000E+00 -0.00000000000E+00 -0.45593999997E+02  0.45594000000E+02  0.51100000000E-03 0. -1.
    9900012    2    1    2    0    0  0.23112849315E+02 -0.34059666970E+02 -0.13760770922E+02  0.47787268048E+02  0.19999986340E+02 0.  0.
        -12    1    1    2    0    0 -0.23112849315E+02  0.34059666970E+02  0.13760770922E+02  0.43400731952E+02  0.00000000000E+00 0.  1.
         11    1    3    3    0    0  0.17378592192E+00 -0.10593784798E+01  0.14563345176E+01  0.18092525524E+01  0.51100000000E-03 0. -1.
        -11    1    3    3    0    0 -0.20316668102E+01 -0.32585847406E+01 -0.40251694814E+01  0.55630957348E+01  0.51100000000E-03 0.  1.
         12    1    3    3    0    0  0.24970730204E+02 -0.29741703750E+02 -0.11191935958E+02  0.40414919761E+02  0.00000000000E+00 0. -1.
</event>
<event>
 7    1  0.4083500E-009  0.4778727E+02  0.7816164E-02  0.1312668E+00
        -11   -1    0    0    0    0  0.00000000000E+00  0.00000000000E+00  0.45593999997E+02  0.45594000000E+02  0.51100000000E-03 0.  1.
         11   -1    0    0    0    0 -0.00000000000E+00 -0.00000000000E+00 -0.45593999997E+02  0.45594000000E+02  0.51100000000E-03 0. -1.
    9900012    2    1    2    0    0 -0.39214461478E+02  0.12580880247E+02 -0.13695642195E+02  0.47787272450E+02  0.20000006407E+02 0.  0.
        -12    1    1    2    0    0  0.39214461478E+02 -0.12580880247E+02  0.13695642195E+02  0.43400727550E+02  0.00000000000E+00 0.  1.
         11    1    3    3    0    0 -0.11675781210E+02 -0.51573179043E+01 -0.33236080194E+01  0.13189699214E+02  0.51100000000E-03 0. -1.
        -11    1    3    3    0    0 -0.13013260870E+01  0.19966101865E+01 -0.11104319646E+01  0.26292510779E+01  0.51100000000E-03 0.  1.
         12    1    3    3    0    0 -0.26237354181E+02  0.15741587965E+02 -0.92616022107E+01  0.31968322157E+02  0.00000000000E+00 0. -1.
</event>
<event>
 7    1  0.4083500E-009  0.4778727E+02  0.7816164E-02  0.1312668E+00
        -11   -1    0    0    0    0  0.00000000000E+00  0.00000000000E+00  0.45593999997E+02  0.45594000000E+02  0.51100000000E-03 0. -1.
         11   -1    0    0    0    0 -0.00000000000E+00 -0.00000000000E+00 -0.45593999997E+02  0.45594000000E+02  0.51100000000E-03 0.  1.
    9900012    2    1    2    0    0  0.39908839947E+02  0.11636141780E+02 -0.12470286367E+02  0.47787270242E+02  0.19999996343E+02 0.  0.
        -12    1    1    2    0    0 -0.39908839947E+02 -0.11636141780E+02  0.12470286367E+02  0.43400729758E+02  0.00000000000E+00 0.  1.
         11    1    3    3    0    0  0.26555924185E+02  0.49320282614E+01 -0.45244862618E+01  0.27386365007E+02  0.51100000000E-03 0. -1.
        -11    1    3    3    0    0  0.11498459011E+02 -0.31903476992E+00 -0.53615589301E+01  0.12691046341E+02  0.51100000000E-03 0.  1.
        -12    1    3    3    0    0  0.18544567513E+01  0.70231482886E+01 -0.25842411753E+01  0.77098588948E+01  0.00000000000E+00 0.  1.
</event>
<event>
 7    1  0.4083500E-009  0.4778728E+02  0.7816164E-02  0.1312668E+00
        -11   -1    0    0    0    0  0.00000000000E+00  0.00000000000E+00  0.45593999997E+02  0.45594000000E+02  0.51100000000E-03 0.  1.
         11   -1    0    0    0    0 -0.00000000000E+00 -0.00000000000E+00 -0.45593999997E+02  0.45594000000E+02  0.51100000000E-03 0. -1.
    9900012    2    1    2    0    0 -0.36383928632E+02 -0.21773895075E+02  0.92590481627E+01  0.47787277169E+02  0.20000027922E+02 0.  0.
        -12    1    1    2    0    0  0.36383928632E+02  0.21773895075E+02 -0.92590481627E+01  0.43400722831E+02  0.00000000000E+00 0.  1.
         11    1    3    3    0    0  0.31816696771E-01 -0.80833349828E+00  0.51789177369E+00  0.96053500561E+00  0.51100000000E-03 0. -1.
        -11    1    3    3    0    0 -0.11336197212E+02 -0.17231652685E+02  0.46332388540E+01  0.21140154304E+02  0.51100000000E-03 0.  1.
         12    1    3    3    0    0 -0.25079548117E+02 -0.37339088921E+01  0.41079175350E+01  0.25686587859E+02  0.00000000000E+00 0. -1.
</event>
<event>
 7    1  0.4083500E-009  0.4778727E+02  0.7816164E-02  0.1312668E+00
        -11   -1    0    0    0    0  0.00000000000E+00  0.00000000000E+00  0.45593999997E+02  0.45594000000E+02  0.51100000000E-03 0.  1.
         11   -1    0    0    0    0 -0.00000000000E+00 -0.00000000000E+00 -0.45593999997E+02  0.45594000000E+02  0.51100000000E-03 0. -1.
    9900012    2    1    2    0    0  0.19428782138E+02  0.15794470581E+02 -0.35449686521E+02  0.47787272463E+02  0.20000006469E+02 0.  0.
        -12    1    1    2    0    0 -0.19428782138E+02 -0.15794470581E+02  0.35449686521E+02  0.43400727537E+02  0.00000000000E+00 0.  1.
         11    1    3    3    0    0  0.24039710533E+01 -0.88365674773E-01 -0.91999704025E-01  0.24073532197E+01  0.51100000000E-03 0. -1.
        -11    1    3    3    0    0 -0.70405391074E+00  0.44790732942E+01 -0.16447918247E+02  0.17061412731E+02  0.51100000000E-03 0.  1.
         12    1    3    3    0    0  0.17728864995E+02  0.11403762961E+02 -0.18909768570E+02  0.28318506512E+02  0.00000000000E+00 0. -1.
</event>
<event>
 7    1  0.4083500E-009  0.4778727E+02  0.7816164E-02  0.1312668E+00
        -11   -1    0    0    0    0  0.00000000000E+00  0.00000000000E+00  0.45593999997E+02  0.45594000000E+02  0.51100000000E-03 0.  1.
         11   -1    0    0    0    0 -0.00000000000E+00 -0.00000000000E+00 -0.45593999997E+02  0.45594000000E+02  0.51100000000E-03 0. -1.
    9900012    2    1    2    0    0 -0.32296295637E+02 -0.53133667074E+01 -0.28501595550E+02  0.47787268134E+02  0.19999986729E+02 0.  0.
        -12    1    1    2    0    0  0.32296295637E+02  0.53133667074E+01  0.28501595550E+02  0.43400731866E+02  0.00000000000E+00 0.  1.
         11    1    3    3    0    0 -0.86370448119E+01 -0.20759388891E+01 -0.18463245847E+01  0.90728705539E+01  0.51100000000E-03 0. -1.
        -11    1    3    3    0    0 -0.19402889917E+01 -0.48204360086E+01 -0.14294419811E+01  0.53893069427E+01  0.51100000000E-03 0.  1.
         12    1    3    3    0    0 -0.21718961833E+02  0.15830081902E+01 -0.25225828984E+02  0.33325090637E+02  0.00000000000E+00 0. -1.
</event>
<event>
 7    1  0.4083500E-009  0.4778727E+02  0.7816164E-02  0.1312668E+00
        -11   -1    0    0    0    0  0.00000000000E+00  0.00000000000E+00  0.45593999997E+02  0.45594000000E+02  0.51100000000E-03 0.  1.
         11   -1    0    0    0    0 -0.00000000000E+00 -0.00000000000E+00 -0.45593999997E+02  0.45594000000E+02  0.51100000000E-03 0. -1.
    9900012    2    1    2    0    0 -0.33569589878E+02 -0.11631998796E+01 -0.27483681810E+02  0.47787272306E+02  0.20000005751E+02 0.  0.
        -12    1    1    2    0    0  0.33569589878E+02  0.11631998796E+01  0.27483681810E+02  0.43400727694E+02  0.00000000000E+00 0.  1.
         11    1    3    3    0    0 -0.23278192865E+01  0.29784603549E+01 -0.41507885431E+01  0.56141797715E+01  0.51100000000E-03 0. -1.
        -11    1    3    3    0    0 -0.33334671445E+01  0.43119006900E+01 -0.12425071622E+01  0.55900192372E+01  0.51100000000E-03 0.  1.
         12    1    3    3    0    0 -0.27908303447E+02 -0.84535609245E+01 -0.22090386105E+02  0.36583073297E+02  0.00000000000E+00 0. -1.
</event>
<event>
 7    1  0.4083500E-009  0.4778727E+02  0.7816164E-02  0.1312668E+00
        -11   -1    0    0    0    0  0.00000000000E+00  0.00000000000E+00  0.45593999997E+02  0.45594000000E+02  0.51100000000E-03 0.  1.
         11   -1    0    0    0    0 -0.00000000000E+00 -0.00000000000E+00 -0.45593999997E+02  0.45594000000E+02  0.51100000000E-03 0. -1.
    9900012    2    1    2    0    0 -0.42477782957E+00 -0.10132289344E+01 -0.43386821445E+02  0.47787270235E+02  0.19999996308E+02 0.  0.
        -12    1    1    2    0    0  0.42477782957E+00  0.10132289344E+01  0.43386821445E+02  0.43400729765E+02  0.00000000000E+00 0.  1.
         11    1    3    3    0    0 -0.62309627237E+01  0.27594361706E+01 -0.12588697400E+02  0.14314841492E+02  0.51100000000E-03 0. -1.
        -11    1    3    3    0    0 -0.16057595370E+01 -0.53017912616E+01 -0.12687448363E+02  0.13844089010E+02  0.51100000000E-03 0.  1.
         12    1    3    3    0    0  0.74119444311E+01  0.15291261567E+01 -0.18110675682E+02  0.19628339734E+02  0.00000000000E+00 0. -1.
</event>
<event>
 7    1  0.4083500E-009  0.4778731E+02  0.7816164E-02  0.1312668E+00
        -11   -1    0    0    0    0  0.00000000000E+00  0.00000000000E+00  0.45593999997E+02  0.45594000000E+02  0.51100000000E-03 0. -1.
         11   -1    0    0    0    0 -0.00000000000E+00 -0.00000000000E+00 -0.45593999997E+02  0.45594000000E+02  0.51100000000E-03 0.  1.
    9900012    2    1    2    0    0  0.29329512605E+02  0.16945545701E+02  0.27133897463E+02  0.47787306223E+02  0.20000160394E+02 0.  0.
        -12    1    1    2    0    0 -0.29329512605E+02 -0.16945545701E+02 -0.27133897463E+02  0.43400693777E+02  0.00000000000E+00 0.  1.
         11    1    3    3    0    0  0.18422239856E+02  0.15400460092E+02  0.27345949977E+02  0.36391675872E+02  0.51100000000E-03 0. -1.
        -11    1    3    3    0    0  0.82100726674E+01  0.18001544576E+01  0.92823301141E+00  0.84562087285E+01  0.51100000000E-03 0.  1.
         12    1    3    3    0    0  0.26972000814E+01 -0.25506884769E+00 -0.11402855256E+01  0.29394216228E+01  0.00000000000E+00 0. -1.
</event>
<event>
 7    1  0.4083500E-009  0.4778727E+02  0.7816164E-02  0.1312668E+00
        -11   -1    0    0    0    0  0.00000000000E+00  0.00000000000E+00  0.45593999997E+02  0.45594000000E+02  0.51100000000E-03 0.  1.
         11   -1    0    0    0    0 -0.00000000000E+00 -0.00000000000E+00 -0.45593999997E+02  0.45594000000E+02  0.51100000000E-03 0. -1.
    9900012    2    1    2    0    0 -0.10506625431E+02 -0.38725700411E+02 -0.16539480227E+02  0.47787268941E+02  0.19999990408E+02 0.  0.
        -12    1    1    2    0    0  0.10506625431E+02  0.38725700411E+02  0.16539480227E+02  0.43400731059E+02  0.00000000000E+00 0.  1.
         11    1    3    3    0    0  0.13654809010E+01 -0.64655843911E+01 -0.60739152394E+01  0.89755649519E+01  0.51100000000E-03 0. -1.
        -11    1    3    3    0    0 -0.10245797916E+01 -0.42122985274E+01 -0.74093799305E+01  0.85844122600E+01  0.51100000000E-03 0.  1.
        -12    1    3    3    0    0 -0.10847526541E+02 -0.28047817493E+02 -0.30561850571E+01  0.30227291729E+02  0.00000000000E+00 0.  1.
</event>
<event>
 7    1  0.4083500E-009  0.4778727E+02  0.7816164E-02  0.1312668E+00
        -11   -1    0    0    0    0  0.00000000000E+00  0.00000000000E+00  0.45593999997E+02  0.45594000000E+02  0.51100000000E-03 0.  1.
         11   -1    0    0    0    0 -0.00000000000E+00 -0.00000000000E+00 -0.45593999997E+02  0.45594000000E+02  0.51100000000E-03 0. -1.
    9900012    2    1    2    0    0  0.21180402049E+02 -0.41373510944E+01 -0.37654963573E+02  0.47787269744E+02  0.19999994072E+02 0.  0.
        -12    1    1    2    0    0 -0.21180402049E+02  0.41373510944E+01  0.37654963573E+02  0.43400730256E+02  0.00000000000E+00 0.  1.
         11    1    3    3    0    0  0.12000469373E+02  0.52430250902E+01 -0.18970306931E+02  0.23051531892E+02  0.51100000000E-03 0. -1.
        -11    1    3    3    0    0  0.78972555544E+01 -0.13301161495E+01 -0.10220626618E+02  0.12984493174E+02  0.51100000000E-03 0.  1.
        -12    1    3    3    0    0  0.12826771221E+01 -0.80502600351E+01 -0.84640300245E+01  0.11751244678E+02  0.00000000000E+00 0.  1.
</event>
<event>
 7    1  0.4083500E-009  0.4778727E+02  0.7816164E-02  0.1312668E+00
        -11   -1    0    0    0    0  0.00000000000E+00  0.00000000000E+00  0.45593999997E+02  0.45594000000E+02  0.51100000000E-03 0.  1.
         11   -1    0    0    0    0 -0.00000000000E+00 -0.00000000000E+00 -0.45593999997E+02  0.45594000000E+02  0.51100000000E-03 0. -1.
    9900012    2    1    2    0    0 -0.39532846072E+02  0.17836127835E+02 -0.16278514885E+01  0.47787271030E+02  0.19999999933E+02 0.  0.
        -12    1    1    2    0    0  0.39532846072E+02 -0.17836127835E+02  0.16278514885E+01  0.43400728970E+02  0.00000000000E+00 0.  1.
         11    1    3    3    0    0 -0.11739443537E+02  0.54670864204E+01  0.16005650061E+00  0.12951030338E+02  0.51100000000E-03 0. -1.
        -11    1    3    3    0    0 -0.25082021698E+02  0.67858713105E+01  0.40713204400E+01  0.26300789196E+02  0.51100000000E-03 0.  1.
         12    1    3    3    0    0 -0.27113808367E+01  0.55831701040E+01 -0.58592284291E+01  0.85354514957E+01  0.00000000000E+00 0. -1.
</event>
<event>
 7    1  0.4083500E-009  0.4778732E+02  0.7816164E-02  0.1312668E+00
        -11   -1    0    0    0    0  0.00000000000E+00  0.00000000000E+00  0.45593999997E+02  0.45594000000E+02  0.51100000000E-03 0.  1.
         11   -1    0    0    0    0 -0.00000000000E+00 -0.00000000000E+00 -0.45593999997E+02  0.45594000000E+02  0.51100000000E-03 0. -1.
    9900012    2    1    2    0    0  0.28832962032E+02 -0.31906582711E+02 -0.58522993842E+01  0.47787318808E+02  0.20000217774E+02 0.  0.
        -12    1    1    2    0    0 -0.28832962032E+02  0.31906582711E+02  0.58522993842E+01  0.43400681192E+02  0.00000000000E+00 0.  1.
         11    1    3    3    0    0  0.35439728066E+01  0.27601836036E+00 -0.32008915479E+01  0.47834753424E+01  0.51100000000E-03 0. -1.
        -11    1    3    3    0    0  0.73417822837E+01 -0.26102984306E+01  0.21420168284E+01  0.80810680824E+01  0.51100000000E-03 0.  1.
         12    1    3    3    0    0  0.17947206941E+02 -0.29572302641E+02 -0.47934246647E+01  0.34922775384E+02  0.00000000000E+00 0. -1.
</event>
<event>
 7    1  0.4083500E-009  0.4778728E+02  0.7816164E-02  0.1312668E+00
        -11   -1    0    0    0    0  0.00000000000E+00  0.00000000000E+00  0.45593999997E+02  0.45594000000E+02  0.51100000000E-03 0. -1.
         11   -1    0    0    0    0 -0.00000000000E+00 -0.00000000000E+00 -0.45593999997E+02  0.45594000000E+02  0.51100000000E-03 0.  1.
    9900012    2    1    2    0    0  0.36002156385E+02 -0.94045702040E+01 -0.22338787537E+02  0.47787278419E+02  0.20000033624E+02 0.  0.
        -12    1    1    2    0    0 -0.36002156385E+02  0.94045702040E+01  0.22338787537E+02  0.43400721581E+02  0.00000000000E+00 0.  1.
         11    1    3    3    0    0  0.26179147421E+02 -0.23982280908E+01 -0.12668465531E+02  0.29182002619E+02  0.51100000000E-03 0. -1.
        -11    1    3    3    0    0  0.94707894928E+01 -0.42816042211E+01 -0.11346143342E+02  0.15387103604E+02  0.51100000000E-03 0.  1.
        -12    1    3    3    0    0  0.35221947130E+00 -0.27247378922E+01  0.16758213354E+01  0.32181721964E+01  0.00000000000E+00 0.  1.
</event>
<event>
 7    1  0.4083500E-009  0.4778723E+02  0.7816164E-02  0.1312668E+00
        -11   -1    0    0    0    0  0.00000000000E+00  0.00000000000E+00  0.45593999997E+02  0.45594000000E+02  0.51100000000E-03 0.  1.
         11   -1    0    0    0    0 -0.00000000000E+00 -0.00000000000E+00 -0.45593999997E+02  0.45594000000E+02  0.51100000000E-03 0. -1.
    9900012    2    1    2    0    0  0.29934595132E+02 -0.20046835329E+02 -0.24200646450E+02  0.47787229488E+02  0.19999810527E+02 0.  0.
        -12    1    1    2    0    0 -0.29934595132E+02  0.20046835329E+02  0.24200646450E+02  0.43400770512E+02  0.00000000000E+00 0.  1.
         11    1    3    3    0    0  0.42357502681E+01 -0.54053720902E+01 -0.38587113857E+01  0.78771366363E+01  0.51100000000E-03 0. -1.
        -11    1    3    3    0    0  0.73355416362E+00  0.34104367318E+01 -0.26741687546E+01  0.43954930556E+01  0.51100000000E-03 0.  1.
        -12    1    3    3    0    0  0.24965290700E+02 -0.18051899971E+02 -0.17667766310E+02  0.35514599796E+02  0.00000000000E+00 0.  1.
</event>
<event>
 7    1  0.4083500E-009  0.4778725E+02  0.7816164E-02  0.1312668E+00
        -11   -1    0    0    0    0  0.00000000000E+00  0.00000000000E+00  0.45593999997E+02  0.45594000000E+02  0.51100000000E-03 0.  1.
         11   -1    0    0    0    0 -0.00000000000E+00 -0.00000000000E+00 -0.45593999997E+02  0.45594000000E+02  0.51100000000E-03 0. -1.
    9900012    2    1    2    0    0 -0.17699528225E+01 -0.29633413393E+02 -0.31659957416E+02  0.47787253165E+02  0.19999918480E+02 0.  0.
        -12    1    1    2    0    0  0.17699528225E+01  0.29633413393E+02  0.31659957416E+02  0.43400746835E+02  0.00000000000E+00 0.  1.
         11    1    3    3    0    0 -0.10433907274E+01 -0.12460222061E+02 -0.15143011714E+02  0.19638141512E+02  0.51100000000E-03 0. -1.
        -11    1    3    3    0    0  0.20487862450E+01 -0.10493705373E+02 -0.17837491648E+02  0.20796429648E+02  0.51100000000E-03 0.  1.
        -12    1    3    3    0    0 -0.27753483400E+01 -0.66794859579E+01  0.13205459461E+01  0.73526820049E+01  0.00000000000E+00 0.  1.
</event>
<event>
 7    1  0.4083500E-009  0.4778728E+02  0.7816164E-02  0.1312668E+00
        -11   -1    0    0    0    0  0.00000000000E+00  0.00000000000E+00  0.45593999997E+02  0.45594000000E+02  0.51100000000E-03 0.  1.
         11   -1    0    0    0    0 -0.00000000000E+00 -0.00000000000E+00 -0.45593999997E+02  0.45594000000E+02  0.51100000000E-03 0. -1.
    9900012    2    1    2    0    0  0.40552378530E+02  0.10453096325E+02 -0.11395626132E+02  0.47787275096E+02  0.20000018474E+02 0.  0.
        -12    1    1    2    0    0 -0.40552378530E+02 -0.10453096325E+02  0.11395626132E+02  0.43400724904E+02  0.00000000000E+00 0.  1.
         11    1    3    3    0    0  0.30281642282E+02  0.83259107529E+01 -0.12193504121E+02  0.33689467081E+02  0.51100000000E-03 0. -1.
        -11    1    3    3    0    0  0.85016896286E+00  0.22704328986E+01 -0.30710831577E+01  0.39126978972E+01  0.51100000000E-03 0.  1.
        -12    1    3    3    0    0  0.94205672851E+01 -0.14324732647E+00  0.38689611464E+01  0.10185110118E+02  0.00000000000E+00 0.  1.
</event>
<event>
 7    1  0.4083500E-009  0.4778727E+02  0.7816164E-02  0.1312668E+00
        -11   -1    0    0    0    0  0.00000000000E+00  0.00000000000E+00  0.45593999997E+02  0.45594000000E+02  0.51100000000E-03 0. -1.
         11   -1    0    0    0    0 -0.00000000000E+00 -0.00000000000E+00 -0.45593999997E+02  0.45594000000E+02  0.51100000000E-03 0.  1.
    9900012    2    1    2    0    0  0.26132608434E+02 -0.18786235250E+02  0.29116787831E+02  0.47787271988E+02  0.20000004301E+02 0.  0.
        -12    1    1    2    0    0 -0.26132608434E+02  0.18786235250E+02 -0.29116787831E+02  0.43400728012E+02  0.00000000000E+00 0.  1.
         11    1    3    3    0    0 -0.20383461359E+01 -0.56494778515E+00  0.11100498535E+01  0.23887720502E+01  0.51100000000E-03 0. -1.
        -11    1    3    3    0    0  0.77601847426E+01 -0.31397865421E+01  0.11531704174E+01  0.84503567405E+01  0.51100000000E-03 0.  1.
         12    1    3    3    0    0  0.20410769827E+02 -0.15081500923E+02  0.26853567560E+02  0.36948143197E+02  0.00000000000E+00 0. -1.
</event>
<event>
 7    1  0.4083500E-009  0.4778727E+02  0.7816164E-02  0.1312668E+00
        -11   -1    0    0    0    0  0.00000000000E+00  0.00000000000E+00  0.45593999997E+02  0.45594000000E+02  0.51100000000E-03 0. -1.
         11   -1    0    0    0    0 -0.00000000000E+00 -0.00000000000E+00 -0.45593999997E+02  0.45594000000E+02  0.51100000000E-03 0.  1.
    9900012    2    1    2    0    0  0.73264977594E+01  0.20740955271E+02  0.37413343028E+02  0.47787273837E+02  0.20000012731E+02 0.  0.
        -12    1    1    2    0    0 -0.73264977594E+01 -0.20740955271E+02 -0.37413343028E+02  0.43400726163E+02  0.00000000000E+00 0.  1.
         11    1    3    3    0    0 -0.25785753390E+01  0.65838677844E+01  0.25684334581E+02  0.26639846263E+02  0.51100000000E-03 0. -1.
        -11    1    3    3    0    0  0.64812279337E+01  0.84554453668E+01  0.90455309569E+01  0.13975782713E+02  0.51100000000E-03 0.  1.
         12    1    3    3    0    0  0.34238451647E+01  0.57016421193E+01  0.26834774903E+01  0.71716448608E+01  0.00000000000E+00 0. -1.
</event>
<event>
 7    1  0.4083500E-009  0.4778727E+02  0.7816164E-02  0.1312668E+00
        -11   -1    0    0    0    0  0.00000000000E+00  0.00000000000E+00  0.45593999997E+02  0.45594000000E+02  0.51100000000E-03 0.  1.
         11   -1    0    0    0    0 -0.00000000000E+00 -0.00000000000E+00 -0.45593999997E+02  0.45594000000E+02  0.51100000000E-03 0. -1.
    9900012    2    1    2    0    0 -0.89955395226E+01  0.10245419297E+02 -0.41203580935E+02  0.47787269249E+02  0.19999991814E+02 0.  0.
        -12    1    1    2    0    0  0.89955395226E+01 -0.10245419297E+02  0.41203580935E+02  0.43400730751E+02  0.00000000000E+00 0.  1.
         11    1    3    3    0    0  0.25861192469E+01  0.33041043634E+01 -0.21292275151E+01  0.47051810247E+01  0.51100000000E-03 0. -1.
        -11    1    3    3    0    0 -0.55249894169E+01 -0.66043872398E+00 -0.44663269711E+01  0.71351078646E+01  0.51100000000E-03 0.  1.
         12    1    3    3    0    0 -0.60566693525E+01  0.76017536578E+01 -0.34608026449E+02  0.35946980360E+02  0.00000000000E+00 0. -1.
</event>
<event>
 7    1  0.4083500E-009  0.4778727E+02  0.7816164E-02  0.1312668E+00
        -11   -1    0    0    0    0  0.00000000000E+00  0.00000000000E+00  0.45593999997E+02  0.45594000000E+02  0.51100000000E-03 0.  1.
         11   -1    0    0    0    0 -0.00000000000E+00 -0.00000000000E+00 -0.45593999997E+02  0.45594000000E+02  0.51100000000E-03 0. -1.
    9900012    2    1    2    0    0  0.41477446392E+02 -0.12728443831E+02  0.11097153280E+01  0.47787270632E+02  0.19999998120E+02 0.  0.
        -12    1    1    2    0    0 -0.41477446392E+02  0.12728443831E+02 -0.11097153280E+01  0.43400729368E+02  0.00000000000E+00 0.  1.
         11    1    3    3    0    0  0.56059327951E+01  0.11394801862E+01 -0.23071583900E+01  0.61682961744E+01  0.51100000000E-03 0. -1.
        -11    1    3    3    0    0  0.33339623035E+00 -0.35927869953E+01 -0.21628706850E+01  0.42068136756E+01  0.51100000000E-03 0.  1.
         12    1    3    3    0    0  0.35538117367E+02 -0.10275137022E+02  0.55797444030E+01  0.37412160782E+02  0.00000000000E+00 0. -1.
</event>
<event>
 7    1  0.4083500E-009  0.4778727E+02  0.7816164E-02  0.1312668E+00
        -11   -1    0    0    0    0  0.00000000000E+00  0.00000000000E+00  0.45593999997E+02  0.45594000000E+02  0.51100000000E-03 0.  1.
         11   -1    0    0    0    0 -0.00000000000E+00 -0.00000000000E+00 -0.45593999997E+02  0.45594000000E+02  0.51100000000E-03 0. -1.
    9900012    2    1    2    0    0  0.17846679900E+02  0.80672764819E+01 -0.38730330852E+02  0.47787268886E+02  0.19999990158E+02 0.  0.
        -12    1    1    2    0    0 -0.17846679900E+02 -0.80672764819E+01  0.38730330852E+02  0.43400731114E+02  0.00000000000E+00 0.  1.
         11    1    3    3    0    0  0.37215975098E-01 -0.27037335383E+01 -0.54774100414E+01  0.61084843536E+01  0.51100000000E-03 0. -1.
        -11    1    3    3    0    0 -0.15345717862E+01  0.16435848911E+01 -0.92903276113E+01  0.95585809222E+01  0.51100000000E-03 0.  1.
         12    1    3    3    0    0  0.19344035712E+02  0.91274251292E+01 -0.23962593200E+02  0.32120203610E+02  0.00000000000E+00 0. -1.
</event>
<event>
 7    1  0.4083500E-009  0.4778727E+02  0.7816164E-02  0.1312668E+00
        -11   -1    0    0    0    0  0.00000000000E+00  0.00000000000E+00  0.45593999997E+02  0.45594000000E+02  0.51100000000E-03 0.  1.
         11   -1    0    0    0    0 -0.00000000000E+00 -0.00000000000E+00 -0.45593999997E+02  0.45594000000E+02  0.51100000000E-03 0. -1.
    9900012    2    1    2    0    0 -0.91645696776E+01 -0.33803798689E+02 -0.25630788009E+02  0.47787269164E+02  0.19999991425E+02 0.  0.
        -12    1    1    2    0    0  0.91645696776E+01  0.33803798689E+02  0.25630788009E+02  0.43400730836E+02  0.00000000000E+00 0.  1.
         11    1    3    3    0    0 -0.37491976798E+01 -0.74310322109E+00 -0.19600428463E+01  0.42953991502E+01  0.51100000000E-03 0. -1.
        -11    1    3    3    0    0 -0.11843170508E+01 -0.17672228503E+01 -0.79253143249E+01  0.82058692951E+01  0.51100000000E-03 0.  1.
         12    1    3    3    0    0 -0.42310549470E+01 -0.31293472617E+02 -0.15745430838E+02  0.35286000718E+02  0.00000000000E+00 0. -1.
</event>
<event>
 7    1  0.4083500E-009  0.4778727E+02  0.7816164E-02  0.1312668E+00
        -11   -1    0    0    0    0  0.00000000000E+00  0.00000000000E+00  0.45593999997E+02  0.45594000000E+02  0.51100000000E-03 0. -1.
         11   -1    0    0    0    0 -0.00000000000E+00 -0.00000000000E+00 -0.45593999997E+02  0.45594000000E+02  0.51100000000E-03 0.  1.
    9900012    2    1    2    0    0 -0.32275807662E+02  0.28792979191E+02  0.35861167818E+01  0.47787266775E+02  0.19999980533E+02 0.  0.
        -12    1    1    2    0    0  0.32275807662E+02 -0.28792979191E+02 -0.35861167818E+01  0.43400733225E+02  0.00000000000E+00 0.  1.
         11    1    3    3    0    0 -0.26418294688E+02  0.24166820182E+02 -0.10637333213E+00  0.35804647847E+02  0.51100000000E-03 0. -1.
        -11    1    3    3    0    0 -0.67041947045E+01  0.42113766420E+01 -0.25778699672E+00  0.79213871420E+01  0.51100000000E-03 0.  1.
        -12    1    3    3    0    0  0.84668173011E+00  0.41478236649E+00  0.39502771106E+01  0.40612317854E+01  0.00000000000E+00 0.  1.
</event>
<event>
 7    1  0.4083500E-009  0.4778727E+02  0.7816164E-02  0.1312668E+00
        -11   -1    0    0    0    0  0.00000000000E+00  0.00000000000E+00  0.45593999997E+02  0.45594000000E+02  0.51100000000E-03 0.  1.
         11   -1    0    0    0    0 -0.00000000000E+00 -0.00000000000E+00 -0.45593999997E+02  0.45594000000E+02  0.51100000000E-03 0. -1.
    9900012    2    1    2    0    0 -0.75937812877E+01 -0.11571790382E+02 -0.41134551786E+02  0.47787271924E+02  0.20000004008E+02 0.  0.
        -12    1    1    2    0    0  0.75937812877E+01  0.11571790382E+02  0.41134551786E+02  0.43400728076E+02  0.00000000000E+00 0.  1.
         11    1    3    3    0    0 -0.19390053463E+01 -0.34828707984E+01 -0.17890633539E+02  0.18329345308E+02  0.51100000000E-03 0. -1.
        -11    1    3    3    0    0  0.73542010837E+00  0.39238346508E+01 -0.85241000240E+01  0.94126299504E+01  0.51100000000E-03 0.  1.
        -12    1    3    3    0    0 -0.63901960498E+01 -0.12012754235E+02 -0.14719818223E+02  0.20045296665E+02  0.00000000000E+00 0.  1.
</event>
<event>
 7    1  0.4083500E-009  0.4778728E+02  0.7816164E-02  0.1312668E+00
        -11   -1    0    0    0    0  0.00000000000E+00  0.00000000000E+00  0.45593999997E+02  0.45594000000E+02  0.51100000000E-03 0. -1.
         11   -1    0    0    0    0 -0.00000000000E+00 -0.00000000000E+00 -0.45593999997E+02  0.45594000000E+02  0.51100000000E-03 0.  1.
    9900012    2    1    2    0    0 -0.13565750400E+01  0.42533674512E+02 -0.85246071408E+01  0.47787277768E+02  0.20000030655E+02 0.  0.
        -12    1    1    2    0    0  0.13565750400E+01 -0.42533674512E+02  0.85246071408E+01  0.43400722232E+02  0.00000000000E+00 0.  1.
         11    1    3    3    0    0 -0.25578737495E+01  0.10361776444E+02 -0.47264296478E+01  0.11672543282E+02  0.51100000000E-03 0. -1.
        -11    1    3    3    0    0  0.59558331437E+01  0.29882208056E+02 -0.19841016479E+01  0.30534488146E+02  0.51100000000E-03 0.  1.
        -12    1    3    3    0    0 -0.47545344342E+01  0.22896900122E+01 -0.18140758451E+01  0.55802463395E+01  0.00000000000E+00 0.  1.
</event>
<event>
 7    1  0.4083500E-009  0.4778728E+02  0.7816164E-02  0.1312668E+00
        -11   -1    0    0    0    0  0.00000000000E+00  0.00000000000E+00  0.45593999997E+02  0.45594000000E+02  0.51100000000E-03 0.  1.
         11   -1    0    0    0    0 -0.00000000000E+00 -0.00000000000E+00 -0.45593999997E+02  0.45594000000E+02  0.51100000000E-03 0. -1.
    9900012    2    1    2    0    0  0.58861580764E+00 -0.43391846791E+02 -0.65118081575E+00  0.47787275663E+02  0.20000021057E+02 0.  0.
        -12    1    1    2    0    0 -0.58861580764E+00  0.43391846791E+02  0.65118081575E+00  0.43400724337E+02  0.00000000000E+00 0.  1.
         11    1    3    3    0    0  0.50326907678E+01 -0.24368679280E+02 -0.29188968995E+01  0.25053551955E+02  0.51100000000E-03 0. -1.
        -11    1    3    3    0    0  0.25401715539E+01 -0.15055861596E+01  0.25071576799E+01  0.38736418394E+01  0.51100000000E-03 0.  1.
         12    1    3    3    0    0 -0.69842465140E+01 -0.17517581352E+02 -0.23944159608E+00  0.18860081868E+02  0.00000000000E+00 0. -1.
</event>
<event>
 7    1  0.4083500E-009  0.4778727E+02  0.7816164E-02  0.1312668E+00
        -11   -1    0    0    0    0  0.00000000000E+00  0.00000000000E+00  0.45593999997E+02  0.45594000000E+02  0.51100000000E-03 0.  1.
         11   -1    0    0    0    0 -0.00000000000E+00 -0.00000000000E+00 -0.45593999997E+02  0.45594000000E+02  0.51100000000E-03 0. -1.
    9900012    2    1    2    0    0 -0.32506788364E+02  0.17847975096E+02 -0.22547327487E+02  0.47787268651E+02  0.19999989089E+02 0.  0.
        -12    1    1    2    0    0  0.32506788364E+02 -0.17847975096E+02  0.22547327487E+02  0.43400731349E+02  0.00000000000E+00 0.  1.
         11    1    3    3    0    0 -0.29703054915E+01  0.54784072753E+01 -0.18037040547E+01  0.64876043009E+01  0.51100000000E-03 0. -1.
        -11    1    3    3    0    0 -0.89825810530E+00  0.63461052230E+01 -0.30087170128E+01  0.70804164743E+01  0.51100000000E-03 0.  1.
         12    1    3    3    0    0 -0.28638224768E+02  0.60234625980E+01 -0.17734906419E+02  0.34219247876E+02  0.00000000000E+00 0. -1.
</event>
<event>
 7    1  0.4083500E-009  0.4778727E+02  0.7816164E-02  0.1312668E+00
        -11   -1    0    0    0    0  0.00000000000E+00  0.00000000000E+00  0.45593999997E+02  0.45594000000E+02  0.51100000000E-03 0.  1.
         11   -1    0    0    0    0 -0.00000000000E+00 -0.00000000000E+00 -0.45593999997E+02  0.45594000000E+02  0.51100000000E-03 0. -1.
    9900012    2    1    2    0    0 -0.25963146865E+02  0.21254928966E+02 -0.27527554539E+02  0.47787271212E+02  0.20000000762E+02 0.  0.
        -12    1    1    2    0    0  0.25963146865E+02 -0.21254928966E+02  0.27527554539E+02  0.43400728788E+02  0.00000000000E+00 0.  1.
         11    1    3    3    0    0 -0.11900483408E+02  0.51717389593E+01 -0.13180742042E+02  0.18495954970E+02  0.51100000000E-03 0. -1.
        -11    1    3    3    0    0 -0.64287723411E+01 -0.12876172346E+01 -0.33962526288E+01  0.73838746019E+01  0.51100000000E-03 0.  1.
        -12    1    3    3    0    0 -0.76338911155E+01  0.17370807241E+02 -0.10950559868E+02  0.21907441640E+02  0.00000000000E+00 0.  1.
</event>
<event>
 7    1  0.4083500E-009  0.4778727E+02  0.7816164E-02  0.1312668E+00
        -11   -1    0    0    0    0  0.00000000000E+00  0.00000000000E+00  0.45593999997E+02  0.45594000000E+02  0.51100000000E-03 0.  1.
         11   -1    0    0    0    0 -0.00000000000E+00 -0.00000000000E+00 -0.45593999997E+02  0.45594000000E+02  0.51100000000E-03 0. -1.
    9900012    2    1    2    0    0 -0.12972425735E+02  0.38597338038E+02 -0.15019489928E+02  0.47787269467E+02  0.19999992809E+02 0.  0.
        -12    1    1    2    0    0  0.12972425735E+02 -0.38597338038E+02  0.15019489928E+02  0.43400730533E+02  0.00000000000E+00 0.  1.
         11    1    3    3    0    0 -0.65677208528E+01  0.15806107604E+02  0.99067387115E+00  0.17144953478E+02  0.51100000000E-03 0. -1.
        -11    1    3    3    0    0  0.16547695689E+01  0.11537099458E+02 -0.40196444316E+01  0.12328846980E+02  0.51100000000E-03 0.  1.
         12    1    3    3    0    0 -0.80594744506E+01  0.11254130976E+02 -0.11990519368E+02  0.18313469009E+02  0.00000000000E+00 0. -1.
</event>
<event>
 7    1  0.4083500E-009  0.4778727E+02  0.7816164E-02  0.1312668E+00
        -11   -1    0    0    0    0  0.00000000000E+00  0.00000000000E+00  0.45593999997E+02  0.45594000000E+02  0.51100000000E-03 0.  1.
         11   -1    0    0    0    0 -0.00000000000E+00 -0.00000000000E+00 -0.45593999997E+02  0.45594000000E+02  0.51100000000E-03 0. -1.
    9900012    2    1    2    0    0  0.43865721152E+01  0.28181590765E+02 -0.32713593624E+02  0.47787270966E+02  0.19999999641E+02 0.  0.
        -12    1    1    2    0    0 -0.43865721152E+01 -0.28181590765E+02  0.32713593624E+02  0.43400729034E+02  0.00000000000E+00 0.  1.
         11    1    3    3    0    0  0.13871591704E+01  0.16840237224E+01 -0.64003371534E+01  0.67619865720E+01  0.51100000000E-03 0. -1.
        -11    1    3    3    0    0 -0.19426291505E+01  0.90130765672E+01 -0.21178272660E+00  0.92224839066E+01  0.51100000000E-03 0.  1.
        -12    1    3    3    0    0  0.49420420954E+01  0.17484490475E+02 -0.26101473743E+02  0.31802800487E+02  0.00000000000E+00 0.  1.
</event>
<event>
 7    1  0.4083500E-009  0.4778727E+02  0.7816164E-02  0.1312668E+00
        -11   -1    0    0    0    0  0.00000000000E+00  0.00000000000E+00  0.45593999997E+02  0.45594000000E+02  0.51100000000E-03 0.  1.
         11   -1    0    0    0    0 -0.00000000000E+00 -0.00000000000E+00 -0.45593999997E+02  0.45594000000E+02  0.51100000000E-03 0. -1.
    9900012    2    1    2    0    0  0.20030624819E+02  0.38501796569E+02 -0.93209825792E-01  0.47787274686E+02  0.20000016605E+02 0.  0.
        -12    1    1    2    0    0 -0.20030624819E+02 -0.38501796569E+02  0.93209825792E-01  0.43400725314E+02  0.00000000000E+00 0.  1.
         11    1    3    3    0    0  0.84251376323E+01  0.26663287564E+02  0.19479432215E+01  0.28030489309E+02  0.51100000000E-03 0. -1.
        -11    1    3    3    0    0  0.18091019857E+00  0.72609552427E+01 -0.16220984522E+01  0.74421370040E+01  0.51100000000E-03 0.  1.
        -12    1    3    3    0    0  0.11424576988E+02  0.45775537621E+01 -0.41905459512E+00  0.12314648373E+02  0.00000000000E+00 0.  1.
</event>
<event>
 7    1  0.4083500E-009  0.4778726E+02  0.7816164E-02  0.1312668E+00
        -11   -1    0    0    0    0  0.00000000000E+00  0.00000000000E+00  0.45593999997E+02  0.45594000000E+02  0.51100000000E-03 0. -1.
         11   -1    0    0    0    0 -0.00000000000E+00 -0.00000000000E+00 -0.45593999997E+02  0.45594000000E+02  0.51100000000E-03 0.  1.
    9900012    2    1    2    0    0 -0.27441175267E+02 -0.29232808686E+02  0.16614726271E+02  0.47787258845E+02  0.19999944377E+02 0.  0.
        -12    1    1    2    0    0  0.27441175267E+02  0.29232808686E+02 -0.16614726271E+02  0.43400741155E+02  0.00000000000E+00 0.  1.
         11    1    3    3    0    0 -0.42337917669E+01 -0.61219831077E+01  0.63273546690E+01  0.97692930791E+01  0.51100000000E-03 0. -1.
        -11    1    3    3    0    0 -0.19103666566E+02 -0.24486903238E+02  0.54587919315E+01  0.31533425378E+02  0.51100000000E-03 0.  1.
        -12    1    3    3    0    0 -0.41037169340E+01  0.13760776594E+01  0.48285796709E+01  0.64845403876E+01  0.00000000000E+00 0.  1.
</event>
<event>
 7    1  0.4083500E-009  0.4778727E+02  0.7816164E-02  0.1312668E+00
        -11   -1    0    0    0    0  0.00000000000E+00  0.00000000000E+00  0.45593999997E+02  0.45594000000E+02  0.51100000000E-03 0. -1.
         11   -1    0    0    0    0 -0.00000000000E+00 -0.00000000000E+00 -0.45593999997E+02  0.45594000000E+02  0.51100000000E-03 0.  1.
    9900012    2    1    2    0    0 -0.23400726659E+01 -0.13403522619E+01  0.43316867404E+02  0.47787268601E+02  0.19999988860E+02 0.  0.
        -12    1    1    2    0    0  0.23400726659E+01  0.13403522619E+01 -0.43316867404E+02  0.43400731399E+02  0.00000000000E+00 0.  1.
         11    1    3    3    0    0  0.78161729626E+01 -0.34704387943E+00  0.21414645496E+02  0.22799123694E+02  0.51100000000E-03 0. -1.
        -11    1    3    3    0    0 -0.16690916977E+01  0.64496180804E+00  0.42843816819E+00  0.18399462911E+01  0.51100000000E-03 0.  1.
         12    1    3    3    0    0 -0.84871539308E+01 -0.16382701905E+01  0.21473783740E+02  0.23148198616E+02  0.00000000000E+00 0. -1.
</event>
<event>
 7    1  0.4083500E-009  0.4778727E+02  0.7816164E-02  0.1312668E+00
        -11   -1    0    0    0    0  0.00000000000E+00  0.00000000000E+00  0.45593999997E+02  0.45594000000E+02  0.51100000000E-03 0. -1.
         11   -1    0    0    0    0 -0.00000000000E+00 -0.00000000000E+00 -0.45593999997E+02  0.45594000000E+02  0.51100000000E-03 0.  1.
    9900012    2    1    2    0    0  0.12182966346E+01  0.11998826236E+02  0.41691328754E+02  0.47787274534E+02  0.20000015908E+02 0.  0.
        -12    1    1    2    0    0 -0.12182966346E+01 -0.11998826236E+02 -0.41691328754E+02  0.43400725466E+02  0.00000000000E+00 0.  1.
         11    1    3    3    0    0 -0.56488948062E+00  0.58913102961E+01  0.30886308797E+01  0.66757979375E+01  0.51100000000E-03 0.  1.
        -11    1    3    3    0    0  0.70832774978E+01  0.34487109605E+01  0.26295517189E+02  0.27450330634E+02  0.51100000000E-03 0. -1.
         12    1    3    3    0    0 -0.53000913826E+01  0.26588049795E+01  0.12307180685E+02  0.13661145962E+02  0.00000000000E+00 0. -1.
</event>
<event>
 7    1  0.4083500E-009  0.4778733E+02  0.7816164E-02  0.1312667E+00
        -11   -1    0    0    0    0  0.00000000000E+00  0.00000000000E+00  0.45593999997E+02  0.45594000000E+02  0.51100000000E-03 0. -1.
         11   -1    0    0    0    0 -0.00000000000E+00 -0.00000000000E+00 -0.45593999997E+02  0.45594000000E+02  0.51100000000E-03 0.  1.
    9900012    2    1    2    0    0 -0.44622683041E+01  0.83120678718E+01  0.42362905241E+02  0.47787331212E+02  0.20000274328E+02 0.  0.
        -12    1    1    2    0    0  0.44622683041E+01 -0.83120678718E+01 -0.42362905241E+02  0.43400668788E+02  0.00000000000E+00 0.  1.
         11    1    3    3    0    0  0.33368677978E+01  0.62943793359E+00  0.43392986356E+01  0.55100264720E+01  0.51100000000E-03 0. -1.
        -11    1    3    3    0    0  0.42312551811E+00 -0.23024581731E+01  0.25460784313E+00  0.23548193684E+01  0.51100000000E-03 0.  1.
         12    1    3    3    0    0 -0.82222616200E+01  0.99850881113E+01  0.37768998763E+02  0.39922485372E+02  0.00000000000E+00 0. -1.
</event>
<event>
 7    1  0.4083500E-009  0.4778727E+02  0.7816164E-02  0.1312668E+00
        -11   -1    0    0    0    0  0.00000000000E+00  0.00000000000E+00  0.45593999997E+02  0.45594000000E+02  0.51100000000E-03 0. -1.
         11   -1    0    0    0    0 -0.00000000000E+00 -0.00000000000E+00 -0.45593999997E+02  0.45594000000E+02  0.51100000000E-03 0.  1.
    9900012    2    1    2    0    0 -0.35014350020E+02  0.25316010936E+02  0.40888226513E+01  0.47787267429E+02  0.19999983516E+02 0.  0.
        -12    1    1    2    0    0  0.35014350020E+02 -0.25316010936E+02 -0.40888226513E+01  0.43400732571E+02  0.00000000000E+00 0.  1.
         11    1    3    3    0    0 -0.13674765730E+02  0.10133625196E+02 -0.34360844918E+01  0.17363647494E+02  0.51100000000E-03 0. -1.
        -11    1    3    3    0    0 -0.89462529858E+01  0.14016319889E+02  0.18097256629E+01  0.16726259981E+02  0.51100000000E-03 0.  1.
         12    1    3    3    0    0 -0.12393331304E+02  0.11660658513E+01  0.57151814802E+01  0.13697359955E+02  0.00000000000E+00 0. -1.
</event>
<event>
 7    1  0.4083500E-009  0.4778727E+02  0.7816164E-02  0.1312668E+00
        -11   -1    0    0    0    0  0.00000000000E+00  0.00000000000E+00  0.45593999997E+02  0.45594000000E+02  0.51100000000E-03 0.  1.
         11   -1    0    0    0    0 -0.00000000000E+00 -0.00000000000E+00 -0.45593999997E+02  0.45594000000E+02  0.51100000000E-03 0. -1.
    9900012    2    1    2    0    0  0.41858754199E+02 -0.13497431390E+01 -0.11386226953E+02  0.47787271045E+02  0.20000000001E+02 0.  0.
        -12    1    1    2    0    0 -0.41858754199E+02  0.13497431390E+01  0.11386226953E+02  0.43400728955E+02  0.00000000000E+00 0.  1.
         11    1    3    3    0    0  0.96359199223E+00 -0.20570171230E+01  0.22472844103E+01  0.31953272842E+01  0.51100000000E-03 0.  1.
        -11    1    3    3    0    0  0.17030522247E+02 -0.53177510375E+01 -0.55283052654E+01  0.18678311580E+02  0.51100000000E-03 0. -1.
         12    1    3    3    0    0  0.23864639960E+02  0.60250250215E+01 -0.81052060977E+01  0.25913632181E+02  0.00000000000E+00 0. -1.
</event>
<event>
 7    1  0.4083500E-009  0.4778728E+02  0.7816164E-02  0.1312668E+00
        -11   -1    0    0    0    0  0.00000000000E+00  0.00000000000E+00  0.45593999997E+02  0.45594000000E+02  0.51100000000E-03 0.  1.
         11   -1    0    0    0    0 -0.00000000000E+00 -0.00000000000E+00 -0.45593999997E+02  0.45594000000E+02  0.51100000000E-03 0. -1.
    9900012    2    1    2    0    0 -0.11202253318E+02  0.36921581747E+02 -0.19872820310E+02  0.47787278057E+02  0.20000031972E+02 0.  0.
        -12    1    1    2    0    0  0.11202253318E+02 -0.36921581747E+02  0.19872820310E+02  0.43400721943E+02  0.00000000000E+00 0.  1.
         11    1    3    3    0    0  0.33690330283E+01  0.12524345412E+02 -0.83334617435E+01  0.15416101856E+02  0.51100000000E-03 0. -1.
        -11    1    3    3    0    0 -0.15614422636E+01 -0.87736106906E+00 -0.10178247571E+01  0.20600562820E+01  0.51100000000E-03 0.  1.
         12    1    3    3    0    0 -0.13009844083E+02  0.25274597404E+02 -0.10521533810E+02  0.30311119918E+02  0.00000000000E+00 0. -1.
</event>
<event>
 7    1  0.4083500E-009  0.4778727E+02  0.7816164E-02  0.1312668E+00
        -11   -1    0    0    0    0  0.00000000000E+00  0.00000000000E+00  0.45593999997E+02  0.45594000000E+02  0.51100000000E-03 0.  1.
         11   -1    0    0    0    0 -0.00000000000E+00 -0.00000000000E+00 -0.45593999997E+02  0.45594000000E+02  0.51100000000E-03 0. -1.
    9900012    2    1    2    0    0  0.98472964361E+01 -0.40075250001E+02 -0.13439805049E+02  0.47787271095E+02  0.20000000229E+02 0.  0.
        -12    1    1    2    0    0 -0.98472964361E+01  0.40075250001E+02  0.13439805049E+02  0.43400728905E+02  0.00000000000E+00 0.  1.
         11    1    3    3    0    0 -0.14249099168E+01  0.44132952635E+00  0.10229746560E+01  0.18087612971E+01  0.51100000000E-03 0. -1.
        -11    1    3    3    0    0  0.59474776823E+01 -0.52253397877E+01 -0.33642313957E+01  0.86020183575E+01  0.51100000000E-03 0.  1.
         12    1    3    3    0    0  0.53247286705E+01 -0.35291239740E+02 -0.11098548309E+02  0.37376491440E+02  0.00000000000E+00 0. -1.
</event>
<event>
 7    1  0.4083500E-009  0.4778724E+02  0.7816164E-02  0.1312668E+00
        -11   -1    0    0    0    0  0.00000000000E+00  0.00000000000E+00  0.45593999997E+02  0.45594000000E+02  0.51100000000E-03 0.  1.
         11   -1    0    0    0    0 -0.00000000000E+00 -0.00000000000E+00 -0.45593999997E+02  0.45594000000E+02  0.51100000000E-03 0. -1.
    9900012    2    1    2    0    0 -0.43093073690E+02  0.27659283243E+01 -0.43545966794E+01  0.47787241115E+02  0.19999863540E+02 0.  0.
        -12    1    1    2    0    0  0.43093073690E+02 -0.27659283243E+01  0.43545966794E+01  0.43400758885E+02  0.00000000000E+00 0.  1.
         11    1    3    3    0    0 -0.12980626719E+02 -0.20598470259E+00  0.38683674782E+01  0.13546341459E+02  0.51100000000E-03 0. -1.
        -11    1    3    3    0    0 -0.13916783107E+02  0.80984718789E+01 -0.23806169864E+01  0.16276653106E+02  0.51100000000E-03 0.  1.
         12    1    3    3    0    0 -0.16195663864E+02 -0.51265588521E+01 -0.58423471713E+01  0.17964246551E+02  0.00000000000E+00 0. -1.
</event>
<event>
 7    1  0.4083500E-009  0.4778727E+02  0.7816164E-02  0.1312668E+00
        -11   -1    0    0    0    0  0.00000000000E+00  0.00000000000E+00  0.45593999997E+02  0.45594000000E+02  0.51100000000E-03 0.  1.
         11   -1    0    0    0    0 -0.00000000000E+00 -0.00000000000E+00 -0.45593999997E+02  0.45594000000E+02  0.51100000000E-03 0. -1.
    9900012    2    1    2    0    0  0.31013116767E+02 -0.85468536829E+01 -0.29133509682E+02  0.47787268372E+02  0.19999987817E+02 0.  0.
        -12    1    1    2    0    0 -0.31013116767E+02  0.85468536829E+01  0.29133509682E+02  0.43400731628E+02  0.00000000000E+00 0.  1.
         11    1    3    3    0    0  0.38895881625E+01  0.46562574052E+01 -0.66799380362E+01  0.90239238431E+01  0.51100000000E-03 0. -1.
        -11    1    3    3    0    0  0.70876461748E+01 -0.40157582717E+01 -0.11651616622E+02  0.14216934021E+02  0.51100000000E-03 0.  1.
         12    1    3    3    0    0  0.20035882429E+02 -0.91873528165E+01 -0.10801955023E+02  0.24546410508E+02  0.00000000000E+00 0. -1.
</event>
<event>
 7    1  0.4083500E-009  0.4778726E+02  0.7816164E-02  0.1312668E+00
        -11   -1    0    0    0    0  0.00000000000E+00  0.00000000000E+00  0.45593999997E+02  0.45594000000E+02  0.51100000000E-03 0.  1.
         11   -1    0    0    0    0 -0.00000000000E+00 -0.00000000000E+00 -0.45593999997E+02  0.45594000000E+02  0.51100000000E-03 0. -1.
    9900012    2    1    2    0    0  0.11010805897E+02  0.40301544893E+02 -0.11754636483E+02  0.47787264452E+02  0.19999969942E+02 0.  0.
        -12    1    1    2    0    0 -0.11010805897E+02 -0.40301544893E+02  0.11754636483E+02  0.43400735548E+02  0.00000000000E+00 0.  1.
         11    1    3    3    0    0  0.83634282415E-01  0.11204357482E+01 -0.12572536233E+01  0.16861369736E+01  0.51100000000E-03 0. -1.
        -11    1    3    3    0    0  0.11179569990E+02  0.81313829083E+01 -0.26785174016E+01  0.14081073429E+02  0.51100000000E-03 0.  1.
         12    1    3    3    0    0 -0.25239837549E+00  0.31049726236E+02 -0.78188654584E+01  0.32020054050E+02  0.00000000000E+00 0. -1.
</event>
<event>
 7    1  0.4083500E-009  0.4778727E+02  0.7816164E-02  0.1312668E+00
        -11   -1    0    0    0    0  0.00000000000E+00  0.00000000000E+00  0.45593999997E+02  0.45594000000E+02  0.51100000000E-03 0. -1.
         11   -1    0    0    0    0 -0.00000000000E+00 -0.00000000000E+00 -0.45593999997E+02  0.45594000000E+02  0.51100000000E-03 0.  1.
    9900012    2    1    2    0    0  0.20823873568E+02 -0.38078416685E+02 -0.15412610236E+00  0.47787270946E+02  0.19999999549E+02 0.  0.
        -12    1    1    2    0    0 -0.20823873568E+02  0.38078416685E+02  0.15412610236E+00  0.43400729054E+02  0.00000000000E+00 0.  1.
         11    1    3    3    0    0 -0.64111385265E+00 -0.23166226951E+01 -0.16341594303E+01  0.29065864839E+01  0.51100000000E-03 0.  1.
        -11    1    3    3    0    0  0.24975610438E+00 -0.30767217171E+01 -0.45008825952E+01  0.54577045572E+01  0.51100000000E-03 0. -1.
         12    1    3    3    0    0  0.21215231316E+02 -0.32685072273E+02  0.59809159232E+01  0.39422979904E+02  0.00000000000E+00 0. -1.
</event>
<event>
 7    1  0.4083500E-009  0.4778731E+02  0.7816164E-02  0.1312668E+00
        -11   -1    0    0    0    0  0.00000000000E+00  0.00000000000E+00  0.45593999997E+02  0.45594000000E+02  0.51100000000E-03 0.  1.
         11   -1    0    0    0    0 -0.00000000000E+00 -0.00000000000E+00 -0.45593999997E+02  0.45594000000E+02  0.51100000000E-03 0. -1.
    9900012    2    1    2    0    0  0.81381434810E+01 -0.13803303431E+02 -0.40334342460E+02  0.47787311681E+02  0.20000185275E+02 0.  0.
        -12    1    1    2    0    0 -0.81381434810E+01  0.13803303431E+02  0.40334342460E+02  0.43400688319E+02  0.00000000000E+00 0.  1.
         11    1    3    3    0    0  0.22092872170E+01 -0.97860459476E+00 -0.10855945999E+02  0.11121608730E+02  0.51100000000E-03 0.  1.
        -11    1    3    3    0    0  0.48060633775E+01 -0.28369236071E+01 -0.63664828714E-01  0.55812574043E+01  0.51100000000E-03 0. -1.
         12    1    3    3    0    0  0.11227928865E+01 -0.99877752292E+01 -0.29414731633E+02  0.31084445546E+02  0.00000000000E+00 0. -1.
</event>
<event>
 7    1  0.4083500E-009  0.4778727E+02  0.7816164E-02  0.1312668E+00
        -11   -1    0    0    0    0  0.00000000000E+00  0.00000000000E+00  0.45593999997E+02  0.45594000000E+02  0.51100000000E-03 0. -1.
         11   -1    0    0    0    0 -0.00000000000E+00 -0.00000000000E+00 -0.45593999997E+02  0.45594000000E+02  0.51100000000E-03 0.  1.
    9900012    2    1    2    0    0 -0.11226428224E+01 -0.41544724679E+02  0.12505955868E+02  0.47787269502E+02  0.19999992969E+02 0.  0.
        -12    1    1    2    0    0  0.11226428224E+01  0.41544724679E+02 -0.12505955868E+02  0.43400730498E+02  0.00000000000E+00 0.  1.
         11    1    3    3    0    0 -0.92852544527E+00 -0.20204630399E+02  0.76288014847E+01  0.21616842078E+02  0.51100000000E-03 0. -1.
        -11    1    3    3    0    0  0.42867392912E+01 -0.17004726396E+02  0.79087550488E+01  0.19237600169E+02  0.51100000000E-03 0.  1.
        -12    1    3    3    0    0 -0.44808566683E+01 -0.43353678833E+01 -0.30316006653E+01  0.69328272559E+01  0.00000000000E+00 0.  1.
</event>
<event>
 7    1  0.4083500E-009  0.4778727E+02  0.7816164E-02  0.1312668E+00
        -11   -1    0    0    0    0  0.00000000000E+00  0.00000000000E+00  0.45593999997E+02  0.45594000000E+02  0.51100000000E-03 0. -1.
         11   -1    0    0    0    0 -0.00000000000E+00 -0.00000000000E+00 -0.45593999997E+02  0.45594000000E+02  0.51100000000E-03 0.  1.
    9900012    2    1    2    0    0  0.91280254086E+01  0.19339103105E+02  0.37766404638E+02  0.47787273324E+02  0.20000010393E+02 0.  0.
        -12    1    1    2    0    0 -0.91280254086E+01 -0.19339103105E+02 -0.37766404638E+02  0.43400726676E+02  0.00000000000E+00 0.  1.
         11    1    3    3    0    0 -0.16356879581E+01  0.77341208964E+01  0.61156300701E+01  0.99946501966E+01  0.51100000000E-03 0. -1.
        -11    1    3    3    0    0  0.30649530178E+01  0.47978825646E+01  0.24792327048E+02  0.25437631470E+02  0.51100000000E-03 0.  1.
         12    1    3    3    0    0  0.76987603489E+01  0.68070996439E+01  0.68584475196E+01  0.12354991657E+02  0.00000000000E+00 0. -1.
</event>
<event>
 7    1  0.4083500E-009  0.4778727E+02  0.7816164E-02  0.1312668E+00
        -11   -1    0    0    0    0  0.00000000000E+00  0.00000000000E+00  0.45593999997E+02  0.45594000000E+02  0.51100000000E-03 0.  1.
         11   -1    0    0    0    0 -0.00000000000E+00 -0.00000000000E+00 -0.45593999997E+02  0.45594000000E+02  0.51100000000E-03 0. -1.
    9900012    2    1    2    0    0 -0.24987158726E+01 -0.25996733304E+02 -0.34663378948E+02  0.47787267707E+02  0.19999984783E+02 0.  0.
        -12    1    1    2    0    0  0.24987158726E+01  0.25996733304E+02  0.34663378948E+02  0.43400732293E+02  0.00000000000E+00 0.  1.
         11    1    3    3    0    0 -0.49614307913E+01 -0.80840531655E+01 -0.68223593177E+01  0.11683847740E+02  0.51100000000E-03 0. -1.
        -11    1    3    3    0    0  0.21207034015E+01 -0.16445167969E+02 -0.12696221974E+02  0.20883845075E+02  0.51100000000E-03 0.  1.
         12    1    3    3    0    0  0.34201151727E+00 -0.14675121693E+01 -0.15144797656E+02  0.15219574892E+02  0.00000000000E+00 0. -1.
</event>
<event>
 7    1  0.4083500E-009  0.4778727E+02  0.7816164E-02  0.1312668E+00
        -11   -1    0    0    0    0  0.00000000000E+00  0.00000000000E+00  0.45593999997E+02  0.45594000000E+02  0.51100000000E-03 0.  1.
         11   -1    0    0    0    0 -0.00000000000E+00 -0.00000000000E+00 -0.45593999997E+02  0.45594000000E+02  0.51100000000E-03 0. -1.
    9900012    2    1    2    0    0 -0.10377702058E+02 -0.41971891343E+02 -0.37798037864E+01  0.47787270979E+02  0.19999999702E+02 0.  0.
        -12    1    1    2    0    0  0.10377702058E+02  0.41971891343E+02  0.37798037864E+01  0.43400729021E+02  0.00000000000E+00 0.  1.
         11    1    3    3    0    0  0.20833298992E+01 -0.21351060133E+01 -0.14295603542E+01  0.33079577120E+01  0.51100000000E-03 0. -1.
        -11    1    3    3    0    0  0.27343476226E+01 -0.57919738096E+01  0.25152711064E+01  0.68811486346E+01  0.51100000000E-03 0.  1.
        -12    1    3    3    0    0 -0.15195379580E+02 -0.34044811520E+02 -0.48655145386E+01  0.37598164632E+02  0.00000000000E+00 0.  1.
</event>
<event>
 7    1  0.4083500E-009  0.4778727E+02  0.7816164E-02  0.1312668E+00
        -11   -1    0    0    0    0  0.00000000000E+00  0.00000000000E+00  0.45593999997E+02  0.45594000000E+02  0.51100000000E-03 0.  1.
         11   -1    0    0    0    0 -0.00000000000E+00 -0.00000000000E+00 -0.45593999997E+02  0.45594000000E+02  0.51100000000E-03 0. -1.
    9900012    2    1    2    0    0 -0.29718076156E+02  0.15643496207E+02 -0.27490735403E+02  0.47787267783E+02  0.19999985131E+02 0.  0.
        -12    1    1    2    0    0  0.29718076156E+02 -0.15643496207E+02  0.27490735403E+02  0.43400732217E+02  0.00000000000E+00 0.  1.
         11    1    3    3    0    0 -0.20969467797E+02  0.11139102098E+02 -0.13770756679E+02  0.27448714269E+02  0.51100000000E-03 0. -1.
        -11    1    3    3    0    0 -0.34367407280E+01  0.77265207056E+01 -0.57188888029E+01  0.10208623729E+02  0.51100000000E-03 0.  1.
         12    1    3    3    0    0 -0.53118676305E+01 -0.32221265964E+01 -0.80010899213E+01  0.10129929785E+02  0.00000000000E+00 0. -1.
</event>
<event>
 7    1  0.4083500E-009  0.4778727E+02  0.7816164E-02  0.1312668E+00
        -11   -1    0    0    0    0  0.00000000000E+00  0.00000000000E+00  0.45593999997E+02  0.45594000000E+02  0.51100000000E-03 0.  1.
         11   -1    0    0    0    0 -0.00000000000E+00 -0.00000000000E+00 -0.45593999997E+02  0.45594000000E+02  0.51100000000E-03 0. -1.
    9900012    2    1    2    0    0 -0.24150691053E+02 -0.22240712659E+02 -0.28385172266E+02  0.47787272097E+02  0.20000004798E+02 0.  0.
        -12    1    1    2    0    0  0.24150691053E+02  0.22240712659E+02  0.28385172266E+02  0.43400727903E+02  0.00000000000E+00 0.  1.
         11    1    3    3    0    0 -0.65994448392E+01 -0.67645329456E+01 -0.72529568272E+01  0.11912890546E+02  0.51100000000E-03 0. -1.
        -11    1    3    3    0    0  0.25415764701E+01  0.52362045656E+00  0.28937360278E-01  0.25951159835E+01  0.51100000000E-03 0.  1.
        -12    1    3    3    0    0 -0.20092822684E+02 -0.15999800170E+02 -0.21161152799E+02  0.33279265567E+02  0.00000000000E+00 0.  1.
</event>
<event>
 7    1  0.4083500E-009  0.4778728E+02  0.7816164E-02  0.1312668E+00
        -11   -1    0    0    0    0  0.00000000000E+00  0.00000000000E+00  0.45593999997E+02  0.45594000000E+02  0.51100000000E-03 0. -1.
         11   -1    0    0    0    0 -0.00000000000E+00 -0.00000000000E+00 -0.45593999997E+02  0.45594000000E+02  0.51100000000E-03 0.  1.
    9900012    2    1    2    0    0  0.14162262302E+02 -0.23996544810E+02  0.33274898060E+02  0.47787277918E+02  0.20000031337E+02 0.  0.
        -12    1    1    2    0    0 -0.14162262302E+02  0.23996544810E+02 -0.33274898060E+02  0.43400722082E+02  0.00000000000E+00 0.  1.
         11    1    3    3    0    0  0.11974634062E+01  0.16471142875E+01  0.28123443246E+01  0.34722017433E+01  0.51100000000E-03 0. -1.
        -11    1    3    3    0    0 -0.20371549361E+01 -0.10318999387E+02  0.12535019129E+02  0.16363326477E+02  0.51100000000E-03 0.  1.
        -12    1    3    3    0    0  0.15001953832E+02 -0.15324659711E+02  0.17927534607E+02  0.27951749697E+02  0.00000000000E+00 0.  1.
</event>
<event>
 7    1  0.4083500E-009  0.4778727E+02  0.7816164E-02  0.1312668E+00
        -11   -1    0    0    0    0  0.00000000000E+00  0.00000000000E+00  0.45593999997E+02  0.45594000000E+02  0.51100000000E-03 0. -1.
         11   -1    0    0    0    0 -0.00000000000E+00 -0.00000000000E+00 -0.45593999997E+02  0.45594000000E+02  0.51100000000E-03 0.  1.
    9900012    2    1    2    0    0  0.43437599405E-01 -0.34327111049E+02  0.26556941273E+02  0.47787267638E+02  0.19999984468E+02 0.  0.
        -12    1    1    2    0    0 -0.43437599405E-01  0.34327111049E+02 -0.26556941273E+02  0.43400732362E+02  0.00000000000E+00 0.  1.
         11    1    3    3    0    0  0.69575892931E+01 -0.22757893759E+02  0.24103430412E+02  0.33871892994E+02  0.51100000000E-03 0. -1.
        -11    1    3    3    0    0 -0.62085122816E+00 -0.25683760158E+01  0.10499270983E+01  0.28433006839E+01  0.51100000000E-03 0.  1.
        -12    1    3    3    0    0 -0.62933004655E+01 -0.90008412743E+01  0.14035837629E+01  0.11072073960E+02  0.00000000000E+00 0.  1.
</event>
<event>
 7    1  0.4083500E-009  0.4778725E+02  0.7816164E-02  0.1312668E+00
        -11   -1    0    0    0    0  0.00000000000E+00  0.00000000000E+00  0.45593999997E+02  0.45594000000E+02  0.51100000000E-03 0.  1.
         11   -1    0    0    0    0 -0.00000000000E+00 -0.00000000000E+00 -0.45593999997E+02  0.45594000000E+02  0.51100000000E-03 0. -1.
    9900012    2    1    2    0    0 -0.19565943318E+02  0.16525111821E+02  0.35038827796E+02  0.47787252173E+02  0.19999913957E+02 0.  0.
        -12    1    1    2    0    0  0.19565943318E+02 -0.16525111821E+02 -0.35038827796E+02  0.43400747827E+02  0.00000000000E+00 0.  1.
         11    1    3    3    0    0  0.20691724703E+00  0.10518674007E+02  0.10185625727E+02  0.14643506729E+02  0.51100000000E-03 0. -1.
        -11    1    3    3    0    0 -0.29357197958E+01 -0.16194417974E+01  0.27936791274E+01  0.43641363158E+01  0.51100000000E-03 0.  1.
         12    1    3    3    0    0 -0.16837140769E+02  0.76258796106E+01  0.22059522942E+02  0.28779609128E+02  0.00000000000E+00 0. -1.
</event>
<event>
 7    1  0.4083500E-009  0.4778727E+02  0.7816164E-02  0.1312668E+00
        -11   -1    0    0    0    0  0.00000000000E+00  0.00000000000E+00  0.45593999997E+02  0.45594000000E+02  0.51100000000E-03 0.  1.
         11   -1    0    0    0    0 -0.00000000000E+00 -0.00000000000E+00 -0.45593999997E+02  0.45594000000E+02  0.51100000000E-03 0. -1.
    9900012    2    1    2    0    0 -0.35206557703E+02  0.60236275712E+01 -0.24654355158E+02  0.47787273938E+02  0.20000013195E+02 0.  0.
        -12    1    1    2    0    0  0.35206557703E+02 -0.60236275712E+01  0.24654355158E+02  0.43400726062E+02  0.00000000000E+00 0.  1.
         11    1    3    3    0    0 -0.71385645308E+01  0.44304762291E+01 -0.89960258306E+01  0.12309212167E+02  0.51100000000E-03 0. -1.
        -11    1    3    3    0    0 -0.74958027412E+01  0.70188734069E+01 -0.73926873960E+01  0.12653199984E+02  0.51100000000E-03 0.  1.
         12    1    3    3    0    0 -0.20572190431E+02 -0.54257220647E+01 -0.82656419314E+01  0.22824861787E+02  0.00000000000E+00 0. -1.
</event>
<event>
 7    1  0.4083500E-009  0.4778727E+02  0.7816164E-02  0.1312668E+00
        -11   -1    0    0    0    0  0.00000000000E+00  0.00000000000E+00  0.45593999997E+02  0.45594000000E+02  0.51100000000E-03 0.  1.
         11   -1    0    0    0    0 -0.00000000000E+00 -0.00000000000E+00 -0.45593999997E+02  0.45594000000E+02  0.51100000000E-03 0. -1.
    9900012    2    1    2    0    0  0.39346728882E+02 -0.13174238989E+01 -0.18268088375E+02  0.47787265763E+02  0.19999975920E+02 0.  0.
        -12    1    1    2    0    0 -0.39346728882E+02  0.13174238989E+01  0.18268088375E+02  0.43400734237E+02  0.00000000000E+00 0.  1.
         11    1    3    3    0    0  0.10604794024E+02 -0.42636626422E+01 -0.50678634968E+01  0.12502948296E+02  0.51100000000E-03 0.  1.
        -11    1    3    3    0    0 -0.28744256560E-01 -0.47566854880E+00  0.23526177558E+01  0.24003952522E+01  0.51100000000E-03 0. -1.
         12    1    3    3    0    0  0.28770679114E+02  0.34219072921E+01 -0.15552842634E+02  0.32883922215E+02  0.00000000000E+00 0. -1.
</event>
<event>
 7    1  0.4083500E-009  0.4778727E+02  0.7816164E-02  0.1312668E+00
        -11   -1    0    0    0    0  0.00000000000E+00  0.00000000000E+00  0.45593999997E+02  0.45594000000E+02  0.51100000000E-03 0. -1.
         11   -1    0    0    0    0 -0.00000000000E+00 -0.00000000000E+00 -0.45593999997E+02  0.45594000000E+02  0.51100000000E-03 0.  1.
    9900012    2    1    2    0    0 -0.35867494574E+02  0.10069419100E+02 -0.22265515277E+02  0.47787267995E+02  0.19999986097E+02 0.  0.
        -12    1    1    2    0    0  0.35867494574E+02 -0.10069419100E+02  0.22265515277E+02  0.43400732005E+02  0.00000000000E+00 0.  1.
         11    1    3    3    0    0 -0.69575943278E+01  0.12267812707E+00  0.81268532917E+00  0.70059707720E+01  0.51100000000E-03 0. -1.
        -11    1    3    3    0    0  0.62470344366E+00 -0.17345063214E+01 -0.15883841881E+01  0.24334607376E+01  0.51100000000E-03 0.  1.
        -12    1    3    3    0    0 -0.29534603690E+02  0.11681247294E+02 -0.21489816418E+02  0.38347836486E+02  0.00000000000E+00 0.  1.
</event>
<event>
 7    1  0.4083500E-009  0.4778728E+02  0.7816164E-02  0.1312668E+00
        -11   -1    0    0    0    0  0.00000000000E+00  0.00000000000E+00  0.45593999997E+02  0.45594000000E+02  0.51100000000E-03 0.  1.
         11   -1    0    0    0    0 -0.00000000000E+00 -0.00000000000E+00 -0.45593999997E+02  0.45594000000E+02  0.51100000000E-03 0. -1.
    9900012    2    1    2    0    0 -0.27243695284E+02 -0.82328379849E+01 -0.32766201211E+02  0.47787280008E+02  0.20000040869E+02 0.  0.
        -12    1    1    2    0    0  0.27243695284E+02  0.82328379849E+01  0.32766201211E+02  0.43400719992E+02  0.00000000000E+00 0.  1.
         11    1    3    3    0    0 -0.40590514942E+01 -0.63697479634E+01 -0.45839961610E+01  0.88353047042E+01  0.51100000000E-03 0. -1.
        -11    1    3    3    0    0 -0.58071783780E+01 -0.32842530363E+01 -0.16939717172E+02  0.18206143382E+02  0.51100000000E-03 0.  1.
        -12    1    3    3    0    0 -0.17377465412E+02  0.14211630148E+01 -0.11242487878E+02  0.20745831922E+02  0.00000000000E+00 0.  1.
</event>
<event>
 7    1  0.4083500E-009  0.4778727E+02  0.7816164E-02  0.1312668E+00
        -11   -1    0    0    0    0  0.00000000000E+00  0.00000000000E+00  0.45593999997E+02  0.45594000000E+02  0.51100000000E-03 0.  1.
         11   -1    0    0    0    0 -0.00000000000E+00 -0.00000000000E+00 -0.45593999997E+02  0.45594000000E+02  0.51100000000E-03 0. -1.
    9900012    2    1    2    0    0 -0.13387590036E+02 -0.11575973764E+02 -0.39628181232E+02  0.47787268632E+02  0.19999989001E+02 0.  0.
        -12    1    1    2    0    0  0.13387590036E+02  0.11575973764E+02  0.39628181232E+02  0.43400731368E+02  0.00000000000E+00 0.  1.
         11    1    3    3    0    0 -0.37855098664E+01  0.49907403469E-01 -0.13276305446E+01  0.40118797117E+01  0.51100000000E-03 0. -1.
        -11    1    3    3    0    0 -0.13573933526E+02 -0.84245381105E+01 -0.26915316430E+02  0.31299501155E+02  0.51100000000E-03 0.  1.
        -12    1    3    3    0    0  0.39718533567E+01 -0.32013430568E+01 -0.11385234257E+02  0.12475887765E+02  0.00000000000E+00 0.  1.
</event>
<event>
 7    1  0.4083500E-009  0.4778726E+02  0.7816164E-02  0.1312668E+00
        -11   -1    0    0    0    0  0.00000000000E+00  0.00000000000E+00  0.45593999997E+02  0.45594000000E+02  0.51100000000E-03 0. -1.
         11   -1    0    0    0    0 -0.00000000000E+00 -0.00000000000E+00 -0.45593999997E+02  0.45594000000E+02  0.51100000000E-03 0.  1.
    9900012    2    1    2    0    0 -0.16498269165E+02  0.96383770800E+01  0.38968356757E+02  0.47787262374E+02  0.19999960466E+02 0.  0.
        -12    1    1    2    0    0  0.16498269165E+02 -0.96383770800E+01 -0.38968356757E+02  0.43400737626E+02  0.00000000000E+00 0.  1.
         11    1    3    3    0    0 -0.53919356147E+01  0.90082657148E+00  0.43426223247E+01  0.69816063410E+01  0.51100000000E-03 0.  1.
        -11    1    3    3    0    0  0.36854415800E+00 -0.38811479641E+01  0.10971437692E+02  0.11643520928E+02  0.51100000000E-03 0. -1.
         12    1    3    3    0    0 -0.11474877708E+02  0.12618698473E+02  0.23654296741E+02  0.29162135105E+02  0.00000000000E+00 0. -1.
</event>
<event>
 7    1  0.4083500E-009  0.4778727E+02  0.7816164E-02  0.1312668E+00
        -11   -1    0    0    0    0  0.00000000000E+00  0.00000000000E+00  0.45593999997E+02  0.45594000000E+02  0.51100000000E-03 0.  1.
         11   -1    0    0    0    0 -0.00000000000E+00 -0.00000000000E+00 -0.45593999997E+02  0.45594000000E+02  0.51100000000E-03 0. -1.
    9900012    2    1    2    0    0  0.21870008247E+01  0.21924570372E+02 -0.37391889445E+02  0.47787272416E+02  0.20000006253E+02 0.  0.
        -12    1    1    2    0    0 -0.21870008247E+01 -0.21924570372E+02  0.37391889445E+02  0.43400727584E+02  0.00000000000E+00 0.  1.
         11    1    3    3    0    0 -0.12579710883E+01  0.10079031850E+02 -0.28390141443E+02  0.30152437807E+02  0.51100000000E-03 0. -1.
        -11    1    3    3    0    0 -0.14552193183E+01  0.84897810323E+01 -0.77026778365E+01  0.11555314420E+02  0.51100000000E-03 0.  1.
         12    1    3    3    0    0  0.49001912313E+01  0.33557574892E+01 -0.12990701656E+01  0.60795201887E+01  0.00000000000E+00 0. -1.
</event>
<event>
 7    1  0.4083500E-009  0.4778727E+02  0.7816164E-02  0.1312668E+00
        -11   -1    0    0    0    0  0.00000000000E+00  0.00000000000E+00  0.45593999997E+02  0.45594000000E+02  0.51100000000E-03 0.  1.
         11   -1    0    0    0    0 -0.00000000000E+00 -0.00000000000E+00 -0.45593999997E+02  0.45594000000E+02  0.51100000000E-03 0. -1.
    9900012    2    1    2    0    0 -0.31369289677E+02 -0.20207722861E+02 -0.22163911777E+02  0.47787269784E+02  0.19999994252E+02 0.  0.
        -12    1    1    2    0    0  0.31369289677E+02  0.20207722861E+02  0.22163911777E+02  0.43400730216E+02  0.00000000000E+00 0.  1.
         11    1    3    3    0    0 -0.16116699119E+02 -0.11776635177E+02 -0.18155968144E+02  0.26982889135E+02  0.51100000000E-03 0. -1.
        -11    1    3    3    0    0 -0.44481074461E+01  0.15108421673E+01 -0.39249186120E+01  0.61215431289E+01  0.51100000000E-03 0.  1.
        -12    1    3    3    0    0 -0.10804483112E+02 -0.99419298510E+01 -0.83025021002E-01  0.14682837520E+02  0.00000000000E+00 0.  1.
</event>
<event>
 7    1  0.4083500E-009  0.4778727E+02  0.7816164E-02  0.1312668E+00
        -11   -1    0    0    0    0  0.00000000000E+00  0.00000000000E+00  0.45593999997E+02  0.45594000000E+02  0.51100000000E-03 0.  1.
         11   -1    0    0    0    0 -0.00000000000E+00 -0.00000000000E+00 -0.45593999997E+02  0.45594000000E+02  0.51100000000E-03 0. -1.
    9900012    2    1    2    0    0  0.28566977539E+02 -0.15659116473E+02 -0.28676529514E+02  0.47787268676E+02  0.19999989203E+02 0.  0.
        -12    1    1    2    0    0 -0.28566977539E+02  0.15659116473E+02  0.28676529514E+02  0.43400731324E+02  0.00000000000E+00 0.  1.
         11    1    3    3    0    0  0.10241855532E+02 -0.83205668445E+01 -0.13627026500E+02  0.18969008641E+02  0.51100000000E-03 0. -1.
        -11    1    3    3    0    0  0.20578361488E+02 -0.79683361908E+01 -0.14531183722E+02  0.26421934899E+02  0.51100000000E-03 0.  1.
        -12    1    3    3    0    0 -0.22532394804E+01  0.62978656245E+00 -0.51831929269E+00  0.23963251365E+01  0.00000000000E+00 0.  1.
</event>
<event>
 7    1  0.4083500E-009  0.4778727E+02  0.7816164E-02  0.1312668E+00
        -11   -1    0    0    0    0  0.00000000000E+00  0.00000000000E+00  0.45593999997E+02  0.45594000000E+02  0.51100000000E-03 0.  1.
         11   -1    0    0    0    0 -0.00000000000E+00 -0.00000000000E+00 -0.45593999997E+02  0.45594000000E+02  0.51100000000E-03 0. -1.
    9900012    2    1    2    0    0 -0.93429823883E+00  0.40461074583E+02 -0.15673288961E+02  0.47787268941E+02  0.19999990409E+02 0.  0.
        -12    1    1    2    0    0  0.93429823883E+00 -0.40461074583E+02  0.15673288961E+02  0.43400731059E+02  0.00000000000E+00 0.  1.
         11    1    3    3    0    0  0.48594356545E+01  0.63711007401E+01 -0.67905769426E-01  0.80130924726E+01  0.51100000000E-03 0. -1.
        -11    1    3    3    0    0 -0.20663770032E+00  0.88515725133E+00  0.16911228069E+01  0.19199216411E+01  0.51100000000E-03 0.  1.
         12    1    3    3    0    0 -0.55870961930E+01  0.33204816592E+02 -0.17296505999E+02  0.37854254827E+02  0.00000000000E+00 0. -1.
</event>
<event>
 7    1  0.4083500E-009  0.4778727E+02  0.7816164E-02  0.1312668E+00
        -11   -1    0    0    0    0  0.00000000000E+00  0.00000000000E+00  0.45593999997E+02  0.45594000000E+02  0.51100000000E-03 0.  1.
         11   -1    0    0    0    0 -0.00000000000E+00 -0.00000000000E+00 -0.45593999997E+02  0.45594000000E+02  0.51100000000E-03 0. -1.
    9900012    2    1    2    0    0  0.13439040679E+02 -0.36365754710E+02 -0.19507619829E+02  0.47787272340E+02  0.20000005908E+02 0.  0.
        -12    1    1    2    0    0 -0.13439040679E+02  0.36365754710E+02  0.19507619829E+02  0.43400727660E+02  0.00000000000E+00 0.  1.
         11    1    3    3    0    0  0.39802064047E+01 -0.36983679172E+01  0.36131546010E+01  0.65249409734E+01  0.51100000000E-03 0. -1.
        -11    1    3    3    0    0 -0.16040286416E+00 -0.22037133149E+01 -0.11569741074E+01  0.24941272621E+01  0.51100000000E-03 0.  1.
         12    1    3    3    0    0  0.96192371381E+01 -0.30463673478E+02 -0.21963800323E+02  0.38768204105E+02  0.00000000000E+00 0. -1.
</event>
<event>
 7    1  0.4083500E-009  0.4778727E+02  0.7816164E-02  0.1312668E+00
        -11   -1    0    0    0    0  0.00000000000E+00  0.00000000000E+00  0.45593999997E+02  0.45594000000E+02  0.51100000000E-03 0.  1.
         11   -1    0    0    0    0 -0.00000000000E+00 -0.00000000000E+00 -0.45593999997E+02  0.45594000000E+02  0.51100000000E-03 0. -1.
    9900012    2    1    2    0    0  0.92975387601E+01 -0.31033767530E+01 -0.42279404616E+02  0.47787271562E+02  0.20000002361E+02 0.  0.
        -12    1    1    2    0    0 -0.92975387601E+01  0.31033767530E+01  0.42279404616E+02  0.43400728438E+02  0.00000000000E+00 0.  1.
         11    1    3    3    0    0 -0.92922647282E+00 -0.34551335110E+00 -0.62365712028E+01  0.63148762413E+01  0.51100000000E-03 0. -1.
        -11    1    3    3    0    0  0.10371600651E+01  0.11181353722E+01 -0.29510753949E+02  0.29550135814E+02  0.51100000000E-03 0.  1.
        -12    1    3    3    0    0  0.91896051678E+01 -0.38759987740E+01 -0.65320794635E+01  0.11922259507E+02  0.00000000000E+00 0.  1.
</event>
<event>
 7    1  0.4083500E-009  0.4778726E+02  0.7816164E-02  0.1312668E+00
        -11   -1    0    0    0    0  0.00000000000E+00  0.00000000000E+00  0.45593999997E+02  0.45594000000E+02  0.51100000000E-03 0.  1.
         11   -1    0    0    0    0 -0.00000000000E+00 -0.00000000000E+00 -0.45593999997E+02  0.45594000000E+02  0.51100000000E-03 0. -1.
    9900012    2    1    2    0    0  0.65055927609E+01 -0.29888867424E+02 -0.30788906599E+02  0.47787263801E+02  0.19999966974E+02 0.  0.
        -12    1    1    2    0    0 -0.65055927609E+01  0.29888867424E+02  0.30788906599E+02  0.43400736199E+02  0.00000000000E+00 0.  1.
         11    1    3    3    0    0  0.42259986749E+01 -0.10227896864E+02 -0.22122846677E+02  0.24736395947E+02  0.51100000000E-03 0. -1.
        -11    1    3    3    0    0  0.79150688278E+00  0.20362553984E-01  0.83061910812E+00  0.11475304541E+01  0.51100000000E-03 0.  1.
        -12    1    3    3    0    0  0.14880872032E+01 -0.19681333114E+02 -0.94966790297E+01  0.21903337400E+02  0.00000000000E+00 0.  1.
</event>
<event>
 7    1  0.4083500E-009  0.4778727E+02  0.7816164E-02  0.1312668E+00
        -11   -1    0    0    0    0  0.00000000000E+00  0.00000000000E+00  0.45593999997E+02  0.45594000000E+02  0.51100000000E-03 0. -1.
         11   -1    0    0    0    0 -0.00000000000E+00 -0.00000000000E+00 -0.45593999997E+02  0.45594000000E+02  0.51100000000E-03 0.  1.
    9900012    2    1    2    0    0 -0.18863233049E+02 -0.63096927111E+01  0.38574469982E+02  0.47787268237E+02  0.19999987199E+02 0.  0.
        -12    1    1    2    0    0  0.18863233049E+02  0.63096927111E+01 -0.38574469982E+02  0.43400731763E+02  0.00000000000E+00 0.  1.
         11    1    3    3    0    0 -0.15767051639E+01  0.18074376947E+01  0.53721448025E+01  0.58832618703E+01  0.51100000000E-03 0. -1.
        -11    1    3    3    0    0 -0.19141663513E+02 -0.35684384691E+01  0.30792453695E+02  0.36432296661E+02  0.51100000000E-03 0.  1.
         12    1    3    3    0    0  0.18551356278E+01 -0.45486919367E+01  0.24098714846E+01  0.54717097058E+01  0.00000000000E+00 0. -1.
</event>
<event>
 7    1  0.4083500E-009  0.4778726E+02  0.7816164E-02  0.1312668E+00
        -11   -1    0    0    0    0  0.00000000000E+00  0.00000000000E+00  0.45593999997E+02  0.45594000000E+02  0.51100000000E-03 0. -1.
         11   -1    0    0    0    0 -0.00000000000E+00 -0.00000000000E+00 -0.45593999997E+02  0.45594000000E+02  0.51100000000E-03 0.  1.
    9900012    2    1    2    0    0  0.37787547714E+02 -0.10349469888E+02 -0.18671198921E+02  0.47787263159E+02  0.19999964049E+02 0.  0.
        -12    1    1    2    0    0 -0.37787547714E+02  0.10349469888E+02  0.18671198921E+02  0.43400736841E+02  0.00000000000E+00 0.  1.
         11    1    3    3    0    0  0.35007818415E+00 -0.33944591840E+01 -0.11643552314E+01  0.36056388134E+01  0.51100000000E-03 0. -1.
        -11    1    3    3    0    0  0.15165119182E+01  0.26317179389E+01 -0.30123609953E+01  0.42778577273E+01  0.51100000000E-03 0.  1.
         12    1    3    3    0    0  0.35920957611E+02 -0.95867286434E+01 -0.14494482694E+02  0.39903766619E+02  0.00000000000E+00 0. -1.
</event>
<event>
 7    1  0.4083500E-009  0.4778727E+02  0.7816164E-02  0.1312668E+00
        -11   -1    0    0    0    0  0.00000000000E+00  0.00000000000E+00  0.45593999997E+02  0.45594000000E+02  0.51100000000E-03 0. -1.
         11   -1    0    0    0    0 -0.00000000000E+00 -0.00000000000E+00 -0.45593999997E+02  0.45594000000E+02  0.51100000000E-03 0.  1.
    9900012    2    1    2    0    0  0.11905192944E+02 -0.37250948963E+02  0.18821700968E+02  0.47787271377E+02  0.20000001517E+02 0.  0.
        -12    1    1    2    0    0 -0.11905192944E+02  0.37250948963E+02 -0.18821700968E+02  0.43400728623E+02  0.00000000000E+00 0.  1.
         11    1    3    3    0    0 -0.62178340232E+00 -0.10734998418E+02  0.12510173341E+02  0.16496400908E+02  0.51100000000E-03 0. -1.
        -11    1    3    3    0    0 -0.68115035909E+00 -0.40794444780E+01 -0.98616837026E+00  0.42518656348E+01  0.51100000000E-03 0.  1.
        -12    1    3    3    0    0  0.13208126705E+02 -0.22436506067E+02  0.72976959973E+01  0.27039004834E+02  0.00000000000E+00 0.  1.
</event>
<event>
 7    1  0.4083500E-009  0.4778727E+02  0.7816164E-02  0.1312668E+00
        -11   -1    0    0    0    0  0.00000000000E+00  0.00000000000E+00  0.45593999997E+02  0.45594000000E+02  0.51100000000E-03 0.  1.
         11   -1    0    0    0    0 -0.00000000000E+00 -0.00000000000E+00 -0.45593999997E+02  0.45594000000E+02  0.51100000000E-03 0. -1.
    9900012    2    1    2    0    0 -0.14254115088E+02  0.40712611133E+02 -0.47881788019E+01  0.47787272375E+02  0.20000006065E+02 0.  0.
        -12    1    1    2    0    0  0.14254115088E+02 -0.40712611133E+02  0.47881788019E+01  0.43400727625E+02  0.00000000000E+00 0.  1.
         11    1    3    3    0    0 -0.55643940142E+01  0.19676444533E+02  0.18735906122E+01  0.20533759817E+02  0.51100000000E-03 0. -1.
        -11    1    3    3    0    0 -0.74881968420E+01  0.15970920505E+02  0.13589067791E+01  0.17691524005E+02  0.51100000000E-03 0.  1.
         12    1    3    3    0    0 -0.12015242317E+01  0.50652460954E+01 -0.80206761932E+01  0.95619885527E+01  0.00000000000E+00 0. -1.
</event>
<event>
 7    1  0.4083500E-009  0.4778727E+02  0.7816164E-02  0.1312668E+00
        -11   -1    0    0    0    0  0.00000000000E+00  0.00000000000E+00  0.45593999997E+02  0.45594000000E+02  0.51100000000E-03 0. -1.
         11   -1    0    0    0    0 -0.00000000000E+00 -0.00000000000E+00 -0.45593999997E+02  0.45594000000E+02  0.51100000000E-03 0.  1.
    9900012    2    1    2    0    0  0.10037950846E+02  0.92035258219E+00  0.42213927616E+02  0.47787272001E+02  0.20000004360E+02 0.  0.
        -12    1    1    2    0    0 -0.10037950846E+02 -0.92035258219E+00 -0.42213927616E+02  0.43400727999E+02  0.00000000000E+00 0.  1.
         11    1    3    3    0    0  0.91639741260E+01  0.18375943509E+01  0.34121178960E+02  0.35378100976E+02  0.51100000000E-03 0. -1.
        -11    1    3    3    0    0  0.46697065189E+01  0.15020875938E+01  0.41480345394E+01  0.64240654506E+01  0.51100000000E-03 0.  1.
        -12    1    3    3    0    0 -0.37957297985E+01 -0.24193293625E+01  0.39447141165E+01  0.59851055737E+01  0.00000000000E+00 0.  1.
</event>
<event>
 7    1  0.4083500E-009  0.4778727E+02  0.7816164E-02  0.1312668E+00
        -11   -1    0    0    0    0  0.00000000000E+00  0.00000000000E+00  0.45593999997E+02  0.45594000000E+02  0.51100000000E-03 0.  1.
         11   -1    0    0    0    0 -0.00000000000E+00 -0.00000000000E+00 -0.45593999997E+02  0.45594000000E+02  0.51100000000E-03 0. -1.
    9900012    2    1    2    0    0 -0.26959427451E+02 -0.66125603106E+01 -0.33362951390E+02  0.47787271806E+02  0.20000003470E+02 0.  0.
        -12    1    1    2    0    0  0.26959427451E+02  0.66125603106E+01  0.33362951390E+02  0.43400728194E+02  0.00000000000E+00 0.  1.
         11    1    3    3    0    0 -0.36481701214E+00 -0.16743897985E+01 -0.22641852375E+01  0.28395787893E+01  0.51100000000E-03 0. -1.
        -11    1    3    3    0    0 -0.86023255259E+01 -0.84621931271E+01 -0.50206248844E+01  0.13069636241E+02  0.51100000000E-03 0.  1.
         12    1    3    3    0    0 -0.17992284913E+02  0.35240226149E+01 -0.26078141268E+02  0.31878056776E+02  0.00000000000E+00 0. -1.
</event>
<event>
 7    1  0.4083500E-009  0.4778727E+02  0.7816164E-02  0.1312668E+00
        -11   -1    0    0    0    0  0.00000000000E+00  0.00000000000E+00  0.45593999997E+02  0.45594000000E+02  0.51100000000E-03 0. -1.
         11   -1    0    0    0    0 -0.00000000000E+00 -0.00000000000E+00 -0.45593999997E+02  0.45594000000E+02  0.51100000000E-03 0.  1.
    9900012    2    1    2    0    0  0.13735898953E+02 -0.38902781091E+02 -0.13473005623E+02  0.47787272159E+02  0.20000005080E+02 0.  0.
        -12    1    1    2    0    0 -0.13735898953E+02  0.38902781091E+02  0.13473005623E+02  0.43400727841E+02  0.00000000000E+00 0.  1.
         11    1    3    3    0    0  0.40744989582E+01 -0.28206150614E+01 -0.30318486235E+01  0.58094334855E+01  0.51100000000E-03 0. -1.
        -11    1    3    3    0    0  0.80792378358E+01 -0.23133623835E+02 -0.14303741740E+02  0.28373150403E+02  0.51100000000E-03 0.  1.
         12    1    3    3    0    0  0.15821621593E+01 -0.12948542194E+02  0.38625847410E+01  0.13604688271E+02  0.00000000000E+00 0. -1.
</event>
<event>
 7    1  0.4083500E-009  0.4778728E+02  0.7816164E-02  0.1312668E+00
        -11   -1    0    0    0    0  0.00000000000E+00  0.00000000000E+00  0.45593999997E+02  0.45594000000E+02  0.51100000000E-03 0.  1.
         11   -1    0    0    0    0 -0.00000000000E+00 -0.00000000000E+00 -0.45593999997E+02  0.45594000000E+02  0.51100000000E-03 0. -1.
    9900012    2    1    2    0    0 -0.28071969334E+02  0.36034307168E+01 -0.32902926929E+02  0.47787276783E+02  0.20000026166E+02 0.  0.
        -12    1    1    2    0    0  0.28071969334E+02 -0.36034307168E+01  0.32902926929E+02  0.43400723217E+02  0.00000000000E+00 0.  1.
         11    1    3    3    0    0 -0.49653760988E+01 -0.31318261933E+01 -0.39269753628E+01  0.70628911126E+01  0.51100000000E-03 0. -1.
        -11    1    3    3    0    0 -0.61797866887E+01  0.17223467726E+01  0.42635344299E+00  0.64294649421E+01  0.51100000000E-03 0.  1.
         12    1    3    3    0    0 -0.16926806547E+02  0.50129101374E+01 -0.29402305009E+02  0.34294920729E+02  0.00000000000E+00 0. -1.
</event>
<event>
 7    1  0.4083500E-009  0.4778727E+02  0.7816164E-02  0.1312668E+00
        -11   -1    0    0    0    0  0.00000000000E+00  0.00000000000E+00  0.45593999997E+02  0.45594000000E+02  0.51100000000E-03 0.  1.
         11   -1    0    0    0    0 -0.00000000000E+00 -0.00000000000E+00 -0.45593999997E+02  0.45594000000E+02  0.51100000000E-03 0. -1.
    9900012    2    1    2    0    0 -0.40955104670E+02 -0.55592714997E+01 -0.13243776487E+02  0.47787265977E+02  0.19999976895E+02 0.  0.
        -12    1    1    2    0    0  0.40955104670E+02  0.55592714997E+01  0.13243776487E+02  0.43400734023E+02  0.00000000000E+00 0.  1.
         11    1    3    3    0    0 -0.29256634159E+02 -0.61790991451E+01 -0.45008583251E+01  0.30238876211E+02  0.51100000000E-03 0. -1.
        -11    1    3    3    0    0 -0.41597713301E+01 -0.26489265005E+01  0.75544047603E+00  0.49891081064E+01  0.51100000000E-03 0.  1.
        -12    1    3    3    0    0 -0.75386991804E+01  0.32687541459E+01 -0.94983586377E+01  0.12559281660E+02  0.00000000000E+00 0.  1.
</event>
<event>
 7    1  0.4083500E-009  0.4778727E+02  0.7816164E-02  0.1312668E+00
        -11   -1    0    0    0    0  0.00000000000E+00  0.00000000000E+00  0.45593999997E+02  0.45594000000E+02  0.51100000000E-03 0. -1.
         11   -1    0    0    0    0 -0.00000000000E+00 -0.00000000000E+00 -0.45593999997E+02  0.45594000000E+02  0.51100000000E-03 0.  1.
    9900012    2    1    2    0    0  0.37551535692E+02  0.13926161403E+02  0.16720274170E+02  0.47787269907E+02  0.19999994814E+02 0.  0.
        -12    1    1    2    0    0 -0.37551535692E+02 -0.13926161403E+02 -0.16720274170E+02  0.43400730093E+02  0.00000000000E+00 0.  1.
         11    1    3    3    0    0  0.12459579389E+02  0.57467809572E+01  0.11219065851E+02  0.17723827148E+02  0.51100000000E-03 0. -1.
        -11    1    3    3    0    0  0.24589811796E+02  0.74961543275E+01  0.12595475470E+01  0.25737863823E+02  0.51100000000E-03 0.  1.
         12    1    3    3    0    0  0.50214450707E+00  0.68322611872E+00  0.42416607717E+01  0.43255789367E+01  0.00000000000E+00 0. -1.
</event>
<event>
 7    1  0.4083500E-009  0.4778728E+02  0.7816164E-02  0.1312668E+00
        -11   -1    0    0    0    0  0.00000000000E+00  0.00000000000E+00  0.45593999997E+02  0.45594000000E+02  0.51100000000E-03 0.  1.
         11   -1    0    0    0    0 -0.00000000000E+00 -0.00000000000E+00 -0.45593999997E+02  0.45594000000E+02  0.51100000000E-03 0. -1.
    9900012    2    1    2    0    0  0.16259369672E+02 -0.89417718102E+01 -0.39233913573E+02  0.47787281579E+02  0.20000048031E+02 0.  0.
        -12    1    1    2    0    0 -0.16259369672E+02  0.89417718102E+01  0.39233913573E+02  0.43400718421E+02  0.00000000000E+00 0.  1.
         11    1    3    3    0    0  0.48397089574E+00 -0.27433419185E+01 -0.92829175116E+01  0.96918889024E+01  0.51100000000E-03 0. -1.
        -11    1    3    3    0    0  0.72946872538E+01 -0.10800643109E+02 -0.22095668811E+02  0.25653166162E+02  0.51100000000E-03 0.  1.
         12    1    3    3    0    0  0.84807115224E+01  0.46022132169E+01 -0.78553272501E+01  0.12442226514E+02  0.00000000000E+00 0. -1.
</event>
<event>
 7    1  0.4083500E-009  0.4778727E+02  0.7816164E-02  0.1312668E+00
        -11   -1    0    0    0    0  0.00000000000E+00  0.00000000000E+00  0.45593999997E+02  0.45594000000E+02  0.51100000000E-03 0.  1.
         11   -1    0    0    0    0 -0.00000000000E+00 -0.00000000000E+00 -0.45593999997E+02  0.45594000000E+02  0.51100000000E-03 0. -1.
    9900012    2    1    2    0    0 -0.37932090293E+02  0.12850976981E+02 -0.16722211013E+02  0.47787269309E+02  0.19999992087E+02 0.  0.
        -12    1    1    2    0    0  0.37932090293E+02 -0.12850976981E+02  0.16722211013E+02  0.43400730691E+02  0.00000000000E+00 0.  1.
         11    1    3    3    0    0 -0.10744414519E+02  0.12808625451E+00 -0.11716805546E+02  0.15897873503E+02  0.51100000000E-03 0. -1.
        -11    1    3    3    0    0 -0.99184957218E+00  0.33036812081E+01  0.57728587724E+00  0.34973324612E+01  0.51100000000E-03 0.  1.
        -12    1    3    3    0    0 -0.26195826202E+02  0.94192095183E+01 -0.55826913442E+01  0.28392063345E+02  0.00000000000E+00 0.  1.
</event>
<event>
 7    1  0.4083500E-009  0.4778728E+02  0.7816164E-02  0.1312668E+00
        -11   -1    0    0    0    0  0.00000000000E+00  0.00000000000E+00  0.45593999997E+02  0.45594000000E+02  0.51100000000E-03 0.  1.
         11   -1    0    0    0    0 -0.00000000000E+00 -0.00000000000E+00 -0.45593999997E+02  0.45594000000E+02  0.51100000000E-03 0. -1.
    9900012    2    1    2    0    0 -0.14850597438E+02 -0.28639641741E+02 -0.29031931742E+02  0.47787281297E+02  0.20000046743E+02 0.  0.
        -12    1    1    2    0    0  0.14850597438E+02  0.28639641741E+02  0.29031931742E+02  0.43400718703E+02  0.00000000000E+00 0.  1.
         11    1    3    3    0    0 -0.85751412261E+01 -0.10997027438E+02 -0.14634474975E+02  0.20214735160E+02  0.51100000000E-03 0. -1.
        -11    1    3    3    0    0  0.20637857437E+00 -0.40822499598E+01 -0.11580843324E+02  0.12281013363E+02  0.51100000000E-03 0.  1.
        -12    1    3    3    0    0 -0.64818347865E+01 -0.13560364343E+02 -0.28166134430E+01  0.15291532774E+02  0.00000000000E+00 0.  1.
</event>
<event>
 7    1  0.4083500E-009  0.4778727E+02  0.7816164E-02  0.1312668E+00
        -11   -1    0    0    0    0  0.00000000000E+00  0.00000000000E+00  0.45593999997E+02  0.45594000000E+02  0.51100000000E-03 0.  1.
         11   -1    0    0    0    0 -0.00000000000E+00 -0.00000000000E+00 -0.45593999997E+02  0.45594000000E+02  0.51100000000E-03 0. -1.
    9900012    2    1    2    0    0 -0.39111934094E+02  0.12214054571E+02 -0.14307223127E+02  0.47787272458E+02  0.20000006443E+02 0.  0.
        -12    1    1    2    0    0  0.39111934094E+02 -0.12214054571E+02  0.14307223127E+02  0.43400727542E+02  0.00000000000E+00 0.  1.
         11    1    3    3    0    0 -0.84517141402E+01 -0.35392314194E+01 -0.64921524168E+01  0.11229678277E+02  0.51100000000E-03 0.  1.
        -11    1    3    3    0    0 -0.12726806794E+02  0.38829420667E+01 -0.70026469627E+01  0.15036153598E+02  0.51100000000E-03 0. -1.
        -12    1    3    3    0    0 -0.17933413159E+02  0.11870343923E+02 -0.81242374778E+00  0.21521440582E+02  0.00000000000E+00 0.  1.
</event>
<event>
 7    1  0.4083500E-009  0.4778727E+02  0.7816164E-02  0.1312668E+00
        -11   -1    0    0    0    0  0.00000000000E+00  0.00000000000E+00  0.45593999997E+02  0.45594000000E+02  0.51100000000E-03 0.  1.
         11   -1    0    0    0    0 -0.00000000000E+00 -0.00000000000E+00 -0.45593999997E+02  0.45594000000E+02  0.51100000000E-03 0. -1.
    9900012    2    1    2    0    0 -0.10105029820E+02 -0.27847246772E+02 -0.31718172659E+02  0.47787271236E+02  0.20000000871E+02 0.  0.
        -12    1    1    2    0    0  0.10105029820E+02  0.27847246772E+02  0.31718172659E+02  0.43400728764E+02  0.00000000000E+00 0.  1.
         11    1    3    3    0    0 -0.36964389362E+01 -0.18091236480E+02 -0.11229899600E+02  0.21611736244E+02  0.51100000000E-03 0. -1.
        -11    1    3    3    0    0 -0.90901086088E+01 -0.78055808378E+01 -0.11550248716E+02  0.16642277860E+02  0.51100000000E-03 0.  1.
        -12    1    3    3    0    0  0.26815177248E+01 -0.19504294543E+01 -0.89380243433E+01  0.95332571310E+01  0.00000000000E+00 0.  1.
</event>
<event>
 7    1  0.4083500E-009  0.4778727E+02  0.7816164E-02  0.1312668E+00
        -11   -1    0    0    0    0  0.00000000000E+00  0.00000000000E+00  0.45593999997E+02  0.45594000000E+02  0.51100000000E-03 0.  1.
         11   -1    0    0    0    0 -0.00000000000E+00 -0.00000000000E+00 -0.45593999997E+02  0.45594000000E+02  0.51100000000E-03 0. -1.
    9900012    2    1    2    0    0  0.95126052878E+01  0.27117772818E+02 -0.32523221959E+02  0.47787271567E+02  0.20000002380E+02 0.  0.
        -12    1    1    2    0    0 -0.95126052878E+01 -0.27117772818E+02  0.32523221959E+02  0.43400728433E+02  0.00000000000E+00 0.  1.
         11    1    3    3    0    0  0.49017130478E+01  0.11439921887E+01 -0.57241298067E+00  0.50658825304E+01  0.51100000000E-03 0. -1.
        -11    1    3    3    0    0  0.28528061900E+01  0.96189666785E+01 -0.51558640537E+01  0.11280334992E+02  0.51100000000E-03 0.  1.
        -12    1    3    3    0    0  0.17580860500E+01  0.16354813951E+02 -0.26794944924E+02  0.31441054045E+02  0.00000000000E+00 0.  1.
</event>
<event>
 7    1  0.4083500E-009  0.4778727E+02  0.7816164E-02  0.1312668E+00
        -11   -1    0    0    0    0  0.00000000000E+00  0.00000000000E+00  0.45593999997E+02  0.45594000000E+02  0.51100000000E-03 0.  1.
         11   -1    0    0    0    0 -0.00000000000E+00 -0.00000000000E+00 -0.45593999997E+02  0.45594000000E+02  0.51100000000E-03 0. -1.
    9900012    2    1    2    0    0 -0.31404122249E+02  0.61463032276E+01 -0.29319406094E+02  0.47787268309E+02  0.19999987530E+02 0.  0.
        -12    1    1    2    0    0  0.31404122249E+02 -0.61463032276E+01  0.29319406094E+02  0.43400731691E+02  0.00000000000E+00 0.  1.
         11    1    3    3    0    0 -0.15083612874E+02  0.50226327606E+01 -0.14846925803E+02  0.21752549810E+02  0.51100000000E-03 0. -1.
        -11    1    3    3    0    0 -0.13946676483E+02  0.66774141560E+01 -0.11692361872E+02  0.19385793024E+02  0.51100000000E-03 0.  1.
        -12    1    3    3    0    0 -0.23738328914E+01 -0.55537436889E+01 -0.27801184187E+01  0.66489254756E+01  0.00000000000E+00 0.  1.
</event>
<event>
 7    1  0.4083500E-009  0.4778728E+02  0.7816164E-02  0.1312668E+00
        -11   -1    0    0    0    0  0.00000000000E+00  0.00000000000E+00  0.45593999997E+02  0.45594000000E+02  0.51100000000E-03 0.  1.
         11   -1    0    0    0    0 -0.00000000000E+00 -0.00000000000E+00 -0.45593999997E+02  0.45594000000E+02  0.51100000000E-03 0. -1.
    9900012    2    1    2    0    0 -0.41494653301E+01  0.65522016128E+01 -0.42702146828E+02  0.47787277054E+02  0.20000027399E+02 0.  0.
        -12    1    1    2    0    0  0.41494653301E+01 -0.65522016128E+01  0.42702146828E+02  0.43400722946E+02  0.00000000000E+00 0.  1.
         11    1    3    3    0    0  0.59773280142E+00  0.31353971677E+01 -0.16519579057E+01  0.35940179583E+01  0.51100000000E-03 0. -1.
        -11    1    3    3    0    0  0.45314850051E+01  0.75476842289E+00 -0.25350442374E+02  0.25763325883E+02  0.51100000000E-03 0.  1.
        -12    1    3    3    0    0 -0.92786831366E+01  0.26620360222E+01 -0.15699746549E+02  0.18429933213E+02  0.00000000000E+00 0.  1.
</event>
<event>
 7    1  0.4083500E-009  0.4778727E+02  0.7816164E-02  0.1312668E+00
        -11   -1    0    0    0    0  0.00000000000E+00  0.00000000000E+00  0.45593999997E+02  0.45594000000E+02  0.51100000000E-03 0. -1.
         11   -1    0    0    0    0 -0.00000000000E+00 -0.00000000000E+00 -0.45593999997E+02  0.45594000000E+02  0.51100000000E-03 0.  1.
    9900012    2    1    2    0    0 -0.42610026566E+02  0.15168635236E+01 -0.81060598077E+01  0.47787269078E+02  0.19999991035E+02 0.  0.
        -12    1    1    2    0    0  0.42610026566E+02 -0.15168635236E+01  0.81060598077E+01  0.43400730922E+02  0.00000000000E+00 0.  1.
         11    1    3    3    0    0 -0.33561691418E+02 -0.17681724674E+01 -0.40818409711E+01  0.33855206257E+02  0.51100000000E-03 0. -1.
        -11    1    3    3    0    0 -0.94489120509E+01  0.45711661012E+01 -0.90630960031E+00  0.10535601351E+02  0.51100000000E-03 0.  1.
         12    1    3    3    0    0  0.40057690244E+00 -0.12861301102E+01 -0.31179092363E+01  0.33964614706E+01  0.00000000000E+00 0. -1.
</event>
<event>
 7    1  0.4083500E-009  0.4778729E+02  0.7816164E-02  0.1312668E+00
        -11   -1    0    0    0    0  0.00000000000E+00  0.00000000000E+00  0.45593999997E+02  0.45594000000E+02  0.51100000000E-03 0.  1.
         11   -1    0    0    0    0 -0.00000000000E+00 -0.00000000000E+00 -0.45593999997E+02  0.45594000000E+02  0.51100000000E-03 0. -1.
    9900012    2    1    2    0    0 -0.19846578778E+02  0.37760121915E+02 -0.79942493045E+01  0.47787291271E+02  0.20000092219E+02 0.  0.
        -12    1    1    2    0    0  0.19846578778E+02 -0.37760121915E+02  0.79942493045E+01  0.43400708729E+02  0.00000000000E+00 0.  1.
         11    1    3    3    0    0 -0.39041607627E+01  0.23722857345E+01 -0.70584682664E+01  0.84078644967E+01  0.51100000000E-03 0. -1.
        -11    1    3    3    0    0 -0.26458355651E+01  0.10448716573E+02 -0.25325519342E+01  0.11072034294E+02  0.51100000000E-03 0.  1.
         12    1    3    3    0    0 -0.13296582450E+02  0.24939119608E+02  0.15967708961E+01  0.28307392480E+02  0.00000000000E+00 0. -1.
</event>
<event>
 7    1  0.4083500E-009  0.4778727E+02  0.7816164E-02  0.1312668E+00
        -11   -1    0    0    0    0  0.00000000000E+00  0.00000000000E+00  0.45593999997E+02  0.45594000000E+02  0.51100000000E-03 0.  1.
         11   -1    0    0    0    0 -0.00000000000E+00 -0.00000000000E+00 -0.45593999997E+02  0.45594000000E+02  0.51100000000E-03 0. -1.
    9900012    2    1    2    0    0  0.17097044619E+02  0.15317705829E+02 -0.36833168834E+02  0.47787269904E+02  0.19999994798E+02 0.  0.
        -12    1    1    2    0    0 -0.17097044619E+02 -0.15317705829E+02  0.36833168834E+02  0.43400730096E+02  0.00000000000E+00 0.  1.
         11    1    3    3    0    0  0.61128302240E+01  0.77094507269E+01 -0.44336499978E+01  0.10791643824E+02  0.51100000000E-03 0.  1.
        -11    1    3    3    0    0  0.86820204370E+01  0.10760269153E+02 -0.23284585255E+02  0.27080117834E+02  0.51100000000E-03 0. -1.
        -12    1    3    3    0    0  0.23021939577E+01 -0.31520140507E+01 -0.91149335809E+01  0.99155082461E+01  0.00000000000E+00 0.  1.
</event>
<event>
 7    1  0.4083500E-009  0.4778727E+02  0.7816164E-02  0.1312668E+00
        -11   -1    0    0    0    0  0.00000000000E+00  0.00000000000E+00  0.45593999997E+02  0.45594000000E+02  0.51100000000E-03 0. -1.
         11   -1    0    0    0    0 -0.00000000000E+00 -0.00000000000E+00 -0.45593999997E+02  0.45594000000E+02  0.51100000000E-03 0.  1.
    9900012    2    1    2    0    0 -0.63980785619E+01 -0.42849717098E+02 -0.25669882778E+01  0.47787273122E+02  0.20000009474E+02 0.  0.
        -12    1    1    2    0    0  0.63980785619E+01  0.42849717098E+02  0.25669882778E+01  0.43400726878E+02  0.00000000000E+00 0.  1.
         11    1    3    3    0    0  0.71218241927E+00 -0.73268146507E+01 -0.15070861188E+01  0.75140352378E+01  0.51100000000E-03 0. -1.
        -11    1    3    3    0    0  0.39846897613E+01 -0.20590216436E+02 -0.42496160322E+01  0.21398457936E+02  0.51100000000E-03 0.  1.
         12    1    3    3    0    0 -0.11094950743E+02 -0.14932686012E+02  0.31897138732E+01  0.18874779948E+02  0.00000000000E+00 0. -1.
</event>
<event>
 7    1  0.4083500E-009  0.4778727E+02  0.7816164E-02  0.1312668E+00
        -11   -1    0    0    0    0  0.00000000000E+00  0.00000000000E+00  0.45593999997E+02  0.45594000000E+02  0.51100000000E-03 0.  1.
         11   -1    0    0    0    0 -0.00000000000E+00 -0.00000000000E+00 -0.45593999997E+02  0.45594000000E+02  0.51100000000E-03 0. -1.
    9900012    2    1    2    0    0 -0.10639774905E+02  0.41636909263E+02 -0.60651755172E+01  0.47787269856E+02  0.19999994582E+02 0.  0.
        -12    1    1    2    0    0  0.10639774905E+02 -0.41636909263E+02  0.60651755172E+01  0.43400730144E+02  0.00000000000E+00 0.  1.
         11    1    3    3    0    0 -0.84576788877E+01  0.26401017844E+02 -0.66848682393E+01  0.28517249850E+02  0.51100000000E-03 0. -1.
        -11    1    3    3    0    0  0.12207309578E+01  0.10056762525E+02 -0.46392742723E+01  0.11142330213E+02  0.51100000000E-03 0.  1.
        -12    1    3    3    0    0 -0.34028269747E+01  0.51791288938E+01  0.52589669945E+01  0.81276897927E+01  0.00000000000E+00 0.  1.
</event>
<event>
 7    1  0.4083500E-009  0.4778727E+02  0.7816164E-02  0.1312668E+00
        -11   -1    0    0    0    0  0.00000000000E+00  0.00000000000E+00  0.45593999997E+02  0.45594000000E+02  0.51100000000E-03 0.  1.
         11   -1    0    0    0    0 -0.00000000000E+00 -0.00000000000E+00 -0.45593999997E+02  0.45594000000E+02  0.51100000000E-03 0. -1.
    9900012    2    1    2    0    0 -0.22240476494E+02 -0.35924473400E+02 -0.99205439266E+01  0.47787265265E+02  0.19999973649E+02 0.  0.
        -12    1    1    2    0    0  0.22240476494E+02  0.35924473400E+02  0.99205439266E+01  0.43400734735E+02  0.00000000000E+00 0.  1.
         11    1    3    3    0    0 -0.13430620180E+02 -0.20120448991E+02 -0.14395119148E+02  0.28150195054E+02  0.51100000000E-03 0. -1.
        -11    1    3    3    0    0  0.93562845067E-01  0.51752488770E+00  0.17592199015E+00  0.55455822336E+00  0.51100000000E-03 0.  1.
        -12    1    3    3    0    0 -0.89034191591E+01 -0.16321549296E+02  0.42986532310E+01  0.19082511988E+02  0.00000000000E+00 0.  1.
</event>
<event>
 7    1  0.4083500E-009  0.4778727E+02  0.7816164E-02  0.1312668E+00
        -11   -1    0    0    0    0  0.00000000000E+00  0.00000000000E+00  0.45593999997E+02  0.45594000000E+02  0.51100000000E-03 0. -1.
         11   -1    0    0    0    0 -0.00000000000E+00 -0.00000000000E+00 -0.45593999997E+02  0.45594000000E+02  0.51100000000E-03 0.  1.
    9900012    2    1    2    0    0 -0.39274753431E+02  0.13691327242E+02  0.12396150836E+02  0.47787271270E+02  0.20000001029E+02 0.  0.
        -12    1    1    2    0    0  0.39274753431E+02 -0.13691327242E+02 -0.12396150836E+02  0.43400728730E+02  0.00000000000E+00 0.  1.
         11    1    3    3    0    0 -0.34309884243E+00  0.46493728510E+00 -0.11605595178E+01  0.12964498256E+01  0.51100000000E-03 0. -1.
        -11    1    3    3    0    0 -0.17896415148E+01 -0.15546405279E+01 -0.24692283172E+01  0.34229830070E+01  0.51100000000E-03 0.  1.
         12    1    3    3    0    0 -0.37142013074E+02  0.14781030485E+02  0.16025938671E+02  0.43067838437E+02  0.00000000000E+00 0. -1.
</event>
<event>
 7    1  0.4083500E-009  0.4778727E+02  0.7816164E-02  0.1312668E+00
        -11   -1    0    0    0    0  0.00000000000E+00  0.00000000000E+00  0.45593999997E+02  0.45594000000E+02  0.51100000000E-03 0. -1.
         11   -1    0    0    0    0 -0.00000000000E+00 -0.00000000000E+00 -0.45593999997E+02  0.45594000000E+02  0.51100000000E-03 0.  1.
    9900012    2    1    2    0    0 -0.26091529771E+02 -0.27400624639E+02  0.21261738417E+02  0.47787266401E+02  0.19999978829E+02 0.  0.
        -12    1    1    2    0    0  0.26091529771E+02  0.27400624639E+02 -0.21261738417E+02  0.43400733599E+02  0.00000000000E+00 0.  1.
         11    1    3    3    0    0 -0.88605930676E+01 -0.90691758841E+01  0.83676539128E+01  0.15191369030E+02  0.51100000000E-03 0. -1.
        -11    1    3    3    0    0 -0.71793678101E+01 -0.46253713856E+01 -0.32654827086E+01  0.91433451312E+01  0.51100000000E-03 0.  1.
        -12    1    3    3    0    0 -0.10051568894E+02 -0.13706077369E+02  0.16159567213E+02  0.23452552240E+02  0.00000000000E+00 0.  1.
</event>
<event>
 7    1  0.4083500E-009  0.4778727E+02  0.7816164E-02  0.1312668E+00
        -11   -1    0    0    0    0  0.00000000000E+00  0.00000000000E+00  0.45593999997E+02  0.45594000000E+02  0.51100000000E-03 0.  1.
         11   -1    0    0    0    0 -0.00000000000E+00 -0.00000000000E+00 -0.45593999997E+02  0.45594000000E+02  0.51100000000E-03 0. -1.
    9900012    2    1    2    0    0 -0.31540700020E+02 -0.35246237718E+01 -0.29603793057E+02  0.47787270814E+02  0.19999998950E+02 0.  0.
        -12    1    1    2    0    0  0.31540700020E+02  0.35246237718E+01  0.29603793057E+02  0.43400729186E+02  0.00000000000E+00 0.  1.
         11    1    3    3    0    0 -0.65273555506E+01 -0.24329437104E+01 -0.72877827617E+01  0.10081535767E+02  0.51100000000E-03 0. -1.
        -11    1    3    3    0    0 -0.83647686332E+01  0.67457787742E+01 -0.13632702036E+02  0.17358728370E+02  0.51100000000E-03 0.  1.
        -12    1    3    3    0    0 -0.16648575836E+02 -0.78374588356E+01 -0.86833082590E+01  0.20347006677E+02  0.00000000000E+00 0.  1.
</event>
<event>
 7    1  0.4083500E-009  0.4778727E+02  0.7816164E-02  0.1312668E+00
        -11   -1    0    0    0    0  0.00000000000E+00  0.00000000000E+00  0.45593999997E+02  0.45594000000E+02  0.51100000000E-03 0.  1.
         11   -1    0    0    0    0 -0.00000000000E+00 -0.00000000000E+00 -0.45593999997E+02  0.45594000000E+02  0.51100000000E-03 0. -1.
    9900012    2    1    2    0    0 -0.30139721205E+02 -0.12605742199E+02 -0.28571234300E+02  0.47787274659E+02  0.20000016479E+02 0.  0.
        -12    1    1    2    0    0  0.30139721205E+02  0.12605742199E+02  0.28571234300E+02  0.43400725341E+02  0.00000000000E+00 0.  1.
         11    1    3    3    0    0 -0.55920134217E+01  0.56569179274E+00 -0.98079764435E+01  0.11304292260E+02  0.51100000000E-03 0. -1.
        -11    1    3    3    0    0 -0.65350949944E+01  0.15722425279E+01 -0.22440816597E+00  0.67253083526E+01  0.51100000000E-03 0.  1.
        -12    1    3    3    0    0 -0.18012612789E+02 -0.14743676520E+02 -0.18538849690E+02  0.29757674047E+02  0.00000000000E+00 0.  1.
</event>
<event>
 7    1  0.4083500E-009  0.4778727E+02  0.7816164E-02  0.1312668E+00
        -11   -1    0    0    0    0  0.00000000000E+00  0.00000000000E+00  0.45593999997E+02  0.45594000000E+02  0.51100000000E-03 0.  1.
         11   -1    0    0    0    0 -0.00000000000E+00 -0.00000000000E+00 -0.45593999997E+02  0.45594000000E+02  0.51100000000E-03 0. -1.
    9900012    2    1    2    0    0 -0.19439942574E+02  0.15407242886E+01 -0.38772907143E+02  0.47787268130E+02  0.19999986710E+02 0.  0.
        -12    1    1    2    0    0  0.19439942574E+02 -0.15407242886E+01  0.38772907143E+02  0.43400731870E+02  0.00000000000E+00 0.  1.
         11    1    3    3    0    0 -0.62087705743E+01  0.40548522293E+01 -0.16195836775E+02  0.17812798426E+02  0.51100000000E-03 0. -1.
        -11    1    3    3    0    0 -0.89401271755E+01  0.15905180372E+01 -0.22245116802E+02  0.24027085619E+02  0.51100000000E-03 0.  1.
        -12    1    3    3    0    0 -0.42910448239E+01 -0.41046459779E+01 -0.33195356552E+00  0.59473840850E+01  0.00000000000E+00 0.  1.
</event>
<event>
 7    1  0.4083500E-009  0.4778727E+02  0.7816164E-02  0.1312668E+00
        -11   -1    0    0    0    0  0.00000000000E+00  0.00000000000E+00  0.45593999997E+02  0.45594000000E+02  0.51100000000E-03 0.  1.
         11   -1    0    0    0    0 -0.00000000000E+00 -0.00000000000E+00 -0.45593999997E+02  0.45594000000E+02  0.51100000000E-03 0. -1.
    9900012    2    1    2    0    0  0.36432534288E+02 -0.22137922652E+02 -0.81367330368E+01  0.47787267305E+02  0.19999982949E+02 0.  0.
        -12    1    1    2    0    0 -0.36432534288E+02  0.22137922652E+02  0.81367330368E+01  0.43400732695E+02  0.00000000000E+00 0.  1.
         11    1    3    3    0    0  0.92781997182E+01 -0.20923890288E+01  0.21797101841E+01  0.97577773395E+01  0.51100000000E-03 0. -1.
        -11    1    3    3    0    0  0.71411853222E+01 -0.66381702472E+01  0.33796301348E+01  0.10319095510E+02  0.51100000000E-03 0.  1.
         12    1    3    3    0    0  0.20013149247E+02 -0.13407363376E+02 -0.13696073356E+02  0.27710394455E+02  0.00000000000E+00 0. -1.
</event>
<event>
 7    1  0.4083500E-009  0.4778726E+02  0.7816164E-02  0.1312668E+00
        -11   -1    0    0    0    0  0.00000000000E+00  0.00000000000E+00  0.45593999997E+02  0.45594000000E+02  0.51100000000E-03 0.  1.
         11   -1    0    0    0    0 -0.00000000000E+00 -0.00000000000E+00 -0.45593999997E+02  0.45594000000E+02  0.51100000000E-03 0. -1.
    9900012    2    1    2    0    0  0.86204498656E+01 -0.10988239375E+02 -0.41092225214E+02  0.47787256532E+02  0.19999933834E+02 0.  0.
        -12    1    1    2    0    0 -0.86204498656E+01  0.10988239375E+02  0.41092225214E+02  0.43400743468E+02  0.00000000000E+00 0.  1.
         11    1    3    3    0    0  0.14124819806E+01  0.37709576928E+01 -0.69876993788E+01  0.80649346021E+01  0.51100000000E-03 0. -1.
        -11    1    3    3    0    0  0.88524281128E+01 -0.44667070359E+01 -0.15610599027E+02  0.18493451746E+02  0.51100000000E-03 0.  1.
         12    1    3    3    0    0 -0.16444602278E+01 -0.10292490032E+02 -0.18493926808E+02  0.21228870184E+02  0.00000000000E+00 0. -1.
</event>
<event>
 7    1  0.4083500E-009  0.4778727E+02  0.7816164E-02  0.1312668E+00
        -11   -1    0    0    0    0  0.00000000000E+00  0.00000000000E+00  0.45593999997E+02  0.45594000000E+02  0.51100000000E-03 0.  1.
         11   -1    0    0    0    0 -0.00000000000E+00 -0.00000000000E+00 -0.45593999997E+02  0.45594000000E+02  0.51100000000E-03 0. -1.
    9900012    2    1    2    0    0  0.34097193490E+02  0.26789194841E+02 -0.18285613017E+01  0.47787271889E+02  0.20000003852E+02 0.  0.
        -12    1    1    2    0    0 -0.34097193490E+02 -0.26789194841E+02  0.18285613017E+01  0.43400728111E+02  0.00000000000E+00 0.  1.
         11    1    3    3    0    0  0.50938500439E+01  0.46516486456E+01  0.10015121279E+00  0.68989255626E+01  0.51100000000E-03 0. -1.
        -11    1    3    3    0    0  0.18269532548E+01  0.46788933346E+01 -0.65543993944E+01  0.82577207942E+01  0.51100000000E-03 0.  1.
        -12    1    3    3    0    0  0.27176390191E+02  0.17458652861E+02  0.46256868799E+01  0.32630625533E+02  0.00000000000E+00 0.  1.
</event>
<event>
 7    1  0.4083500E-009  0.4778727E+02  0.7816164E-02  0.1312668E+00
        -11   -1    0    0    0    0  0.00000000000E+00  0.00000000000E+00  0.45593999997E+02  0.45594000000E+02  0.51100000000E-03 0. -1.
         11   -1    0    0    0    0 -0.00000000000E+00 -0.00000000000E+00 -0.45593999997E+02  0.45594000000E+02  0.51100000000E-03 0.  1.
    9900012    2    1    2    0    0 -0.38341396541E+01 -0.43228058441E+02  0.50757666956E+00  0.47787270772E+02  0.19999998756E+02 0.  0.
        -12    1    1    2    0    0  0.38341396541E+01  0.43228058441E+02 -0.50757666956E+00  0.43400729228E+02  0.00000000000E+00 0.  1.
         11    1    3    3    0    0 -0.77852867282E+00 -0.13511367264E+02  0.76388443789E+01  0.15540755965E+02  0.51100000000E-03 0. -1.
        -11    1    3    3    0    0 -0.56225011246E+01 -0.10170246889E+02 -0.13324134874E+01  0.11697083681E+02  0.51100000000E-03 0.  1.
        -12    1    3    3    0    0  0.25668901433E+01 -0.19546444288E+02 -0.57988542219E+01  0.20549431126E+02  0.00000000000E+00 0.  1.
</event>
<event>
 7    1  0.4083500E-009  0.4778729E+02  0.7816164E-02  0.1312668E+00
        -11   -1    0    0    0    0  0.00000000000E+00  0.00000000000E+00  0.45593999997E+02  0.45594000000E+02  0.51100000000E-03 0. -1.
         11   -1    0    0    0    0 -0.00000000000E+00 -0.00000000000E+00 -0.45593999997E+02  0.45594000000E+02  0.51100000000E-03 0.  1.
    9900012    2    1    2    0    0 -0.52580779400E+01  0.36683021167E+02  0.22590498712E+02  0.47787285056E+02  0.20000063886E+02 0.  0.
        -12    1    1    2    0    0  0.52580779400E+01 -0.36683021167E+02 -0.22590498712E+02  0.43400714944E+02  0.00000000000E+00 0.  1.
         11    1    3    3    0    0  0.34848851550E+01  0.11157367712E+02  0.10058135713E+02  0.15420680046E+02  0.51100000000E-03 0. -1.
        -11    1    3    3    0    0 -0.25765656225E+01  0.15962607110E+01  0.61317894021E+01  0.68399985524E+01  0.51100000000E-03 0.  1.
         12    1    3    3    0    0 -0.61663974725E+01  0.23929392744E+02  0.64005735965E+01  0.25526606458E+02  0.00000000000E+00 0. -1.
</event>
<event>
 7    1  0.4083500E-009  0.4778727E+02  0.7816164E-02  0.1312668E+00
        -11   -1    0    0    0    0  0.00000000000E+00  0.00000000000E+00  0.45593999997E+02  0.45594000000E+02  0.51100000000E-03 0.  1.
         11   -1    0    0    0    0 -0.00000000000E+00 -0.00000000000E+00 -0.45593999997E+02  0.45594000000E+02  0.51100000000E-03 0. -1.
    9900012    2    1    2    0    0  0.39680997703E+02 -0.54210949778E+01 -0.16722837674E+02  0.47787272479E+02  0.20000006540E+02 0.  0.
        -12    1    1    2    0    0 -0.39680997703E+02  0.54210949778E+01  0.16722837674E+02  0.43400727521E+02  0.00000000000E+00 0.  1.
         11    1    3    3    0    0  0.22228407394E+02 -0.41623779820E+01 -0.52057246726E+01  0.23206185714E+02  0.51100000000E-03 0. -1.
        -11    1    3    3    0    0  0.16293295647E+02  0.36241192789E+01 -0.86100345513E+01  0.18781331657E+02  0.51100000000E-03 0.  1.
         12    1    3    3    0    0  0.11592946625E+01 -0.48828362747E+01 -0.29070784499E+01  0.57997551081E+01  0.00000000000E+00 0. -1.
</event>
<event>
 7    1  0.4083500E-009  0.4778727E+02  0.7816164E-02  0.1312668E+00
        -11   -1    0    0    0    0  0.00000000000E+00  0.00000000000E+00  0.45593999997E+02  0.45594000000E+02  0.51100000000E-03 0.  1.
         11   -1    0    0    0    0 -0.00000000000E+00 -0.00000000000E+00 -0.45593999997E+02  0.45594000000E+02  0.51100000000E-03 0. -1.
    9900012    2    1    2    0    0 -0.18526089516E+02 -0.10791816712E+02 -0.37735183093E+02  0.47787270239E+02  0.19999996329E+02 0.  0.
        -12    1    1    2    0    0  0.18526089516E+02  0.10791816712E+02  0.37735183093E+02  0.43400729761E+02  0.00000000000E+00 0.  1.
         11    1    3    3    0    0 -0.30943874781E+01  0.99592692485E+00 -0.44047593147E+01  0.54743957827E+01  0.51100000000E-03 0. -1.
        -11    1    3    3    0    0 -0.13613812129E+02 -0.28130804550E+00 -0.12696160293E+02  0.18617397814E+02  0.51100000000E-03 0.  1.
         12    1    3    3    0    0 -0.18178899087E+01 -0.11506435592E+02 -0.20634263485E+02  0.23695476643E+02  0.00000000000E+00 0. -1.
</event>
<event>
 7    1  0.4083500E-009  0.4778727E+02  0.7816164E-02  0.1312668E+00
        -11   -1    0    0    0    0  0.00000000000E+00  0.00000000000E+00  0.45593999997E+02  0.45594000000E+02  0.51100000000E-03 0.  1.
         11   -1    0    0    0    0 -0.00000000000E+00 -0.00000000000E+00 -0.45593999997E+02  0.45594000000E+02  0.51100000000E-03 0. -1.
    9900012    2    1    2    0    0  0.43321668411E+02  0.17853990651E+01 -0.19154216424E+01  0.47787269087E+02  0.19999991076E+02 0.  0.
        -12    1    1    2    0    0 -0.43321668411E+02 -0.17853990651E+01  0.19154216424E+01  0.43400730913E+02  0.00000000000E+00 0.  1.
         11    1    3    3    0    0  0.17536384216E+02  0.60260889206E+01 -0.59312335395E+01  0.19468385927E+02  0.51100000000E-03 0. -1.
        -11    1    3    3    0    0 -0.84758948223E+00  0.16279188986E+00 -0.42424514224E+00  0.96171374724E+00  0.51100000000E-03 0.  1.
         12    1    3    3    0    0  0.26632873677E+02 -0.44034817454E+01  0.44400570393E+01  0.27357169413E+02  0.00000000000E+00 0. -1.
</event>
<event>
 7    1  0.4083500E-009  0.4778727E+02  0.7816164E-02  0.1312668E+00
        -11   -1    0    0    0    0  0.00000000000E+00  0.00000000000E+00  0.45593999997E+02  0.45594000000E+02  0.51100000000E-03 0.  1.
         11   -1    0    0    0    0 -0.00000000000E+00 -0.00000000000E+00 -0.45593999997E+02  0.45594000000E+02  0.51100000000E-03 0. -1.
    9900012    2    1    2    0    0 -0.16917064432E+02  0.46731445130E+01 -0.39693798117E+02  0.47787274688E+02  0.20000016611E+02 0.  0.
        -12    1    1    2    0    0  0.16917064432E+02 -0.46731445130E+01  0.39693798117E+02  0.43400725312E+02  0.00000000000E+00 0.  1.
         11    1    3    3    0    0 -0.59523106295E-02  0.36683592239E+01 -0.15904103412E+02  0.16321684975E+02  0.51100000000E-03 0. -1.
        -11    1    3    3    0    0 -0.17749096451E+02  0.16278847655E+01 -0.24429900179E+02  0.30240708600E+02  0.51100000000E-03 0.  1.
         12    1    3    3    0    0  0.83798432881E+00 -0.62309947639E+00  0.64020547315E+00  0.12248811129E+01  0.00000000000E+00 0. -1.
</event>
<event>
 7    1  0.4083500E-009  0.4778727E+02  0.7816164E-02  0.1312668E+00
        -11   -1    0    0    0    0  0.00000000000E+00  0.00000000000E+00  0.45593999997E+02  0.45594000000E+02  0.51100000000E-03 0.  1.
         11   -1    0    0    0    0 -0.00000000000E+00 -0.00000000000E+00 -0.45593999997E+02  0.45594000000E+02  0.51100000000E-03 0. -1.
    9900012    2    1    2    0    0 -0.13317758928E+02 -0.16727752625E+02 -0.37768279198E+02  0.47787270463E+02  0.19999997351E+02 0.  0.
        -12    1    1    2    0    0  0.13317758928E+02  0.16727752625E+02  0.37768279198E+02  0.43400729537E+02  0.00000000000E+00 0.  1.
         11    1    3    3    0    0 -0.74002636311E+01 -0.94734701082E+01 -0.17879680219E+02  0.21545150329E+02  0.51100000000E-03 0. -1.
        -11    1    3    3    0    0 -0.24067188353E+01 -0.83200245676E+01 -0.33256438156E+01  0.92776619580E+01  0.51100000000E-03 0.  1.
        -12    1    3    3    0    0 -0.35107764612E+01  0.10657420512E+01 -0.16562955163E+02  0.16964458176E+02  0.00000000000E+00 0.  1.
</event>
<event>
 7    1  0.4083500E-009  0.4778727E+02  0.7816164E-02  0.1312668E+00
        -11   -1    0    0    0    0  0.00000000000E+00  0.00000000000E+00  0.45593999997E+02  0.45594000000E+02  0.51100000000E-03 0. -1.
         11   -1    0    0    0    0 -0.00000000000E+00 -0.00000000000E+00 -0.45593999997E+02  0.45594000000E+02  0.51100000000E-03 0.  1.
    9900012    2    1    2    0    0  0.23044193764E+02  0.34738801355E+02  0.12074937494E+02  0.47787270729E+02  0.19999998561E+02 0.  0.
        -12    1    1    2    0    0 -0.23044193764E+02 -0.34738801355E+02 -0.12074937494E+02  0.43400729271E+02  0.00000000000E+00 0.  1.
         11    1    3    3    0    0  0.90169268080E+01  0.87559188676E+01 -0.61108011981E+00  0.12583501240E+02  0.51100000000E-03 0. -1.
        -11    1    3    3    0    0 -0.26153813436E+00  0.58188994357E+01 -0.23440169471E+01  0.62787266661E+01  0.51100000000E-03 0.  1.
         12    1    3    3    0    0  0.14288805090E+02  0.20163983051E+02  0.15030034561E+02  0.28925042823E+02  0.00000000000E+00 0. -1.
</event>
<event>
 7    1  0.4083500E-009  0.4778727E+02  0.7816164E-02  0.1312668E+00
        -11   -1    0    0    0    0  0.00000000000E+00  0.00000000000E+00  0.45593999997E+02  0.45594000000E+02  0.51100000000E-03 0.  1.
         11   -1    0    0    0    0 -0.00000000000E+00 -0.00000000000E+00 -0.45593999997E+02  0.45594000000E+02  0.51100000000E-03 0. -1.
    9900012    2    1    2    0    0 -0.34268508940E+02 -0.21634654872E+02 -0.15531715664E+02  0.47787272035E+02  0.20000004518E+02 0.  0.
        -12    1    1    2    0    0  0.34268508940E+02  0.21634654872E+02  0.15531715664E+02  0.43400727965E+02  0.00000000000E+00 0.  1.
         11    1    3    3    0    0 -0.18656236936E+02 -0.50081274710E+01 -0.10572635369E+02  0.22020834141E+02  0.51100000000E-03 0. -1.
        -11    1    3    3    0    0 -0.15283308953E+02 -0.11062308471E+02 -0.65475249185E+01  0.19970585471E+02  0.51100000000E-03 0.  1.
        -12    1    3    3    0    0 -0.32896305120E+00 -0.55642189298E+01  0.15884446228E+01  0.57958524229E+01  0.00000000000E+00 0.  1.
</event>
<event>
 7    1  0.4083500E-009  0.4778726E+02  0.7816164E-02  0.1312668E+00
        -11   -1    0    0    0    0  0.00000000000E+00  0.00000000000E+00  0.45593999997E+02  0.45594000000E+02  0.51100000000E-03 0.  1.
         11   -1    0    0    0    0 -0.00000000000E+00 -0.00000000000E+00 -0.45593999997E+02  0.45594000000E+02  0.51100000000E-03 0. -1.
    9900012    2    1    2    0    0 -0.28838282861E+02  0.21996985953E+02 -0.23835055219E+02  0.47787264907E+02  0.19999972015E+02 0.  0.
        -12    1    1    2    0    0  0.28838282861E+02 -0.21996985953E+02  0.23835055219E+02  0.43400735093E+02  0.00000000000E+00 0.  1.
         11    1    3    3    0    0 -0.13647102370E+02  0.15763556217E+01 -0.62915965431E+01  0.15110012822E+02  0.51100000000E-03 0. -1.
        -11    1    3    3    0    0 -0.16796585070E+01  0.14286001682E+01  0.14257420939E+01  0.26258126209E+01  0.51100000000E-03 0.  1.
         12    1    3    3    0    0 -0.13511521984E+02  0.18992030163E+02 -0.18969200769E+02  0.30051439464E+02  0.00000000000E+00 0. -1.
</event>
<event>
 7    1  0.4083500E-009  0.4778727E+02  0.7816164E-02  0.1312668E+00
        -11   -1    0    0    0    0  0.00000000000E+00  0.00000000000E+00  0.45593999997E+02  0.45594000000E+02  0.51100000000E-03 0. -1.
         11   -1    0    0    0    0 -0.00000000000E+00 -0.00000000000E+00 -0.45593999997E+02  0.45594000000E+02  0.51100000000E-03 0.  1.
    9900012    2    1    2    0    0 -0.14397372796E+02  0.69191227285E+01  0.40354242475E+02  0.47787268572E+02  0.19999988727E+02 0.  0.
        -12    1    1    2    0    0  0.14397372796E+02 -0.69191227285E+01 -0.40354242475E+02  0.43400731428E+02  0.00000000000E+00 0.  1.
         11    1    3    3    0    0 -0.80775767871E+01  0.43967988448E+01  0.91828035158E+01  0.12996267445E+02  0.51100000000E-03 0. -1.
        -11    1    3    3    0    0  0.30912299041E+01  0.27295343324E+01  0.30311145035E+01  0.51179796195E+01  0.51100000000E-03 0.  1.
        -12    1    3    3    0    0 -0.94110259134E+01 -0.20721044866E+00  0.28140324455E+02  0.29673021507E+02  0.00000000000E+00 0.  1.
</event>
<event>
 7    1  0.4083500E-009  0.4778725E+02  0.7816164E-02  0.1312668E+00
        -11   -1    0    0    0    0  0.00000000000E+00  0.00000000000E+00  0.45593999997E+02  0.45594000000E+02  0.51100000000E-03 0.  1.
         11   -1    0    0    0    0 -0.00000000000E+00 -0.00000000000E+00 -0.45593999997E+02  0.45594000000E+02  0.51100000000E-03 0. -1.
    9900012    2    1    2    0    0  0.28628552041E+02  0.17560090736E+02 -0.27489531380E+02  0.47787249844E+02  0.19999903340E+02 0.  0.
        -12    1    1    2    0    0 -0.28628552041E+02 -0.17560090736E+02  0.27489531380E+02  0.43400750156E+02  0.00000000000E+00 0.  1.
         11    1    3    3    0    0  0.22921301116E+02  0.96029552473E+01 -0.11871313228E+02  0.27541439184E+02  0.51100000000E-03 0. -1.
        -11    1    3    3    0    0  0.33692008741E+00  0.39195374674E+00  0.10495931746E+01  0.11699525538E+01  0.51100000000E-03 0.  1.
        -12    1    3    3    0    0  0.53703308376E+01  0.75651817416E+01 -0.16667811326E+02  0.19075858107E+02  0.00000000000E+00 0.  1.
</event>
<event>
 7    1  0.4083500E-009  0.4778727E+02  0.7816164E-02  0.1312668E+00
        -11   -1    0    0    0    0  0.00000000000E+00  0.00000000000E+00  0.45593999997E+02  0.45594000000E+02  0.51100000000E-03 0.  1.
         11   -1    0    0    0    0 -0.00000000000E+00 -0.00000000000E+00 -0.45593999997E+02  0.45594000000E+02  0.51100000000E-03 0. -1.
    9900012    2    1    2    0    0 -0.42376889996E+02 -0.93712488669E+01  0.45291075533E-01  0.47787272329E+02  0.20000005857E+02 0.  0.
        -12    1    1    2    0    0  0.42376889996E+02  0.93712488669E+01 -0.45291075533E-01  0.43400727671E+02  0.00000000000E+00 0.  1.
         11    1    3    3    0    0 -0.12631914557E+02 -0.76921521858E+01 -0.29718345951E+01  0.15085299856E+02  0.51100000000E-03 0. -1.
        -11    1    3    3    0    0 -0.18515468014E+02 -0.74007214133E+01  0.12952429831E+01  0.19981763883E+02  0.51100000000E-03 0.  1.
        -12    1    3    3    0    0 -0.11229507425E+02  0.57216247323E+01  0.17218826876E+01  0.12720208590E+02  0.00000000000E+00 0.  1.
</event>
<event>
 7    1  0.4083500E-009  0.4778727E+02  0.7816164E-02  0.1312668E+00
        -11   -1    0    0    0    0  0.00000000000E+00  0.00000000000E+00  0.45593999997E+02  0.45594000000E+02  0.51100000000E-03 0.  1.
         11   -1    0    0    0    0 -0.00000000000E+00 -0.00000000000E+00 -0.45593999997E+02  0.45594000000E+02  0.51100000000E-03 0. -1.
    9900012    2    1    2    0    0 -0.13409115041E+02 -0.31442972287E+02 -0.26742446480E+02  0.47787270558E+02  0.19999997782E+02 0.  0.
        -12    1    1    2    0    0  0.13409115041E+02  0.31442972287E+02  0.26742446480E+02  0.43400729442E+02  0.00000000000E+00 0.  1.
         11    1    3    3    0    0 -0.55956437679E+01 -0.20297150844E+02 -0.15962123866E+02  0.26421108230E+02  0.51100000000E-03 0. -1.
        -11    1    3    3    0    0  0.10458711999E+00 -0.10487722831E+02 -0.57271348008E+01  0.11950035227E+02  0.51100000000E-03 0.  1.
        -12    1    3    3    0    0 -0.79180583929E+01 -0.65809861162E+00 -0.50531878130E+01  0.94161271003E+01  0.00000000000E+00 0.  1.
</event>
<event>
 7    1  0.4083500E-009  0.4778727E+02  0.7816164E-02  0.1312668E+00
        -11   -1    0    0    0    0  0.00000000000E+00  0.00000000000E+00  0.45593999997E+02  0.45594000000E+02  0.51100000000E-03 0.  1.
         11   -1    0    0    0    0 -0.00000000000E+00 -0.00000000000E+00 -0.45593999997E+02  0.45594000000E+02  0.51100000000E-03 0. -1.
    9900012    2    1    2    0    0  0.40628425134E+02 -0.11533747831E+02 -0.99963451205E+01  0.47787272084E+02  0.20000004738E+02 0.  0.
        -12    1    1    2    0    0 -0.40628425134E+02  0.11533747831E+02  0.99963451205E+01  0.43400727916E+02  0.00000000000E+00 0.  1.
         11    1    3    3    0    0  0.19489421096E+02 -0.11789899105E+02 -0.76913687819E+01  0.24041555890E+02  0.51100000000E-03 0. -1.
        -11    1    3    3    0    0  0.18546296481E+01 -0.18535508074E+01 -0.34256113216E+01  0.43139442411E+01  0.51100000000E-03 0.  1.
        -12    1    3    3    0    0  0.19284374389E+02  0.21097020817E+01  0.11206349830E+01  0.19431771953E+02  0.00000000000E+00 0.  1.
</event>
<event>
 7    1  0.4083500E-009  0.4778728E+02  0.7816164E-02  0.1312668E+00
        -11   -1    0    0    0    0  0.00000000000E+00  0.00000000000E+00  0.45593999997E+02  0.45594000000E+02  0.51100000000E-03 0.  1.
         11   -1    0    0    0    0 -0.00000000000E+00 -0.00000000000E+00 -0.45593999997E+02  0.45594000000E+02  0.51100000000E-03 0. -1.
    9900012    2    1    2    0    0 -0.20123428197E+02  0.36876121463E+02 -0.10900547886E+02  0.47787278338E+02  0.20000033256E+02 0.  0.
        -12    1    1    2    0    0  0.20123428197E+02 -0.36876121463E+02  0.10900547886E+02  0.43400721662E+02  0.00000000000E+00 0.  1.
         11    1    3    3    0    0  0.99464106506E+00  0.91068596148E+01 -0.35535811230E+01  0.98260949492E+01  0.51100000000E-03 0. -1.
        -11    1    3    3    0    0  0.58697978304E+00  0.15044400601E+01 -0.32679362465E+01  0.36451738960E+01  0.51100000000E-03 0.  1.
        -12    1    3    3    0    0 -0.21705049045E+02  0.26264821788E+02 -0.40790305167E+01  0.34316009493E+02  0.00000000000E+00 0.  1.
</event>
<event>
 7    1  0.4083500E-009  0.4778727E+02  0.7816164E-02  0.1312668E+00
        -11   -1    0    0    0    0  0.00000000000E+00  0.00000000000E+00  0.45593999997E+02  0.45594000000E+02  0.51100000000E-03 0.  1.
         11   -1    0    0    0    0 -0.00000000000E+00 -0.00000000000E+00 -0.45593999997E+02  0.45594000000E+02  0.51100000000E-03 0. -1.
    9900012    2    1    2    0    0  0.10444094067E+02 -0.30497428635E+02 -0.29059438289E+02  0.47787271805E+02  0.20000003466E+02 0.  0.
        -12    1    1    2    0    0 -0.10444094067E+02  0.30497428635E+02  0.29059438289E+02  0.43400728195E+02  0.00000000000E+00 0.  1.
         11    1    3    3    0    0  0.99999245073E+00 -0.12262376758E+02 -0.16409179576E+02  0.20509194115E+02  0.51100000000E-03 0. -1.
        -11    1    3    3    0    0  0.79017587479E+01 -0.75811774911E+01 -0.12354666926E+02  0.16509083517E+02  0.51100000000E-03 0.  1.
         12    1    3    3    0    0  0.15423428683E+01 -0.10653874387E+02 -0.29559178643E+00  0.10768994172E+02  0.00000000000E+00 0. -1.
</event>
<event>
 7    1  0.4083500E-009  0.4778727E+02  0.7816164E-02  0.1312668E+00
        -11   -1    0    0    0    0  0.00000000000E+00  0.00000000000E+00  0.45593999997E+02  0.45594000000E+02  0.51100000000E-03 0.  1.
         11   -1    0    0    0    0 -0.00000000000E+00 -0.00000000000E+00 -0.45593999997E+02  0.45594000000E+02  0.51100000000E-03 0. -1.
    9900012    2    1    2    0    0  0.34151057594E+02 -0.10191992280E+02 -0.24767958401E+02  0.47787271840E+02  0.20000003628E+02 0.  0.
        -12    1    1    2    0    0 -0.34151057594E+02  0.10191992280E+02  0.24767958401E+02  0.43400728160E+02  0.00000000000E+00 0.  1.
         11    1    3    3    0    0  0.20938762969E+02 -0.11152033746E+02 -0.22799956516E+02  0.32903459829E+02  0.51100000000E-03 0. -1.
        -11    1    3    3    0    0  0.90759917493E+01 -0.12356473518E+01 -0.37166417061E+01  0.98850329511E+01  0.51100000000E-03 0.  1.
        -12    1    3    3    0    0  0.41363028758E+01  0.21956888183E+01  0.17486398206E+01  0.49987790598E+01  0.00000000000E+00 0.  1.
</event>
<event>
 7    1  0.4083500E-009  0.4778728E+02  0.7816164E-02  0.1312668E+00
        -11   -1    0    0    0    0  0.00000000000E+00  0.00000000000E+00  0.45593999997E+02  0.45594000000E+02  0.51100000000E-03 0.  1.
         11   -1    0    0    0    0 -0.00000000000E+00 -0.00000000000E+00 -0.45593999997E+02  0.45594000000E+02  0.51100000000E-03 0. -1.
    9900012    2    1    2    0    0  0.42358895933E+02 -0.16413435337E+01  0.93087310396E+01  0.47787279420E+02  0.20000038188E+02 0.  0.
        -12    1    1    2    0    0 -0.42358895933E+02  0.16413435337E+01 -0.93087310396E+01  0.43400720580E+02  0.00000000000E+00 0.  1.
         11    1    3    3    0    0  0.23952302544E+02  0.62057835746E+01 -0.14659458292E+01  0.24786559752E+02  0.51100000000E-03 0. -1.
        -11    1    3    3    0    0  0.63245566402E+01 -0.17869568127E+01  0.51959550276E+01  0.83780176805E+01  0.51100000000E-03 0.  1.
         12    1    3    3    0    0  0.12082036749E+02 -0.60601702956E+01  0.55787218412E+01  0.14622701987E+02  0.00000000000E+00 0. -1.
</event>
<event>
 7    1  0.4083500E-009  0.4778727E+02  0.7816164E-02  0.1312668E+00
        -11   -1    0    0    0    0  0.00000000000E+00  0.00000000000E+00  0.45593999997E+02  0.45594000000E+02  0.51100000000E-03 0.  1.
         11   -1    0    0    0    0 -0.00000000000E+00 -0.00000000000E+00 -0.45593999997E+02  0.45594000000E+02  0.51100000000E-03 0. -1.
    9900012    2    1    2    0    0  0.29445842678E+02  0.30231621943E+02 -0.10129876848E+02  0.47787273954E+02  0.20000013268E+02 0.  0.
        -12    1    1    2    0    0 -0.29445842678E+02 -0.30231621943E+02  0.10129876848E+02  0.43400726046E+02  0.00000000000E+00 0.  1.
         11    1    3    3    0    0  0.54918066114E+01  0.13207555230E+02 -0.65042995859E+01  0.15713222724E+02  0.51100000000E-03 0. -1.
        -11    1    3    3    0    0  0.15183872978E+01 -0.14575167980E+01 -0.20896189008E+01  0.29658662503E+01  0.51100000000E-03 0.  1.
         12    1    3    3    0    0  0.22435648769E+02  0.18481583510E+02 -0.15359583618E+01  0.29108184980E+02  0.00000000000E+00 0. -1.
</event>
<event>
 7    1  0.4083500E-009  0.4778727E+02  0.7816164E-02  0.1312668E+00
        -11   -1    0    0    0    0  0.00000000000E+00  0.00000000000E+00  0.45593999997E+02  0.45594000000E+02  0.51100000000E-03 0.  1.
         11   -1    0    0    0    0 -0.00000000000E+00 -0.00000000000E+00 -0.45593999997E+02  0.45594000000E+02  0.51100000000E-03 0. -1.
    9900012    2    1    2    0    0  0.16688406888E+02  0.53373255933E+01 -0.39706843066E+02  0.47787270107E+02  0.19999995726E+02 0.  0.
        -12    1    1    2    0    0 -0.16688406888E+02 -0.53373255933E+01  0.39706843066E+02  0.43400729893E+02  0.00000000000E+00 0.  1.
         11    1    3    3    0    0  0.18095125245E+02 -0.13718074933E+01 -0.31401801708E+02  0.36268285929E+02  0.51100000000E-03 0. -1.
        -11    1    3    3    0    0  0.13273583373E+01  0.27119086962E+01 -0.41863769581E+01  0.51615967712E+01  0.51100000000E-03 0.  1.
         12    1    3    3    0    0 -0.27340766947E+01  0.39972243904E+01 -0.41186644000E+01  0.63573874068E+01  0.00000000000E+00 0. -1.
</event>
<event>
 7    1  0.4083500E-009  0.4778728E+02  0.7816164E-02  0.1312668E+00
        -11   -1    0    0    0    0  0.00000000000E+00  0.00000000000E+00  0.45593999997E+02  0.45594000000E+02  0.51100000000E-03 0.  1.
         11   -1    0    0    0    0 -0.00000000000E+00 -0.00000000000E+00 -0.45593999997E+02  0.45594000000E+02  0.51100000000E-03 0. -1.
    9900012    2    1    2    0    0  0.31516912078E+02  0.27411892887E+02 -0.11785383359E+02  0.47787275588E+02  0.20000020715E+02 0.  0.
        -12    1    1    2    0    0 -0.31516912078E+02 -0.27411892887E+02  0.11785383359E+02  0.43400724412E+02  0.00000000000E+00 0.  1.
         11    1    3    3    0    0  0.10714728859E+02  0.81393732209E+01  0.40819986503E+00  0.13461851223E+02  0.51100000000E-03 0. -1.
        -11    1    3    3    0    0  0.17140021322E+01  0.10817070241E+02 -0.21625095993E+01  0.11163478845E+02  0.51100000000E-03 0.  1.
         12    1    3    3    0    0  0.19088181087E+02  0.84554494254E+01 -0.10031073625E+02  0.23161945520E+02  0.00000000000E+00 0. -1.
</event>
<event>
 7    1  0.4083500E-009  0.4778726E+02  0.7816164E-02  0.1312668E+00
        -11   -1    0    0    0    0  0.00000000000E+00  0.00000000000E+00  0.45593999997E+02  0.45594000000E+02  0.51100000000E-03 0.  1.
         11   -1    0    0    0    0 -0.00000000000E+00 -0.00000000000E+00 -0.45593999997E+02  0.45594000000E+02  0.51100000000E-03 0. -1.
    9900012    2    1    2    0    0  0.34470634851E+02  0.23985610017E+02 -0.10958561543E+02  0.47787260075E+02  0.19999949985E+02 0.  0.
        -12    1    1    2    0    0 -0.34470634851E+02 -0.23985610017E+02  0.10958561543E+02  0.43400739925E+02  0.00000000000E+00 0.  1.
         11    1    3    3    0    0  0.46984468400E+01  0.46730359085E+01 -0.65832650560E+01  0.93408803851E+01  0.51100000000E-03 0. -1.
        -11    1    3    3    0    0  0.26814707738E+01  0.34258900679E+01 -0.55101175866E+01  0.70205700871E+01  0.51100000000E-03 0.  1.
         12    1    3    3    0    0  0.27090717237E+02  0.15886684041E+02  0.11348210992E+01  0.31425809603E+02  0.00000000000E+00 0. -1.
</event>
<event>
 7    1  0.4083500E-009  0.4778726E+02  0.7816164E-02  0.1312668E+00
        -11   -1    0    0    0    0  0.00000000000E+00  0.00000000000E+00  0.45593999997E+02  0.45594000000E+02  0.51100000000E-03 0.  1.
         11   -1    0    0    0    0 -0.00000000000E+00 -0.00000000000E+00 -0.45593999997E+02  0.45594000000E+02  0.51100000000E-03 0. -1.
    9900012    2    1    2    0    0 -0.11872550928E+02 -0.29437006460E+02 -0.29599476421E+02  0.47787264761E+02  0.19999971352E+02 0.  0.
        -12    1    1    2    0    0  0.11872550928E+02  0.29437006460E+02  0.29599476421E+02  0.43400735239E+02  0.00000000000E+00 0.  1.
         11    1    3    3    0    0 -0.47022808549E+01 -0.21042112665E+02 -0.21005773793E+02  0.30101901660E+02  0.51100000000E-03 0. -1.
        -11    1    3    3    0    0 -0.20222752633E+01 -0.35453318628E+01 -0.97029150759E+01  0.10526420877E+02  0.51100000000E-03 0.  1.
        -12    1    3    3    0    0 -0.51479948101E+01 -0.48495619326E+01  0.11092124483E+01  0.71589422235E+01  0.00000000000E+00 0.  1.
</event>
<event>
 7    1  0.4083500E-009  0.4778727E+02  0.7816164E-02  0.1312668E+00
        -11   -1    0    0    0    0  0.00000000000E+00  0.00000000000E+00  0.45593999997E+02  0.45594000000E+02  0.51100000000E-03 0.  1.
         11   -1    0    0    0    0 -0.00000000000E+00 -0.00000000000E+00 -0.45593999997E+02  0.45594000000E+02  0.51100000000E-03 0. -1.
    9900012    2    1    2    0    0 -0.37217555286E+02 -0.22321648307E+02 -0.46976593209E+00  0.47787273225E+02  0.20000009942E+02 0.  0.
        -12    1    1    2    0    0  0.37217555286E+02  0.22321648307E+02  0.46976593209E+00  0.43400726775E+02  0.00000000000E+00 0.  1.
         11    1    3    3    0    0 -0.97745772596E+01 -0.70890940669E+01  0.52787904642E+01  0.13178135085E+02  0.51100000000E-03 0. -1.
        -11    1    3    3    0    0 -0.47609450293E+01  0.24553836011E+01 -0.11775466659E+01  0.54847171862E+01  0.51100000000E-03 0.  1.
        -12    1    3    3    0    0 -0.22682032997E+02 -0.17687937841E+02 -0.45710097303E+01  0.29124420954E+02  0.00000000000E+00 0.  1.
</event>
<event>
 7    1  0.4083500E-009  0.4778727E+02  0.7816164E-02  0.1312668E+00
        -11   -1    0    0    0    0  0.00000000000E+00  0.00000000000E+00  0.45593999997E+02  0.45594000000E+02  0.51100000000E-03 0.  1.
         11   -1    0    0    0    0 -0.00000000000E+00 -0.00000000000E+00 -0.45593999997E+02  0.45594000000E+02  0.51100000000E-03 0. -1.
    9900012    2    1    2    0    0 -0.32497295664E+02  0.28276958543E+02 -0.52879680327E+01  0.47787271713E+02  0.20000003048E+02 0.  0.
        -12    1    1    2    0    0  0.32497295664E+02 -0.28276958543E+02  0.52879680327E+01  0.43400728287E+02  0.00000000000E+00 0.  1.
         11    1    3    3    0    0 -0.27669965747E+01  0.40288817415E+01 -0.58072167304E+01  0.75902519422E+01  0.51100000000E-03 0. -1.
        -11    1    3    3    0    0 -0.10802122028E+02  0.20167213066E+01 -0.19570961036E+00  0.10990509890E+02  0.51100000000E-03 0.  1.
         12    1    3    3    0    0 -0.18928177061E+02  0.22231355495E+02  0.71495830806E+00  0.29206509880E+02  0.00000000000E+00 0. -1.
</event>
<event>
 7    1  0.4083500E-009  0.4778727E+02  0.7816164E-02  0.1312668E+00
        -11   -1    0    0    0    0  0.00000000000E+00  0.00000000000E+00  0.45593999997E+02  0.45594000000E+02  0.51100000000E-03 0. -1.
         11   -1    0    0    0    0 -0.00000000000E+00 -0.00000000000E+00 -0.45593999997E+02  0.45594000000E+02  0.51100000000E-03 0.  1.
    9900012    2    1    2    0    0 -0.75938128423E+01  0.34673752061E+02  0.24973744145E+02  0.47787274521E+02  0.20000015851E+02 0.  0.
        -12    1    1    2    0    0  0.75938128423E+01 -0.34673752061E+02 -0.24973744145E+02  0.43400725479E+02  0.00000000000E+00 0.  1.
         11    1    3    3    0    0 -0.67351735205E+01  0.10879633242E+02  0.12556519548E+02  0.17927497462E+02  0.51100000000E-03 0. -1.
        -11    1    3    3    0    0 -0.62421659929E+01  0.65602865366E+01  0.49635782754E+01  0.10326621194E+02  0.51100000000E-03 0.  1.
         12    1    3    3    0    0  0.53835266711E+01  0.17233832283E+02  0.74536463213E+01  0.19533155865E+02  0.00000000000E+00 0. -1.
</event>
<event>
 7    1  0.4083500E-009  0.4778727E+02  0.7816164E-02  0.1312668E+00
        -11   -1    0    0    0    0  0.00000000000E+00  0.00000000000E+00  0.45593999997E+02  0.45594000000E+02  0.51100000000E-03 0.  1.
         11   -1    0    0    0    0 -0.00000000000E+00 -0.00000000000E+00 -0.45593999997E+02  0.45594000000E+02  0.51100000000E-03 0. -1.
    9900012    2    1    2    0    0  0.27389396377E+02 -0.18756020213E+02 -0.27958110794E+02  0.47787270890E+02  0.19999999296E+02 0.  0.
        -12    1    1    2    0    0 -0.27389396377E+02  0.18756020213E+02  0.27958110794E+02  0.43400729110E+02  0.00000000000E+00 0.  1.
         11    1    3    3    0    0  0.24485280402E+02 -0.17626183071E+02 -0.23621253270E+02  0.38316770380E+02  0.51100000000E-03 0. -1.
        -11    1    3    3    0    0  0.39471416416E+01 -0.34816932409E+01 -0.44541817460E+01  0.68950598438E+01  0.51100000000E-03 0.  1.
        -12    1    3    3    0    0 -0.10430256667E+01  0.23518560995E+01  0.11732422198E+00  0.25754406666E+01  0.00000000000E+00 0.  1.
</event>
<event>
 7    1  0.4083500E-009  0.4778723E+02  0.7816164E-02  0.1312668E+00
        -11   -1    0    0    0    0  0.00000000000E+00  0.00000000000E+00  0.45593999997E+02  0.45594000000E+02  0.51100000000E-03 0.  1.
         11   -1    0    0    0    0 -0.00000000000E+00 -0.00000000000E+00 -0.45593999997E+02  0.45594000000E+02  0.51100000000E-03 0. -1.
    9900012    2    1    2    0    0 -0.22441803779E+02 -0.28299653223E+02 -0.24064947721E+02  0.47787232285E+02  0.19999823281E+02 0.  0.
        -12    1    1    2    0    0  0.22441803779E+02  0.28299653223E+02  0.24064947721E+02  0.43400767715E+02  0.00000000000E+00 0.  1.
         11    1    3    3    0    0 -0.16346917386E+02 -0.21253015235E+02 -0.17451764845E+02  0.31991818658E+02  0.51100000000E-03 0. -1.
        -11    1    3    3    0    0 -0.73607162398E+01 -0.81449962853E+01 -0.23670324926E+01  0.11230492025E+02  0.51100000000E-03 0.  1.
        -12    1    3    3    0    0  0.12658298467E+01  0.10983582972E+01 -0.42461503839E+01  0.45649216020E+01  0.00000000000E+00 0.  1.
</event>
<event>
 7    1  0.4083500E-009  0.4778727E+02  0.7816164E-02  0.1312668E+00
        -11   -1    0    0    0    0  0.00000000000E+00  0.00000000000E+00  0.45593999997E+02  0.45594000000E+02  0.51100000000E-03 0. -1.
         11   -1    0    0    0    0 -0.00000000000E+00 -0.00000000000E+00 -0.45593999997E+02  0.45594000000E+02  0.51100000000E-03 0.  1.
    9900012    2    1    2    0    0  0.28393014322E+02  0.30619708731E+02  0.11827659706E+02  0.47787270061E+02  0.19999995518E+02 0.  0.
        -12    1    1    2    0    0 -0.28393014322E+02 -0.30619708731E+02 -0.11827659706E+02  0.43400729939E+02  0.00000000000E+00 0.  1.
         11    1    3    3    0    0  0.15063663047E+02  0.13997970100E+02  0.11676534319E+01  0.20596614433E+02  0.51100000000E-03 0. -1.
        -11    1    3    3    0    0  0.44347557697E+01  0.14285561242E+02  0.30772144238E+01  0.15271331560E+02  0.51100000000E-03 0.  1.
        -12    1    3    3    0    0  0.88945955057E+01  0.23361773889E+01  0.75827918503E+01  0.11919324068E+02  0.00000000000E+00 0.  1.
</event>
<event>
 7    1  0.4083500E-009  0.4778727E+02  0.7816164E-02  0.1312668E+00
        -11   -1    0    0    0    0  0.00000000000E+00  0.00000000000E+00  0.45593999997E+02  0.45594000000E+02  0.51100000000E-03 0.  1.
         11   -1    0    0    0    0 -0.00000000000E+00 -0.00000000000E+00 -0.45593999997E+02  0.45594000000E+02  0.51100000000E-03 0. -1.
    9900012    2    1    2    0    0 -0.25631050860E+02 -0.39457291220E+01 -0.34800920205E+02  0.47787267361E+02  0.19999983206E+02 0.  0.
        -12    1    1    2    0    0  0.25631050860E+02  0.39457291220E+01  0.34800920205E+02  0.43400732639E+02  0.00000000000E+00 0.  1.
         11    1    3    3    0    0 -0.12952280075E+01  0.37988881336E+01 -0.70798641954E+01  0.81384054906E+01  0.51100000000E-03 0. -1.
        -11    1    3    3    0    0 -0.68485277038E+01 -0.36610209920E+01 -0.17111412202E+02  0.18791110511E+02  0.51100000000E-03 0.  1.
         12    1    3    3    0    0 -0.17487295149E+02 -0.40835962636E+01 -0.10609643807E+02  0.20857751360E+02  0.00000000000E+00 0. -1.
</event>
<event>
 7    1  0.4083500E-009  0.4778727E+02  0.7816164E-02  0.1312668E+00
        -11   -1    0    0    0    0  0.00000000000E+00  0.00000000000E+00  0.45593999997E+02  0.45594000000E+02  0.51100000000E-03 0.  1.
         11   -1    0    0    0    0 -0.00000000000E+00 -0.00000000000E+00 -0.45593999997E+02  0.45594000000E+02  0.51100000000E-03 0. -1.
    9900012    2    1    2    0    0 -0.36880921245E+02 -0.16304074999E+02 -0.16049861219E+02  0.47787271221E+02  0.20000000804E+02 0.  0.
        -12    1    1    2    0    0  0.36880921245E+02  0.16304074999E+02  0.16049861219E+02  0.43400728779E+02  0.00000000000E+00 0.  1.
         11    1    3    3    0    0 -0.17452031416E+02 -0.11357454190E+02 -0.16049140033E+02  0.26289542832E+02  0.51100000000E-03 0. -1.
        -11    1    3    3    0    0 -0.80668369321E+01 -0.60463790390E+01 -0.11732113738E+00  0.10081980068E+02  0.51100000000E-03 0.  1.
         12    1    3    3    0    0 -0.11362052897E+02  0.10997582298E+01  0.11659995218E+00  0.11415748321E+02  0.00000000000E+00 0. -1.
</event>
<event>
 7    1  0.4083500E-009  0.4778727E+02  0.7816164E-02  0.1312668E+00
        -11   -1    0    0    0    0  0.00000000000E+00  0.00000000000E+00  0.45593999997E+02  0.45594000000E+02  0.51100000000E-03 0.  1.
         11   -1    0    0    0    0 -0.00000000000E+00 -0.00000000000E+00 -0.45593999997E+02  0.45594000000E+02  0.51100000000E-03 0. -1.
    9900012    2    1    2    0    0  0.40429337433E+02  0.66613332087E+01 -0.14307992518E+02  0.47787270337E+02  0.19999996775E+02 0.  0.
        -12    1    1    2    0    0 -0.40429337433E+02 -0.66613332087E+01  0.14307992518E+02  0.43400729663E+02  0.00000000000E+00 0.  1.
         11    1    3    3    0    0  0.34151172472E+01  0.27610147787E+01  0.56422142122E+00  0.44277053305E+01  0.51100000000E-03 0.  1.
        -11    1    3    3    0    0  0.26380750539E+02 -0.14154527358E+01 -0.30507300345E+01  0.26594256136E+02  0.51100000000E-03 0. -1.
         12    1    3    3    0    0  0.10633469647E+02  0.53157711658E+01 -0.11821483904E+02  0.16765308871E+02  0.00000000000E+00 0. -1.
</event>
<event>
 7    1  0.4083500E-009  0.4778728E+02  0.7816164E-02  0.1312668E+00
        -11   -1    0    0    0    0  0.00000000000E+00  0.00000000000E+00  0.45593999997E+02  0.45594000000E+02  0.51100000000E-03 0.  1.
         11   -1    0    0    0    0 -0.00000000000E+00 -0.00000000000E+00 -0.45593999997E+02  0.45594000000E+02  0.51100000000E-03 0. -1.
    9900012    2    1    2    0    0  0.34113415759E+02 -0.24466325884E+02 -0.11013465889E+02  0.47787278025E+02  0.20000031828E+02 0.  0.
        -12    1    1    2    0    0 -0.34113415759E+02  0.24466325884E+02  0.11013465889E+02  0.43400721975E+02  0.00000000000E+00 0.  1.
         11    1    3    3    0    0  0.28736275739E+02 -0.20808258661E+02 -0.15508459906E+02  0.38720401609E+02  0.51100000000E-03 0. -1.
        -11    1    3    3    0    0  0.40703545935E+01 -0.44162932213E+01  0.23635572643E+01  0.64542881511E+01  0.51100000000E-03 0.  1.
         12    1    3    3    0    0  0.13067854270E+01  0.75822599801E+00  0.21314367520E+01  0.26125882653E+01  0.00000000000E+00 0. -1.
</event>
<event>
 7    1  0.4083500E-009  0.4778727E+02  0.7816164E-02  0.1312668E+00
        -11   -1    0    0    0    0  0.00000000000E+00  0.00000000000E+00  0.45593999997E+02  0.45594000000E+02  0.51100000000E-03 0. -1.
         11   -1    0    0    0    0 -0.00000000000E+00 -0.00000000000E+00 -0.45593999997E+02  0.45594000000E+02  0.51100000000E-03 0.  1.
    9900012    2    1    2    0    0  0.15308163166E+02  0.40545223774E+02  0.23168912063E+01  0.47787274024E+02  0.20000013585E+02 0.  0.
        -12    1    1    2    0    0 -0.15308163166E+02 -0.40545223774E+02 -0.23168912063E+01  0.43400725976E+02  0.00000000000E+00 0.  1.
         11    1    3    3    0    0  0.44736524213E+01  0.12348885577E+02  0.75872114772E+01  0.15168200923E+02  0.51100000000E-03 0. -1.
        -11    1    3    3    0    0 -0.18977969951E+01  0.70555148245E+01  0.32629618371E+00  0.73135758924E+01  0.51100000000E-03 0.  1.
        -12    1    3    3    0    0  0.12732307740E+02  0.21140823372E+02 -0.55966164546E+01  0.25305497208E+02  0.00000000000E+00 0.  1.
</event>
<event>
 7    1  0.4083500E-009  0.4778727E+02  0.7816164E-02  0.1312668E+00
        -11   -1    0    0    0    0  0.00000000000E+00  0.00000000000E+00  0.45593999997E+02  0.45594000000E+02  0.51100000000E-03 0.  1.
         11   -1    0    0    0    0 -0.00000000000E+00 -0.00000000000E+00 -0.45593999997E+02  0.45594000000E+02  0.51100000000E-03 0. -1.
    9900012    2    1    2    0    0  0.96193387718E+01 -0.31843615618E+02 -0.27876085042E+02  0.47787266697E+02  0.19999980176E+02 0.  0.
        -12    1    1    2    0    0 -0.96193387718E+01  0.31843615618E+02  0.27876085042E+02  0.43400733303E+02  0.00000000000E+00 0.  1.
         11    1    3    3    0    0 -0.22796561256E+01 -0.31198390367E+01 -0.12450859283E+01  0.40596141314E+01  0.51100000000E-03 0.  1.
        -11    1    3    3    0    0 -0.45572591512E+00  0.10323503124E+01  0.82415930713E+00  0.13973804428E+01  0.51100000000E-03 0. -1.
         12    1    3    3    0    0  0.12354720813E+02 -0.29756126893E+02 -0.27455158421E+02  0.42330272122E+02  0.00000000000E+00 0. -1.
</event>
<event>
 7    1  0.4083500E-009  0.4778727E+02  0.7816164E-02  0.1312668E+00
        -11   -1    0    0    0    0  0.00000000000E+00  0.00000000000E+00  0.45593999997E+02  0.45594000000E+02  0.51100000000E-03 0.  1.
         11   -1    0    0    0    0 -0.00000000000E+00 -0.00000000000E+00 -0.45593999997E+02  0.45594000000E+02  0.51100000000E-03 0. -1.
    9900012    2    1    2    0    0  0.37234171169E+02 -0.22284721834E+02 -0.79464806560E+00  0.47787265036E+02  0.19999972604E+02 0.  0.
        -12    1    1    2    0    0 -0.37234171169E+02  0.22284721834E+02  0.79464806560E+00  0.43400734964E+02  0.00000000000E+00 0.  1.
         11    1    3    3    0    0  0.97004527337E+01 -0.36166402527E+01 -0.28323626239E+01  0.10733179783E+02  0.51100000000E-03 0. -1.
        -11    1    3    3    0    0  0.16686173946E+02 -0.11678933507E+02 -0.67331244597E+01  0.21451360192E+02  0.51100000000E-03 0.  1.
         12    1    3    3    0    0  0.10847544490E+02 -0.69891480737E+01  0.87708390180E+01  0.15602725061E+02  0.00000000000E+00 0. -1.
</event>
<event>
 7    1  0.4083500E-009  0.4778728E+02  0.7816164E-02  0.1312668E+00
        -11   -1    0    0    0    0  0.00000000000E+00  0.00000000000E+00  0.45593999997E+02  0.45594000000E+02  0.51100000000E-03 0.  1.
         11   -1    0    0    0    0 -0.00000000000E+00 -0.00000000000E+00 -0.45593999997E+02  0.45594000000E+02  0.51100000000E-03 0. -1.
    9900012    2    1    2    0    0  0.19011185564E+02 -0.31555574882E+02 -0.22944344224E+02  0.47787280944E+02  0.20000045135E+02 0.  0.
        -12    1    1    2    0    0 -0.19011185564E+02  0.31555574882E+02  0.22944344224E+02  0.43400719056E+02  0.00000000000E+00 0.  1.
         11    1    3    3    0    0 -0.13852617119E+01 -0.26619101736E-02 -0.24400848651E+01  0.28058815916E+01  0.51100000000E-03 0.  1.
        -11    1    3    3    0    0 -0.61900802840E+00 -0.62850212082E+01 -0.13696726553E+00  0.63169156096E+01  0.51100000000E-03 0. -1.
         12    1    3    3    0    0  0.21015455304E+02 -0.25267891764E+02 -0.20367292094E+02  0.38664483743E+02  0.00000000000E+00 0. -1.
</event>
<event>
 7    1  0.4083500E-009  0.4778727E+02  0.7816164E-02  0.1312668E+00
        -11   -1    0    0    0    0  0.00000000000E+00  0.00000000000E+00  0.45593999997E+02  0.45594000000E+02  0.51100000000E-03 0.  1.
         11   -1    0    0    0    0 -0.00000000000E+00 -0.00000000000E+00 -0.45593999997E+02  0.45594000000E+02  0.51100000000E-03 0. -1.
    9900012    2    1    2    0    0  0.10288494238E+02 -0.27697917014E+02 -0.31789862345E+02  0.47787273411E+02  0.20000010789E+02 0.  0.
        -12    1    1    2    0    0 -0.10288494238E+02  0.27697917014E+02  0.31789862345E+02  0.43400726589E+02  0.00000000000E+00 0.  1.
         11    1    3    3    0    0  0.29321813527E+01 -0.96009363811E+01 -0.14724520185E+02  0.17820975333E+02  0.51100000000E-03 0. -1.
        -11    1    3    3    0    0  0.95060359570E+01 -0.10581435201E+02 -0.40598001926E+01  0.14792344925E+02  0.51100000000E-03 0.  1.
        -12    1    3    3    0    0 -0.21497230714E+01 -0.75155454320E+01 -0.13005541967E+02  0.15173953153E+02  0.00000000000E+00 0.  1.
</event>
<event>
 7    1  0.4083500E-009  0.4778727E+02  0.7816164E-02  0.1312668E+00
        -11   -1    0    0    0    0  0.00000000000E+00  0.00000000000E+00  0.45593999997E+02  0.45594000000E+02  0.51100000000E-03 0.  1.
         11   -1    0    0    0    0 -0.00000000000E+00 -0.00000000000E+00 -0.45593999997E+02  0.45594000000E+02  0.51100000000E-03 0. -1.
    9900012    2    1    2    0    0 -0.21223581744E+02 -0.30281890439E+02 -0.22719815067E+02  0.47787270660E+02  0.19999998245E+02 0.  0.
        -12    1    1    2    0    0  0.21223581744E+02  0.30281890439E+02  0.22719815067E+02  0.43400729340E+02  0.00000000000E+00 0.  1.
         11    1    3    3    0    0 -0.13074198094E+02 -0.20884704225E+02 -0.18495609576E+02  0.30808977591E+02  0.51100000000E-03 0.  1.
        -11    1    3    3    0    0 -0.50184507468E+01 -0.83279462888E+01 -0.75325103223E+01  0.12299522320E+02  0.51100000000E-03 0. -1.
        -12    1    3    3    0    0 -0.31309329025E+01 -0.10692399254E+01  0.33083048310E+01  0.46787707481E+01  0.00000000000E+00 0.  1.
</event>
<event>
 7    1  0.4083500E-009  0.4778727E+02  0.7816164E-02  0.1312668E+00
        -11   -1    0    0    0    0  0.00000000000E+00  0.00000000000E+00  0.45593999997E+02  0.45594000000E+02  0.51100000000E-03 0.  1.
         11   -1    0    0    0    0 -0.00000000000E+00 -0.00000000000E+00 -0.45593999997E+02  0.45594000000E+02  0.51100000000E-03 0. -1.
    9900012    2    1    2    0    0 -0.34756023025E+02 -0.25443893218E+02  0.53151132706E+01  0.47787271116E+02  0.20000000325E+02 0.  0.
        -12    1    1    2    0    0  0.34756023025E+02  0.25443893218E+02 -0.53151132706E+01  0.43400728884E+02  0.00000000000E+00 0.  1.
         11    1    3    3    0    0 -0.91414610898E+01 -0.51550085430E+01  0.41605883916E+01  0.11289416281E+02  0.51100000000E-03 0. -1.
        -11    1    3    3    0    0 -0.18605126818E+02 -0.44257461500E+01  0.10835591248E+01  0.19154949061E+02  0.51100000000E-03 0.  1.
         12    1    3    3    0    0 -0.70094351168E+01 -0.15863138525E+02  0.70965754239E-01  0.17342905773E+02  0.00000000000E+00 0. -1.
</event>
<event>
 7    1  0.4083500E-009  0.4778727E+02  0.7816164E-02  0.1312668E+00
        -11   -1    0    0    0    0  0.00000000000E+00  0.00000000000E+00  0.45593999997E+02  0.45594000000E+02  0.51100000000E-03 0.  1.
         11   -1    0    0    0    0 -0.00000000000E+00 -0.00000000000E+00 -0.45593999997E+02  0.45594000000E+02  0.51100000000E-03 0. -1.
    9900012    2    1    2    0    0  0.81660247542E+01 -0.28814061933E+02 -0.31411606588E+02  0.47787272427E+02  0.20000006305E+02 0.  0.
        -12    1    1    2    0    0 -0.81660247542E+01  0.28814061933E+02  0.31411606588E+02  0.43400727573E+02  0.00000000000E+00 0.  1.
         11    1    3    3    0    0 -0.20227224897E+01 -0.10419573616E+02 -0.12111085546E+02  0.16103953365E+02  0.51100000000E-03 0. -1.
        -11    1    3    3    0    0  0.99907659328E+00 -0.25944431759E+01 -0.11463615940E+02  0.11795922181E+02  0.51100000000E-03 0.  1.
         12    1    3    3    0    0  0.91896706506E+01 -0.15800045141E+02 -0.78369051027E+01  0.19887396881E+02  0.00000000000E+00 0. -1.
</event>
<event>
 7    1  0.4083500E-009  0.4778728E+02  0.7816164E-02  0.1312668E+00
        -11   -1    0    0    0    0  0.00000000000E+00  0.00000000000E+00  0.45593999997E+02  0.45594000000E+02  0.51100000000E-03 0.  1.
         11   -1    0    0    0    0 -0.00000000000E+00 -0.00000000000E+00 -0.45593999997E+02  0.45594000000E+02  0.51100000000E-03 0. -1.
    9900012    2    1    2    0    0 -0.21530586112E+00  0.39381718317E+02 -0.18238866856E+02  0.47787281591E+02  0.20000048086E+02 0.  0.
        -12    1    1    2    0    0  0.21530586112E+00 -0.39381718317E+02  0.18238866856E+02  0.43400718409E+02  0.00000000000E+00 0.  1.
         11    1    3    3    0    0  0.25637947188E+01  0.72948990159E+01 -0.66941075451E+01  0.10227398061E+02  0.51100000000E-03 0.  1.
        -11    1    3    3    0    0 -0.54548406700E+01  0.31330501384E+02 -0.75382626831E+01  0.32683038541E+02  0.51100000000E-03 0. -1.
         12    1    3    3    0    0  0.26757400901E+01  0.75631791697E+00 -0.40064966273E+01  0.48768449889E+01  0.00000000000E+00 0. -1.
</event>
<event>
 7    1  0.4083500E-009  0.4778728E+02  0.7816164E-02  0.1312668E+00
        -11   -1    0    0    0    0  0.00000000000E+00  0.00000000000E+00  0.45593999997E+02  0.45594000000E+02  0.51100000000E-03 0.  1.
         11   -1    0    0    0    0 -0.00000000000E+00 -0.00000000000E+00 -0.45593999997E+02  0.45594000000E+02  0.51100000000E-03 0. -1.
    9900012    2    1    2    0    0 -0.43376583813E+02 -0.12767303888E+01 -0.68150627888E+00  0.47787279792E+02  0.20000039882E+02 0.  0.
        -12    1    1    2    0    0  0.43376583813E+02  0.12767303888E+01  0.68150627888E+00  0.43400720208E+02  0.00000000000E+00 0.  1.
         11    1    3    3    0    0 -0.12196819770E+02 -0.24040004159E+00 -0.63360872202E+01  0.13746497962E+02  0.51100000000E-03 0.  1.
        -11    1    3    3    0    0 -0.92694224204E+01 -0.57726889895E+01 -0.88802791623E-02  0.10919991268E+02  0.51100000000E-03 0. -1.
         12    1    3    3    0    0 -0.21910341622E+02  0.47363586423E+01  0.56634612204E+01  0.23120790562E+02  0.00000000000E+00 0. -1.
</event>
<event>
 7    1  0.4083500E-009  0.4778727E+02  0.7816164E-02  0.1312668E+00
        -11   -1    0    0    0    0  0.00000000000E+00  0.00000000000E+00  0.45593999997E+02  0.45594000000E+02  0.51100000000E-03 0.  1.
         11   -1    0    0    0    0 -0.00000000000E+00 -0.00000000000E+00 -0.45593999997E+02  0.45594000000E+02  0.51100000000E-03 0. -1.
    9900012    2    1    2    0    0 -0.15761485375E+02  0.14473760823E+02 -0.37758561166E+02  0.47787272876E+02  0.20000008350E+02 0.  0.
        -12    1    1    2    0    0  0.15761485375E+02 -0.14473760823E+02  0.37758561166E+02  0.43400727124E+02  0.00000000000E+00 0.  1.
         11    1    3    3    0    0 -0.10314789443E+02  0.10831282821E+02 -0.16490155527E+02  0.22262901841E+02  0.51100000000E-03 0. -1.
        -11    1    3    3    0    0 -0.45714307103E+01  0.73653658639E+01 -0.82914600317E+01  0.11995620149E+02  0.51100000000E-03 0.  1.
         12    1    3    3    0    0 -0.87526522202E+00 -0.37228878621E+01 -0.12976945607E+02  0.13528750886E+02  0.00000000000E+00 0. -1.
</event>
<event>
 7    1  0.4083500E-009  0.4778727E+02  0.7816164E-02  0.1312668E+00
        -11   -1    0    0    0    0  0.00000000000E+00  0.00000000000E+00  0.45593999997E+02  0.45594000000E+02  0.51100000000E-03 0. -1.
         11   -1    0    0    0    0 -0.00000000000E+00 -0.00000000000E+00 -0.45593999997E+02  0.45594000000E+02  0.51100000000E-03 0.  1.
    9900012    2    1    2    0    0  0.25684307752E+02  0.30144760993E+02  0.17754805494E+02  0.47787269612E+02  0.19999993470E+02 0.  0.
        -12    1    1    2    0    0 -0.25684307752E+02 -0.30144760993E+02 -0.17754805494E+02  0.43400730388E+02  0.00000000000E+00 0.  1.
         11    1    3    3    0    0  0.14355640821E+02  0.15181968150E+02  0.11216874059E+02  0.23714865469E+02  0.51100000000E-03 0. -1.
        -11    1    3    3    0    0  0.62475966506E+00  0.43455508307E+01  0.77922135877E+01  0.89438654685E+01  0.51100000000E-03 0.  1.
        -12    1    3    3    0    0  0.10703907266E+02  0.10617242012E+02 -0.12542821530E+01  0.15128538675E+02  0.00000000000E+00 0.  1.
</event>
<event>
 7    1  0.4083500E-009  0.4778727E+02  0.7816164E-02  0.1312668E+00
        -11   -1    0    0    0    0  0.00000000000E+00  0.00000000000E+00  0.45593999997E+02  0.45594000000E+02  0.51100000000E-03 0. -1.
         11   -1    0    0    0    0 -0.00000000000E+00 -0.00000000000E+00 -0.45593999997E+02  0.45594000000E+02  0.51100000000E-03 0.  1.
    9900012    2    1    2    0    0  0.34164475323E+02 -0.13829486316E+02  0.22916311040E+02  0.47787269850E+02  0.19999994554E+02 0.  0.
        -12    1    1    2    0    0 -0.34164475323E+02  0.13829486316E+02 -0.22916311040E+02  0.43400730150E+02  0.00000000000E+00 0.  1.
         11    1    3    3    0    0  0.24406177776E+02 -0.87417597370E+01  0.12733964883E+02  0.28883104730E+02  0.51100000000E-03 0. -1.
        -11    1    3    3    0    0  0.10860793658E+02 -0.23515031834E+01  0.35835155699E+01  0.11675957785E+02  0.51100000000E-03 0.  1.
        -12    1    3    3    0    0 -0.11024961115E+01 -0.27362233959E+01  0.65988305872E+01  0.72282073342E+01  0.00000000000E+00 0.  1.
</event>
<event>
 7    1  0.4083500E-009  0.4778727E+02  0.7816164E-02  0.1312668E+00
        -11   -1    0    0    0    0  0.00000000000E+00  0.00000000000E+00  0.45593999997E+02  0.45594000000E+02  0.51100000000E-03 0.  1.
         11   -1    0    0    0    0 -0.00000000000E+00 -0.00000000000E+00 -0.45593999997E+02  0.45594000000E+02  0.51100000000E-03 0. -1.
    9900012    2    1    2    0    0 -0.18966836475E+02  0.37515604152E+02  0.10791747036E+02  0.47787271379E+02  0.20000001524E+02 0.  0.
        -12    1    1    2    0    0  0.18966836475E+02 -0.37515604152E+02 -0.10791747036E+02  0.43400728621E+02  0.00000000000E+00 0.  1.
         11    1    3    3    0    0 -0.56548569075E+01  0.32480172633E+01 -0.15979078035E+01  0.67141888860E+01  0.51100000000E-03 0. -1.
        -11    1    3    3    0    0 -0.65700744132E+00  0.41062013012E+01 -0.27961680948E+01  0.50110981012E+01  0.51100000000E-03 0.  1.
        -12    1    3    3    0    0 -0.12654972126E+02  0.30161385588E+02  0.15185822934E+02  0.36061984392E+02  0.00000000000E+00 0.  1.
</event>
<event>
 7    1  0.4083500E-009  0.4778727E+02  0.7816164E-02  0.1312668E+00
        -11   -1    0    0    0    0  0.00000000000E+00  0.00000000000E+00  0.45593999997E+02  0.45594000000E+02  0.51100000000E-03 0. -1.
         11   -1    0    0    0    0 -0.00000000000E+00 -0.00000000000E+00 -0.45593999997E+02  0.45594000000E+02  0.51100000000E-03 0.  1.
    9900012    2    1    2    0    0 -0.18204568111E+02  0.14508385459E+02  0.36629546446E+02  0.47787271647E+02  0.20000002746E+02 0.  0.
        -12    1    1    2    0    0  0.18204568111E+02 -0.14508385459E+02 -0.36629546446E+02  0.43400728353E+02  0.00000000000E+00 0.  1.
         11    1    3    3    0    0 -0.10576072189E+02  0.86864963641E+01  0.90352394973E+01  0.16399514477E+02  0.51100000000E-03 0. -1.
        -11    1    3    3    0    0 -0.44698994341E+01  0.27117774098E+01  0.23064447594E+01  0.57143175761E+01  0.51100000000E-03 0.  1.
        -12    1    3    3    0    0 -0.31585964873E+01  0.31101116854E+01  0.25287862190E+02  0.25673439594E+02  0.00000000000E+00 0.  1.
</event>
<event>
 7    1  0.4083500E-009  0.4778727E+02  0.7816164E-02  0.1312668E+00
        -11   -1    0    0    0    0  0.00000000000E+00  0.00000000000E+00  0.45593999997E+02  0.45594000000E+02  0.51100000000E-03 0.  1.
         11   -1    0    0    0    0 -0.00000000000E+00 -0.00000000000E+00 -0.45593999997E+02  0.45594000000E+02  0.51100000000E-03 0. -1.
    9900012    2    1    2    0    0  0.32155919941E+02 -0.11418918895E+02 -0.26818438542E+02  0.47787267957E+02  0.19999985925E+02 0.  0.
        -12    1    1    2    0    0 -0.32155919941E+02  0.11418918895E+02  0.26818438542E+02  0.43400732043E+02  0.00000000000E+00 0.  1.
         11    1    3    3    0    0  0.95636491109E+01 -0.24607025260E+00 -0.13913711325E+02  0.16885357502E+02  0.51100000000E-03 0. -1.
        -11    1    3    3    0    0  0.20625493347E+02 -0.45915662171E+01 -0.10718863930E+02  0.23693617291E+02  0.51100000000E-03 0.  1.
         12    1    3    3    0    0  0.19667774834E+01 -0.65812824250E+01 -0.21858632877E+01  0.72082931641E+01  0.00000000000E+00 0. -1.
</event>
<event>
 7    1  0.4083500E-009  0.4778727E+02  0.7816164E-02  0.1312668E+00
        -11   -1    0    0    0    0  0.00000000000E+00  0.00000000000E+00  0.45593999997E+02  0.45594000000E+02  0.51100000000E-03 0.  1.
         11   -1    0    0    0    0 -0.00000000000E+00 -0.00000000000E+00 -0.45593999997E+02  0.45594000000E+02  0.51100000000E-03 0. -1.
    9900012    2    1    2    0    0  0.14717022397E+02  0.38364042493E+02 -0.13972571858E+02  0.47787271102E+02  0.20000000261E+02 0.  0.
        -12    1    1    2    0    0 -0.14717022397E+02 -0.38364042493E+02  0.13972571858E+02  0.43400728898E+02  0.00000000000E+00 0.  1.
         11    1    3    3    0    0  0.20030728140E+01  0.46191866570E+01 -0.61427092586E+01  0.79424217571E+01  0.51100000000E-03 0. -1.
        -11    1    3    3    0    0  0.97162747105E+01  0.68463502382E+01 -0.38172650670E+01  0.12483990495E+02  0.51100000000E-03 0.  1.
        -12    1    3    3    0    0  0.29976748721E+01  0.26898505597E+02 -0.40125975322E+01  0.27360858849E+02  0.00000000000E+00 0.  1.
</event>
<event>
 7    1  0.4083500E-009  0.4778726E+02  0.7816164E-02  0.1312668E+00
        -11   -1    0    0    0    0  0.00000000000E+00  0.00000000000E+00  0.45593999997E+02  0.45594000000E+02  0.51100000000E-03 0.  1.
         11   -1    0    0    0    0 -0.00000000000E+00 -0.00000000000E+00 -0.45593999997E+02  0.45594000000E+02  0.51100000000E-03 0. -1.
    9900012    2    1    2    0    0  0.36089129807E+02  0.16865222851E+02 -0.17226806341E+02  0.47787263960E+02  0.19999967700E+02 0.  0.
        -12    1    1    2    0    0 -0.36089129807E+02 -0.16865222851E+02  0.17226806341E+02  0.43400736040E+02  0.00000000000E+00 0.  1.
         11    1    3    3    0    0  0.17661270373E+02  0.86797488426E+01 -0.30632657966E+01  0.19915875797E+02  0.51100000000E-03 0. -1.
        -11    1    3    3    0    0  0.16692720091E+02  0.22189469852E+01 -0.66098095296E+01  0.18090334768E+02  0.51100000000E-03 0.  1.
        -12    1    3    3    0    0  0.17351393436E+01  0.59665270236E+01 -0.75537310152E+01  0.97810533949E+01  0.00000000000E+00 0.  1.
</event>
<event>
 7    1  0.4083500E-009  0.4778727E+02  0.7816164E-02  0.1312668E+00
        -11   -1    0    0    0    0  0.00000000000E+00  0.00000000000E+00  0.45593999997E+02  0.45594000000E+02  0.51100000000E-03 0. -1.
         11   -1    0    0    0    0 -0.00000000000E+00 -0.00000000000E+00 -0.45593999997E+02  0.45594000000E+02  0.51100000000E-03 0.  1.
    9900012    2    1    2    0    0 -0.36283300099E+02  0.23221469626E+02 -0.52828736546E+01  0.47787271069E+02  0.20000000112E+02 0.  0.
        -12    1    1    2    0    0  0.36283300099E+02 -0.23221469626E+02  0.52828736546E+01  0.43400728931E+02  0.00000000000E+00 0.  1.
         11    1    3    3    0    0 -0.15994370832E+02  0.41873515001E+01 -0.48814861663E+00  0.16540619705E+02  0.51100000000E-03 0. -1.
        -11    1    3    3    0    0 -0.12181842613E+02  0.17500176156E+02  0.69905573523E+00  0.21334060422E+02  0.51100000000E-03 0.  1.
        -12    1    3    3    0    0 -0.81070866546E+01  0.15339419706E+01 -0.54937807732E+01  0.99125909417E+01  0.00000000000E+00 0.  1.
</event>
<event>
 7    1  0.4083500E-009  0.4778728E+02  0.7816164E-02  0.1312668E+00
        -11   -1    0    0    0    0  0.00000000000E+00  0.00000000000E+00  0.45593999997E+02  0.45594000000E+02  0.51100000000E-03 0. -1.
         11   -1    0    0    0    0 -0.00000000000E+00 -0.00000000000E+00 -0.45593999997E+02  0.45594000000E+02  0.51100000000E-03 0.  1.
    9900012    2    1    2    0    0  0.15049065884E+02 -0.40210242986E+02 -0.63470167868E+01  0.47787278265E+02  0.20000032924E+02 0.  0.
        -12    1    1    2    0    0 -0.15049065884E+02  0.40210242986E+02  0.63470167868E+01  0.43400721735E+02  0.00000000000E+00 0.  1.
         11    1    3    3    0    0  0.11017523494E+02 -0.38921459755E+02 -0.18844385311E+01  0.40494653502E+02  0.51100000000E-03 0. -1.
        -11    1    3    3    0    0 -0.67648103465E+00 -0.68638910286E+00 -0.11709603523E+01  0.15165437674E+01  0.51100000000E-03 0.  1.
        -12    1    3    3    0    0  0.47080234248E+01 -0.60239412846E+00 -0.32916179033E+01  0.57760809963E+01  0.00000000000E+00 0.  1.
</event>
<event>
 7    1  0.4083500E-009  0.4778728E+02  0.7816164E-02  0.1312668E+00
        -11   -1    0    0    0    0  0.00000000000E+00  0.00000000000E+00  0.45593999997E+02  0.45594000000E+02  0.51100000000E-03 0. -1.
         11   -1    0    0    0    0 -0.00000000000E+00 -0.00000000000E+00 -0.45593999997E+02  0.45594000000E+02  0.51100000000E-03 0.  1.
    9900012    2    1    2    0    0  0.39815575498E+02 -0.15755453896E+02  0.70787033749E+01  0.47787280868E+02  0.20000044791E+02 0.  0.
        -12    1    1    2    0    0 -0.39815575498E+02  0.15755453896E+02 -0.70787033749E+01  0.43400719132E+02  0.00000000000E+00 0.  1.
         11    1    3    3    0    0  0.12581184596E+02 -0.13139220768E+02  0.76856348888E+01  0.19748273649E+02  0.51100000000E-03 0. -1.
        -11    1    3    3    0    0  0.21509057305E+01  0.14781196714E+01  0.12755510726E+00  0.26129492515E+01  0.51100000000E-03 0.  1.
         12    1    3    3    0    0  0.25083485171E+02 -0.40943527996E+01 -0.73448662120E+00  0.25426057967E+02  0.00000000000E+00 0. -1.
</event>
<event>
 7    1  0.4083500E-009  0.4778725E+02  0.7816164E-02  0.1312668E+00
        -11   -1    0    0    0    0  0.00000000000E+00  0.00000000000E+00  0.45593999997E+02  0.45594000000E+02  0.51100000000E-03 0. -1.
         11   -1    0    0    0    0 -0.00000000000E+00 -0.00000000000E+00 -0.45593999997E+02  0.45594000000E+02  0.51100000000E-03 0.  1.
    9900012    2    1    2    0    0  0.42171657879E+02  0.46163159745E+01  0.91578369407E+01  0.47787250250E+02  0.19999905191E+02 0.  0.
        -12    1    1    2    0    0 -0.42171657879E+02 -0.46163159745E+01 -0.91578369407E+01  0.43400749750E+02  0.00000000000E+00 0.  1.
         11    1    3    3    0    0  0.56428095627E+01 -0.14799320615E+01  0.45274989079E+01  0.73844258605E+01  0.51100000000E-03 0. -1.
        -11    1    3    3    0    0  0.20401208021E+02 -0.43227090576E+01  0.11201900740E+01  0.20884202843E+02  0.51100000000E-03 0.  1.
         12    1    3    3    0    0  0.16127640295E+02  0.10418957094E+02  0.35101479589E+01  0.19518621547E+02  0.00000000000E+00 0. -1.
</event>
<event>
 7    1  0.4083500E-009  0.4778727E+02  0.7816164E-02  0.1312668E+00
        -11   -1    0    0    0    0  0.00000000000E+00  0.00000000000E+00  0.45593999997E+02  0.45594000000E+02  0.51100000000E-03 0. -1.
         11   -1    0    0    0    0 -0.00000000000E+00 -0.00000000000E+00 -0.45593999997E+02  0.45594000000E+02  0.51100000000E-03 0.  1.
    9900012    2    1    2    0    0 -0.30245918570E+02 -0.17258986412E+01  0.31077785658E+02  0.47787273305E+02  0.20000010306E+02 0.  0.
        -12    1    1    2    0    0  0.30245918570E+02  0.17258986412E+01 -0.31077785658E+02  0.43400726695E+02  0.00000000000E+00 0.  1.
         11    1    3    3    0    0 -0.46063932559E+01 -0.45094463141E+01  0.97005586468E+01  0.11647094196E+02  0.51100000000E-03 0. -1.
        -11    1    3    3    0    0  0.10114631002E+01 -0.52815166235E+00 -0.73080145102E+00  0.13550176395E+01  0.51100000000E-03 0.  1.
         12    1    3    3    0    0 -0.26650988415E+02  0.33116993353E+01  0.22108028462E+02  0.34785161469E+02  0.00000000000E+00 0. -1.
</event>
<event>
 7    1  0.4083500E-009  0.4778727E+02  0.7816164E-02  0.1312668E+00
        -11   -1    0    0    0    0  0.00000000000E+00  0.00000000000E+00  0.45593999997E+02  0.45594000000E+02  0.51100000000E-03 0.  1.
         11   -1    0    0    0    0 -0.00000000000E+00 -0.00000000000E+00 -0.45593999997E+02  0.45594000000E+02  0.51100000000E-03 0. -1.
    9900012    2    1    2    0    0 -0.32530655065E+02 -0.40056796888E+01 -0.28448797077E+02  0.47787273694E+02  0.20000012081E+02 0.  0.
        -12    1    1    2    0    0  0.32530655065E+02  0.40056796888E+01  0.28448797077E+02  0.43400726306E+02  0.00000000000E+00 0.  1.
         11    1    3    3    0    0 -0.89586941029E+01  0.15471324035E+01 -0.61116699699E+01  0.10954648729E+02  0.51100000000E-03 0. -1.
        -11    1    3    3    0    0 -0.14601480659E+02 -0.17885353255E+01 -0.27538987263E+01  0.14966163654E+02  0.51100000000E-03 0.  1.
         12    1    3    3    0    0 -0.89704803033E+01 -0.37642767668E+01 -0.19583228381E+02  0.21866461311E+02  0.00000000000E+00 0. -1.
</event>
<event>
 7    1  0.4153295E-009  0.4778727E+02  0.7816164E-02  0.1312668E+00
        -11   -1    0    0    0    0  0.00000000000E+00  0.00000000000E+00  0.45593999997E+02  0.45594000000E+02  0.51100000000E-03 0. -1.
         11   -1    0    0    0    0 -0.00000000000E+00 -0.00000000000E+00 -0.45593999997E+02  0.45594000000E+02  0.51100000000E-03 0.  1.
    9900012    2    1    2    0    0 -0.14064558203E+02 -0.91036010589E+01  0.40036684382E+02  0.47787269062E+02  0.19999990960E+02 0.  0.
        -12    1    1    2    0    0  0.14064558203E+02  0.91036010589E+01 -0.40036684382E+02  0.43400730938E+02  0.00000000000E+00 0.  1.
         11    1    3    3    0    0  0.26470947552E+00  0.15060781703E+01  0.55064947683E+01  0.57148777288E+01  0.51100000000E-03 0.  1.
        -11    1    3    3    0    0  0.72585802913E+00  0.19952567422E+01 -0.24447239342E+00  0.21372146261E+01  0.51100000000E-03 0. -1.
         12    1    3    3    0    0 -0.15055125708E+02 -0.12604935971E+02  0.34774662007E+02  0.39935176707E+02  0.00000000000E+00 0. -1.
</event>
<event>
 7    1  0.4083500E-009  0.4778727E+02  0.7816164E-02  0.1312668E+00
        -11   -1    0    0    0    0  0.00000000000E+00  0.00000000000E+00  0.45593999997E+02  0.45594000000E+02  0.51100000000E-03 0.  1.
         11   -1    0    0    0    0 -0.00000000000E+00 -0.00000000000E+00 -0.45593999997E+02  0.45594000000E+02  0.51100000000E-03 0. -1.
    9900012    2    1    2    0    0 -0.28593448484E+02  0.86639130689E+01 -0.31479755294E+02  0.47787266374E+02  0.19999978708E+02 0.  0.
        -12    1    1    2    0    0  0.28593448484E+02 -0.86639130689E+01  0.31479755294E+02  0.43400733626E+02  0.00000000000E+00 0.  1.
         11    1    3    3    0    0 -0.26675739443E+02  0.83670928814E+01 -0.19507845283E+02  0.34090458283E+02  0.51100000000E-03 0. -1.
        -11    1    3    3    0    0 -0.57657080741E+00 -0.32555876288E+00  0.68565927866E+00  0.95317957992E+00  0.51100000000E-03 0.  1.
         12    1    3    3    0    0 -0.13411382340E+01  0.62237895039E+00 -0.12657569290E+02  0.12743628512E+02  0.00000000000E+00 0. -1.
</event>
<event>
 7    1  0.4083500E-009  0.4778726E+02  0.7816164E-02  0.1312668E+00
        -11   -1    0    0    0    0  0.00000000000E+00  0.00000000000E+00  0.45593999997E+02  0.45594000000E+02  0.51100000000E-03 0.  1.
         11   -1    0    0    0    0 -0.00000000000E+00 -0.00000000000E+00 -0.45593999997E+02  0.45594000000E+02  0.51100000000E-03 0. -1.
    9900012    2    1    2    0    0 -0.39727528501E+02  0.13209233530E+02 -0.11439588365E+02  0.47787256306E+02  0.19999932800E+02 0.  0.
        -12    1    1    2    0    0  0.39727528501E+02 -0.13209233530E+02  0.11439588365E+02  0.43400743694E+02  0.00000000000E+00 0.  1.
         11    1    3    3    0    0 -0.37462688078E+01  0.54161971852E+01  0.12365231605E+00  0.65867299994E+01  0.51100000000E-03 0.  1.
        -11    1    3    3    0    0 -0.22479955434E+02 -0.24240997267E+01 -0.63677957756E+01  0.23489859069E+02  0.51100000000E-03 0. -1.
         12    1    3    3    0    0 -0.13501304260E+02  0.10217136072E+02 -0.51954449051E+01  0.17710667237E+02  0.00000000000E+00 0. -1.
</event>
<event>
 7    1  0.4083500E-009  0.4778727E+02  0.7816164E-02  0.1312668E+00
        -11   -1    0    0    0    0  0.00000000000E+00  0.00000000000E+00  0.45593999997E+02  0.45594000000E+02  0.51100000000E-03 0.  1.
         11   -1    0    0    0    0 -0.00000000000E+00 -0.00000000000E+00 -0.45593999997E+02  0.45594000000E+02  0.51100000000E-03 0. -1.
    9900012    2    1    2    0    0 -0.41601656391E+02 -0.10715722279E+02 -0.61724147417E+01  0.47787271640E+02  0.20000002714E+02 0.  0.
        -12    1    1    2    0    0  0.41601656391E+02  0.10715722279E+02  0.61724147417E+01  0.43400728360E+02  0.00000000000E+00 0.  1.
         11    1    3    3    0    0 -0.24501109445E+02 -0.11974501838E+02 -0.53330611018E+01  0.27787310041E+02  0.51100000000E-03 0. -1.
        -11    1    3    3    0    0  0.33790755794E+00 -0.20482107985E+01 -0.86961867889E+00  0.22506856512E+01  0.51100000000E-03 0.  1.
        -12    1    3    3    0    0 -0.17438454504E+02  0.33069903571E+01  0.30265038986E-01  0.17749275948E+02  0.00000000000E+00 0.  1.
</event>
<event>
 7    1  0.4083500E-009  0.4778727E+02  0.7816164E-02  0.1312668E+00
        -11   -1    0    0    0    0  0.00000000000E+00  0.00000000000E+00  0.45593999997E+02  0.45594000000E+02  0.51100000000E-03 0.  1.
         11   -1    0    0    0    0 -0.00000000000E+00 -0.00000000000E+00 -0.45593999997E+02  0.45594000000E+02  0.51100000000E-03 0. -1.
    9900012    2    1    2    0    0  0.46508177557E+00  0.43251638878E+02 -0.35640836686E+01  0.47787271215E+02  0.20000000777E+02 0.  0.
        -12    1    1    2    0    0 -0.46508177557E+00 -0.43251638878E+02  0.35640836686E+01  0.43400728785E+02  0.00000000000E+00 0.  1.
         11    1    3    3    0    0  0.21106554933E+01  0.57962576280E+01 -0.24042913558E+00  0.61732710561E+01  0.51100000000E-03 0. -1.
        -11    1    3    3    0    0 -0.35265951540E+00  0.14405120265E+01  0.44986131678E+01  0.47367672865E+01  0.51100000000E-03 0.  1.
         12    1    3    3    0    0 -0.12929142024E+01  0.36014869223E+02 -0.78222677008E+01  0.36877232872E+02  0.00000000000E+00 0. -1.
</event>
<event>
 7    1  0.4083500E-009  0.4778728E+02  0.7816164E-02  0.1312668E+00
        -11   -1    0    0    0    0  0.00000000000E+00  0.00000000000E+00  0.45593999997E+02  0.45594000000E+02  0.51100000000E-03 0. -1.
         11   -1    0    0    0    0 -0.00000000000E+00 -0.00000000000E+00 -0.45593999997E+02  0.45594000000E+02  0.51100000000E-03 0.  1.
    9900012    2    1    2    0    0  0.21393147868E+02 -0.33829872641E+02  0.16777815343E+02  0.47787284035E+02  0.20000059229E+02 0.  0.
        -12    1    1    2    0    0 -0.21393147868E+02  0.33829872641E+02 -0.16777815343E+02  0.43400715965E+02  0.00000000000E+00 0.  1.
         11    1    3    3    0    0  0.57428804435E+01 -0.16089654242E+01  0.17615461040E+01  0.62187209668E+01  0.51100000000E-03 0. -1.
        -11    1    3    3    0    0 -0.23739325360E+01 -0.27475323292E+01 -0.55596941955E+00  0.36733624708E+01  0.51100000000E-03 0.  1.
         12    1    3    3    0    0  0.18024199961E+02 -0.29473374887E+02  0.15572238659E+02  0.37895200597E+02  0.00000000000E+00 0. -1.
</event>
<event>
 7    1  0.4083500E-009  0.4778730E+02  0.7816164E-02  0.1312668E+00
        -11   -1    0    0    0    0  0.00000000000E+00  0.00000000000E+00  0.45593999997E+02  0.45594000000E+02  0.51100000000E-03 0.  1.
         11   -1    0    0    0    0 -0.00000000000E+00 -0.00000000000E+00 -0.45593999997E+02  0.45594000000E+02  0.51100000000E-03 0. -1.
    9900012    2    1    2    0    0  0.23314340644E+01 -0.59166902764E+01 -0.42932248791E+02  0.47787299604E+02  0.20000130214E+02 0.  0.
        -12    1    1    2    0    0 -0.23314340644E+01  0.59166902764E+01  0.42932248791E+02  0.43400700396E+02  0.00000000000E+00 0.  1.
         11    1    3    3    0    0  0.25236273393E+01 -0.55871978030E+01 -0.12596822564E+02  0.14009475836E+02  0.51100000000E-03 0. -1.
        -11    1    3    3    0    0  0.53398444178E+01 -0.50094781754E+01 -0.11933055478E+02  0.14000236544E+02  0.51100000000E-03 0.  1.
        -12    1    3    3    0    0 -0.55320376927E+01  0.46799857019E+01 -0.18402370749E+02  0.19777587224E+02  0.00000000000E+00 0.  1.
</event>
<event>
 7    1  0.4083500E-009  0.4778727E+02  0.7816164E-02  0.1312668E+00
        -11   -1    0    0    0    0  0.00000000000E+00  0.00000000000E+00  0.45593999997E+02  0.45594000000E+02  0.51100000000E-03 0.  1.
         11   -1    0    0    0    0 -0.00000000000E+00 -0.00000000000E+00 -0.45593999997E+02  0.45594000000E+02  0.51100000000E-03 0. -1.
    9900012    2    1    2    0    0  0.23973308445E+02  0.32005207162E+02 -0.16869207528E+02  0.47787274592E+02  0.20000016177E+02 0.  0.
        -12    1    1    2    0    0 -0.23973308445E+02 -0.32005207162E+02  0.16869207528E+02  0.43400725408E+02  0.00000000000E+00 0.  1.
         11    1    3    3    0    0  0.96592787428E+01  0.89039705640E+01 -0.11531120289E+02  0.17479962615E+02  0.51100000000E-03 0. -1.
        -11    1    3    3    0    0  0.43451490195E+01  0.53448321220E+00 -0.34327981906E+01  0.55632810448E+01  0.51100000000E-03 0.  1.
         12    1    3    3    0    0  0.99688806824E+01  0.22566753386E+02 -0.19052890486E+01  0.24744030933E+02  0.00000000000E+00 0. -1.
</event>
<event>
 7    1  0.4083500E-009  0.4778727E+02  0.7816164E-02  0.1312668E+00
        -11   -1    0    0    0    0  0.00000000000E+00  0.00000000000E+00  0.45593999997E+02  0.45594000000E+02  0.51100000000E-03 0.  1.
         11   -1    0    0    0    0 -0.00000000000E+00 -0.00000000000E+00 -0.45593999997E+02  0.45594000000E+02  0.51100000000E-03 0. -1.
    9900012    2    1    2    0    0 -0.29368685528E+02 -0.10178888034E+02 -0.30290159381E+02  0.47787271820E+02  0.20000003534E+02 0.  0.
        -12    1    1    2    0    0  0.29368685528E+02  0.10178888034E+02  0.30290159381E+02  0.43400728180E+02  0.00000000000E+00 0.  1.
         11    1    3    3    0    0 -0.18311491990E+01 -0.55875706773E+00 -0.25749769412E+00  0.19317407107E+01  0.51100000000E-03 0. -1.
        -11    1    3    3    0    0 -0.83776110922E+01  0.55811788484E+01 -0.70128332762E+01  0.12268404777E+02  0.51100000000E-03 0.  1.
         12    1    3    3    0    0 -0.19159925237E+02 -0.15201309815E+02 -0.23019828411E+02  0.33587126332E+02  0.00000000000E+00 0. -1.
</event>
<event>
 7    1  0.4083500E-009  0.4778727E+02  0.7816164E-02  0.1312668E+00
        -11   -1    0    0    0    0  0.00000000000E+00  0.00000000000E+00  0.45593999997E+02  0.45594000000E+02  0.51100000000E-03 0.  1.
         11   -1    0    0    0    0 -0.00000000000E+00 -0.00000000000E+00 -0.45593999997E+02  0.45594000000E+02  0.51100000000E-03 0. -1.
    9900012    2    1    2    0    0  0.32049123148E+02  0.86482655388E+00 -0.29252848814E+02  0.47787269784E+02  0.19999994252E+02 0.  0.
        -12    1    1    2    0    0 -0.32049123148E+02 -0.86482655388E+00  0.29252848814E+02  0.43400730216E+02  0.00000000000E+00 0.  1.
         11    1    3    3    0    0  0.20092295209E+02 -0.35131897609E+01 -0.12302160085E+02  0.23819865073E+02  0.51100000000E-03 0. -1.
        -11    1    3    3    0    0  0.71526702645E+01 -0.27721445394E+01 -0.47174007788E+01  0.90055176214E+01  0.51100000000E-03 0.  1.
         12    1    3    3    0    0  0.48041576749E+01  0.71501608541E+01 -0.12233287950E+02  0.14961887090E+02  0.00000000000E+00 0. -1.
</event>
<event>
 7    1  0.4083500E-009  0.4778728E+02  0.7816164E-02  0.1312668E+00
        -11   -1    0    0    0    0  0.00000000000E+00  0.00000000000E+00  0.45593999997E+02  0.45594000000E+02  0.51100000000E-03 0.  1.
         11   -1    0    0    0    0 -0.00000000000E+00 -0.00000000000E+00 -0.45593999997E+02  0.45594000000E+02  0.51100000000E-03 0. -1.
    9900012    2    1    2    0    0 -0.14658734578E+02 -0.49708803874E+01 -0.40546697495E+02  0.47787276170E+02  0.20000023368E+02 0.  0.
        -12    1    1    2    0    0  0.14658734578E+02  0.49708803874E+01  0.40546697495E+02  0.43400723830E+02  0.00000000000E+00 0.  1.
         11    1    3    3    0    0  0.20931441817E+01 -0.55209020305E+00 -0.82318335236E+01  0.85117060322E+01  0.51100000000E-03 0. -1.
        -11    1    3    3    0    0 -0.58263039982E+01  0.49484054061E+01 -0.14331592496E+02  0.16242754633E+02  0.51100000000E-03 0.  1.
        -12    1    3    3    0    0 -0.10925574761E+02 -0.93671955905E+01 -0.17983271475E+02  0.23032815504E+02  0.00000000000E+00 0.  1.
</event>
<event>
 7    1  0.4083500E-009  0.4778727E+02  0.7816164E-02  0.1312668E+00
        -11   -1    0    0    0    0  0.00000000000E+00  0.00000000000E+00  0.45593999997E+02  0.45594000000E+02  0.51100000000E-03 0. -1.
         11   -1    0    0    0    0 -0.00000000000E+00 -0.00000000000E+00 -0.45593999997E+02  0.45594000000E+02  0.51100000000E-03 0.  1.
    9900012    2    1    2    0    0 -0.23413319447E+02  0.34887110993E+02 -0.10877923666E+02  0.47787271155E+02  0.20000000504E+02 0.  0.
        -12    1    1    2    0    0  0.23413319447E+02 -0.34887110993E+02  0.10877923666E+02  0.43400728845E+02  0.00000000000E+00 0.  1.
         11    1    3    3    0    0  0.85106796641E+00  0.62174536986E+01  0.88634210609E+00  0.63377164474E+01  0.51100000000E-03 0. -1.
        -11    1    3    3    0    0 -0.52584421609E+01  0.15337445478E+02 -0.74190219447E+01  0.17830601073E+02  0.51100000000E-03 0.  1.
        -12    1    3    3    0    0 -0.19005945253E+02  0.13332211817E+02 -0.43452438270E+01  0.23618953634E+02  0.00000000000E+00 0.  1.
</event>
<event>
 7    1  0.4083500E-009  0.4778724E+02  0.7816164E-02  0.1312668E+00
        -11   -1    0    0    0    0  0.00000000000E+00  0.00000000000E+00  0.45593999997E+02  0.45594000000E+02  0.51100000000E-03 0.  1.
         11   -1    0    0    0    0 -0.00000000000E+00 -0.00000000000E+00 -0.45593999997E+02  0.45594000000E+02  0.51100000000E-03 0. -1.
    9900012    2    1    2    0    0 -0.22708214978E+02 -0.11101254729E+02 -0.35280660755E+02  0.47787240705E+02  0.19999861671E+02 0.  0.
        -12    1    1    2    0    0  0.22708214978E+02  0.11101254729E+02  0.35280660755E+02  0.43400759295E+02  0.00000000000E+00 0.  1.
         11    1    3    3    0    0 -0.65353001354E+01 -0.97348389551E+01 -0.15923041037E+02  0.19774237621E+02  0.51100000000E-03 0. -1.
        -11    1    3    3    0    0  0.89993498734E-01  0.81113064443E+00 -0.80376402683E+01  0.80789660908E+01  0.51100000000E-03 0.  1.
        -12    1    3    3    0    0 -0.16262908342E+02 -0.21775464186E+01 -0.11319979449E+02  0.19934036994E+02  0.00000000000E+00 0.  1.
</event>
<event>
 7    1  0.4083500E-009  0.4778727E+02  0.7816164E-02  0.1312668E+00
        -11   -1    0    0    0    0  0.00000000000E+00  0.00000000000E+00  0.45593999997E+02  0.45594000000E+02  0.51100000000E-03 0.  1.
         11   -1    0    0    0    0 -0.00000000000E+00 -0.00000000000E+00 -0.45593999997E+02  0.45594000000E+02  0.51100000000E-03 0. -1.
    9900012    2    1    2    0    0  0.11626097341E+02 -0.71706388054E+01 -0.41195133606E+02  0.47787271514E+02  0.20000002142E+02 0.  0.
        -12    1    1    2    0    0 -0.11626097341E+02  0.71706388054E+01  0.41195133606E+02  0.43400728486E+02  0.00000000000E+00 0.  1.
         11    1    3    3    0    0  0.18070146301E+01 -0.40007737680E+01 -0.13076632889E+02  0.13793832701E+02  0.51100000000E-03 0. -1.
        -11    1    3    3    0    0 -0.13951487266E+01  0.44082428588E+01 -0.12492854550E+02  0.13321053267E+02  0.51100000000E-03 0.  1.
         12    1    3    3    0    0  0.11214231437E+02 -0.75781078963E+01 -0.15625646168E+02  0.20672385546E+02  0.00000000000E+00 0. -1.
</event>
<event>
 7    1  0.4083500E-009  0.4778722E+02  0.7816164E-02  0.1312668E+00
        -11   -1    0    0    0    0  0.00000000000E+00  0.00000000000E+00  0.45593999997E+02  0.45594000000E+02  0.51100000000E-03 0. -1.
         11   -1    0    0    0    0 -0.00000000000E+00 -0.00000000000E+00 -0.45593999997E+02  0.45594000000E+02  0.51100000000E-03 0.  1.
    9900012    2    1    2    0    0  0.25184182718E+02 -0.22630639335E+02  0.27152136228E+02  0.47787223537E+02  0.19999783392E+02 0.  0.
        -12    1    1    2    0    0 -0.25184182718E+02  0.22630639335E+02 -0.27152136228E+02  0.43400776463E+02  0.00000000000E+00 0.  1.
         11    1    3    3    0    0  0.24009616710E+02 -0.19552430260E+02  0.27473831035E+02  0.41395297023E+02  0.51100000000E-03 0. -1.
        -11    1    3    3    0    0 -0.18003306407E+00 -0.24391859291E+01  0.23097614253E+01  0.33640805585E+01  0.51100000000E-03 0.  1.
         12    1    3    3    0    0  0.13545990722E+01 -0.63902314558E+00 -0.26314562321E+01  0.30278459552E+01  0.00000000000E+00 0. -1.
</event>
<event>
 7    1  0.4083500E-009  0.4778727E+02  0.7816164E-02  0.1312668E+00
        -11   -1    0    0    0    0  0.00000000000E+00  0.00000000000E+00  0.45593999997E+02  0.45594000000E+02  0.51100000000E-03 0.  1.
         11   -1    0    0    0    0 -0.00000000000E+00 -0.00000000000E+00 -0.45593999997E+02  0.45594000000E+02  0.51100000000E-03 0. -1.
    9900012    2    1    2    0    0 -0.35663778561E+02  0.99709938038E+01 -0.22633996303E+02  0.47787267203E+02  0.19999982484E+02 0.  0.
        -12    1    1    2    0    0  0.35663778561E+02 -0.99709938038E+01  0.22633996303E+02  0.43400732797E+02  0.00000000000E+00 0.  1.
         11    1    3    3    0    0 -0.13122825563E+02  0.53604481660E+01 -0.12579873023E+02  0.18952471101E+02  0.51100000000E-03 0. -1.
        -11    1    3    3    0    0 -0.77253422622E+01  0.43805241914E+01 -0.10819612575E+02  0.13997639865E+02  0.51100000000E-03 0.  1.
         12    1    3    3    0    0 -0.14815610736E+02  0.23002144639E+00  0.76548929451E+00  0.14837156237E+02  0.00000000000E+00 0. -1.
</event>
<event>
 7    1  0.4083500E-009  0.4778727E+02  0.7816164E-02  0.1312668E+00
        -11   -1    0    0    0    0  0.00000000000E+00  0.00000000000E+00  0.45593999997E+02  0.45594000000E+02  0.51100000000E-03 0.  1.
         11   -1    0    0    0    0 -0.00000000000E+00 -0.00000000000E+00 -0.45593999997E+02  0.45594000000E+02  0.51100000000E-03 0. -1.
    9900012    2    1    2    0    0  0.28363579362E+02  0.35361373765E+01 -0.32659247295E+02  0.47787270333E+02  0.19999996756E+02 0.  0.
        -12    1    1    2    0    0 -0.28363579362E+02 -0.35361373765E+01  0.32659247295E+02  0.43400729667E+02  0.00000000000E+00 0.  1.
         11    1    3    3    0    0  0.28679607970E+01  0.29335771673E+01 -0.76194785999E+01  0.86537580579E+01  0.51100000000E-03 0. -1.
        -11    1    3    3    0    0 -0.41707795589E+00  0.23589720420E+01  0.77169624121E+00  0.25167873303E+01  0.51100000000E-03 0.  1.
        -12    1    3    3    0    0  0.25912696521E+02 -0.17564118328E+01 -0.25811464936E+02  0.36616724945E+02  0.00000000000E+00 0.  1.
</event>
<event>
 7    1  0.4083500E-009  0.4778727E+02  0.7816164E-02  0.1312668E+00
        -11   -1    0    0    0    0  0.00000000000E+00  0.00000000000E+00  0.45593999997E+02  0.45594000000E+02  0.51100000000E-03 0.  1.
         11   -1    0    0    0    0 -0.00000000000E+00 -0.00000000000E+00 -0.45593999997E+02  0.45594000000E+02  0.51100000000E-03 0. -1.
    9900012    2    1    2    0    0  0.18260292704E+02  0.20356653106E+02 -0.33701508064E+02  0.47787271192E+02  0.20000000673E+02 0.  0.
        -12    1    1    2    0    0 -0.18260292704E+02 -0.20356653106E+02  0.33701508064E+02  0.43400728808E+02  0.00000000000E+00 0.  1.
         11    1    3    3    0    0 -0.45082517400E+00  0.53521340210E+01 -0.24849713339E+01  0.59180794780E+01  0.51100000000E-03 0. -1.
        -11    1    3    3    0    0  0.55905267893E+01 -0.48516802662E+00 -0.13747770757E+01  0.57774899450E+01  0.51100000000E-03 0.  1.
         12    1    3    3    0    0  0.13120591088E+02  0.15489687111E+02 -0.29841759654E+02  0.36091701769E+02  0.00000000000E+00 0. -1.
</event>
<event>
 7    1  0.4083500E-009  0.4778726E+02  0.7816164E-02  0.1312668E+00
        -11   -1    0    0    0    0  0.00000000000E+00  0.00000000000E+00  0.45593999997E+02  0.45594000000E+02  0.51100000000E-03 0. -1.
         11   -1    0    0    0    0 -0.00000000000E+00 -0.00000000000E+00 -0.45593999997E+02  0.45594000000E+02  0.51100000000E-03 0.  1.
    9900012    2    1    2    0    0  0.30554306939E+02  0.28500688688E+02 -0.11737504852E+02  0.47787263274E+02  0.19999964571E+02 0.  0.
        -12    1    1    2    0    0 -0.30554306939E+02 -0.28500688688E+02  0.11737504852E+02  0.43400736726E+02  0.00000000000E+00 0.  1.
         11    1    3    3    0    0  0.26747898329E+02  0.21792650119E+02 -0.98910848616E+01  0.35891548089E+02  0.51100000000E-03 0. -1.
        -11    1    3    3    0    0  0.65691153408E+01  0.35420471409E+01 -0.18693046975E+01  0.76937425628E+01  0.51100000000E-03 0.  1.
        -12    1    3    3    0    0 -0.27627067311E+01  0.31659914284E+01  0.22884707335E-01  0.42019726220E+01  0.00000000000E+00 0.  1.
</event>
<event>
 7    1  0.4083500E-009  0.4778727E+02  0.7816164E-02  0.1312668E+00
        -11   -1    0    0    0    0  0.00000000000E+00  0.00000000000E+00  0.45593999997E+02  0.45594000000E+02  0.51100000000E-03 0. -1.
         11   -1    0    0    0    0 -0.00000000000E+00 -0.00000000000E+00 -0.45593999997E+02  0.45594000000E+02  0.51100000000E-03 0.  1.
    9900012    2    1    2    0    0 -0.29315858686E+02  0.31728240789E+02 -0.41859573928E+01  0.47787273355E+02  0.20000010533E+02 0.  0.
        -12    1    1    2    0    0  0.29315858686E+02 -0.31728240789E+02  0.41859573928E+01  0.43400726645E+02  0.00000000000E+00 0.  1.
         11    1    3    3    0    0 -0.13178073459E+02  0.45484427324E+01 -0.18492793539E+01  0.14063064594E+02  0.51100000000E-03 0. -1.
        -11    1    3    3    0    0 -0.21992475370E+00  0.43891155938E+01 -0.39076622119E+01  0.58806910152E+01  0.51100000000E-03 0.  1.
         12    1    3    3    0    0 -0.15917860473E+02  0.22790682463E+02  0.15709841730E+01  0.27843517745E+02  0.00000000000E+00 0. -1.
</event>
<event>
 7    1  0.4083500E-009  0.4778727E+02  0.7816164E-02  0.1312668E+00
        -11   -1    0    0    0    0  0.00000000000E+00  0.00000000000E+00  0.45593999997E+02  0.45594000000E+02  0.51100000000E-03 0.  1.
         11   -1    0    0    0    0 -0.00000000000E+00 -0.00000000000E+00 -0.45593999997E+02  0.45594000000E+02  0.51100000000E-03 0. -1.
    9900012    2    1    2    0    0  0.21938068608E+01  0.25986424315E+02 -0.34691734008E+02  0.47787269065E+02  0.19999990974E+02 0.  0.
        -12    1    1    2    0    0 -0.21938068608E+01 -0.25986424315E+02  0.34691734008E+02  0.43400730935E+02  0.00000000000E+00 0.  1.
         11    1    3    3    0    0 -0.32726253147E+01  0.49283094000E+01 -0.58508016906E+01  0.83204681765E+01  0.51100000000E-03 0. -1.
        -11    1    3    3    0    0 -0.10870407501E+00  0.19881849733E+02 -0.16363789746E+02  0.25750211271E+02  0.51100000000E-03 0.  1.
        -12    1    3    3    0    0  0.55751362505E+01  0.11762651823E+01 -0.12477142571E+02  0.13716589618E+02  0.00000000000E+00 0.  1.
</event>
<event>
 7    1  0.4083500E-009  0.4778734E+02  0.7816164E-02  0.1312667E+00
        -11   -1    0    0    0    0  0.00000000000E+00  0.00000000000E+00  0.45593999997E+02  0.45594000000E+02  0.51100000000E-03 0.  1.
         11   -1    0    0    0    0 -0.00000000000E+00 -0.00000000000E+00 -0.45593999997E+02  0.45594000000E+02  0.51100000000E-03 0. -1.
    9900012    2    1    2    0    0  0.11654131096E+02 -0.39920727769E+02 -0.12415088857E+02  0.47787335160E+02  0.20000292326E+02 0.  0.
        -12    1    1    2    0    0 -0.11654131096E+02  0.39920727769E+02  0.12415088857E+02  0.43400664840E+02  0.00000000000E+00 0.  1.
         11    1    3    3    0    0  0.18891869717E+01 -0.17938875889E+02 -0.46186919012E+01  0.18620005658E+02  0.51100000000E-03 0. -1.
        -11    1    3    3    0    0  0.66029509953E+01 -0.21587834089E+02 -0.21414278656E+01  0.22676403067E+02  0.51100000000E-03 0.  1.
        -12    1    3    3    0    0  0.31619931293E+01 -0.39401779120E+00 -0.56549690899E+01  0.64909264344E+01  0.00000000000E+00 0.  1.
</event>
<event>
 7    1  0.4083500E-009  0.4778726E+02  0.7816164E-02  0.1312668E+00
        -11   -1    0    0    0    0  0.00000000000E+00  0.00000000000E+00  0.45593999997E+02  0.45594000000E+02  0.51100000000E-03 0. -1.
         11   -1    0    0    0    0 -0.00000000000E+00 -0.00000000000E+00 -0.45593999997E+02  0.45594000000E+02  0.51100000000E-03 0.  1.
    9900012    2    1    2    0    0 -0.36934317008E+02  0.12988729557E+02  0.18728946021E+02  0.47787259368E+02  0.19999946762E+02 0.  0.
        -12    1    1    2    0    0  0.36934317008E+02 -0.12988729557E+02 -0.18728946021E+02  0.43400740632E+02  0.00000000000E+00 0.  1.
         11    1    3    3    0    0 -0.19621064330E+02  0.10321008131E+02  0.14798835651E+02  0.26655485574E+02  0.51100000000E-03 0. -1.
        -11    1    3    3    0    0 -0.17377081265E+02  0.52236122335E+01  0.39714401000E+01  0.18574752078E+02  0.51100000000E-03 0.  1.
        -12    1    3    3    0    0  0.63828586854E-01 -0.25558908075E+01 -0.41329729825E-01  0.25570217158E+01  0.00000000000E+00 0.  1.
</event>
<event>
 7    1  0.4083500E-009  0.4778727E+02  0.7816164E-02  0.1312668E+00
        -11   -1    0    0    0    0  0.00000000000E+00  0.00000000000E+00  0.45593999997E+02  0.45594000000E+02  0.51100000000E-03 0. -1.
         11   -1    0    0    0    0 -0.00000000000E+00 -0.00000000000E+00 -0.45593999997E+02  0.45594000000E+02  0.51100000000E-03 0.  1.
    9900012    2    1    2    0    0  0.20037111701E+02 -0.33422890958E+02  0.19106234229E+02  0.47787266461E+02  0.19999979103E+02 0.  0.
        -12    1    1    2    0    0 -0.20037111701E+02  0.33422890958E+02 -0.19106234229E+02  0.43400733539E+02  0.00000000000E+00 0.  1.
         11    1    3    3    0    0  0.92084374442E+01 -0.12726652320E+02  0.16632580354E+02  0.22878062176E+02  0.51100000000E-03 0. -1.
        -11    1    3    3    0    0  0.10854122788E+02 -0.14720304579E+02  0.40424192201E+01  0.18730736820E+02  0.51100000000E-03 0.  1.
        -12    1    3    3    0    0 -0.25448531274E-01 -0.59759340592E+01 -0.15687653458E+01  0.61784674651E+01  0.00000000000E+00 0.  1.
</event>
<event>
 7    1  0.4083500E-009  0.4778728E+02  0.7816164E-02  0.1312668E+00
        -11   -1    0    0    0    0  0.00000000000E+00  0.00000000000E+00  0.45593999997E+02  0.45594000000E+02  0.51100000000E-03 0. -1.
         11   -1    0    0    0    0 -0.00000000000E+00 -0.00000000000E+00 -0.45593999997E+02  0.45594000000E+02  0.51100000000E-03 0.  1.
    9900012    2    1    2    0    0 -0.17694668864E+01 -0.29852675010E+02  0.31453288530E+02  0.47787279065E+02  0.20000036568E+02 0.  0.
        -12    1    1    2    0    0  0.17694668864E+01  0.29852675010E+02 -0.31453288530E+02  0.43400720935E+02  0.00000000000E+00 0.  1.
         11    1    3    3    0    0  0.17634696605E+01 -0.27664501759E+01  0.27814379388E+01  0.43011009158E+01  0.51100000000E-03 0. -1.
        -11    1    3    3    0    0  0.72601995003E+01 -0.92903150596E+01  0.11951858869E+02  0.16788906497E+02  0.51100000000E-03 0.  1.
         12    1    3    3    0    0 -0.10793136047E+02 -0.17795909775E+02  0.16719991722E+02  0.26697271652E+02  0.00000000000E+00 0. -1.
</event>
<event>
 7    1  0.4083500E-009  0.4778727E+02  0.7816164E-02  0.1312668E+00
        -11   -1    0    0    0    0  0.00000000000E+00  0.00000000000E+00  0.45593999997E+02  0.45594000000E+02  0.51100000000E-03 0.  1.
         11   -1    0    0    0    0 -0.00000000000E+00 -0.00000000000E+00 -0.45593999997E+02  0.45594000000E+02  0.51100000000E-03 0. -1.
    9900012    2    1    2    0    0  0.98226023908E+01 -0.20213348613E+02 -0.37128968835E+02  0.47787270667E+02  0.19999998281E+02 0.  0.
        -12    1    1    2    0    0 -0.98226023908E+01  0.20213348613E+02  0.37128968835E+02  0.43400729333E+02  0.00000000000E+00 0.  1.
         11    1    3    3    0    0  0.92669597777E+01 -0.68081854549E+01 -0.20782870870E+02  0.23751961068E+02  0.51100000000E-03 0. -1.
        -11    1    3    3    0    0  0.58234495276E+01 -0.91634542524E+01 -0.10155121496E+02  0.14866336170E+02  0.51100000000E-03 0.  1.
        -12    1    3    3    0    0 -0.52678069144E+01 -0.42417089059E+01 -0.61909764684E+01  0.91689734301E+01  0.00000000000E+00 0.  1.
</event>
<event>
 7    1  0.4083500E-009  0.4778727E+02  0.7816164E-02  0.1312668E+00
        -11   -1    0    0    0    0  0.00000000000E+00  0.00000000000E+00  0.45593999997E+02  0.45594000000E+02  0.51100000000E-03 0. -1.
         11   -1    0    0    0    0 -0.00000000000E+00 -0.00000000000E+00 -0.45593999997E+02  0.45594000000E+02  0.51100000000E-03 0.  1.
    9900012    2    1    2    0    0  0.38949008020E+02  0.18979588205E+02  0.25244964841E+01  0.47787273317E+02  0.20000010360E+02 0.  0.
        -12    1    1    2    0    0 -0.38949008020E+02 -0.18979588205E+02 -0.25244964841E+01  0.43400726683E+02  0.00000000000E+00 0.  1.
         11    1    3    3    0    0  0.68020777523E+01  0.92872611671E+00  0.11477776320E+01  0.69604732383E+01  0.51100000000E-03 0. -1.
        -11    1    3    3    0    0  0.26604492108E+02  0.12519787998E+02  0.81085183150E+01  0.30500691162E+02  0.51100000000E-03 0.  1.
         12    1    3    3    0    0  0.55424381600E+01  0.55310740902E+01 -0.67317994629E+01  0.10326108917E+02  0.00000000000E+00 0. -1.
</event>
<event>
 7    1  0.4083500E-009  0.4778727E+02  0.7816164E-02  0.1312668E+00
        -11   -1    0    0    0    0  0.00000000000E+00  0.00000000000E+00  0.45593999997E+02  0.45594000000E+02  0.51100000000E-03 0.  1.
         11   -1    0    0    0    0 -0.00000000000E+00 -0.00000000000E+00 -0.45593999997E+02  0.45594000000E+02  0.51100000000E-03 0. -1.
    9900012    2    1    2    0    0  0.21671048187E+02 -0.15516482894E+02 -0.34252412428E+02  0.47787270420E+02  0.19999997152E+02 0.  0.
        -12    1    1    2    0    0 -0.21671048187E+02  0.15516482894E+02  0.34252412428E+02  0.43400729580E+02  0.00000000000E+00 0.  1.
         11    1    3    3    0    0  0.44871589260E+01 -0.10487145575E+02 -0.95834557432E+01  0.14898236197E+02  0.51100000000E-03 0. -1.
        -11    1    3    3    0    0 -0.18022184994E+01 -0.84736183706E+00 -0.42593508665E+01  0.47019234008E+01  0.51100000000E-03 0.  1.
         12    1    3    3    0    0  0.18986107761E+02 -0.41819754822E+01 -0.20409605818E+02  0.28187110822E+02  0.00000000000E+00 0. -1.
</event>
<event>
 7    1  0.4083500E-009  0.4778727E+02  0.7816164E-02  0.1312668E+00
        -11   -1    0    0    0    0  0.00000000000E+00  0.00000000000E+00  0.45593999997E+02  0.45594000000E+02  0.51100000000E-03 0.  1.
         11   -1    0    0    0    0 -0.00000000000E+00 -0.00000000000E+00 -0.45593999997E+02  0.45594000000E+02  0.51100000000E-03 0. -1.
    9900012    2    1    2    0    0 -0.32333033160E+02 -0.25849641208E+02  0.13038179179E+02  0.47787273045E+02  0.20000009123E+02 0.  0.
        -12    1    1    2    0    0  0.32333033160E+02  0.25849641208E+02 -0.13038179179E+02  0.43400726955E+02  0.00000000000E+00 0.  1.
         11    1    3    3    0    0 -0.70470199351E+01 -0.37575595329E+01  0.36264081544E+01  0.87710079222E+01  0.51100000000E-03 0. -1.
        -11    1    3    3    0    0  0.21798850756E+01 -0.32989333204E+01  0.33634727346E+01  0.51911279211E+01  0.51100000000E-03 0.  1.
        -12    1    3    3    0    0 -0.27465898300E+02 -0.18793148355E+02  0.60482982898E+01  0.33825137202E+02  0.00000000000E+00 0.  1.
</event>
<event>
 7    1  0.4083500E-009  0.4778727E+02  0.7816164E-02  0.1312668E+00
        -11   -1    0    0    0    0  0.00000000000E+00  0.00000000000E+00  0.45593999997E+02  0.45594000000E+02  0.51100000000E-03 0.  1.
         11   -1    0    0    0    0 -0.00000000000E+00 -0.00000000000E+00 -0.45593999997E+02  0.45594000000E+02  0.51100000000E-03 0. -1.
    9900012    2    1    2    0    0  0.14642264594E+02 -0.10001978740E+02 -0.39612975364E+02  0.47787270647E+02  0.19999998188E+02 0.  0.
        -12    1    1    2    0    0 -0.14642264594E+02  0.10001978740E+02  0.39612975364E+02  0.43400729353E+02  0.00000000000E+00 0.  1.
         11    1    3    3    0    0  0.91851722995E+00 -0.32053791777E+01 -0.34397700560E+01  0.47906312604E+01  0.51100000000E-03 0.  1.
        -11    1    3    3    0    0  0.17380759417E+02 -0.70264471475E+01 -0.25069919777E+02  0.31304354894E+02  0.51100000000E-03 0. -1.
         12    1    3    3    0    0 -0.36570120531E+01  0.22984758548E+00 -0.11103285532E+02  0.11692284493E+02  0.00000000000E+00 0. -1.
</event>
<event>
 7    1  0.4083500E-009  0.4778727E+02  0.7816164E-02  0.1312668E+00
        -11   -1    0    0    0    0  0.00000000000E+00  0.00000000000E+00  0.45593999997E+02  0.45594000000E+02  0.51100000000E-03 0.  1.
         11   -1    0    0    0    0 -0.00000000000E+00 -0.00000000000E+00 -0.45593999997E+02  0.45594000000E+02  0.51100000000E-03 0. -1.
    9900012    2    1    2    0    0  0.28162951547E+02  0.15623595045E+02 -0.29092516900E+02  0.47787273030E+02  0.20000009051E+02 0.  0.
        -12    1    1    2    0    0 -0.28162951547E+02 -0.15623595045E+02  0.29092516900E+02  0.43400726970E+02  0.00000000000E+00 0.  1.
         11    1    3    3    0    0  0.18154847827E+02  0.16244393196E+02 -0.20796217548E+02  0.32030633376E+02  0.51100000000E-03 0. -1.
        -11    1    3    3    0    0  0.61052551653E+01  0.40064860264E+01 -0.39300294124E+01  0.82928404275E+01  0.51100000000E-03 0.  1.
        -12    1    3    3    0    0  0.39028485545E+01 -0.46272841769E+01 -0.43662699400E+01  0.74637992257E+01  0.00000000000E+00 0.  1.
</event>
<event>
 7    1  0.4083500E-009  0.4778727E+02  0.7816164E-02  0.1312668E+00
        -11   -1    0    0    0    0  0.00000000000E+00  0.00000000000E+00  0.45593999997E+02  0.45594000000E+02  0.51100000000E-03 0. -1.
         11   -1    0    0    0    0 -0.00000000000E+00 -0.00000000000E+00 -0.45593999997E+02  0.45594000000E+02  0.51100000000E-03 0.  1.
    9900012    2    1    2    0    0 -0.86894118253E+01 -0.23733078771E+02  0.35282552198E+02  0.47787269644E+02  0.19999993617E+02 0.  0.
        -12    1    1    2    0    0  0.86894118253E+01  0.23733078771E+02 -0.35282552198E+02  0.43400730356E+02  0.00000000000E+00 0.  1.
         11    1    3    3    0    0 -0.58730704962E+01 -0.16323430082E+02  0.15823676555E+02  0.23480546558E+02  0.51100000000E-03 0. -1.
        -11    1    3    3    0    0  0.87681751028E+00 -0.32668935281E+01 -0.65140816913E+00  0.34446676377E+01  0.51100000000E-03 0.  1.
        -12    1    3    3    0    0 -0.36931588394E+01 -0.41427551609E+01  0.20110283812E+02  0.20862055449E+02  0.00000000000E+00 0.  1.
</event>
<event>
 7    1  0.4083500E-009  0.4778727E+02  0.7816164E-02  0.1312668E+00
        -11   -1    0    0    0    0  0.00000000000E+00  0.00000000000E+00  0.45593999997E+02  0.45594000000E+02  0.51100000000E-03 0. -1.
         11   -1    0    0    0    0 -0.00000000000E+00 -0.00000000000E+00 -0.45593999997E+02  0.45594000000E+02  0.51100000000E-03 0.  1.
    9900012    2    1    2    0    0 -0.29215283584E+02 -0.31880401422E+02 -0.37054930372E+01  0.47787268804E+02  0.19999989783E+02 0.  0.
        -12    1    1    2    0    0  0.29215283584E+02  0.31880401422E+02  0.37054930372E+01  0.43400731196E+02  0.00000000000E+00 0.  1.
         11    1    3    3    0    0 -0.12685409950E+02 -0.15315511929E+02 -0.17829960090E+01  0.19966562205E+02  0.51100000000E-03 0. -1.
        -11    1    3    3    0    0 -0.74181152170E+01 -0.15793924803E+02 -0.50350556755E+01  0.18161175071E+02  0.51100000000E-03 0.  1.
         12    1    3    3    0    0 -0.91117584173E+01 -0.77096469074E+00  0.31125586473E+01  0.96595315281E+01  0.00000000000E+00 0. -1.
</event>
<event>
 7    1  0.4083500E-009  0.4778728E+02  0.7816164E-02  0.1312668E+00
        -11   -1    0    0    0    0  0.00000000000E+00  0.00000000000E+00  0.45593999997E+02  0.45594000000E+02  0.51100000000E-03 0. -1.
         11   -1    0    0    0    0 -0.00000000000E+00 -0.00000000000E+00 -0.45593999997E+02  0.45594000000E+02  0.51100000000E-03 0.  1.
    9900012    2    1    2    0    0 -0.49677822465E+00 -0.26216579605E+02  0.34584200331E+02  0.47787277111E+02  0.20000027660E+02 0.  0.
        -12    1    1    2    0    0  0.49677822465E+00  0.26216579605E+02 -0.34584200331E+02  0.43400722889E+02  0.00000000000E+00 0.  1.
         11    1    3    3    0    0 -0.45657683314E+01 -0.23603273088E+01  0.10865049163E+02  0.12019429231E+02  0.51100000000E-03 0. -1.
        -11    1    3    3    0    0  0.19911243391E+01  0.68522883613E+00  0.13877571300E+01  0.25219010299E+01  0.51100000000E-03 0.  1.
        -12    1    3    3    0    0  0.20778657677E+01 -0.24541481132E+02  0.22331394038E+02  0.33245946850E+02  0.00000000000E+00 0.  1.
</event>
<event>
 7    1  0.4083500E-009  0.4778728E+02  0.7816164E-02  0.1312668E+00
        -11   -1    0    0    0    0  0.00000000000E+00  0.00000000000E+00  0.45593999997E+02  0.45594000000E+02  0.51100000000E-03 0.  1.
         11   -1    0    0    0    0 -0.00000000000E+00 -0.00000000000E+00 -0.45593999997E+02  0.45594000000E+02  0.51100000000E-03 0. -1.
    9900012    2    1    2    0    0  0.12908107501E+02 -0.11357596729E+02 -0.39849825275E+02  0.47787276306E+02  0.20000023991E+02 0.  0.
        -12    1    1    2    0    0 -0.12908107501E+02  0.11357596729E+02  0.39849825275E+02  0.43400723694E+02  0.00000000000E+00 0.  1.
         11    1    3    3    0    0  0.12354126829E+02 -0.63877031384E+01 -0.22541525107E+02  0.26486743014E+02  0.51100000000E-03 0. -1.
        -11    1    3    3    0    0  0.31050190513E+01 -0.78472324436E+01 -0.10391556081E+02  0.13386733671E+02  0.51100000000E-03 0.  1.
         12    1    3    3    0    0 -0.25510383788E+01  0.28773388532E+01 -0.69167440865E+01  0.79137996212E+01  0.00000000000E+00 0. -1.
</event>
<event>
 7    1  0.4083500E-009  0.4778727E+02  0.7816164E-02  0.1312668E+00
        -11   -1    0    0    0    0  0.00000000000E+00  0.00000000000E+00  0.45593999997E+02  0.45594000000E+02  0.51100000000E-03 0. -1.
         11   -1    0    0    0    0 -0.00000000000E+00 -0.00000000000E+00 -0.45593999997E+02  0.45594000000E+02  0.51100000000E-03 0.  1.
    9900012    2    1    2    0    0 -0.41680782847E+02  0.10759939403E+02  0.55280663772E+01  0.47787268755E+02  0.19999989562E+02 0.  0.
        -12    1    1    2    0    0  0.41680782847E+02 -0.10759939403E+02 -0.55280663772E+01  0.43400731245E+02  0.00000000000E+00 0.  1.
         11    1    3    3    0    0 -0.10744611279E+02  0.52536009157E+01  0.25978901384E+01  0.12239118740E+02  0.51100000000E-03 0. -1.
        -11    1    3    3    0    0 -0.44611904081E+01  0.66470080731E+01  0.41568751804E+01  0.90202299143E+01  0.51100000000E-03 0.  1.
         12    1    3    3    0    0 -0.26474981161E+02 -0.11406695859E+01 -0.12266989416E+01  0.26527920100E+02  0.00000000000E+00 0. -1.
</event>
<event>
 7    1  0.4083500E-009  0.4778727E+02  0.7816164E-02  0.1312668E+00
        -11   -1    0    0    0    0  0.00000000000E+00  0.00000000000E+00  0.45593999997E+02  0.45594000000E+02  0.51100000000E-03 0.  1.
         11   -1    0    0    0    0 -0.00000000000E+00 -0.00000000000E+00 -0.45593999997E+02  0.45594000000E+02  0.51100000000E-03 0. -1.
    9900012    2    1    2    0    0  0.16981619235E+02  0.34378428428E+02 -0.20331540451E+02  0.47787271087E+02  0.20000000196E+02 0.  0.
        -12    1    1    2    0    0 -0.16981619235E+02 -0.34378428428E+02  0.20331540451E+02  0.43400728913E+02  0.00000000000E+00 0.  1.
         11    1    3    3    0    0  0.69710035624E+00  0.15990919269E+01 -0.40681916699E+01  0.44264237959E+01  0.51100000000E-03 0. -1.
        -11    1    3    3    0    0  0.22409576680E+01  0.71230555353E+01  0.33093423542E+01  0.81677143992E+01  0.51100000000E-03 0.  1.
         12    1    3    3    0    0  0.14043561211E+02  0.25656280966E+02 -0.19572691136E+02  0.35193132892E+02  0.00000000000E+00 0. -1.
</event>
<event>
 7    1  0.4083500E-009  0.4778727E+02  0.7816164E-02  0.1312668E+00
        -11   -1    0    0    0    0  0.00000000000E+00  0.00000000000E+00  0.45593999997E+02  0.45594000000E+02  0.51100000000E-03 0.  1.
         11   -1    0    0    0    0 -0.00000000000E+00 -0.00000000000E+00 -0.45593999997E+02  0.45594000000E+02  0.51100000000E-03 0. -1.
    9900012    2    1    2    0    0  0.39220455166E+02  0.39236032354E+01 -0.18165477611E+02  0.47787270253E+02  0.19999996391E+02 0.  0.
        -12    1    1    2    0    0 -0.39220455166E+02 -0.39236032354E+01  0.18165477611E+02  0.43400729747E+02  0.00000000000E+00 0.  1.
         11    1    3    3    0    0  0.14558454040E+02  0.67765368564E+01 -0.13046997641E+02  0.20690437006E+02  0.51100000000E-03 0. -1.
        -11    1    3    3    0    0  0.12506403033E+02  0.33385798367E+01 -0.30559147899E+01  0.13300182240E+02  0.51100000000E-03 0.  1.
        -12    1    3    3    0    0  0.12155598092E+02 -0.61915134577E+01 -0.20625651800E+01  0.13796651007E+02  0.00000000000E+00 0.  1.
</event>
<event>
 7    1  0.4083500E-009  0.4778727E+02  0.7816164E-02  0.1312668E+00
        -11   -1    0    0    0    0  0.00000000000E+00  0.00000000000E+00  0.45593999997E+02  0.45594000000E+02  0.51100000000E-03 0.  1.
         11   -1    0    0    0    0 -0.00000000000E+00 -0.00000000000E+00 -0.45593999997E+02  0.45594000000E+02  0.51100000000E-03 0. -1.
    9900012    2    1    2    0    0 -0.25098477743E+02  0.34082133466E+02 -0.95967587817E+01  0.47787272060E+02  0.20000004630E+02 0.  0.
        -12    1    1    2    0    0  0.25098477743E+02 -0.34082133466E+02  0.95967587817E+01  0.43400727940E+02  0.00000000000E+00 0.  1.
         11    1    3    3    0    0 -0.10369411841E+01  0.14083597610E+01 -0.14082532890E+01  0.22454179616E+01  0.51100000000E-03 0. -1.
        -11    1    3    3    0    0 -0.87498667458E+01  0.16517293728E+02 -0.13000548327E+02  0.22768298514E+02  0.51100000000E-03 0.  1.
         12    1    3    3    0    0 -0.15311669813E+02  0.16156479977E+02  0.48120428341E+01  0.22773555584E+02  0.00000000000E+00 0. -1.
</event>
<event>
 7    1  0.4083500E-009  0.4778727E+02  0.7816164E-02  0.1312668E+00
        -11   -1    0    0    0    0  0.00000000000E+00  0.00000000000E+00  0.45593999997E+02  0.45594000000E+02  0.51100000000E-03 0.  1.
         11   -1    0    0    0    0 -0.00000000000E+00 -0.00000000000E+00 -0.45593999997E+02  0.45594000000E+02  0.51100000000E-03 0. -1.
    9900012    2    1    2    0    0  0.26008427309E+02  0.28623959410E+02 -0.19694000114E+02  0.47787274385E+02  0.20000015231E+02 0.  0.
        -12    1    1    2    0    0 -0.26008427309E+02 -0.28623959410E+02  0.19694000114E+02  0.43400725615E+02  0.00000000000E+00 0.  1.
         11    1    3    3    0    0  0.75182793334E+01  0.10864529647E+02 -0.15733508169E+01  0.13305561305E+02  0.51100000000E-03 0. -1.
        -11    1    3    3    0    0  0.11151067551E+02  0.16029375033E+02 -0.64066884760E+01  0.20550737918E+02  0.51100000000E-03 0.  1.
         12    1    3    3    0    0  0.73390804249E+01  0.17300547303E+01 -0.11713960821E+02  0.13930975162E+02  0.00000000000E+00 0. -1.
</event>
<event>
 7    1  0.4083500E-009  0.4778727E+02  0.7816164E-02  0.1312668E+00
        -11   -1    0    0    0    0  0.00000000000E+00  0.00000000000E+00  0.45593999997E+02  0.45594000000E+02  0.51100000000E-03 0.  1.
         11   -1    0    0    0    0 -0.00000000000E+00 -0.00000000000E+00 -0.45593999997E+02  0.45594000000E+02  0.51100000000E-03 0. -1.
    9900012    2    1    2    0    0 -0.29319696046E+02  0.27716006509E+01 -0.31879409348E+02  0.47787273200E+02  0.20000009828E+02 0.  0.
        -12    1    1    2    0    0  0.29319696046E+02 -0.27716006509E+01  0.31879409348E+02  0.43400726800E+02  0.00000000000E+00 0.  1.
         11    1    3    3    0    0 -0.64992906653E+01  0.17266422417E+01 -0.19919746175E+02  0.21024232697E+02  0.51100000000E-03 0. -1.
        -11    1    3    3    0    0  0.44096913728E+00  0.37286789299E-01 -0.86492580040E+00  0.97156625404E+00  0.51100000000E-03 0.  1.
         12    1    3    3    0    0 -0.23261374518E+02  0.10076716200E+01 -0.11094737373E+02  0.25791474249E+02  0.00000000000E+00 0. -1.
</event>
<event>
 7    1  0.4083500E-009  0.4778727E+02  0.7816164E-02  0.1312668E+00
        -11   -1    0    0    0    0  0.00000000000E+00  0.00000000000E+00  0.45593999997E+02  0.45594000000E+02  0.51100000000E-03 0.  1.
         11   -1    0    0    0    0 -0.00000000000E+00 -0.00000000000E+00 -0.45593999997E+02  0.45594000000E+02  0.51100000000E-03 0. -1.
    9900012    2    1    2    0    0 -0.58323336570E+01 -0.96886704859E+01 -0.41901516870E+02  0.47787267660E+02  0.19999984567E+02 0.  0.
        -12    1    1    2    0    0  0.58323336570E+01  0.96886704859E+01  0.41901516870E+02  0.43400732340E+02  0.00000000000E+00 0.  1.
         11    1    3    3    0    0 -0.79279866352E+00 -0.41737827556E+01 -0.83152071655E+01  0.93376475988E+01  0.51100000000E-03 0. -1.
        -11    1    3    3    0    0 -0.10524417354E+02 -0.19234107214E+01 -0.27484313912E+02  0.29493226017E+02  0.51100000000E-03 0.  1.
        -12    1    3    3    0    0  0.54848823601E+01 -0.35914770090E+01 -0.61019957928E+01  0.89563940436E+01  0.00000000000E+00 0.  1.
</event>
<event>
 7    1  0.4083500E-009  0.4778727E+02  0.7816164E-02  0.1312668E+00
        -11   -1    0    0    0    0  0.00000000000E+00  0.00000000000E+00  0.45593999997E+02  0.45594000000E+02  0.51100000000E-03 0. -1.
         11   -1    0    0    0    0 -0.00000000000E+00 -0.00000000000E+00 -0.45593999997E+02  0.45594000000E+02  0.51100000000E-03 0.  1.
    9900012    2    1    2    0    0 -0.69132016029E+01  0.36443821434E+02  0.22531737257E+02  0.47787266586E+02  0.19999979670E+02 0.  0.
        -12    1    1    2    0    0  0.69132016029E+01 -0.36443821434E+02 -0.22531737257E+02  0.43400733414E+02  0.00000000000E+00 0.  1.
         11    1    3    3    0    0 -0.14379463282E+01  0.49564956853E+01  0.58292138162E+01  0.77855168805E+01  0.51100000000E-03 0. -1.
        -11    1    3    3    0    0  0.42248136257E+01  0.22261337264E+02  0.79751568790E+01  0.24021226332E+02  0.51100000000E-03 0.  1.
         12    1    3    3    0    0 -0.97000689004E+01  0.92259884841E+01  0.87273665620E+01  0.15980523373E+02  0.00000000000E+00 0. -1.
</event>
<event>
 7    1  0.4083500E-009  0.4778730E+02  0.7816164E-02  0.1312668E+00
        -11   -1    0    0    0    0  0.00000000000E+00  0.00000000000E+00  0.45593999997E+02  0.45594000000E+02  0.51100000000E-03 0.  1.
         11   -1    0    0    0    0 -0.00000000000E+00 -0.00000000000E+00 -0.45593999997E+02  0.45594000000E+02  0.51100000000E-03 0. -1.
    9900012    2    1    2    0    0 -0.99758151620E-01  0.14979318443E+02 -0.40733654693E+02  0.47787302340E+02  0.20000142688E+02 0.  0.
        -12    1    1    2    0    0  0.99758151620E-01 -0.14979318443E+02  0.40733654693E+02  0.43400697660E+02  0.00000000000E+00 0.  1.
         11    1    3    3    0    0 -0.26953430805E+01  0.48274707883E+01 -0.24149548969E+02  0.24774383225E+02  0.51100000000E-03 0. -1.
        -11    1    3    3    0    0  0.96006830308E+00 -0.26840378189E+01 -0.43804509353E+01  0.52262932197E+01  0.51100000000E-03 0.  1.
         12    1    3    3    0    0  0.16355166258E+01  0.12835885473E+02 -0.12203654789E+02  0.17786625895E+02  0.00000000000E+00 0. -1.
</event>
<event>
 7    1  0.4083500E-009  0.4778727E+02  0.7816164E-02  0.1312668E+00
        -11   -1    0    0    0    0  0.00000000000E+00  0.00000000000E+00  0.45593999997E+02  0.45594000000E+02  0.51100000000E-03 0.  1.
         11   -1    0    0    0    0 -0.00000000000E+00 -0.00000000000E+00 -0.45593999997E+02  0.45594000000E+02  0.51100000000E-03 0. -1.
    9900012    2    1    2    0    0  0.12610236644E+02  0.35246258765E+02  0.21961479011E+02  0.47787269758E+02  0.19999994136E+02 0.  0.
        -12    1    1    2    0    0 -0.12610236644E+02 -0.35246258765E+02 -0.21961479011E+02  0.43400730242E+02  0.00000000000E+00 0.  1.
         11    1    3    3    0    0  0.11866456290E+02  0.12928909579E+02  0.11775227529E+02  0.21133515358E+02  0.51100000000E-03 0. -1.
        -11    1    3    3    0    0  0.52380576449E+01  0.81093892373E+01  0.29978809598E+01  0.10108745333E+02  0.51100000000E-03 0.  1.
        -12    1    3    3    0    0 -0.44942772903E+01  0.14207959949E+02  0.71883705216E+01  0.16545009067E+02  0.00000000000E+00 0.  1.
</event>
<event>
 7    1  0.4083500E-009  0.4778728E+02  0.7816164E-02  0.1312668E+00
        -11   -1    0    0    0    0  0.00000000000E+00  0.00000000000E+00  0.45593999997E+02  0.45594000000E+02  0.51100000000E-03 0.  1.
         11   -1    0    0    0    0 -0.00000000000E+00 -0.00000000000E+00 -0.45593999997E+02  0.45594000000E+02  0.51100000000E-03 0. -1.
    9900012    2    1    2    0    0  0.10526776554E+02 -0.41266244491E+02 -0.83609974644E+01  0.47787282982E+02  0.20000054430E+02 0.  0.
        -12    1    1    2    0    0 -0.10526776554E+02  0.41266244491E+02  0.83609974644E+01  0.43400717018E+02  0.00000000000E+00 0.  1.
         11    1    3    3    0    0  0.42452861031E+01 -0.11411984347E+02 -0.21250753798E+01  0.12360088449E+02  0.51100000000E-03 0. -1.
        -11    1    3    3    0    0  0.24370983623E+01 -0.47354902612E+01  0.53057443358E+01  0.75176618479E+01  0.51100000000E-03 0.  1.
        -12    1    3    3    0    0  0.38443920885E+01 -0.25118769883E+02 -0.11541666420E+02  0.27909532685E+02  0.00000000000E+00 0.  1.
</event>
<event>
 7    1  0.4083500E-009  0.4778728E+02  0.7816164E-02  0.1312668E+00
        -11   -1    0    0    0    0  0.00000000000E+00  0.00000000000E+00  0.45593999997E+02  0.45594000000E+02  0.51100000000E-03 0.  1.
         11   -1    0    0    0    0 -0.00000000000E+00 -0.00000000000E+00 -0.45593999997E+02  0.45594000000E+02  0.51100000000E-03 0. -1.
    9900012    2    1    2    0    0  0.33123469093E+02 -0.15929356284E+02 -0.23080594268E+02  0.47787280788E+02  0.20000044423E+02 0.  0.
        -12    1    1    2    0    0 -0.33123469093E+02  0.15929356284E+02  0.23080594268E+02  0.43400719212E+02  0.00000000000E+00 0.  1.
         11    1    3    3    0    0  0.25781658780E+01  0.68498549915E+00  0.57603614102E+00  0.27290955142E+01  0.51100000000E-03 0. -1.
        -11    1    3    3    0    0  0.78260386225E+01  0.28120401315E+01 -0.36061762642E+01  0.90641578612E+01  0.51100000000E-03 0.  1.
         12    1    3    3    0    0  0.22719264593E+02 -0.19426381915E+02 -0.20050454144E+02  0.35994027412E+02  0.00000000000E+00 0. -1.
</event>
<event>
 7    1  0.4083500E-009  0.4778727E+02  0.7816164E-02  0.1312668E+00
        -11   -1    0    0    0    0  0.00000000000E+00  0.00000000000E+00  0.45593999997E+02  0.45594000000E+02  0.51100000000E-03 0. -1.
         11   -1    0    0    0    0 -0.00000000000E+00 -0.00000000000E+00 -0.45593999997E+02  0.45594000000E+02  0.51100000000E-03 0.  1.
    9900012    2    1    2    0    0 -0.17284543277E+02  0.52424750230E+01  0.39463709292E+02  0.47787270378E+02  0.19999996961E+02 0.  0.
        -12    1    1    2    0    0  0.17284543277E+02 -0.52424750230E+01 -0.39463709292E+02  0.43400729622E+02  0.00000000000E+00 0.  1.
         11    1    3    3    0    0 -0.14028338157E+02  0.78849196455E+01  0.25652891646E+02  0.30282620087E+02  0.51100000000E-03 0. -1.
        -11    1    3    3    0    0 -0.11022697445E+01  0.18171991457E+01 -0.64734677071E+00  0.22217716866E+01  0.51100000000E-03 0.  1.
         12    1    3    3    0    0 -0.21539353756E+01 -0.44596437682E+01  0.14458164417E+02  0.15282878605E+02  0.00000000000E+00 0. -1.
</event>
<event>
 7    1  0.4083500E-009  0.4778727E+02  0.7816164E-02  0.1312668E+00
        -11   -1    0    0    0    0  0.00000000000E+00  0.00000000000E+00  0.45593999997E+02  0.45594000000E+02  0.51100000000E-03 0. -1.
         11   -1    0    0    0    0 -0.00000000000E+00 -0.00000000000E+00 -0.45593999997E+02  0.45594000000E+02  0.51100000000E-03 0.  1.
    9900012    2    1    2    0    0 -0.15596809601E+02  0.38182404020E+01  0.40321007639E+02  0.47787273203E+02  0.20000009844E+02 0.  0.
        -12    1    1    2    0    0  0.15596809601E+02 -0.38182404020E+01 -0.40321007639E+02  0.43400726797E+02  0.00000000000E+00 0.  1.
         11    1    3    3    0    0 -0.15190496156E+01 -0.74370801899E+00  0.14471684877E+02  0.14570184515E+02  0.51100000000E-03 0. -1.
        -11    1    3    3    0    0 -0.12266104750E+02 -0.32836281095E+01  0.14118918455E+02  0.18989033622E+02  0.51100000000E-03 0.  1.
         12    1    3    3    0    0 -0.18116552349E+01  0.78455765305E+01  0.11730404306E+02  0.14228055066E+02  0.00000000000E+00 0. -1.
</event>
<event>
 7    1  0.4083500E-009  0.4778727E+02  0.7816164E-02  0.1312668E+00
        -11   -1    0    0    0    0  0.00000000000E+00  0.00000000000E+00  0.45593999997E+02  0.45594000000E+02  0.51100000000E-03 0. -1.
         11   -1    0    0    0    0 -0.00000000000E+00 -0.00000000000E+00 -0.45593999997E+02  0.45594000000E+02  0.51100000000E-03 0.  1.
    9900012    2    1    2    0    0  0.32805582838E+02  0.35304545900E+01  0.28194911465E+02  0.47787269506E+02  0.19999992983E+02 0.  0.
        -12    1    1    2    0    0 -0.32805582838E+02 -0.35304545900E+01 -0.28194911465E+02  0.43400730494E+02  0.00000000000E+00 0.  1.
         11    1    3    3    0    0  0.19183775479E+02  0.74815114463E+01  0.16056902761E+02  0.26111575626E+02  0.51100000000E-03 0. -1.
        -11    1    3    3    0    0  0.68885273074E+01  0.31120538741E+01  0.25036387317E+01  0.79627190670E+01  0.51100000000E-03 0.  1.
         12    1    3    3    0    0  0.67332800516E+01 -0.70631107304E+01  0.96343699718E+01  0.13712974812E+02  0.00000000000E+00 0. -1.
</event>
<event>
 7    1  0.4083500E-009  0.4778727E+02  0.7816164E-02  0.1312668E+00
        -11   -1    0    0    0    0  0.00000000000E+00  0.00000000000E+00  0.45593999997E+02  0.45594000000E+02  0.51100000000E-03 0.  1.
         11   -1    0    0    0    0 -0.00000000000E+00 -0.00000000000E+00 -0.45593999997E+02  0.45594000000E+02  0.51100000000E-03 0. -1.
    9900012    2    1    2    0    0 -0.15979047580E+02  0.38225397570E+02 -0.12927189773E+02  0.47787271706E+02  0.20000003018E+02 0.  0.
        -12    1    1    2    0    0  0.15979047580E+02 -0.38225397570E+02  0.12927189773E+02  0.43400728294E+02  0.00000000000E+00 0.  1.
         11    1    3    3    0    0  0.42217824487E+00  0.16316719395E+00 -0.29046473495E+01  0.29396997278E+01  0.51100000000E-03 0. -1.
        -11    1    3    3    0    0 -0.43888584573E+01  0.68332079323E+00 -0.73207457028E+00  0.45016596165E+01  0.51100000000E-03 0.  1.
         12    1    3    3    0    0 -0.12012367368E+02  0.37378909583E+02 -0.92904678531E+01  0.40345912362E+02  0.00000000000E+00 0. -1.
</event>
<event>
 7    1  0.4083500E-009  0.4778727E+02  0.7816164E-02  0.1312668E+00
        -11   -1    0    0    0    0  0.00000000000E+00  0.00000000000E+00  0.45593999997E+02  0.45594000000E+02  0.51100000000E-03 0.  1.
         11   -1    0    0    0    0 -0.00000000000E+00 -0.00000000000E+00 -0.45593999997E+02  0.45594000000E+02  0.51100000000E-03 0. -1.
    9900012    2    1    2    0    0 -0.37066872360E+02  0.13910104978E+02 -0.17781431768E+02  0.47787270020E+02  0.19999995331E+02 0.  0.
        -12    1    1    2    0    0  0.37066872360E+02 -0.13910104978E+02  0.17781431768E+02  0.43400729980E+02  0.00000000000E+00 0.  1.
         11    1    3    3    0    0 -0.22058533625E+01  0.30886396055E+00 -0.67694876542E+01  0.71265103216E+01  0.51100000000E-03 0. -1.
        -11    1    3    3    0    0 -0.30094473273E+00  0.10912428739E+01  0.14603102929E+01  0.18476701964E+01  0.51100000000E-03 0.  1.
         12    1    3    3    0    0 -0.34560074264E+02  0.12509998144E+02 -0.12472254407E+02  0.38813089502E+02  0.00000000000E+00 0. -1.
</event>
<event>
 7    1  0.4083500E-009  0.4778727E+02  0.7816164E-02  0.1312668E+00
        -11   -1    0    0    0    0  0.00000000000E+00  0.00000000000E+00  0.45593999997E+02  0.45594000000E+02  0.51100000000E-03 0. -1.
         11   -1    0    0    0    0 -0.00000000000E+00 -0.00000000000E+00 -0.45593999997E+02  0.45594000000E+02  0.51100000000E-03 0.  1.
    9900012    2    1    2    0    0  0.11622325984E+02 -0.37436236968E+02  0.18629896394E+02  0.47787270292E+02  0.19999996567E+02 0.  0.
        -12    1    1    2    0    0 -0.11622325984E+02  0.37436236968E+02 -0.18629896394E+02  0.43400729708E+02  0.00000000000E+00 0.  1.
         11    1    3    3    0    0 -0.63339399353E+00  0.27930886235E+00  0.79805206299E+00  0.10564510154E+01  0.51100000000E-03 0.  1.
        -11    1    3    3    0    0  0.12063620114E+02 -0.27840566495E+02  0.53434795014E+01  0.30808778724E+02  0.51100000000E-03 0. -1.
         12    1    3    3    0    0  0.19209986336E+00 -0.98749793350E+01  0.12488364830E+02  0.15922040552E+02  0.00000000000E+00 0. -1.
</event>
<event>
 7    1  0.4083500E-009  0.4778728E+02  0.7816164E-02  0.1312668E+00
        -11   -1    0    0    0    0  0.00000000000E+00  0.00000000000E+00  0.45593999997E+02  0.45594000000E+02  0.51100000000E-03 0. -1.
         11   -1    0    0    0    0 -0.00000000000E+00 -0.00000000000E+00 -0.45593999997E+02  0.45594000000E+02  0.51100000000E-03 0.  1.
    9900012    2    1    2    0    0 -0.11481725654E+02  0.99769445372E+01  0.40647918509E+02  0.47787277363E+02  0.20000028810E+02 0.  0.
        -12    1    1    2    0    0  0.11481725654E+02 -0.99769445372E+01 -0.40647918509E+02  0.43400722637E+02  0.00000000000E+00 0.  1.
         11    1    3    3    0    0 -0.21783162385E+01  0.99709655300E+01  0.20795816277E+02  0.23165301425E+02  0.51100000000E-03 0. -1.
        -11    1    3    3    0    0 -0.11272880801E+02 -0.10573027235E+01  0.19201608135E+02  0.22291197496E+02  0.51100000000E-03 0.  1.
         12    1    3    3    0    0  0.19694713850E+01  0.10632817307E+01  0.65049409724E+00  0.23307784421E+01  0.00000000000E+00 0. -1.
</event>
<event>
 7    1  0.4083500E-009  0.4778726E+02  0.7816164E-02  0.1312668E+00
        -11   -1    0    0    0    0  0.00000000000E+00  0.00000000000E+00  0.45593999997E+02  0.45594000000E+02  0.51100000000E-03 0. -1.
         11   -1    0    0    0    0 -0.00000000000E+00 -0.00000000000E+00 -0.45593999997E+02  0.45594000000E+02  0.51100000000E-03 0.  1.
    9900012    2    1    2    0    0 -0.32518331202E+02 -0.88829704992E+01  0.27336328076E+02  0.47787264272E+02  0.19999969123E+02 0.  0.
        -12    1    1    2    0    0  0.32518331202E+02  0.88829704992E+01 -0.27336328076E+02  0.43400735728E+02  0.00000000000E+00 0.  1.
         11    1    3    3    0    0 -0.11912217691E+02 -0.59083082073E+01  0.13836307790E+02  0.19189904890E+02  0.51100000000E-03 0. -1.
        -11    1    3    3    0    0 -0.18619265265E+02 -0.71917022486E+01  0.83086491032E+01  0.21620158890E+02  0.51100000000E-03 0.  1.
        -12    1    3    3    0    0 -0.19868482462E+01  0.42170399567E+01  0.51913711830E+01  0.69772004923E+01  0.00000000000E+00 0.  1.
</event>
<event>
 7    1  0.4083500E-009  0.4778728E+02  0.7816164E-02  0.1312668E+00
        -11   -1    0    0    0    0  0.00000000000E+00  0.00000000000E+00  0.45593999997E+02  0.45594000000E+02  0.51100000000E-03 0. -1.
         11   -1    0    0    0    0 -0.00000000000E+00 -0.00000000000E+00 -0.45593999997E+02  0.45594000000E+02  0.51100000000E-03 0.  1.
    9900012    2    1    2    0    0  0.29774438598E+02  0.25454454796E+02 -0.18686254914E+02  0.47787278975E+02  0.20000036157E+02 0.  0.
        -12    1    1    2    0    0 -0.29774438598E+02 -0.25454454796E+02  0.18686254914E+02  0.43400721025E+02  0.00000000000E+00 0.  1.
         11    1    3    3    0    0  0.21667106123E+01  0.54241678364E+01 -0.30840415295E+01  0.66051149885E+01  0.51100000000E-03 0.  1.
        -11    1    3    3    0    0  0.28706467151E+02  0.20191983588E+02 -0.11500709687E+02  0.36932963340E+02  0.51100000000E-03 0. -1.
         12    1    3    3    0    0 -0.10987391652E+01 -0.16169662796E+00 -0.41015036975E+01  0.42492006464E+01  0.00000000000E+00 0. -1.
</event>
<event>
 7    1  0.4083500E-009  0.4778728E+02  0.7816164E-02  0.1312668E+00
        -11   -1    0    0    0    0  0.00000000000E+00  0.00000000000E+00  0.45593999997E+02  0.45594000000E+02  0.51100000000E-03 0. -1.
         11   -1    0    0    0    0 -0.00000000000E+00 -0.00000000000E+00 -0.45593999997E+02  0.45594000000E+02  0.51100000000E-03 0.  1.
    9900012    2    1    2    0    0  0.41915642838E+01 -0.20954282361E+01  0.43146988620E+02  0.47787278144E+02  0.20000032370E+02 0.  0.
        -12    1    1    2    0    0 -0.41915642838E+01  0.20954282361E+01 -0.43146988620E+02  0.43400721856E+02  0.00000000000E+00 0.  1.
         11    1    3    3    0    0  0.64638134925E+01 -0.31792359973E+01  0.10736678736E+02  0.12929218729E+02  0.51100000000E-03 0. -1.
        -11    1    3    3    0    0  0.36416032211E+00 -0.53904871713E+01  0.18751535221E+02  0.19514354668E+02  0.51100000000E-03 0.  1.
        -12    1    3    3    0    0 -0.26364095309E+01  0.64742949325E+01  0.13658774663E+02  0.15343704748E+02  0.00000000000E+00 0.  1.
</event>
<event>
 7    1  0.4083500E-009  0.4778727E+02  0.7816164E-02  0.1312668E+00
        -11   -1    0    0    0    0  0.00000000000E+00  0.00000000000E+00  0.45593999997E+02  0.45594000000E+02  0.51100000000E-03 0. -1.
         11   -1    0    0    0    0 -0.00000000000E+00 -0.00000000000E+00 -0.45593999997E+02  0.45594000000E+02  0.51100000000E-03 0.  1.
    9900012    2    1    2    0    0 -0.34896037562E+02  0.13340631916E+02 -0.22088850433E+02  0.47787271771E+02  0.20000003311E+02 0.  0.
        -12    1    1    2    0    0  0.34896037562E+02 -0.13340631916E+02  0.22088850433E+02  0.43400728229E+02  0.00000000000E+00 0.  1.
         11    1    3    3    0    0 -0.17497966559E+02  0.10538310817E+02 -0.74443941256E+01  0.21740603320E+02  0.51100000000E-03 0. -1.
        -11    1    3    3    0    0 -0.19112417056E+02  0.11335667644E+01 -0.12920342991E+02  0.23097721156E+02  0.51100000000E-03 0.  1.
        -12    1    3    3    0    0  0.17143460533E+01  0.16687543346E+01 -0.17241133160E+01  0.29489472946E+01  0.00000000000E+00 0.  1.
</event>
<event>
 7    1  0.4083500E-009  0.4778727E+02  0.7816164E-02  0.1312668E+00
        -11   -1    0    0    0    0  0.00000000000E+00  0.00000000000E+00  0.45593999997E+02  0.45594000000E+02  0.51100000000E-03 0.  1.
         11   -1    0    0    0    0 -0.00000000000E+00 -0.00000000000E+00 -0.45593999997E+02  0.45594000000E+02  0.51100000000E-03 0. -1.
    9900012    2    1    2    0    0  0.59320909307E+01  0.21937672995E+02 -0.36975288568E+02  0.47787272311E+02  0.20000005774E+02 0.  0.
        -12    1    1    2    0    0 -0.59320909307E+01 -0.21937672995E+02  0.36975288568E+02  0.43400727689E+02  0.00000000000E+00 0.  1.
         11    1    3    3    0    0  0.10406088626E+02  0.18602928593E+02 -0.31971773719E+02  0.38425902041E+02  0.51100000000E-03 0. -1.
        -11    1    3    3    0    0  0.11884733833E+00 -0.12184805928E+01 -0.68399514292E-01  0.12261722552E+01  0.51100000000E-03 0.  1.
         12    1    3    3    0    0 -0.45928450335E+01  0.45532249954E+01 -0.49351153353E+01  0.81351980144E+01  0.00000000000E+00 0. -1.
</event>
<event>
 7    1  0.4083500E-009  0.4778723E+02  0.7816164E-02  0.1312668E+00
        -11   -1    0    0    0    0  0.00000000000E+00  0.00000000000E+00  0.45593999997E+02  0.45594000000E+02  0.51100000000E-03 0.  1.
         11   -1    0    0    0    0 -0.00000000000E+00 -0.00000000000E+00 -0.45593999997E+02  0.45594000000E+02  0.51100000000E-03 0. -1.
    9900012    2    1    2    0    0 -0.37548739828E+02  0.16070167848E+02 -0.14678839831E+02  0.47787233923E+02  0.19999830746E+02 0.  0.
        -12    1    1    2    0    0  0.37548739828E+02 -0.16070167848E+02  0.14678839831E+02  0.43400766077E+02  0.00000000000E+00 0.  1.
         11    1    3    3    0    0  0.17597906610E+01 -0.35344944923E+00 -0.49342133140E+00  0.18615194211E+01  0.51100000000E-03 0. -1.
        -11    1    3    3    0    0 -0.12116628017E+02  0.83920467229E+00 -0.20519918753E+01  0.12317776175E+02  0.51100000000E-03 0.  1.
         12    1    3    3    0    0 -0.27191902473E+02  0.15584412625E+02 -0.12133426624E+02  0.33607938327E+02  0.00000000000E+00 0. -1.
</event>
<event>
 7    1  0.4083500E-009  0.4778727E+02  0.7816164E-02  0.1312668E+00
        -11   -1    0    0    0    0  0.00000000000E+00  0.00000000000E+00  0.45593999997E+02  0.45594000000E+02  0.51100000000E-03 0.  1.
         11   -1    0    0    0    0 -0.00000000000E+00 -0.00000000000E+00 -0.45593999997E+02  0.45594000000E+02  0.51100000000E-03 0. -1.
    9900012    2    1    2    0    0 -0.20542641805E+02  0.28976357884E+02 -0.24939800351E+02  0.47787273161E+02  0.20000009652E+02 0.  0.
        -12    1    1    2    0    0  0.20542641805E+02 -0.28976357884E+02  0.24939800351E+02  0.43400726839E+02  0.00000000000E+00 0.  1.
         11    1    3    3    0    0 -0.26454363390E+01  0.20163590094E+01 -0.59251303215E+01  0.67949397839E+01  0.51100000000E-03 0. -1.
        -11    1    3    3    0    0 -0.64916149546E+01  0.99057207627E+01  0.15488762998E+01  0.11944177937E+02  0.51100000000E-03 0.  1.
         12    1    3    3    0    0 -0.11405590511E+02  0.17054278112E+02 -0.20563546329E+02  0.29048155440E+02  0.00000000000E+00 0. -1.
</event>
<event>
 7    1  0.4083500E-009  0.4778728E+02  0.7816164E-02  0.1312668E+00
        -11   -1    0    0    0    0  0.00000000000E+00  0.00000000000E+00  0.45593999997E+02  0.45594000000E+02  0.51100000000E-03 0.  1.
         11   -1    0    0    0    0 -0.00000000000E+00 -0.00000000000E+00 -0.45593999997E+02  0.45594000000E+02  0.51100000000E-03 0. -1.
    9900012    2    1    2    0    0  0.30757189997E+02  0.22774103070E+02 -0.20468468460E+02  0.47787277561E+02  0.20000029712E+02 0.  0.
        -12    1    1    2    0    0 -0.30757189997E+02 -0.22774103070E+02  0.20468468460E+02  0.43400722439E+02  0.00000000000E+00 0.  1.
         11    1    3    3    0    0  0.74597186600E+01  0.73727045997E+01 -0.77500314606E+01  0.13040980159E+02  0.51100000000E-03 0. -1.
        -11    1    3    3    0    0  0.16395670428E+02  0.13028983793E+02 -0.10311677728E+01  0.20967492332E+02  0.51100000000E-03 0.  1.
        -12    1    3    3    0    0  0.69018009084E+01  0.23724146771E+01 -0.11687269226E+02  0.13778805070E+02  0.00000000000E+00 0.  1.
</event>
<event>
 7    1  0.4083500E-009  0.4778727E+02  0.7816164E-02  0.1312668E+00
        -11   -1    0    0    0    0  0.00000000000E+00  0.00000000000E+00  0.45593999997E+02  0.45594000000E+02  0.51100000000E-03 0.  1.
         11   -1    0    0    0    0 -0.00000000000E+00 -0.00000000000E+00 -0.45593999997E+02  0.45594000000E+02  0.51100000000E-03 0. -1.
    9900012    2    1    2    0    0  0.20668103561E+02  0.35672202404E+02  0.13562693582E+02  0.47787272052E+02  0.20000004596E+02 0.  0.
        -12    1    1    2    0    0 -0.20668103561E+02 -0.35672202404E+02 -0.13562693582E+02  0.43400727948E+02  0.00000000000E+00 0.  1.
         11    1    3    3    0    0  0.10192966923E+02  0.16247189692E+02  0.76011080787E+01  0.20631155854E+02  0.51100000000E-03 0. -1.
        -11    1    3    3    0    0  0.47139872120E+01  0.35463433601E+01  0.82164680036E+01  0.10114770061E+02  0.51100000000E-03 0.  1.
         12    1    3    3    0    0  0.57611494256E+01  0.15878669352E+02 -0.22548825006E+01  0.17041346138E+02  0.00000000000E+00 0. -1.
</event>
<event>
 7    1  0.4083500E-009  0.4778727E+02  0.7816164E-02  0.1312668E+00
        -11   -1    0    0    0    0  0.00000000000E+00  0.00000000000E+00  0.45593999997E+02  0.45594000000E+02  0.51100000000E-03 0.  1.
         11   -1    0    0    0    0 -0.00000000000E+00 -0.00000000000E+00 -0.45593999997E+02  0.45594000000E+02  0.51100000000E-03 0. -1.
    9900012    2    1    2    0    0 -0.36922239030E+02 -0.18006056645E+02 -0.14005488023E+02  0.47787268374E+02  0.19999987827E+02 0.  0.
        -12    1    1    2    0    0  0.36922239030E+02  0.18006056645E+02  0.14005488023E+02  0.43400731626E+02  0.00000000000E+00 0.  1.
         11    1    3    3    0    0 -0.99062503592E+01 -0.80732119296E+01 -0.32172464800E+01  0.13178058363E+02  0.51100000000E-03 0. -1.
        -11    1    3    3    0    0 -0.68606239647E+01  0.90060384151E+00  0.33745412375E+01  0.76984918841E+01  0.51100000000E-03 0.  1.
        -12    1    3    3    0    0 -0.20155364706E+02 -0.10833448557E+02 -0.14162782780E+02  0.26910718128E+02  0.00000000000E+00 0.  1.
</event>
<event>
 7    1  0.4083500E-009  0.4778727E+02  0.7816164E-02  0.1312668E+00
        -11   -1    0    0    0    0  0.00000000000E+00  0.00000000000E+00  0.45593999997E+02  0.45594000000E+02  0.51100000000E-03 0.  1.
         11   -1    0    0    0    0 -0.00000000000E+00 -0.00000000000E+00 -0.45593999997E+02  0.45594000000E+02  0.51100000000E-03 0. -1.
    9900012    2    1    2    0    0 -0.14349904301E+02 -0.99372916800E+01 -0.39736048853E+02  0.47787273072E+02  0.20000009247E+02 0.  0.
        -12    1    1    2    0    0  0.14349904301E+02  0.99372916800E+01  0.39736048853E+02  0.43400726928E+02  0.00000000000E+00 0.  1.
         11    1    3    3    0    0 -0.13684552160E+00 -0.41111941954E+01 -0.74360757920E+01  0.84979919895E+01  0.51100000000E-03 0. -1.
        -11    1    3    3    0    0 -0.13428450922E+02 -0.15956228141E+01 -0.32267455093E+02  0.34986539765E+02  0.51100000000E-03 0.  1.
        -12    1    3    3    0    0 -0.78460785686E+00 -0.42304746705E+01 -0.32517968472E-01  0.43027413175E+01  0.00000000000E+00 0.  1.
</event>
<event>
 7    1  0.4083500E-009  0.4778727E+02  0.7816164E-02  0.1312668E+00
        -11   -1    0    0    0    0  0.00000000000E+00  0.00000000000E+00  0.45593999997E+02  0.45594000000E+02  0.51100000000E-03 0.  1.
         11   -1    0    0    0    0 -0.00000000000E+00 -0.00000000000E+00 -0.45593999997E+02  0.45594000000E+02  0.51100000000E-03 0. -1.
    9900012    2    1    2    0    0  0.40069759718E+02 -0.86885418279E+01 -0.14231906122E+02  0.47787267808E+02  0.19999985245E+02 0.  0.
        -12    1    1    2    0    0 -0.40069759718E+02  0.86885418279E+01  0.14231906122E+02  0.43400732192E+02  0.00000000000E+00 0.  1.
         11    1    3    3    0    0  0.14154480416E+02 -0.51102821885E+01 -0.10742406623E+02  0.18489553813E+02  0.51100000000E-03 0. -1.
        -11    1    3    3    0    0  0.91214814352E+01  0.23709650766E+01 -0.61931443135E+01  0.11277319527E+02  0.51100000000E-03 0.  1.
        -12    1    3    3    0    0  0.16793797867E+02 -0.59492247160E+01  0.27036448143E+01  0.18020394468E+02  0.00000000000E+00 0.  1.
</event>
<event>
 7    1  0.4083500E-009  0.4778726E+02  0.7816164E-02  0.1312668E+00
        -11   -1    0    0    0    0  0.00000000000E+00  0.00000000000E+00  0.45593999997E+02  0.45594000000E+02  0.51100000000E-03 0. -1.
         11   -1    0    0    0    0 -0.00000000000E+00 -0.00000000000E+00 -0.45593999997E+02  0.45594000000E+02  0.51100000000E-03 0.  1.
    9900012    2    1    2    0    0  0.12546395251E+02  0.41474578664E+02 -0.24639749737E+01  0.47787264040E+02  0.19999968066E+02 0.  0.
        -12    1    1    2    0    0 -0.12546395251E+02 -0.41474578664E+02  0.24639749737E+01  0.43400735960E+02  0.00000000000E+00 0.  1.
         11    1    3    3    0    0  0.33172684243E+01  0.23994104050E+01  0.95933066435E+00  0.42049679755E+01  0.51100000000E-03 0. -1.
        -11    1    3    3    0    0  0.44815835865E+00  0.15422869651E+02  0.61327585385E+01  0.16603508115E+02  0.51100000000E-03 0.  1.
         12    1    3    3    0    0  0.87809684679E+01  0.23652298608E+02 -0.95560641766E+01  0.26978787950E+02  0.00000000000E+00 0. -1.
</event>
<event>
 7    1  0.4083500E-009  0.4778727E+02  0.7816164E-02  0.1312668E+00
        -11   -1    0    0    0    0  0.00000000000E+00  0.00000000000E+00  0.45593999997E+02  0.45594000000E+02  0.51100000000E-03 0. -1.
         11   -1    0    0    0    0 -0.00000000000E+00 -0.00000000000E+00 -0.45593999997E+02  0.45594000000E+02  0.51100000000E-03 0.  1.
    9900012    2    1    2    0    0 -0.18167661179E+02 -0.38853225161E+01  0.39223259446E+02  0.47787265843E+02  0.19999976285E+02 0.  0.
        -12    1    1    2    0    0  0.18167661179E+02  0.38853225161E+01 -0.39223259446E+02  0.43400734157E+02  0.00000000000E+00 0.  1.
         11    1    3    3    0    0 -0.10604229753E+02 -0.56661708247E+01  0.19545227753E+02  0.22947137265E+02  0.51100000000E-03 0. -1.
        -11    1    3    3    0    0 -0.76556381695E+01  0.52058294523E+01  0.67278147313E+01  0.11444341282E+02  0.51100000000E-03 0.  1.
         12    1    3    3    0    0  0.92206743785E-01 -0.34249811437E+01  0.12950216962E+02  0.13395787296E+02  0.00000000000E+00 0. -1.
</event>
<event>
 7    1  0.4083500E-009  0.4778726E+02  0.7816164E-02  0.1312668E+00
        -11   -1    0    0    0    0  0.00000000000E+00  0.00000000000E+00  0.45593999997E+02  0.45594000000E+02  0.51100000000E-03 0.  1.
         11   -1    0    0    0    0 -0.00000000000E+00 -0.00000000000E+00 -0.45593999997E+02  0.45594000000E+02  0.51100000000E-03 0. -1.
    9900012    2    1    2    0    0 -0.19150919450E+02 -0.57907507702E+01 -0.38514067228E+02  0.47787264007E+02  0.19999967914E+02 0.  0.
        -12    1    1    2    0    0  0.19150919450E+02  0.57907507702E+01  0.38514067228E+02  0.43400735993E+02  0.00000000000E+00 0.  1.
         11    1    3    3    0    0 -0.94056776927E+00 -0.11776423950E+01  0.35743366827E-01  0.15075765946E+01  0.51100000000E-03 0.  1.
        -11    1    3    3    0    0 -0.12858791961E+01 -0.48677666096E+01 -0.10588921818E+01  0.51448896962E+01  0.51100000000E-03 0. -1.
         12    1    3    3    0    0 -0.16924472484E+02  0.25465823431E+00 -0.37490918413E+02  0.41134797716E+02  0.00000000000E+00 0. -1.
</event>
<event>
 7    1  0.4083500E-009  0.4778727E+02  0.7816164E-02  0.1312668E+00
        -11   -1    0    0    0    0  0.00000000000E+00  0.00000000000E+00  0.45593999997E+02  0.45594000000E+02  0.51100000000E-03 0. -1.
         11   -1    0    0    0    0 -0.00000000000E+00 -0.00000000000E+00 -0.45593999997E+02  0.45594000000E+02  0.51100000000E-03 0.  1.
    9900012    2    1    2    0    0 -0.14452006195E+02 -0.38978202305E+02 -0.12468460347E+02  0.47787271419E+02  0.20000001707E+02 0.  0.
        -12    1    1    2    0    0  0.14452006195E+02  0.38978202305E+02  0.12468460347E+02  0.43400728581E+02  0.00000000000E+00 0.  1.
         11    1    3    3    0    0 -0.15898443488E+02 -0.21361775086E+02 -0.85633314613E+01  0.27971710462E+02  0.51100000000E-03 0. -1.
        -11    1    3    3    0    0 -0.16498692426E+01 -0.99605953395E+00  0.10543930742E+01  0.21968040716E+01  0.51100000000E-03 0.  1.
         12    1    3    3    0    0  0.30963065353E+01 -0.16620367684E+02 -0.49595219600E+01  0.17618756885E+02  0.00000000000E+00 0. -1.
</event>
<event>
 7    1  0.4083500E-009  0.4778726E+02  0.7816164E-02  0.1312668E+00
        -11   -1    0    0    0    0  0.00000000000E+00  0.00000000000E+00  0.45593999997E+02  0.45594000000E+02  0.51100000000E-03 0. -1.
         11   -1    0    0    0    0 -0.00000000000E+00 -0.00000000000E+00 -0.45593999997E+02  0.45594000000E+02  0.51100000000E-03 0.  1.
    9900012    2    1    2    0    0 -0.31581391594E+01  0.36309469361E+02  0.23564224629E+02  0.47787261636E+02  0.19999957102E+02 0.  0.
        -12    1    1    2    0    0  0.31581391594E+01 -0.36309469361E+02 -0.23564224629E+02  0.43400738364E+02  0.00000000000E+00 0.  1.
         11    1    3    3    0    0 -0.56042993873E+01  0.51693004670E+01  0.87546933065E+01  0.11609241754E+02  0.51100000000E-03 0. -1.
        -11    1    3    3    0    0  0.30099599034E+01  0.57444210163E+01  0.71351980640E+01  0.96420580327E+01  0.51100000000E-03 0.  1.
         12    1    3    3    0    0 -0.56379967548E+00  0.25395747877E+02  0.76743332581E+01  0.26535961850E+02  0.00000000000E+00 0. -1.
</event>
<event>
 7    1  0.4083500E-009  0.4778727E+02  0.7816164E-02  0.1312668E+00
        -11   -1    0    0    0    0  0.00000000000E+00  0.00000000000E+00  0.45593999997E+02  0.45594000000E+02  0.51100000000E-03 0.  1.
         11   -1    0    0    0    0 -0.00000000000E+00 -0.00000000000E+00 -0.45593999997E+02  0.45594000000E+02  0.51100000000E-03 0. -1.
    9900012    2    1    2    0    0  0.33088361592E+02  0.88152336930E+01 -0.26665996268E+02  0.47787269881E+02  0.19999994697E+02 0.  0.
        -12    1    1    2    0    0 -0.33088361592E+02 -0.88152336930E+01  0.26665996268E+02  0.43400730119E+02  0.00000000000E+00 0.  1.
         11    1    3    3    0    0  0.17807574008E+02  0.13070965014E+01 -0.18564185754E+02  0.25757468553E+02  0.51100000000E-03 0.  1.
        -11    1    3    3    0    0  0.11235607801E+02  0.71464830243E+01 -0.10807507802E+02  0.17149732576E+02  0.51100000000E-03 0. -1.
         12    1    3    3    0    0  0.40451797832E+01  0.36165416728E+00  0.27056972879E+01  0.48800687525E+01  0.00000000000E+00 0. -1.
</event>
<event>
 7    1  0.4083500E-009  0.4778727E+02  0.7816164E-02  0.1312668E+00
        -11   -1    0    0    0    0  0.00000000000E+00  0.00000000000E+00  0.45593999997E+02  0.45594000000E+02  0.51100000000E-03 0.  1.
         11   -1    0    0    0    0 -0.00000000000E+00 -0.00000000000E+00 -0.45593999997E+02  0.45594000000E+02  0.51100000000E-03 0. -1.
    9900012    2    1    2    0    0  0.18053269104E+02 -0.35773275038E+02 -0.16672603757E+02  0.47787269034E+02  0.19999990835E+02 0.  0.
        -12    1    1    2    0    0 -0.18053269104E+02  0.35773275038E+02  0.16672603757E+02  0.43400730966E+02  0.00000000000E+00 0.  1.
         11    1    3    3    0    0  0.49553316715E+01 -0.76742960243E+01 -0.89083522190E+01  0.12759657948E+02  0.51100000000E-03 0. -1.
        -11    1    3    3    0    0  0.15014231260E+02 -0.17310912265E+02 -0.73424574884E+01  0.24062554021E+02  0.51100000000E-03 0.  1.
        -12    1    3    3    0    0 -0.19162938276E+01 -0.10788066749E+02 -0.42179404943E+00  0.10965057065E+02  0.00000000000E+00 0.  1.
</event>
<event>
 7    1  0.4083500E-009  0.4778727E+02  0.7816164E-02  0.1312668E+00
        -11   -1    0    0    0    0  0.00000000000E+00  0.00000000000E+00  0.45593999997E+02  0.45594000000E+02  0.51100000000E-03 0.  1.
         11   -1    0    0    0    0 -0.00000000000E+00 -0.00000000000E+00 -0.45593999997E+02  0.45594000000E+02  0.51100000000E-03 0. -1.
    9900012    2    1    2    0    0  0.17218522969E+02 -0.29034612141E+02 -0.27278876279E+02  0.47787270438E+02  0.19999997237E+02 0.  0.
        -12    1    1    2    0    0 -0.17218522969E+02  0.29034612141E+02  0.27278876279E+02  0.43400729562E+02  0.00000000000E+00 0.  1.
         11    1    3    3    0    0  0.50064106213E+01 -0.52006727072E+01 -0.40495966864E+01  0.82770995826E+01  0.51100000000E-03 0. -1.
        -11    1    3    3    0    0  0.55493420123E+01 -0.50557894932E+01  0.15988823904E+01  0.76754562945E+01  0.51100000000E-03 0.  1.
         12    1    3    3    0    0  0.66627703359E+01 -0.18778149941E+02 -0.24828161983E+02  0.31834714561E+02  0.00000000000E+00 0. -1.
</event>
<event>
 7    1  0.4083500E-009  0.4778727E+02  0.7816164E-02  0.1312668E+00
        -11   -1    0    0    0    0  0.00000000000E+00  0.00000000000E+00  0.45593999997E+02  0.45594000000E+02  0.51100000000E-03 0.  1.
         11   -1    0    0    0    0 -0.00000000000E+00 -0.00000000000E+00 -0.45593999997E+02  0.45594000000E+02  0.51100000000E-03 0. -1.
    9900012    2    1    2    0    0  0.12815631055E+02  0.10285560801E+02 -0.40169515904E+02  0.47787272261E+02  0.20000005545E+02 0.  0.
        -12    1    1    2    0    0 -0.12815631055E+02 -0.10285560801E+02  0.40169515904E+02  0.43400727739E+02  0.00000000000E+00 0.  1.
         11    1    3    3    0    0  0.44332727240E+01  0.24891388193E+01 -0.31980833833E+02  0.32382455929E+02  0.51100000000E-03 0. -1.
        -11    1    3    3    0    0  0.13115574322E+01 -0.10653188372E+01 -0.13695546455E+01  0.21750327149E+01  0.51100000000E-03 0.  1.
         12    1    3    3    0    0  0.70708008992E+01  0.88617408187E+01 -0.68191274259E+01  0.13229783617E+02  0.00000000000E+00 0. -1.
</event>
<event>
 7    1  0.4083500E-009  0.4778727E+02  0.7816164E-02  0.1312668E+00
        -11   -1    0    0    0    0  0.00000000000E+00  0.00000000000E+00  0.45593999997E+02  0.45594000000E+02  0.51100000000E-03 0.  1.
         11   -1    0    0    0    0 -0.00000000000E+00 -0.00000000000E+00 -0.45593999997E+02  0.45594000000E+02  0.51100000000E-03 0. -1.
    9900012    2    1    2    0    0 -0.34462155466E+01  0.36784025265E+02 -0.22774595613E+02  0.47787272798E+02  0.20000007996E+02 0.  0.
        -12    1    1    2    0    0  0.34462155466E+01 -0.36784025265E+02  0.22774595613E+02  0.43400727202E+02  0.00000000000E+00 0.  1.
         11    1    3    3    0    0 -0.34489626535E+00  0.57480119373E+01 -0.10713703790E+02  0.12163142844E+02  0.51100000000E-03 0. -1.
        -11    1    3    3    0    0  0.20777626882E+00  0.23685022752E+02 -0.13749876157E+02  0.27387635318E+02  0.51100000000E-03 0.  1.
        -12    1    3    3    0    0 -0.33090955501E+01  0.73509905763E+01  0.16889843342E+01  0.82364946363E+01  0.00000000000E+00 0.  1.
</event>
<event>
 7    1  0.4083500E-009  0.4778727E+02  0.7816164E-02  0.1312668E+00
        -11   -1    0    0    0    0  0.00000000000E+00  0.00000000000E+00  0.45593999997E+02  0.45594000000E+02  0.51100000000E-03 0. -1.
         11   -1    0    0    0    0 -0.00000000000E+00 -0.00000000000E+00 -0.45593999997E+02  0.45594000000E+02  0.51100000000E-03 0.  1.
    9900012    2    1    2    0    0  0.43334041510E+02 -0.19622142271E+01  0.13907721216E+01  0.47787266304E+02  0.19999978385E+02 0.  0.
        -12    1    1    2    0    0 -0.43334041510E+02  0.19622142271E+01 -0.13907721216E+01  0.43400733696E+02  0.00000000000E+00 0.  1.
         11    1    3    3    0    0  0.15107668754E+02  0.40434877044E+00 -0.24773125701E-01  0.15113099188E+02  0.51100000000E-03 0. -1.
        -11    1    3    3    0    0  0.28661837118E+02 -0.15861086252E+01 -0.23521759462E+01  0.28801898887E+02  0.51100000000E-03 0.  1.
        -12    1    3    3    0    0 -0.43546436220E+00 -0.78045437232E+00  0.37677211935E+01  0.38722682281E+01  0.00000000000E+00 0.  1.
</event>
<event>
 7    1  0.4083500E-009  0.4778727E+02  0.7816164E-02  0.1312668E+00
        -11   -1    0    0    0    0  0.00000000000E+00  0.00000000000E+00  0.45593999997E+02  0.45594000000E+02  0.51100000000E-03 0.  1.
         11   -1    0    0    0    0 -0.00000000000E+00 -0.00000000000E+00 -0.45593999997E+02  0.45594000000E+02  0.51100000000E-03 0. -1.
    9900012    2    1    2    0    0 -0.90716412819E+01 -0.23846431280E+02 -0.35109489734E+02  0.47787271553E+02  0.20000002320E+02 0.  0.
        -12    1    1    2    0    0  0.90716412819E+01  0.23846431280E+02  0.35109489734E+02  0.43400728447E+02  0.00000000000E+00 0.  1.
         11    1    3    3    0    0 -0.12546347935E+01 -0.11873671660E+02 -0.14147408457E+02  0.18512356778E+02  0.51100000000E-03 0. -1.
        -11    1    3    3    0    0 -0.54375929810E+01 -0.14949627365E+02 -0.13370575106E+02  0.20780545102E+02  0.51100000000E-03 0.  1.
        -12    1    3    3    0    0 -0.23794135074E+01  0.29768677457E+01 -0.75915061705E+01  0.84943696736E+01  0.00000000000E+00 0.  1.
</event>
<event>
 7    1  0.4083500E-009  0.4778727E+02  0.7816164E-02  0.1312668E+00
        -11   -1    0    0    0    0  0.00000000000E+00  0.00000000000E+00  0.45593999997E+02  0.45594000000E+02  0.51100000000E-03 0.  1.
         11   -1    0    0    0    0 -0.00000000000E+00 -0.00000000000E+00 -0.45593999997E+02  0.45594000000E+02  0.51100000000E-03 0. -1.
    9900012    2    1    2    0    0  0.31209271494E+02  0.21685495911E+02 -0.20960533847E+02  0.47787270291E+02  0.19999996566E+02 0.  0.
        -12    1    1    2    0    0 -0.31209271494E+02 -0.21685495911E+02  0.20960533847E+02  0.43400729709E+02  0.00000000000E+00 0.  1.
         11    1    3    3    0    0  0.58012062815E+00  0.49596603347E+01 -0.68698797739E+01  0.84929393585E+01  0.51100000000E-03 0. -1.
        -11    1    3    3    0    0  0.25517306358E+01 -0.45809505854E+00  0.13629074279E+01  0.29289413170E+01  0.51100000000E-03 0.  1.
         12    1    3    3    0    0  0.28077420230E+02  0.17183930635E+02 -0.15453561501E+02  0.36365389616E+02  0.00000000000E+00 0. -1.
</event>
<event>
 7    1  0.4083500E-009  0.4778728E+02  0.7816164E-02  0.1312668E+00
        -11   -1    0    0    0    0  0.00000000000E+00  0.00000000000E+00  0.45593999997E+02  0.45594000000E+02  0.51100000000E-03 0. -1.
         11   -1    0    0    0    0 -0.00000000000E+00 -0.00000000000E+00 -0.45593999997E+02  0.45594000000E+02  0.51100000000E-03 0.  1.
    9900012    2    1    2    0    0  0.29971991701E+02  0.28316955908E+02  0.13544467458E+02  0.47787275615E+02  0.20000020841E+02 0.  0.
        -12    1    1    2    0    0 -0.29971991701E+02 -0.28316955908E+02 -0.13544467458E+02  0.43400724385E+02  0.00000000000E+00 0.  1.
         11    1    3    3    0    0  0.14441492001E+02  0.14686214963E+02  0.99844980985E+01  0.22889556651E+02  0.51100000000E-03 0. -1.
        -11    1    3    3    0    0  0.11759938991E+02  0.14887642596E+02 -0.81169253009E+00  0.18989389463E+02  0.51100000000E-03 0.  1.
         12    1    3    3    0    0  0.37705607083E+01 -0.12569016512E+01  0.43716618899E+01  0.59083295013E+01  0.00000000000E+00 0. -1.
</event>
<event>
 7    1  0.4083500E-009  0.4778727E+02  0.7816164E-02  0.1312668E+00
        -11   -1    0    0    0    0  0.00000000000E+00  0.00000000000E+00  0.45593999997E+02  0.45594000000E+02  0.51100000000E-03 0.  1.
         11   -1    0    0    0    0 -0.00000000000E+00 -0.00000000000E+00 -0.45593999997E+02  0.45594000000E+02  0.51100000000E-03 0. -1.
    9900012    2    1    2    0    0 -0.42630191193E+00 -0.28431721121E+02 -0.32788389429E+02  0.47787274424E+02  0.20000015407E+02 0.  0.
        -12    1    1    2    0    0  0.42630191193E+00  0.28431721121E+02  0.32788389429E+02  0.43400725576E+02  0.00000000000E+00 0.  1.
         11    1    3    3    0    0  0.26980512237E+01 -0.57853014654E+01 -0.17549920300E+01  0.66203618284E+01  0.51100000000E-03 0. -1.
        -11    1    3    3    0    0  0.50926765957E+01 -0.14168687770E+02 -0.14973553952E+02  0.21234273857E+02  0.51100000000E-03 0.  1.
         12    1    3    3    0    0 -0.82170297313E+01 -0.84777318857E+01 -0.16059843447E+02  0.19932638738E+02  0.00000000000E+00 0. -1.
</event>
<event>
 7    1  0.4083500E-009  0.4778727E+02  0.7816164E-02  0.1312668E+00
        -11   -1    0    0    0    0  0.00000000000E+00  0.00000000000E+00  0.45593999997E+02  0.45594000000E+02  0.51100000000E-03 0.  1.
         11   -1    0    0    0    0 -0.00000000000E+00 -0.00000000000E+00 -0.45593999997E+02  0.45594000000E+02  0.51100000000E-03 0. -1.
    9900012    2    1    2    0    0  0.36924175402E+02 -0.15018338301E+02 -0.17166203310E+02  0.47787265554E+02  0.19999974965E+02 0.  0.
        -12    1    1    2    0    0 -0.36924175402E+02  0.15018338301E+02  0.17166203310E+02  0.43400734446E+02  0.00000000000E+00 0.  1.
         11    1    3    3    0    0  0.21018297975E+02 -0.88121452382E+01 -0.15734498550E+02  0.27694714267E+02  0.51100000000E-03 0. -1.
        -11    1    3    3    0    0  0.52071371084E+01 -0.63201506011E+01 -0.39635694967E+01  0.90977175106E+01  0.51100000000E-03 0.  1.
        -12    1    3    3    0    0  0.10698740318E+02  0.11395753845E+00  0.25318647362E+01  0.10994833776E+02  0.00000000000E+00 0.  1.
</event>
<event>
 7    1  0.4083500E-009  0.4778727E+02  0.7816164E-02  0.1312668E+00
        -11   -1    0    0    0    0  0.00000000000E+00  0.00000000000E+00  0.45593999997E+02  0.45594000000E+02  0.51100000000E-03 0.  1.
         11   -1    0    0    0    0 -0.00000000000E+00 -0.00000000000E+00 -0.45593999997E+02  0.45594000000E+02  0.51100000000E-03 0. -1.
    9900012    2    1    2    0    0  0.22192580892E+02  0.85043014251E+01 -0.36315143257E+02  0.47787269371E+02  0.19999992370E+02 0.  0.
        -12    1    1    2    0    0 -0.22192580892E+02 -0.85043014251E+01  0.36315143257E+02  0.43400730629E+02  0.00000000000E+00 0.  1.
         11    1    3    3    0    0  0.11737388490E+02  0.15083908745E+01 -0.12074364562E+02  0.16906561195E+02  0.51100000000E-03 0. -1.
        -11    1    3    3    0    0  0.83372420477E+01 -0.42821663041E+00 -0.40792354387E+01  0.92915626495E+01  0.51100000000E-03 0.  1.
        -12    1    3    3    0    0  0.21179503541E+01  0.74241271810E+01 -0.20161543256E+02  0.21589145527E+02  0.00000000000E+00 0.  1.
</event>
<event>
 7    1  0.4083500E-009  0.4778730E+02  0.7816164E-02  0.1312668E+00
        -11   -1    0    0    0    0  0.00000000000E+00  0.00000000000E+00  0.45593999997E+02  0.45594000000E+02  0.51100000000E-03 0.  1.
         11   -1    0    0    0    0 -0.00000000000E+00 -0.00000000000E+00 -0.45593999997E+02  0.45594000000E+02  0.51100000000E-03 0. -1.
    9900012    2    1    2    0    0 -0.29900853395E+02 -0.59836043338E+01 -0.30882941816E+02  0.47787301275E+02  0.20000137835E+02 0.  0.
        -12    1    1    2    0    0  0.29900853395E+02  0.59836043338E+01  0.30882941816E+02  0.43400698725E+02  0.00000000000E+00 0.  1.
         11    1    3    3    0    0 -0.18514952895E+02 -0.96697594125E+01 -0.10041766151E+02  0.23176384435E+02  0.51100000000E-03 0. -1.
        -11    1    3    3    0    0  0.23328753634E+00  0.22472783991E+00 -0.31353768966E+01  0.31520650726E+01  0.51100000000E-03 0.  1.
         12    1    3    3    0    0 -0.11619188036E+02  0.34614272388E+01 -0.17705798769E+02  0.21458851768E+02  0.00000000000E+00 0. -1.
</event>
<event>
 7    1  0.4083500E-009  0.4778728E+02  0.7816164E-02  0.1312668E+00
        -11   -1    0    0    0    0  0.00000000000E+00  0.00000000000E+00  0.45593999997E+02  0.45594000000E+02  0.51100000000E-03 0.  1.
         11   -1    0    0    0    0 -0.00000000000E+00 -0.00000000000E+00 -0.45593999997E+02  0.45594000000E+02  0.51100000000E-03 0. -1.
    9900012    2    1    2    0    0  0.17639666558E+02  0.37511609897E+02 -0.12858613703E+02  0.47787278120E+02  0.20000032259E+02 0.  0.
        -12    1    1    2    0    0 -0.17639666558E+02 -0.37511609897E+02  0.12858613703E+02  0.43400721880E+02  0.00000000000E+00 0.  1.
         11    1    3    3    0    0  0.33732106958E+01 -0.58377623419E+00  0.10004791342E+01  0.35665534973E+01  0.51100000000E-03 0.  1.
        -11    1    3    3    0    0  0.81414298091E+01  0.10366828917E+02 -0.73310544409E+01  0.15083049446E+02  0.51100000000E-03 0. -1.
        -12    1    3    3    0    0  0.61250260530E+01  0.27728557215E+02 -0.65280383962E+01  0.29137675176E+02  0.00000000000E+00 0.  1.
</event>
<event>
 7    1  0.4083500E-009  0.4778730E+02  0.7816164E-02  0.1312668E+00
        -11   -1    0    0    0    0  0.00000000000E+00  0.00000000000E+00  0.45593999997E+02  0.45594000000E+02  0.51100000000E-03 0.  1.
         11   -1    0    0    0    0 -0.00000000000E+00 -0.00000000000E+00 -0.45593999997E+02  0.45594000000E+02  0.51100000000E-03 0. -1.
    9900012    2    1    2    0    0 -0.17160308510E+02 -0.57350836631E+01 -0.39449380028E+02  0.47787297731E+02  0.20000121676E+02 0.  0.
        -12    1    1    2    0    0  0.17160308510E+02  0.57350836631E+01  0.39449380028E+02  0.43400702269E+02  0.00000000000E+00 0.  1.
         11    1    3    3    0    0 -0.52951921128E+01 -0.18162695935E+01 -0.12574839841E+02  0.13764610130E+02  0.51100000000E-03 0. -1.
        -11    1    3    3    0    0  0.14545636363E+01 -0.69639531628E+01 -0.10704565085E+02  0.12853019604E+02  0.51100000000E-03 0.  1.
        -12    1    3    3    0    0 -0.13319680034E+02  0.30451390932E+01 -0.16169975102E+02  0.21169667997E+02  0.00000000000E+00 0.  1.
</event>
<event>
 7    1  0.4083500E-009  0.4778728E+02  0.7816164E-02  0.1312668E+00
        -11   -1    0    0    0    0  0.00000000000E+00  0.00000000000E+00  0.45593999997E+02  0.45594000000E+02  0.51100000000E-03 0.  1.
         11   -1    0    0    0    0 -0.00000000000E+00 -0.00000000000E+00 -0.45593999997E+02  0.45594000000E+02  0.51100000000E-03 0. -1.
    9900012    2    1    2    0    0  0.37879350177E+02 -0.44589610322E+01 -0.20709790172E+02  0.47787275210E+02  0.20000018994E+02 0.  0.
        -12    1    1    2    0    0 -0.37879350177E+02  0.44589610322E+01  0.20709790172E+02  0.43400724790E+02  0.00000000000E+00 0.  1.
         11    1    3    3    0    0  0.38259821543E+01 -0.45562552047E+01 -0.80659518812E+01  0.10022832980E+02  0.51100000000E-03 0. -1.
        -11    1    3    3    0    0  0.16698197661E+02  0.35923008813E+00 -0.11679325696E+02  0.20380517666E+02  0.51100000000E-03 0.  1.
        -12    1    3    3    0    0  0.17355170361E+02 -0.26193591563E+00 -0.96451259560E+00  0.17383924564E+02  0.00000000000E+00 0.  1.
</event>
<event>
 7    1  0.4083500E-009  0.4778727E+02  0.7816164E-02  0.1312668E+00
        -11   -1    0    0    0    0  0.00000000000E+00  0.00000000000E+00  0.45593999997E+02  0.45594000000E+02  0.51100000000E-03 0. -1.
         11   -1    0    0    0    0 -0.00000000000E+00 -0.00000000000E+00 -0.45593999997E+02  0.45594000000E+02  0.51100000000E-03 0.  1.
    9900012    2    1    2    0    0 -0.24458722089E+01 -0.28099207271E+02  0.32985992022E+02  0.47787269478E+02  0.19999992860E+02 0.  0.
        -12    1    1    2    0    0  0.24458722089E+01  0.28099207271E+02 -0.32985992022E+02  0.43400730522E+02  0.00000000000E+00 0.  1.
         11    1    3    3    0    0 -0.11750813369E+01  0.16548333275E+01 -0.98719711402E-02  0.20296273567E+01  0.51100000000E-03 0. -1.
        -11    1    3    3    0    0  0.15376466360E+01 -0.12169318731E+01  0.62318184570E+01  0.65330576228E+01  0.51100000000E-03 0.  1.
        -12    1    3    3    0    0 -0.28084375080E+01 -0.28537108725E+02  0.26764045537E+02  0.39224584499E+02  0.00000000000E+00 0.  1.
</event>
<event>
 7    1  0.4083500E-009  0.4778728E+02  0.7816164E-02  0.1312668E+00
        -11   -1    0    0    0    0  0.00000000000E+00  0.00000000000E+00  0.45593999997E+02  0.45594000000E+02  0.51100000000E-03 0. -1.
         11   -1    0    0    0    0 -0.00000000000E+00 -0.00000000000E+00 -0.45593999997E+02  0.45594000000E+02  0.51100000000E-03 0.  1.
    9900012    2    1    2    0    0  0.36117986584E+02 -0.86246068188E+01  0.22466190127E+02  0.47787280000E+02  0.20000040833E+02 0.  0.
        -12    1    1    2    0    0 -0.36117986584E+02  0.86246068188E+01 -0.22466190127E+02  0.43400720000E+02  0.00000000000E+00 0.  1.
         11    1    3    3    0    0  0.28340217291E+02  0.16641319933E+01  0.12531277932E+02  0.31031760799E+02  0.51100000000E-03 0. -1.
        -11    1    3    3    0    0  0.37305829806E+00  0.14817022899E+00  0.11905555455E+01  0.12564034697E+01  0.51100000000E-03 0.  1.
         12    1    3    3    0    0  0.74047109951E+01 -0.10436909041E+02  0.87443566491E+01  0.15499115731E+02  0.00000000000E+00 0. -1.
</event>
<event>
 7    1  0.4239583E-009  0.4778724E+02  0.7816164E-02  0.1312668E+00
        -11   -1    0    0    0    0  0.00000000000E+00  0.00000000000E+00  0.45593999997E+02  0.45594000000E+02  0.51100000000E-03 0. -1.
         11   -1    0    0    0    0 -0.00000000000E+00 -0.00000000000E+00 -0.45593999997E+02  0.45594000000E+02  0.51100000000E-03 0.  1.
    9900012    2    1    2    0    0  0.13675081236E+02 -0.39132597947E+02  0.12855270398E+02  0.47787239109E+02  0.19999854393E+02 0.  0.
        -12    1    1    2    0    0 -0.13675081236E+02  0.39132597947E+02 -0.12855270398E+02  0.43400760891E+02  0.00000000000E+00 0.  1.
         11    1    3    3    0    0  0.31133211178E+00 -0.13168247506E+02  0.10286658185E+02  0.16712719914E+02  0.51100000000E-03 0. -1.
        -11    1    3    3    0    0 -0.31411743253E+00 -0.85335471861E+01 -0.11216051670E+01  0.86126706515E+01  0.51100000000E-03 0.  1.
         12    1    3    3    0    0  0.13677866556E+02 -0.17430803255E+02  0.36902173799E+01  0.22461848543E+02  0.00000000000E+00 0. -1.
</event>
<event>
 7    1  0.4083500E-009  0.4778726E+02  0.7816164E-02  0.1312668E+00
        -11   -1    0    0    0    0  0.00000000000E+00  0.00000000000E+00  0.45593999997E+02  0.45594000000E+02  0.51100000000E-03 0.  1.
         11   -1    0    0    0    0 -0.00000000000E+00 -0.00000000000E+00 -0.45593999997E+02  0.45594000000E+02  0.51100000000E-03 0. -1.
    9900012    2    1    2    0    0 -0.82370596980E+01 -0.32218697306E+02 -0.27887819329E+02  0.47787261809E+02  0.19999957892E+02 0.  0.
        -12    1    1    2    0    0  0.82370596980E+01  0.32218697306E+02  0.27887819329E+02  0.43400738191E+02  0.00000000000E+00 0.  1.
         11    1    3    3    0    0 -0.67225474504E+01 -0.58162156578E+01 -0.84836465410E+01  0.12287931791E+02  0.51100000000E-03 0. -1.
        -11    1    3    3    0    0 -0.74058045721E+01 -0.17984339706E+02 -0.12480103719E+02  0.23109206068E+02  0.51100000000E-03 0.  1.
        -12    1    3    3    0    0  0.58912923246E+01 -0.84181419422E+01 -0.69240690698E+01  0.12390123950E+02  0.00000000000E+00 0.  1.
</event>
<event>
 7    1  0.4083500E-009  0.4778727E+02  0.7816164E-02  0.1312668E+00
        -11   -1    0    0    0    0  0.00000000000E+00  0.00000000000E+00  0.45593999997E+02  0.45594000000E+02  0.51100000000E-03 0.  1.
         11   -1    0    0    0    0 -0.00000000000E+00 -0.00000000000E+00 -0.45593999997E+02  0.45594000000E+02  0.51100000000E-03 0. -1.
    9900012    2    1    2    0    0  0.13335047745E+02  0.21459453729E+02 -0.35288688464E+02  0.47787272054E+02  0.20000004602E+02 0.  0.
        -12    1    1    2    0    0 -0.13335047745E+02 -0.21459453729E+02  0.35288688464E+02  0.43400727946E+02  0.00000000000E+00 0.  1.
         11    1    3    3    0    0 -0.16475168890E+01  0.67574882613E+01 -0.19560530914E+02  0.20760354752E+02  0.51100000000E-03 0. -1.
        -11    1    3    3    0    0  0.19611214428E+01  0.26702661107E-02 -0.31370627300E+01  0.36996171798E+01  0.51100000000E-03 0.  1.
         12    1    3    3    0    0  0.13021443192E+02  0.14699295202E+02 -0.12591094820E+02  0.23327300122E+02  0.00000000000E+00 0. -1.
</event>
<event>
 7    1  0.4083500E-009  0.4778726E+02  0.7816164E-02  0.1312668E+00
        -11   -1    0    0    0    0  0.00000000000E+00  0.00000000000E+00  0.45593999997E+02  0.45594000000E+02  0.51100000000E-03 0.  1.
         11   -1    0    0    0    0 -0.00000000000E+00 -0.00000000000E+00 -0.45593999997E+02  0.45594000000E+02  0.51100000000E-03 0. -1.
    9900012    2    1    2    0    0 -0.34516149428E+02 -0.13276446289E+02  0.22715529278E+02  0.47787264202E+02  0.19999968804E+02 0.  0.
        -12    1    1    2    0    0  0.34516149428E+02  0.13276446289E+02 -0.22715529278E+02  0.43400735798E+02  0.00000000000E+00 0.  1.
         11    1    3    3    0    0 -0.18755188143E+02 -0.24133133035E+01  0.65989725102E+01  0.20028170207E+02  0.51100000000E-03 0. -1.
        -11    1    3    3    0    0 -0.94383618750E+01 -0.96907417515E+00  0.25655105319E+01  0.98287142695E+01  0.51100000000E-03 0.  1.
        -12    1    3    3    0    0 -0.63225994106E+01 -0.98940588101E+01  0.13551046236E+02  0.17930379726E+02  0.00000000000E+00 0.  1.
</event>
<event>
 7    1  0.4083500E-009  0.4778725E+02  0.7816164E-02  0.1312668E+00
        -11   -1    0    0    0    0  0.00000000000E+00  0.00000000000E+00  0.45593999997E+02  0.45594000000E+02  0.51100000000E-03 0. -1.
         11   -1    0    0    0    0 -0.00000000000E+00 -0.00000000000E+00 -0.45593999997E+02  0.45594000000E+02  0.51100000000E-03 0.  1.
    9900012    2    1    2    0    0 -0.92516835551E+01  0.28294732356E+02  0.31582261711E+02  0.47787253664E+02  0.19999920757E+02 0.  0.
        -12    1    1    2    0    0  0.92516835551E+01 -0.28294732356E+02 -0.31582261711E+02  0.43400746336E+02  0.00000000000E+00 0.  1.
         11    1    3    3    0    0 -0.33832139748E+01  0.85899826993E+01  0.11678553923E+02  0.14886993033E+02  0.51100000000E-03 0. -1.
        -11    1    3    3    0    0 -0.75427174411E+01  0.10546723550E+02  0.19704905517E+02  0.23588329015E+02  0.51100000000E-03 0.  1.
        -12    1    3    3    0    0  0.16742478608E+01  0.91580261066E+01  0.19880227054E+00  0.93119316155E+01  0.00000000000E+00 0.  1.
</event>
<event>
 7    1  0.5860573E-009  0.4778726E+02  0.7816164E-02  0.1312668E+00
        -11   -1    0    0    0    0  0.00000000000E+00  0.00000000000E+00  0.45593999997E+02  0.45594000000E+02  0.51100000000E-03 0.  1.
         11   -1    0    0    0    0 -0.00000000000E+00 -0.00000000000E+00 -0.45593999997E+02  0.45594000000E+02  0.51100000000E-03 0. -1.
    9900012    2    1    2    0    0  0.37588908144E+02  0.12569880241E+02 -0.17683216817E+02  0.47787261968E+02  0.19999958619E+02 0.  0.
        -12    1    1    2    0    0 -0.37588908144E+02 -0.12569880241E+02  0.17683216817E+02  0.43400738032E+02  0.00000000000E+00 0.  1.
         11    1    3    3    0    0  0.14246891788E+02  0.65205024107E+01 -0.79017718473E+01  0.17547902322E+02  0.51100000000E-03 0. -1.
        -11    1    3    3    0    0  0.16895352645E+02 -0.27007133586E+01 -0.90260508444E+01  0.19344673369E+02  0.51100000000E-03 0.  1.
        -12    1    3    3    0    0  0.64466637109E+01  0.87500911886E+01 -0.75539412494E+00  0.10894686278E+02  0.00000000000E+00 0.  1.
</event>
<event>
 7    1  0.4083500E-009  0.4778728E+02  0.7816164E-02  0.1312668E+00
        -11   -1    0    0    0    0  0.00000000000E+00  0.00000000000E+00  0.45593999997E+02  0.45594000000E+02  0.51100000000E-03 0.  1.
         11   -1    0    0    0    0 -0.00000000000E+00 -0.00000000000E+00 -0.45593999997E+02  0.45594000000E+02  0.51100000000E-03 0. -1.
    9900012    2    1    2    0    0 -0.11026968091E+02 -0.15381221771E+02 -0.39056968842E+02  0.47787276232E+02  0.20000023654E+02 0.  0.
        -12    1    1    2    0    0  0.11026968091E+02  0.15381221771E+02  0.39056968842E+02  0.43400723768E+02  0.00000000000E+00 0.  1.
         11    1    3    3    0    0  0.14025318965E+01 -0.54691179556E+01 -0.13199354686E+02  0.14356229007E+02  0.51100000000E-03 0. -1.
        -11    1    3    3    0    0 -0.33518314066E+00 -0.63690658910E+00  0.17518973347E+01  0.18939752568E+01  0.51100000000E-03 0.  1.
         12    1    3    3    0    0 -0.12094316846E+02 -0.92751972266E+01 -0.27609511491E+02  0.31537071968E+02  0.00000000000E+00 0. -1.
</event>
<event>
 7    1  0.4083500E-009  0.4778728E+02  0.7816164E-02  0.1312668E+00
        -11   -1    0    0    0    0  0.00000000000E+00  0.00000000000E+00  0.45593999997E+02  0.45594000000E+02  0.51100000000E-03 0. -1.
         11   -1    0    0    0    0 -0.00000000000E+00 -0.00000000000E+00 -0.45593999997E+02  0.45594000000E+02  0.51100000000E-03 0.  1.
    9900012    2    1    2    0    0  0.30511653122E+02  0.22189642364E+02  0.21454176712E+02  0.47787275319E+02  0.20000019488E+02 0.  0.
        -12    1    1    2    0    0 -0.30511653122E+02 -0.22189642364E+02 -0.21454176712E+02  0.43400724681E+02  0.00000000000E+00 0.  1.
         11    1    3    3    0    0  0.14076504234E+02  0.77533951500E+01  0.13170232534E+02  0.20777827919E+02  0.51100000000E-03 0. -1.
        -11    1    3    3    0    0  0.16463502491E+02  0.16283736322E+02  0.92369255799E+01  0.24930458827E+02  0.51100000000E-03 0.  1.
         12    1    3    3    0    0 -0.28353602475E-01 -0.18474891087E+01 -0.95298140153E+00  0.20789885726E+01  0.00000000000E+00 0. -1.
</event>
<event>
 7    1  0.4083500E-009  0.4778728E+02  0.7816164E-02  0.1312668E+00
        -11   -1    0    0    0    0  0.00000000000E+00  0.00000000000E+00  0.45593999997E+02  0.45594000000E+02  0.51100000000E-03 0.  1.
         11   -1    0    0    0    0 -0.00000000000E+00 -0.00000000000E+00 -0.45593999997E+02  0.45594000000E+02  0.51100000000E-03 0. -1.
    9900012    2    1    2    0    0 -0.13394468434E+02  0.22583165396E+02 -0.34557369034E+02  0.47787275369E+02  0.20000019719E+02 0.  0.
        -12    1    1    2    0    0  0.13394468434E+02 -0.22583165396E+02  0.34557369034E+02  0.43400724631E+02  0.00000000000E+00 0.  1.
         11    1    3    3    0    0 -0.43515657292E+01  0.53480325128E+01 -0.77878407601E+01  0.10401347991E+02  0.51100000000E-03 0. -1.
        -11    1    3    3    0    0  0.52069289823E+01  0.60127286588E+01 -0.78060517674E+01  0.11144481137E+02  0.51100000000E-03 0.  1.
        -12    1    3    3    0    0 -0.14249831687E+02  0.11222404224E+02 -0.18963476506E+02  0.26241446242E+02  0.00000000000E+00 0.  1.
</event>
<event>
 7    1  0.4083500E-009  0.4778732E+02  0.7816164E-02  0.1312668E+00
        -11   -1    0    0    0    0  0.00000000000E+00  0.00000000000E+00  0.45593999997E+02  0.45594000000E+02  0.51100000000E-03 0.  1.
         11   -1    0    0    0    0 -0.00000000000E+00 -0.00000000000E+00 -0.45593999997E+02  0.45594000000E+02  0.51100000000E-03 0. -1.
    9900012    2    1    2    0    0  0.25886107688E+01 -0.43262711561E+02 -0.22926679180E+01  0.47787315173E+02  0.20000201198E+02 0.  0.
        -12    1    1    2    0    0 -0.25886107688E+01  0.43262711561E+02  0.22926679180E+01  0.43400684827E+02  0.00000000000E+00 0.  1.
         11    1    3    3    0    0  0.35177927627E+01 -0.87736544206E+01  0.17582182349E+01  0.96147391767E+01  0.51100000000E-03 0.  1.
        -11    1    3    3    0    0 -0.43816309313E+01 -0.20896244089E+02  0.43991938547E+01  0.21799188367E+02  0.51100000000E-03 0. -1.
         12    1    3    3    0    0  0.34524489374E+01 -0.13592813051E+02 -0.84500800075E+01  0.16373387629E+02  0.00000000000E+00 0. -1.
</event>
<event>
 7    1  0.4083500E-009  0.4778729E+02  0.7816164E-02  0.1312668E+00
        -11   -1    0    0    0    0  0.00000000000E+00  0.00000000000E+00  0.45593999997E+02  0.45594000000E+02  0.51100000000E-03 0. -1.
         11   -1    0    0    0    0 -0.00000000000E+00 -0.00000000000E+00 -0.45593999997E+02  0.45594000000E+02  0.51100000000E-03 0.  1.
    9900012    2    1    2    0    0 -0.32951944417E+02 -0.20512594860E+02  0.19417119971E+02  0.47787288753E+02  0.20000080739E+02 0.  0.
        -12    1    1    2    0    0  0.32951944417E+02  0.20512594860E+02 -0.19417119971E+02  0.43400711247E+02  0.00000000000E+00 0.  1.
         11    1    3    3    0    0 -0.98666397457E+01 -0.69371241312E+01  0.16336318747E+01  0.12171401910E+02  0.51100000000E-03 0. -1.
        -11    1    3    3    0    0 -0.93725638201E+01 -0.26525995957E+01 -0.11546338756E+01  0.98088947810E+01  0.51100000000E-03 0.  1.
         12    1    3    3    0    0 -0.13712740851E+02 -0.10922871134E+02  0.18938121972E+02  0.25806992062E+02  0.00000000000E+00 0. -1.
</event>
<event>
 7    1  0.4083500E-009  0.4778727E+02  0.7816164E-02  0.1312668E+00
        -11   -1    0    0    0    0  0.00000000000E+00  0.00000000000E+00  0.45593999997E+02  0.45594000000E+02  0.51100000000E-03 0.  1.
         11   -1    0    0    0    0 -0.00000000000E+00 -0.00000000000E+00 -0.45593999997E+02  0.45594000000E+02  0.51100000000E-03 0. -1.
    9900012    2    1    2    0    0  0.17705533067E+02  0.37275105060E+02 -0.13442618471E+02  0.47787270170E+02  0.19999996013E+02 0.  0.
        -12    1    1    2    0    0 -0.17705533067E+02 -0.37275105060E+02  0.13442618471E+02  0.43400729830E+02  0.00000000000E+00 0.  1.
         11    1    3    3    0    0  0.18029402564E+00  0.15017392758E+02 -0.33071778319E+01  0.15378296936E+02  0.51100000000E-03 0. -1.
        -11    1    3    3    0    0  0.68310044857E+01  0.13616554917E+02  0.15619255423E+00  0.15234749308E+02  0.51100000000E-03 0.  1.
         12    1    3    3    0    0  0.10694234556E+02  0.86411573849E+01 -0.10291633194E+02  0.17174223926E+02  0.00000000000E+00 0. -1.
</event>
<event>
 7    1  0.4083500E-009  0.4778727E+02  0.7816164E-02  0.1312668E+00
        -11   -1    0    0    0    0  0.00000000000E+00  0.00000000000E+00  0.45593999997E+02  0.45594000000E+02  0.51100000000E-03 0.  1.
         11   -1    0    0    0    0 -0.00000000000E+00 -0.00000000000E+00 -0.45593999997E+02  0.45594000000E+02  0.51100000000E-03 0. -1.
    9900012    2    1    2    0    0  0.24743424421E+01  0.12727377760E+02 -0.41418775056E+02  0.47787269103E+02  0.19999991150E+02 0.  0.
        -12    1    1    2    0    0 -0.24743424421E+01 -0.12727377760E+02  0.41418775056E+02  0.43400730897E+02  0.00000000000E+00 0.  1.
         11    1    3    3    0    0  0.94256091671E+01  0.58176419939E+01 -0.14700801685E+02  0.18406537887E+02  0.51100000000E-03 0. -1.
        -11    1    3    3    0    0  0.13436751909E+01  0.15901760416E+01 -0.75008313769E+01  0.77843814441E+01  0.51100000000E-03 0.  1.
        -12    1    3    3    0    0 -0.82949419159E+01  0.53195597248E+01 -0.19217141994E+02  0.21596349772E+02  0.00000000000E+00 0.  1.
</event>
<event>
 7    1  0.4083500E-009  0.4778728E+02  0.7816164E-02  0.1312668E+00
        -11   -1    0    0    0    0  0.00000000000E+00  0.00000000000E+00  0.45593999997E+02  0.45594000000E+02  0.51100000000E-03 0.  1.
         11   -1    0    0    0    0 -0.00000000000E+00 -0.00000000000E+00 -0.45593999997E+02  0.45594000000E+02  0.51100000000E-03 0. -1.
    9900012    2    1    2    0    0  0.17013885433E+01 -0.20895656258E+02 -0.38001312377E+02  0.47787275170E+02  0.20000018809E+02 0.  0.
        -12    1    1    2    0    0 -0.17013885433E+01  0.20895656258E+02  0.38001312377E+02  0.43400724830E+02  0.00000000000E+00 0.  1.
         11    1    3    3    0    0  0.33407126951E+01 -0.11179041638E+02 -0.75663177125E+01  0.13906131642E+02  0.51100000000E-03 0. -1.
        -11    1    3    3    0    0 -0.73417586597E+00 -0.52444810580E+01 -0.30346724005E+01  0.61035098599E+01  0.51100000000E-03 0.  1.
        -12    1    3    3    0    0 -0.90514828586E+00 -0.44721335621E+01 -0.27400322264E+02  0.27777633668E+02  0.00000000000E+00 0.  1.
</event>
<event>
 7    1  0.4083500E-009  0.4778727E+02  0.7816164E-02  0.1312668E+00
        -11   -1    0    0    0    0  0.00000000000E+00  0.00000000000E+00  0.45593999997E+02  0.45594000000E+02  0.51100000000E-03 0.  1.
         11   -1    0    0    0    0 -0.00000000000E+00 -0.00000000000E+00 -0.45593999997E+02  0.45594000000E+02  0.51100000000E-03 0. -1.
    9900012    2    1    2    0    0  0.21409592400E+02  0.87282517047E+01 -0.36729697996E+02  0.47787265681E+02  0.19999975544E+02 0.  0.
        -12    1    1    2    0    0 -0.21409592400E+02 -0.87282517047E+01  0.36729697996E+02  0.43400734319E+02  0.00000000000E+00 0.  1.
         11    1    3    3    0    0  0.70759574043E+01  0.12530666585E+01 -0.13097339886E+02  0.14939198826E+02  0.51100000000E-03 0. -1.
        -11    1    3    3    0    0  0.27698693536E+01 -0.40853396164E+01 -0.11839358277E+01  0.50758132671E+01  0.51100000000E-03 0.  1.
        -12    1    3    3    0    0  0.11563765643E+02  0.11560524663E+02 -0.22448422283E+02  0.27772253587E+02  0.00000000000E+00 0.  1.
</event>
<event>
 7    1  0.4083500E-009  0.4778731E+02  0.7816164E-02  0.1312668E+00
        -11   -1    0    0    0    0  0.00000000000E+00  0.00000000000E+00  0.45593999997E+02  0.45594000000E+02  0.51100000000E-03 0. -1.
         11   -1    0    0    0    0 -0.00000000000E+00 -0.00000000000E+00 -0.45593999997E+02  0.45594000000E+02  0.51100000000E-03 0.  1.
    9900012    2    1    2    0    0  0.81331582310E-01 -0.43376660511E+02 -0.14416624369E+01  0.47787312419E+02  0.20000188643E+02 0.  0.
        -12    1    1    2    0    0 -0.81331582310E-01  0.43376660511E+02  0.14416624369E+01  0.43400687581E+02  0.00000000000E+00 0.  1.
         11    1    3    3    0    0  0.24700924037E+01 -0.22245650348E+02  0.14739400434E+01  0.22430845178E+02  0.51100000000E-03 0. -1.
        -11    1    3    3    0    0  0.50977463678E+01 -0.69765377360E+01  0.14459121973E+01  0.87606939882E+01  0.51100000000E-03 0.  1.
         12    1    3    3    0    0 -0.74865071892E+01 -0.14154472427E+02 -0.43615146776E+01  0.16595773253E+02  0.00000000000E+00 0. -1.
</event>
<event>
 7    1  0.4083500E-009  0.4778727E+02  0.7816164E-02  0.1312668E+00
        -11   -1    0    0    0    0  0.00000000000E+00  0.00000000000E+00  0.45593999997E+02  0.45594000000E+02  0.51100000000E-03 0.  1.
         11   -1    0    0    0    0 -0.00000000000E+00 -0.00000000000E+00 -0.45593999997E+02  0.45594000000E+02  0.51100000000E-03 0. -1.
    9900012    2    1    2    0    0  0.42147044751E+02  0.87950951461E+01 -0.54677141639E+01  0.47787274453E+02  0.20000015539E+02 0.  0.
        -12    1    1    2    0    0 -0.42147044751E+02 -0.87950951461E+01  0.54677141639E+01  0.43400725547E+02  0.00000000000E+00 0.  1.
         11    1    3    3    0    0  0.75104358291E+01  0.35739120479E+01  0.34098263621E+01  0.89892385523E+01  0.51100000000E-03 0. -1.
        -11    1    3    3    0    0  0.32091724549E+02  0.44877757141E+00 -0.91773577316E+01  0.33381193523E+02  0.51100000000E-03 0.  1.
         12    1    3    3    0    0  0.25448843729E+01  0.47724055269E+01  0.29981720559E+00  0.54168423774E+01  0.00000000000E+00 0. -1.
</event>
<event>
 7    1  0.4083500E-009  0.4778727E+02  0.7816164E-02  0.1312668E+00
        -11   -1    0    0    0    0  0.00000000000E+00  0.00000000000E+00  0.45593999997E+02  0.45594000000E+02  0.51100000000E-03 0. -1.
         11   -1    0    0    0    0 -0.00000000000E+00 -0.00000000000E+00 -0.45593999997E+02  0.45594000000E+02  0.51100000000E-03 0.  1.
    9900012    2    1    2    0    0 -0.89771482276E+01  0.25571932143E+02  0.33898530222E+02  0.47787271262E+02  0.20000000991E+02 0.  0.
        -12    1    1    2    0    0  0.89771482276E+01 -0.25571932143E+02 -0.33898530222E+02  0.43400728738E+02  0.00000000000E+00 0.  1.
         11    1    3    3    0    0 -0.41648122487E+01  0.91076488146E+01  0.54233332565E+01  0.11388918819E+02  0.51100000000E-03 0. -1.
        -11    1    3    3    0    0 -0.65263290615E+01  0.73161402905E+01  0.47122431130E+01  0.10877688872E+02  0.51100000000E-03 0.  1.
        -12    1    3    3    0    0  0.17139930825E+01  0.91481430376E+01  0.23762953852E+02  0.25520663571E+02  0.00000000000E+00 0.  1.
</event>
<event>
 7    1  0.4083500E-009  0.4778727E+02  0.7816164E-02  0.1312668E+00
        -11   -1    0    0    0    0  0.00000000000E+00  0.00000000000E+00  0.45593999997E+02  0.45594000000E+02  0.51100000000E-03 0.  1.
         11   -1    0    0    0    0 -0.00000000000E+00 -0.00000000000E+00 -0.45593999997E+02  0.45594000000E+02  0.51100000000E-03 0. -1.
    9900012    2    1    2    0    0 -0.25182778449E+01  0.31866425867E+02 -0.29356640849E+02  0.47787272094E+02  0.20000004786E+02 0.  0.
        -12    1    1    2    0    0  0.25182778449E+01 -0.31866425867E+02  0.29356640849E+02  0.43400727906E+02  0.00000000000E+00 0.  1.
         11    1    3    3    0    0 -0.45211767250E+01  0.31760190305E+01 -0.97190025549E+01  0.11179765059E+02  0.51100000000E-03 0. -1.
        -11    1    3    3    0    0 -0.27223719031E+01  0.49565493262E+01 -0.35712804859E+00  0.56662360264E+01  0.51100000000E-03 0.  1.
        -12    1    3    3    0    0  0.47252707833E+01  0.23733857510E+02 -0.19280510245E+02  0.30941271008E+02  0.00000000000E+00 0.  1.
</event>
<event>
 7    1  0.4083500E-009  0.4778727E+02  0.7816164E-02  0.1312668E+00
        -11   -1    0    0    0    0  0.00000000000E+00  0.00000000000E+00  0.45593999997E+02  0.45594000000E+02  0.51100000000E-03 0. -1.
         11   -1    0    0    0    0 -0.00000000000E+00 -0.00000000000E+00 -0.45593999997E+02  0.45594000000E+02  0.51100000000E-03 0.  1.
    9900012    2    1    2    0    0 -0.40022931776E+02  0.16774998503E+02 -0.62260705256E+00  0.47787270947E+02  0.19999999558E+02 0.  0.
        -12    1    1    2    0    0  0.40022931776E+02 -0.16774998503E+02  0.62260705256E+00  0.43400729053E+02  0.00000000000E+00 0.  1.
         11    1    3    3    0    0 -0.21676190652E+02  0.12924414059E+02  0.27034803601E+01  0.25381223892E+02  0.51100000000E-03 0. -1.
        -11    1    3    3    0    0 -0.19313813825E+02  0.25967581642E+01 -0.89927738134E+00  0.19508338153E+02  0.51100000000E-03 0.  1.
         12    1    3    3    0    0  0.96707270122E+00  0.12538262804E+01 -0.24268100313E+01  0.28977089017E+01  0.00000000000E+00 0. -1.
</event>
<event>
 7    1  0.4083500E-009  0.4778727E+02  0.7816164E-02  0.1312668E+00
        -11   -1    0    0    0    0  0.00000000000E+00  0.00000000000E+00  0.45593999997E+02  0.45594000000E+02  0.51100000000E-03 0.  1.
         11   -1    0    0    0    0 -0.00000000000E+00 -0.00000000000E+00 -0.45593999997E+02  0.45594000000E+02  0.51100000000E-03 0. -1.
    9900012    2    1    2    0    0  0.31418404434E+02  0.29771084588E+02 -0.31921204974E+01  0.47787271342E+02  0.20000001356E+02 0.  0.
        -12    1    1    2    0    0 -0.31418404434E+02 -0.29771084588E+02  0.31921204974E+01  0.43400728658E+02  0.00000000000E+00 0.  1.
         11    1    3    3    0    0  0.20762265612E+02  0.13271563617E+02 -0.12895706130E+01  0.24675272375E+02  0.51100000000E-03 0. -1.
        -11    1    3    3    0    0  0.45615848370E+01  0.82223190003E-02 -0.30594150548E+01  0.54925535564E+01  0.51100000000E-03 0.  1.
        -12    1    3    3    0    0  0.60945539855E+01  0.16491298653E+02  0.11568651704E+01  0.17619445410E+02  0.00000000000E+00 0.  1.
</event>
<event>
 7    1  0.4672875E-009  0.4778727E+02  0.7816164E-02  0.1312668E+00
        -11   -1    0    0    0    0  0.00000000000E+00  0.00000000000E+00  0.45593999997E+02  0.45594000000E+02  0.51100000000E-03 0.  1.
         11   -1    0    0    0    0 -0.00000000000E+00 -0.00000000000E+00 -0.45593999997E+02  0.45594000000E+02  0.51100000000E-03 0. -1.
    9900012    2    1    2    0    0  0.33352743897E+02  0.27047883557E+02 -0.62952300093E+01  0.47787269001E+02  0.19999990682E+02 0.  0.
        -12    1    1    2    0    0 -0.33352743897E+02 -0.27047883557E+02  0.62952300093E+01  0.43400730999E+02  0.00000000000E+00 0.  1.
         11    1    3    3    0    0  0.58474232477E+01  0.73718112675E+01 -0.63610263832E+01  0.11357755804E+02  0.51100000000E-03 0. -1.
        -11    1    3    3    0    0  0.14334422812E+00 -0.67984767940E+00 -0.21448212414E+01  0.22545506989E+01  0.51100000000E-03 0.  1.
         12    1    3    3    0    0  0.27361976421E+02  0.20355919969E+02  0.22106176153E+01  0.34174962498E+02  0.00000000000E+00 0. -1.
</event>
<event>
 7    1  0.4083500E-009  0.4778728E+02  0.7816164E-02  0.1312668E+00
        -11   -1    0    0    0    0  0.00000000000E+00  0.00000000000E+00  0.45593999997E+02  0.45594000000E+02  0.51100000000E-03 0.  1.
         11   -1    0    0    0    0 -0.00000000000E+00 -0.00000000000E+00 -0.45593999997E+02  0.45594000000E+02  0.51100000000E-03 0. -1.
    9900012    2    1    2    0    0 -0.38957139068E+02  0.17109204333E+02 -0.85579764143E+01  0.47787279757E+02  0.20000039725E+02 0.  0.
        -12    1    1    2    0    0  0.38957139068E+02 -0.17109204333E+02  0.85579764143E+01  0.43400720243E+02  0.00000000000E+00 0.  1.
         11    1    3    3    0    0 -0.26658866083E+02  0.17366679198E+02 -0.59138813327E+01  0.32361561765E+02  0.51100000000E-03 0. -1.
        -11    1    3    3    0    0 -0.46324474060E+01  0.29411347480E+01 -0.42809103045E+01  0.69596002667E+01  0.51100000000E-03 0.  1.
        -12    1    3    3    0    0 -0.76658255787E+01 -0.31986096130E+01  0.16368152230E+01  0.84661177250E+01  0.00000000000E+00 0.  1.
</event>
<event>
 7    1  0.4083500E-009  0.4778727E+02  0.7816164E-02  0.1312668E+00
        -11   -1    0    0    0    0  0.00000000000E+00  0.00000000000E+00  0.45593999997E+02  0.45594000000E+02  0.51100000000E-03 0.  1.
         11   -1    0    0    0    0 -0.00000000000E+00 -0.00000000000E+00 -0.45593999997E+02  0.45594000000E+02  0.51100000000E-03 0. -1.
    9900012    2    1    2    0    0 -0.33593365487E+02  0.19064855548E+02 -0.19789898189E+02  0.47787274290E+02  0.20000014798E+02 0.  0.
        -12    1    1    2    0    0  0.33593365487E+02 -0.19064855548E+02  0.19789898189E+02  0.43400725710E+02  0.00000000000E+00 0.  1.
         11    1    3    3    0    0 -0.50015549881E+01  0.51726040687E+01 -0.95262494231E+01  0.11938208135E+02  0.51100000000E-03 0. -1.
        -11    1    3    3    0    0 -0.11283698697E+02 -0.95364728303E+00 -0.53437852322E+01  0.12521475165E+02  0.51100000000E-03 0.  1.
        -12    1    3    3    0    0 -0.17308111801E+02  0.14845898763E+02 -0.49198635339E+01  0.23327590990E+02  0.00000000000E+00 0.  1.
</event>
<event>
 7    1  0.4083500E-009  0.4778727E+02  0.7816164E-02  0.1312668E+00
        -11   -1    0    0    0    0  0.00000000000E+00  0.00000000000E+00  0.45593999997E+02  0.45594000000E+02  0.51100000000E-03 0. -1.
         11   -1    0    0    0    0 -0.00000000000E+00 -0.00000000000E+00 -0.45593999997E+02  0.45594000000E+02  0.51100000000E-03 0.  1.
    9900012    2    1    2    0    0 -0.21308634105E+02 -0.35237684609E+02  0.13706605236E+02  0.47787270385E+02  0.19999996993E+02 0.  0.
        -12    1    1    2    0    0  0.21308634105E+02  0.35237684609E+02 -0.13706605236E+02  0.43400729615E+02  0.00000000000E+00 0.  1.
         11    1    3    3    0    0 -0.44828961373E+01 -0.22008588114E+01  0.53265402053E+01  0.73015182054E+01  0.51100000000E-03 0. -1.
        -11    1    3    3    0    0 -0.13215164668E+02 -0.10806749631E+02  0.41902322138E+01  0.17577953835E+02  0.51100000000E-03 0.  1.
         12    1    3    3    0    0 -0.36105733006E+01 -0.22230076167E+02  0.41898328166E+01  0.22907798344E+02  0.00000000000E+00 0. -1.
</event>
<event>
 7    1  0.4083500E-009  0.4778727E+02  0.7816164E-02  0.1312668E+00
        -11   -1    0    0    0    0  0.00000000000E+00  0.00000000000E+00  0.45593999997E+02  0.45594000000E+02  0.51100000000E-03 0.  1.
         11   -1    0    0    0    0 -0.00000000000E+00 -0.00000000000E+00 -0.45593999997E+02  0.45594000000E+02  0.51100000000E-03 0. -1.
    9900012    2    1    2    0    0  0.76664135778E+01 -0.11680493293E+02 -0.41090333243E+02  0.47787270666E+02  0.19999998275E+02 0.  0.
        -12    1    1    2    0    0 -0.76664135778E+01  0.11680493293E+02  0.41090333243E+02  0.43400729334E+02  0.00000000000E+00 0.  1.
         11    1    3    3    0    0  0.12595907758E+01 -0.65052708577E+01 -0.13049881688E+02  0.14635727867E+02  0.51100000000E-03 0. -1.
        -11    1    3    3    0    0 -0.33589905980E+01 -0.49649407605E+01 -0.18696522554E+02  0.19633986107E+02  0.51100000000E-03 0.  1.
         12    1    3    3    0    0  0.97658134000E+01 -0.21028167423E+00 -0.93439290011E+01  0.13517556692E+02  0.00000000000E+00 0. -1.
</event>
<event>
 7    1  0.4083500E-009  0.4778727E+02  0.7816164E-02  0.1312668E+00
        -11   -1    0    0    0    0  0.00000000000E+00  0.00000000000E+00  0.45593999997E+02  0.45594000000E+02  0.51100000000E-03 0. -1.
         11   -1    0    0    0    0 -0.00000000000E+00 -0.00000000000E+00 -0.45593999997E+02  0.45594000000E+02  0.51100000000E-03 0.  1.
    9900012    2    1    2    0    0  0.22896534822E+01  0.40415809434E+02 -0.15650658218E+02  0.47787271113E+02  0.20000000311E+02 0.  0.
        -12    1    1    2    0    0 -0.22896534822E+01 -0.40415809434E+02  0.15650658218E+02  0.43400728887E+02  0.00000000000E+00 0.  1.
         11    1    3    3    0    0  0.30041221804E+01  0.91045860467E+01 -0.42239175235E+01  0.10476627161E+02  0.51100000000E-03 0. -1.
        -11    1    3    3    0    0 -0.29856528802E+01 -0.63715618081E+00  0.57555437337E+00  0.31066628748E+01  0.51100000000E-03 0.  1.
        -12    1    3    3    0    0  0.22711841820E+01  0.31948379568E+02 -0.12002295068E+02  0.34203981077E+02  0.00000000000E+00 0.  1.
</event>
<event>
 7    1  0.4083500E-009  0.4778727E+02  0.7816164E-02  0.1312668E+00
        -11   -1    0    0    0    0  0.00000000000E+00  0.00000000000E+00  0.45593999997E+02  0.45594000000E+02  0.51100000000E-03 0. -1.
         11   -1    0    0    0    0 -0.00000000000E+00 -0.00000000000E+00 -0.45593999997E+02  0.45594000000E+02  0.51100000000E-03 0.  1.
    9900012    2    1    2    0    0 -0.26313287837E+02 -0.34001096050E+02  0.59295528447E+01  0.47787271361E+02  0.20000001444E+02 0.  0.
        -12    1    1    2    0    0  0.26313287837E+02  0.34001096050E+02 -0.59295528447E+01  0.43400728639E+02  0.00000000000E+00 0.  1.
         11    1    3    3    0    0 -0.12439794449E+02 -0.17128080198E+02  0.33986732830E+01  0.21439929980E+02  0.51100000000E-03 0. -1.
        -11    1    3    3    0    0 -0.14310290501E+02 -0.16141208143E+02 -0.20679184468E+01  0.21670239997E+02  0.51100000000E-03 0.  1.
         12    1    3    3    0    0  0.43679711265E+00 -0.73180770964E+00  0.45987980084E+01  0.46771013848E+01  0.00000000000E+00 0. -1.
</event>
<event>
 7    1  0.4083500E-009  0.4778727E+02  0.7816164E-02  0.1312668E+00
        -11   -1    0    0    0    0  0.00000000000E+00  0.00000000000E+00  0.45593999997E+02  0.45594000000E+02  0.51100000000E-03 0.  1.
         11   -1    0    0    0    0 -0.00000000000E+00 -0.00000000000E+00 -0.45593999997E+02  0.45594000000E+02  0.51100000000E-03 0. -1.
    9900012    2    1    2    0    0  0.39349984148E+02 -0.15762532321E+02  0.93136762384E+01  0.47787271404E+02  0.20000001638E+02 0.  0.
        -12    1    1    2    0    0 -0.39349984148E+02  0.15762532321E+02 -0.93136762384E+01  0.43400728596E+02  0.00000000000E+00 0.  1.
         11    1    3    3    0    0  0.84389400439E+01 -0.10242330017E+02  0.44732476876E+01  0.14004677018E+02  0.51100000000E-03 0. -1.
        -11    1    3    3    0    0 -0.71706680343E+00  0.82872416536E+00  0.59034142091E+00  0.12447778104E+01  0.51100000000E-03 0.  1.
        -12    1    3    3    0    0  0.31628110907E+02 -0.63489264697E+01  0.42500871299E+01  0.32537816575E+02  0.00000000000E+00 0.  1.
</event>
<event>
 7    1  0.4083500E-009  0.4778728E+02  0.7816164E-02  0.1312668E+00
        -11   -1    0    0    0    0  0.00000000000E+00  0.00000000000E+00  0.45593999997E+02  0.45594000000E+02  0.51100000000E-03 0.  1.
         11   -1    0    0    0    0 -0.00000000000E+00 -0.00000000000E+00 -0.45593999997E+02  0.45594000000E+02  0.51100000000E-03 0. -1.
    9900012    2    1    2    0    0 -0.40149267099E+02  0.60683682695E+01  0.15324290506E+02  0.47787278559E+02  0.20000034263E+02 0.  0.
        -12    1    1    2    0    0  0.40149267099E+02 -0.60683682695E+01 -0.15324290506E+02  0.43400721441E+02  0.00000000000E+00 0.  1.
         11    1    3    3    0    0 -0.14340073472E+02  0.84700325907E+01  0.10461713897E+02  0.19667908308E+02  0.51100000000E-03 0.  1.
        -11    1    3    3    0    0 -0.14109869936E+02  0.32247151480E+01  0.44059128196E+01  0.15129417881E+02  0.51100000000E-03 0. -1.
        -12    1    3    3    0    0 -0.11699323691E+02 -0.56263794691E+01  0.45666378931E+00  0.12989952370E+02  0.00000000000E+00 0.  1.
</event>
<event>
 7    1  0.4083500E-009  0.4778727E+02  0.7816164E-02  0.1312668E+00
        -11   -1    0    0    0    0  0.00000000000E+00  0.00000000000E+00  0.45593999997E+02  0.45594000000E+02  0.51100000000E-03 0.  1.
         11   -1    0    0    0    0 -0.00000000000E+00 -0.00000000000E+00 -0.45593999997E+02  0.45594000000E+02  0.51100000000E-03 0. -1.
    9900012    2    1    2    0    0  0.13380313393E+02  0.40097710731E+02  0.98368958711E+01  0.47787265988E+02  0.19999976947E+02 0.  0.
        -12    1    1    2    0    0 -0.13380313393E+02 -0.40097710731E+02 -0.98368958711E+01  0.43400734012E+02  0.00000000000E+00 0.  1.
         11    1    3    3    0    0  0.93088742697E+01  0.15156069726E+02 -0.81918797303E+00  0.17805410944E+02  0.51100000000E-03 0. -1.
        -11    1    3    3    0    0  0.42347169488E+01  0.35095760506E+01  0.58253056279E+01  0.80115003345E+01  0.51100000000E-03 0.  1.
         12    1    3    3    0    0 -0.16327782562E+00  0.21432064955E+02  0.48307782162E+01  0.21970354709E+02  0.00000000000E+00 0. -1.
</event>
<event>
 7    1  0.4083500E-009  0.4778727E+02  0.7816164E-02  0.1312668E+00
        -11   -1    0    0    0    0  0.00000000000E+00  0.00000000000E+00  0.45593999997E+02  0.45594000000E+02  0.51100000000E-03 0. -1.
         11   -1    0    0    0    0 -0.00000000000E+00 -0.00000000000E+00 -0.45593999997E+02  0.45594000000E+02  0.51100000000E-03 0.  1.
    9900012    2    1    2    0    0  0.11033142318E+02 -0.24790229966E+02  0.33872371453E+02  0.47787270985E+02  0.19999999729E+02 0.  0.
        -12    1    1    2    0    0 -0.11033142318E+02  0.24790229966E+02 -0.33872371453E+02  0.43400729015E+02  0.00000000000E+00 0.  1.
         11    1    3    3    0    0  0.23498109686E+01 -0.46212870977E+01  0.16099323819E+02  0.16913489697E+02  0.51100000000E-03 0. -1.
        -11    1    3    3    0    0  0.46940070907E-01 -0.83191497528E+01  0.13036271163E+02  0.15464631327E+02  0.51100000000E-03 0.  1.
         12    1    3    3    0    0  0.86363912786E+01 -0.11849793115E+02  0.47367764706E+01  0.15409149961E+02  0.00000000000E+00 0. -1.
</event>
<event>
 7    1  0.4083500E-009  0.4778727E+02  0.7816164E-02  0.1312668E+00
        -11   -1    0    0    0    0  0.00000000000E+00  0.00000000000E+00  0.45593999997E+02  0.45594000000E+02  0.51100000000E-03 0.  1.
         11   -1    0    0    0    0 -0.00000000000E+00 -0.00000000000E+00 -0.45593999997E+02  0.45594000000E+02  0.51100000000E-03 0. -1.
    9900012    2    1    2    0    0  0.97376191406E+01 -0.40558450966E+02  0.11992263722E+02  0.47787267743E+02  0.19999984948E+02 0.  0.
        -12    1    1    2    0    0 -0.97376191406E+01  0.40558450966E+02 -0.11992263722E+02  0.43400732257E+02  0.00000000000E+00 0.  1.
         11    1    3    3    0    0  0.42699687472E+01 -0.24444159789E+02 -0.26819232756E+01  0.24958811943E+02  0.51100000000E-03 0. -1.
        -11    1    3    3    0    0  0.33586755370E+00 -0.48680552059E+00  0.19357930964E+01  0.20241249471E+01  0.51100000000E-03 0.  1.
         12    1    3    3    0    0  0.51317828398E+01 -0.15627485656E+02  0.12738393902E+02  0.20804330853E+02  0.00000000000E+00 0. -1.
</event>
<event>
 7    1  0.4083500E-009  0.4778727E+02  0.7816164E-02  0.1312668E+00
        -11   -1    0    0    0    0  0.00000000000E+00  0.00000000000E+00  0.45593999997E+02  0.45594000000E+02  0.51100000000E-03 0. -1.
         11   -1    0    0    0    0 -0.00000000000E+00 -0.00000000000E+00 -0.45593999997E+02  0.45594000000E+02  0.51100000000E-03 0.  1.
    9900012    2    1    2    0    0  0.49145569883E+01  0.93685146047E+00  0.43111396767E+02  0.47787273137E+02  0.20000009541E+02 0.  0.
        -12    1    1    2    0    0 -0.49145569883E+01 -0.93685146047E+00 -0.43111396767E+02  0.43400726863E+02  0.00000000000E+00 0.  1.
         11    1    3    3    0    0 -0.28584677567E+00 -0.15227943395E+01  0.36969830084E+01  0.40085277353E+01  0.51100000000E-03 0. -1.
        -11    1    3    3    0    0  0.87187621695E+01  0.84276915421E+01  0.25258433698E+02  0.28018409513E+02  0.51100000000E-03 0.  1.
        -12    1    3    3    0    0 -0.35183584056E+01 -0.59680457422E+01  0.14155980061E+02  0.15760335889E+02  0.00000000000E+00 0.  1.
</event>
<event>
 7    1  0.4083500E-009  0.4778727E+02  0.7816164E-02  0.1312668E+00
        -11   -1    0    0    0    0  0.00000000000E+00  0.00000000000E+00  0.45593999997E+02  0.45594000000E+02  0.51100000000E-03 0.  1.
         11   -1    0    0    0    0 -0.00000000000E+00 -0.00000000000E+00 -0.45593999997E+02  0.45594000000E+02  0.51100000000E-03 0. -1.
    9900012    2    1    2    0    0  0.29489120884E+02 -0.48164374436E+01 -0.31477243746E+02  0.47787271964E+02  0.20000004193E+02 0.  0.
        -12    1    1    2    0    0 -0.29489120884E+02  0.48164374436E+01  0.31477243746E+02  0.43400728036E+02  0.00000000000E+00 0.  1.
         11    1    3    3    0    0  0.10314244560E+02  0.44832478502E+01 -0.25999759751E+01  0.11543094362E+02  0.51100000000E-03 0.  1.
        -11    1    3    3    0    0  0.44697800101E+01 -0.26548244419E+01 -0.38640192303E+01  0.64774741242E+01  0.51100000000E-03 0. -1.
        -12    1    3    3    0    0  0.14705096315E+02 -0.66448608520E+01 -0.25013248541E+02  0.29766703478E+02  0.00000000000E+00 0.  1.
</event>
<event>
 7    1  0.4083500E-009  0.4778727E+02  0.7816164E-02  0.1312668E+00
        -11   -1    0    0    0    0  0.00000000000E+00  0.00000000000E+00  0.45593999997E+02  0.45594000000E+02  0.51100000000E-03 0. -1.
         11   -1    0    0    0    0 -0.00000000000E+00 -0.00000000000E+00 -0.45593999997E+02  0.45594000000E+02  0.51100000000E-03 0.  1.
    9900012    2    1    2    0    0 -0.22217409074E+02  0.37126223198E+02 -0.34137615707E+01  0.47787268636E+02  0.19999989018E+02 0.  0.
        -12    1    1    2    0    0  0.22217409074E+02 -0.37126223198E+02  0.34137615707E+01  0.43400731364E+02  0.00000000000E+00 0.  1.
         11    1    3    3    0    0 -0.59893154506E+01  0.14148324927E+02 -0.96731574593E+01  0.18155356601E+02  0.51100000000E-03 0. -1.
        -11    1    3    3    0    0 -0.28489304011E+01  0.14915477349E+01 -0.87801829691E+00  0.33334719838E+01  0.51100000000E-03 0.  1.
        -12    1    3    3    0    0 -0.13379163222E+02  0.21486350536E+02  0.71374141856E+01  0.26298440051E+02  0.00000000000E+00 0.  1.
</event>
<event>
 7    1  0.4083500E-009  0.4778727E+02  0.7816164E-02  0.1312668E+00
        -11   -1    0    0    0    0  0.00000000000E+00  0.00000000000E+00  0.45593999997E+02  0.45594000000E+02  0.51100000000E-03 0.  1.
         11   -1    0    0    0    0 -0.00000000000E+00 -0.00000000000E+00 -0.45593999997E+02  0.45594000000E+02  0.51100000000E-03 0. -1.
    9900012    2    1    2    0    0 -0.75887501888E+01 -0.41633887871E+02 -0.96256674056E+01  0.47787271646E+02  0.20000002741E+02 0.  0.
        -12    1    1    2    0    0  0.75887501888E+01  0.41633887871E+02  0.96256674056E+01  0.43400728354E+02  0.00000000000E+00 0.  1.
         11    1    3    3    0    0  0.22773382837E+01 -0.16921341827E+02 -0.33938115794E+01  0.17407930267E+02  0.51100000000E-03 0. -1.
        -11    1    3    3    0    0  0.17051873217E+01 -0.17075710680E+01 -0.38161018255E+01  0.45150964727E+01  0.51100000000E-03 0.  1.
        -12    1    3    3    0    0 -0.11571275794E+02 -0.23004974976E+02 -0.24157540006E+01  0.25864244906E+02  0.00000000000E+00 0.  1.
</event>
<event>
 7    1  0.4083500E-009  0.4778727E+02  0.7816164E-02  0.1312668E+00
        -11   -1    0    0    0    0  0.00000000000E+00  0.00000000000E+00  0.45593999997E+02  0.45594000000E+02  0.51100000000E-03 0.  1.
         11   -1    0    0    0    0 -0.00000000000E+00 -0.00000000000E+00 -0.45593999997E+02  0.45594000000E+02  0.51100000000E-03 0. -1.
    9900012    2    1    2    0    0 -0.35037509726E+02  0.17975144344E+02  0.18245279349E+02  0.47787272811E+02  0.20000008054E+02 0.  0.
        -12    1    1    2    0    0  0.35037509726E+02 -0.17975144344E+02 -0.18245279349E+02  0.43400727189E+02  0.00000000000E+00 0.  1.
         11    1    3    3    0    0 -0.18287145119E+02  0.33132716434E+01  0.13632703148E+02  0.23048818646E+02  0.51100000000E-03 0. -1.
        -11    1    3    3    0    0 -0.12122781256E+02  0.56986265321E+01  0.57694130835E+01  0.14585002479E+02  0.51100000000E-03 0.  1.
         12    1    3    3    0    0 -0.46275833513E+01  0.89632461689E+01 -0.11568368829E+01  0.10153451686E+02  0.00000000000E+00 0. -1.
</event>
<event>
 7    1  0.4083500E-009  0.4778727E+02  0.7816164E-02  0.1312668E+00
        -11   -1    0    0    0    0  0.00000000000E+00  0.00000000000E+00  0.45593999997E+02  0.45594000000E+02  0.51100000000E-03 0.  1.
         11   -1    0    0    0    0 -0.00000000000E+00 -0.00000000000E+00 -0.45593999997E+02  0.45594000000E+02  0.51100000000E-03 0. -1.
    9900012    2    1    2    0    0 -0.69075634336E+01 -0.28114233369E+02 -0.32334176558E+02  0.47787268161E+02  0.19999986853E+02 0.  0.
        -12    1    1    2    0    0  0.69075634336E+01  0.28114233369E+02  0.32334176558E+02  0.43400731839E+02  0.00000000000E+00 0.  1.
         11    1    3    3    0    0 -0.44142684134E+01 -0.10373446521E+01 -0.45513124436E+01  0.64246630085E+01  0.51100000000E-03 0. -1.
        -11    1    3    3    0    0 -0.13917279930E+01 -0.78411729083E-01  0.11258744859E+01  0.17918283469E+01  0.51100000000E-03 0.  1.
         12    1    3    3    0    0 -0.11015670272E+01 -0.26998476987E+02 -0.28908738600E+02  0.39570776806E+02  0.00000000000E+00 0. -1.
</event>
<event>
 7    1  0.4083500E-009  0.4778726E+02  0.7816164E-02  0.1312668E+00
        -11   -1    0    0    0    0  0.00000000000E+00  0.00000000000E+00  0.45593999997E+02  0.45594000000E+02  0.51100000000E-03 0.  1.
         11   -1    0    0    0    0 -0.00000000000E+00 -0.00000000000E+00 -0.45593999997E+02  0.45594000000E+02  0.51100000000E-03 0. -1.
    9900012    2    1    2    0    0 -0.38290651271E+02  0.18141620262E+02 -0.93984951956E+01  0.47787261845E+02  0.19999958055E+02 0.  0.
        -12    1    1    2    0    0  0.38290651271E+02 -0.18141620262E+02  0.93984951956E+01  0.43400738155E+02  0.00000000000E+00 0.  1.
         11    1    3    3    0    0 -0.14903744247E+01  0.12976001968E+01 -0.43867367550E+01  0.48112827620E+01  0.51100000000E-03 0. -1.
        -11    1    3    3    0    0 -0.45255665117E+01  0.24471432037E+01 -0.56349426394E+01  0.76303237757E+01  0.51100000000E-03 0.  1.
        -12    1    3    3    0    0 -0.32274710335E+02  0.14396876861E+02  0.62318419884E+00  0.35345655307E+02  0.00000000000E+00 0.  1.
</event>
<event>
 7    1  0.4083500E-009  0.4778727E+02  0.7816164E-02  0.1312668E+00
        -11   -1    0    0    0    0  0.00000000000E+00  0.00000000000E+00  0.45593999997E+02  0.45594000000E+02  0.51100000000E-03 0.  1.
         11   -1    0    0    0    0 -0.00000000000E+00 -0.00000000000E+00 -0.45593999997E+02  0.45594000000E+02  0.51100000000E-03 0. -1.
    9900012    2    1    2    0    0  0.63683592239E+01 -0.42341073965E+02 -0.70922963436E+01  0.47787271767E+02  0.20000003294E+02 0.  0.
        -12    1    1    2    0    0 -0.63683592239E+01  0.42341073965E+02  0.70922963436E+01  0.43400728233E+02  0.00000000000E+00 0.  1.
         11    1    3    3    0    0 -0.23317551262E+01 -0.41892100536E+00  0.12950073423E+01  0.26999298241E+01  0.51100000000E-03 0. -1.
        -11    1    3    3    0    0 -0.11838463818E+01 -0.86017939505E+01 -0.53515861845E+01  0.10199599324E+02  0.51100000000E-03 0.  1.
         12    1    3    3    0    0  0.98839607318E+01 -0.33320359009E+02 -0.30357175015E+01  0.34887742619E+02  0.00000000000E+00 0. -1.
</event>
<event>
 7    1  0.4083500E-009  0.4778727E+02  0.7816164E-02  0.1312668E+00
        -11   -1    0    0    0    0  0.00000000000E+00  0.00000000000E+00  0.45593999997E+02  0.45594000000E+02  0.51100000000E-03 0. -1.
         11   -1    0    0    0    0 -0.00000000000E+00 -0.00000000000E+00 -0.45593999997E+02  0.45594000000E+02  0.51100000000E-03 0.  1.
    9900012    2    1    2    0    0  0.24192848920E+02 -0.16185921037E+02 -0.32192317943E+02  0.47787270591E+02  0.19999997934E+02 0.  0.
        -12    1    1    2    0    0 -0.24192848920E+02  0.16185921037E+02  0.32192317943E+02  0.43400729409E+02  0.00000000000E+00 0.  1.
         11    1    3    3    0    0  0.81360112071E+01 -0.46493635798E+01 -0.10928820689E+01  0.94342806582E+01  0.51100000000E-03 0. -1.
        -11    1    3    3    0    0 -0.12294139068E+01 -0.27038444850E+01 -0.51649721156E+01  0.59581180560E+01  0.51100000000E-03 0.  1.
         12    1    3    3    0    0  0.17286251620E+02 -0.88327129721E+01 -0.25934463758E+02  0.32394871877E+02  0.00000000000E+00 0. -1.
</event>
<event>
 7    1  0.4083500E-009  0.4778726E+02  0.7816164E-02  0.1312668E+00
        -11   -1    0    0    0    0  0.00000000000E+00  0.00000000000E+00  0.45593999997E+02  0.45594000000E+02  0.51100000000E-03 0.  1.
         11   -1    0    0    0    0 -0.00000000000E+00 -0.00000000000E+00 -0.45593999997E+02  0.45594000000E+02  0.51100000000E-03 0. -1.
    9900012    2    1    2    0    0 -0.19918652888E+02 -0.62324836855E+01 -0.38052958274E+02  0.47787260154E+02  0.19999950347E+02 0.  0.
        -12    1    1    2    0    0  0.19918652888E+02  0.62324836855E+01  0.38052958274E+02  0.43400739846E+02  0.00000000000E+00 0.  1.
         11    1    3    3    0    0 -0.99754372668E+01 -0.61200181815E+01 -0.27448761465E+02  0.29839545530E+02  0.51100000000E-03 0. -1.
        -11    1    3    3    0    0 -0.91625585698E+00  0.32862513634E+01 -0.67450807463E+01  0.75587755195E+01  0.51100000000E-03 0.  1.
        -12    1    3    3    0    0 -0.90269597646E+01 -0.33987168674E+01 -0.38591160622E+01  0.10388939104E+02  0.00000000000E+00 0.  1.
</event>
<event>
 7    1  0.4083500E-009  0.4778728E+02  0.7816164E-02  0.1312668E+00
        -11   -1    0    0    0    0  0.00000000000E+00  0.00000000000E+00  0.45593999997E+02  0.45594000000E+02  0.51100000000E-03 0. -1.
         11   -1    0    0    0    0 -0.00000000000E+00 -0.00000000000E+00 -0.45593999997E+02  0.45594000000E+02  0.51100000000E-03 0.  1.
    9900012    2    1    2    0    0  0.41239530492E+02  0.27740140254E+01 -0.13237387063E+02  0.47787280591E+02  0.20000043525E+02 0.  0.
        -12    1    1    2    0    0 -0.41239530492E+02 -0.27740140254E+01  0.13237387063E+02  0.43400719409E+02  0.00000000000E+00 0.  1.
         11    1    3    3    0    0  0.13207878692E+02  0.68506448072E+01 -0.74979796290E+00  0.14897704221E+02  0.51100000000E-03 0. -1.
        -11    1    3    3    0    0 -0.71931781714E-01  0.73668572944E+00  0.10832125021E+01  0.13119564135E+01  0.51100000000E-03 0.  1.
         12    1    3    3    0    0  0.28103583581E+02 -0.48133165112E+01 -0.13570801603E+02  0.31577619956E+02  0.00000000000E+00 0. -1.
</event>
<event>
 7    1  0.4083500E-009  0.4778727E+02  0.7816164E-02  0.1312668E+00
        -11   -1    0    0    0    0  0.00000000000E+00  0.00000000000E+00  0.45593999997E+02  0.45594000000E+02  0.51100000000E-03 0.  1.
         11   -1    0    0    0    0 -0.00000000000E+00 -0.00000000000E+00 -0.45593999997E+02  0.45594000000E+02  0.51100000000E-03 0. -1.
    9900012    2    1    2    0    0  0.21025622309E+02 -0.28712803220E+02 -0.24841922264E+02  0.47787274615E+02  0.20000016277E+02 0.  0.
        -12    1    1    2    0    0 -0.21025622309E+02  0.28712803220E+02  0.24841922264E+02  0.43400725385E+02  0.00000000000E+00 0.  1.
         11    1    3    3    0    0  0.30256356260E+01 -0.36662971339E+00  0.17741334296E+01  0.35265334218E+01  0.51100000000E-03 0. -1.
        -11    1    3    3    0    0  0.68615407186E+01 -0.26708123860E+01 -0.50532287236E+01  0.89302351945E+01  0.51100000000E-03 0.  1.
         12    1    3    3    0    0  0.11138445965E+02 -0.25675361120E+02 -0.21562826970E+02  0.35330505998E+02  0.00000000000E+00 0. -1.
</event>
<event>
 7    1  0.4083500E-009  0.4778727E+02  0.7816164E-02  0.1312668E+00
        -11   -1    0    0    0    0  0.00000000000E+00  0.00000000000E+00  0.45593999997E+02  0.45594000000E+02  0.51100000000E-03 0.  1.
         11   -1    0    0    0    0 -0.00000000000E+00 -0.00000000000E+00 -0.45593999997E+02  0.45594000000E+02  0.51100000000E-03 0. -1.
    9900012    2    1    2    0    0  0.92852482664E+00  0.43375842881E+02 -0.11390948372E+01  0.47787269119E+02  0.19999991219E+02 0.  0.
        -12    1    1    2    0    0 -0.92852482664E+00 -0.43375842881E+02  0.11390948372E+01  0.43400730881E+02  0.00000000000E+00 0.  1.
         11    1    3    3    0    0 -0.31319484397E+01  0.16425691491E+02  0.17770595529E+01  0.16815777797E+02  0.51100000000E-03 0.  1.
        -11    1    3    3    0    0 -0.20056133396E+01  0.16666588740E+02 -0.72287472134E+01  0.18277101839E+02  0.51100000000E-03 0. -1.
         12    1    3    3    0    0  0.60660866060E+01  0.10283562649E+02  0.43125928233E+01  0.12694389483E+02  0.00000000000E+00 0. -1.
</event>
<event>
 7    1  0.4083500E-009  0.4778727E+02  0.7816164E-02  0.1312668E+00
        -11   -1    0    0    0    0  0.00000000000E+00  0.00000000000E+00  0.45593999997E+02  0.45594000000E+02  0.51100000000E-03 0.  1.
         11   -1    0    0    0    0 -0.00000000000E+00 -0.00000000000E+00 -0.45593999997E+02  0.45594000000E+02  0.51100000000E-03 0. -1.
    9900012    2    1    2    0    0  0.88454967790E-01 -0.78109468489E+01 -0.42691973927E+02  0.47787270136E+02  0.19999995856E+02 0.  0.
        -12    1    1    2    0    0 -0.88454967790E-01  0.78109468489E+01  0.42691973927E+02  0.43400729864E+02  0.00000000000E+00 0.  1.
         11    1    3    3    0    0 -0.40555109648E+01 -0.15998822075E+01 -0.26383697320E+02  0.26741471104E+02  0.51100000000E-03 0. -1.
        -11    1    3    3    0    0  0.91182274373E+00 -0.25708605248E+00 -0.13783351632E+02  0.13815871179E+02  0.51100000000E-03 0.  1.
        -12    1    3    3    0    0  0.32321431889E+01 -0.59539785890E+01 -0.25249249753E+01  0.72299278532E+01  0.00000000000E+00 0.  1.
</event>
<event>
 7    1  0.4083500E-009  0.4778727E+02  0.7816164E-02  0.1312668E+00
        -11   -1    0    0    0    0  0.00000000000E+00  0.00000000000E+00  0.45593999997E+02  0.45594000000E+02  0.51100000000E-03 0.  1.
         11   -1    0    0    0    0 -0.00000000000E+00 -0.00000000000E+00 -0.45593999997E+02  0.45594000000E+02  0.51100000000E-03 0. -1.
    9900012    2    1    2    0    0  0.42522651845E+01 -0.57518219713E+01 -0.42807217843E+02  0.47787272879E+02  0.20000008365E+02 0.  0.
        -12    1    1    2    0    0 -0.42522651845E+01  0.57518219713E+01  0.42807217843E+02  0.43400727121E+02  0.00000000000E+00 0.  1.
         11    1    3    3    0    0 -0.25098384751E+01  0.40870410664E+01 -0.14922147573E+02  0.15673981061E+02  0.51100000000E-03 0. -1.
        -11    1    3    3    0    0 -0.83812237145E+00 -0.26333760712E+01 -0.16149080766E+02  0.16383831313E+02  0.51100000000E-03 0.  1.
        -12    1    3    3    0    0  0.76002260310E+01 -0.72054869665E+01 -0.11735989504E+02  0.15729460505E+02  0.00000000000E+00 0.  1.
</event>
<event>
 7    1  0.4083500E-009  0.4778727E+02  0.7816164E-02  0.1312668E+00
        -11   -1    0    0    0    0  0.00000000000E+00  0.00000000000E+00  0.45593999997E+02  0.45594000000E+02  0.51100000000E-03 0.  1.
         11   -1    0    0    0    0 -0.00000000000E+00 -0.00000000000E+00 -0.45593999997E+02  0.45594000000E+02  0.51100000000E-03 0. -1.
    9900012    2    1    2    0    0 -0.22904066696E+02 -0.26538080940E+02 -0.25588226208E+02  0.47787270379E+02  0.19999996965E+02 0.  0.
        -12    1    1    2    0    0  0.22904066696E+02  0.26538080940E+02  0.25588226208E+02  0.43400729621E+02  0.00000000000E+00 0.  1.
         11    1    3    3    0    0 -0.13929458815E+02 -0.17772521046E+02 -0.93675806760E+01  0.24446756332E+02  0.51100000000E-03 0. -1.
        -11    1    3    3    0    0  0.10871439926E+01 -0.27069715125E+01  0.44623366975E+00  0.29510509279E+01  0.51100000000E-03 0.  1.
         12    1    3    3    0    0 -0.10061751874E+02 -0.60585883819E+01 -0.16666879201E+02  0.20389463118E+02  0.00000000000E+00 0. -1.
</event>
<event>
 7    1  0.4083500E-009  0.4778727E+02  0.7816164E-02  0.1312668E+00
        -11   -1    0    0    0    0  0.00000000000E+00  0.00000000000E+00  0.45593999997E+02  0.45594000000E+02  0.51100000000E-03 0. -1.
         11   -1    0    0    0    0 -0.00000000000E+00 -0.00000000000E+00 -0.45593999997E+02  0.45594000000E+02  0.51100000000E-03 0.  1.
    9900012    2    1    2    0    0 -0.31187442081E+01 -0.41458341726E+02  0.12454039896E+02  0.47787265284E+02  0.19999973737E+02 0.  0.
        -12    1    1    2    0    0  0.31187442081E+01  0.41458341726E+02 -0.12454039896E+02  0.43400734716E+02  0.00000000000E+00 0.  1.
         11    1    3    3    0    0  0.47453574230E+01 -0.27214393888E+02  0.10297769556E+02  0.29481955666E+02  0.51100000000E-03 0. -1.
        -11    1    3    3    0    0  0.50829879989E+00 -0.49427934752E+01 -0.16322490747E+01  0.52300872183E+01  0.51100000000E-03 0.  1.
        -12    1    3    3    0    0 -0.83724004310E+01 -0.93011543627E+01  0.37885194152E+01  0.13075222400E+02  0.00000000000E+00 0.  1.
</event>
<event>
 7    1  0.4083500E-009  0.4778728E+02  0.7816164E-02  0.1312668E+00
        -11   -1    0    0    0    0  0.00000000000E+00  0.00000000000E+00  0.45593999997E+02  0.45594000000E+02  0.51100000000E-03 0.  1.
         11   -1    0    0    0    0 -0.00000000000E+00 -0.00000000000E+00 -0.45593999997E+02  0.45594000000E+02  0.51100000000E-03 0. -1.
    9900012    2    1    2    0    0  0.36037884406E+02  0.16617984818E+02 -0.17570895271E+02  0.47787275438E+02  0.20000020033E+02 0.  0.
        -12    1    1    2    0    0 -0.36037884406E+02 -0.16617984818E+02  0.17570895271E+02  0.43400724562E+02  0.00000000000E+00 0.  1.
         11    1    3    3    0    0  0.84525326310E+01  0.31515063856E+01 -0.89498979443E+01  0.12707398390E+02  0.51100000000E-03 0. -1.
        -11    1    3    3    0    0  0.12525104446E+02 -0.15978849933E+01 -0.20791180470E+01  0.12796648387E+02  0.51100000000E-03 0.  1.
         12    1    3    3    0    0  0.15060247329E+02  0.15064363426E+02 -0.65418792792E+01  0.22283228661E+02  0.00000000000E+00 0. -1.
</event>
<event>
 7    1  0.4083500E-009  0.4778727E+02  0.7816164E-02  0.1312668E+00
        -11   -1    0    0    0    0  0.00000000000E+00  0.00000000000E+00  0.45593999997E+02  0.45594000000E+02  0.51100000000E-03 0.  1.
         11   -1    0    0    0    0 -0.00000000000E+00 -0.00000000000E+00 -0.45593999997E+02  0.45594000000E+02  0.51100000000E-03 0. -1.
    9900012    2    1    2    0    0 -0.50471829953E+01 -0.23049196009E+01 -0.43044588270E+02  0.47787270860E+02  0.19999999159E+02 0.  0.
        -12    1    1    2    0    0  0.50471829953E+01  0.23049196009E+01  0.43044588270E+02  0.43400729140E+02  0.00000000000E+00 0.  1.
         11    1    3    3    0    0 -0.74058289590E+01 -0.96989310660E+01 -0.25256197224E+02  0.28049796165E+02  0.51100000000E-03 0. -1.
        -11    1    3    3    0    0  0.39329759733E+00  0.12800796964E+01 -0.74307580209E+01  0.75504603870E+01  0.51100000000E-03 0.  1.
         12    1    3    3    0    0  0.19653483664E+01  0.61139317687E+01 -0.10357633025E+02  0.12187014308E+02  0.00000000000E+00 0. -1.
</event>
<event>
 7    1  0.4083500E-009  0.4778733E+02  0.7816164E-02  0.1312667E+00
        -11   -1    0    0    0    0  0.00000000000E+00  0.00000000000E+00  0.45593999997E+02  0.45594000000E+02  0.51100000000E-03 0.  1.
         11   -1    0    0    0    0 -0.00000000000E+00 -0.00000000000E+00 -0.45593999997E+02  0.45594000000E+02  0.51100000000E-03 0. -1.
    9900012    2    1    2    0    0  0.14394517363E+02  0.24932107873E+02 -0.32477772802E+02  0.47787333423E+02  0.20000284408E+02 0.  0.
        -12    1    1    2    0    0 -0.14394517363E+02 -0.24932107873E+02  0.32477772802E+02  0.43400666577E+02  0.00000000000E+00 0.  1.
         11    1    3    3    0    0  0.59232048761E+01  0.97643529325E+00 -0.59234453936E+01  0.84335631544E+01  0.51100000000E-03 0. -1.
        -11    1    3    3    0    0  0.66390705598E+01  0.30892592835E+01 -0.11203636082E+02  0.13384402958E+02  0.51100000000E-03 0.  1.
         12    1    3    3    0    0  0.18322419275E+01  0.20866413297E+02 -0.15350691326E+02  0.25969367311E+02  0.00000000000E+00 0. -1.
</event>
<event>
 7    1  0.4083500E-009  0.4778727E+02  0.7816164E-02  0.1312668E+00
        -11   -1    0    0    0    0  0.00000000000E+00  0.00000000000E+00  0.45593999997E+02  0.45594000000E+02  0.51100000000E-03 0.  1.
         11   -1    0    0    0    0 -0.00000000000E+00 -0.00000000000E+00 -0.45593999997E+02  0.45594000000E+02  0.51100000000E-03 0. -1.
    9900012    2    1    2    0    0  0.24449502412E+02 -0.28589186067E+02 -0.21644938707E+02  0.47787273051E+02  0.20000009147E+02 0.  0.
        -12    1    1    2    0    0 -0.24449502412E+02  0.28589186067E+02  0.21644938707E+02  0.43400726949E+02  0.00000000000E+00 0.  1.
         11    1    3    3    0    0  0.95887078345E+01 -0.80421856337E+01 -0.35743859892E+01  0.13015233504E+02  0.51100000000E-03 0. -1.
        -11    1    3    3    0    0  0.70660646011E+01 -0.14119557449E+02 -0.21757391175E+01  0.15938162142E+02  0.51100000000E-03 0.  1.
         12    1    3    3    0    0  0.77947299760E+01 -0.64274429843E+01 -0.15894813600E+02  0.18833877405E+02  0.00000000000E+00 0. -1.
</event>
<event>
 7    1  0.4083500E-009  0.4778728E+02  0.7816164E-02  0.1312668E+00
        -11   -1    0    0    0    0  0.00000000000E+00  0.00000000000E+00  0.45593999997E+02  0.45594000000E+02  0.51100000000E-03 0.  1.
         11   -1    0    0    0    0 -0.00000000000E+00 -0.00000000000E+00 -0.45593999997E+02  0.45594000000E+02  0.51100000000E-03 0. -1.
    9900012    2    1    2    0    0 -0.39224884920E+02 -0.32648242659E+00 -0.18572147109E+02  0.47787276089E+02  0.20000023000E+02 0.  0.
        -12    1    1    2    0    0  0.39224884920E+02  0.32648242659E+00  0.18572147109E+02  0.43400723911E+02  0.00000000000E+00 0.  1.
         11    1    3    3    0    0 -0.33095017771E+02 -0.39259902277E+01 -0.19612107011E+02  0.38669475588E+02  0.51100000000E-03 0. -1.
        -11    1    3    3    0    0 -0.28034806800E+01  0.27361592476E+01 -0.21156292149E+01  0.44521858213E+01  0.51100000000E-03 0.  1.
        -12    1    3    3    0    0 -0.33263864687E+01  0.86334855347E+00  0.31555891174E+01  0.46656146799E+01  0.00000000000E+00 0.  1.
</event>
<event>
 7    1  0.4083500E-009  0.4778727E+02  0.7816164E-02  0.1312668E+00
        -11   -1    0    0    0    0  0.00000000000E+00  0.00000000000E+00  0.45593999997E+02  0.45594000000E+02  0.51100000000E-03 0. -1.
         11   -1    0    0    0    0 -0.00000000000E+00 -0.00000000000E+00 -0.45593999997E+02  0.45594000000E+02  0.51100000000E-03 0.  1.
    9900012    2    1    2    0    0 -0.27888228914E+01 -0.15494319096E+02  0.40444673543E+02  0.47787273331E+02  0.20000010424E+02 0.  0.
        -12    1    1    2    0    0  0.27888228914E+01  0.15494319096E+02 -0.40444673543E+02  0.43400726669E+02  0.00000000000E+00 0.  1.
         11    1    3    3    0    0  0.33440744682E+01 -0.72183293176E+01  0.26252205611E+02  0.27431103001E+02  0.51100000000E-03 0. -1.
        -11    1    3    3    0    0 -0.46435223137E+01 -0.56900484282E+01  0.15458574575E+02  0.17114510766E+02  0.51100000000E-03 0.  1.
        -12    1    3    3    0    0 -0.14893750458E+01 -0.25859413506E+01 -0.12661066425E+01  0.32416595636E+01  0.00000000000E+00 0.  1.
</event>
<event>
 7    1  0.4083500E-009  0.4778728E+02  0.7816164E-02  0.1312668E+00
        -11   -1    0    0    0    0  0.00000000000E+00  0.00000000000E+00  0.45593999997E+02  0.45594000000E+02  0.51100000000E-03 0. -1.
         11   -1    0    0    0    0 -0.00000000000E+00 -0.00000000000E+00 -0.45593999997E+02  0.45594000000E+02  0.51100000000E-03 0.  1.
    9900012    2    1    2    0    0 -0.30922247754E+02  0.25451271737E+02  0.16723342906E+02  0.47787276075E+02  0.20000022938E+02 0.  0.
        -12    1    1    2    0    0  0.30922247754E+02 -0.25451271737E+02 -0.16723342906E+02  0.43400723925E+02  0.00000000000E+00 0.  1.
         11    1    3    3    0    0 -0.16602901809E+02  0.21923977491E+02  0.10170464488E+02  0.29321587367E+02  0.51100000000E-03 0. -1.
        -11    1    3    3    0    0 -0.12075127888E+02  0.54909719843E+01  0.26053386686E+01  0.13518405108E+02  0.51100000000E-03 0.  1.
        -12    1    3    3    0    0 -0.22442180574E+01 -0.19636777384E+01  0.39475397495E+01  0.49472836005E+01  0.00000000000E+00 0.  1.
</event>
<event>
 7    1  0.4083500E-009  0.4778728E+02  0.7816164E-02  0.1312668E+00
        -11   -1    0    0    0    0  0.00000000000E+00  0.00000000000E+00  0.45593999997E+02  0.45594000000E+02  0.51100000000E-03 0. -1.
         11   -1    0    0    0    0 -0.00000000000E+00 -0.00000000000E+00 -0.45593999997E+02  0.45594000000E+02  0.51100000000E-03 0.  1.
    9900012    2    1    2    0    0  0.12193352066E+02  0.36983058064E+02  0.19162421899E+02  0.47787276142E+02  0.20000023241E+02 0.  0.
        -12    1    1    2    0    0 -0.12193352066E+02 -0.36983058064E+02 -0.19162421899E+02  0.43400723858E+02  0.00000000000E+00 0.  1.
         11    1    3    3    0    0  0.87373452025E+00  0.43009494258E+01  0.36720045262E+00  0.44041360570E+01  0.51100000000E-03 0. -1.
        -11    1    3    3    0    0  0.10072350690E+02  0.10080758980E+02  0.46785221528E+00  0.14258079674E+02  0.51100000000E-03 0.  1.
         12    1    3    3    0    0  0.12472668550E+01  0.22601349659E+02  0.18327369231E+02  0.29125060411E+02  0.00000000000E+00 0. -1.
</event>
<event>
 7    1  0.4083500E-009  0.4778728E+02  0.7816164E-02  0.1312668E+00
        -11   -1    0    0    0    0  0.00000000000E+00  0.00000000000E+00  0.45593999997E+02  0.45594000000E+02  0.51100000000E-03 0. -1.
         11   -1    0    0    0    0 -0.00000000000E+00 -0.00000000000E+00 -0.45593999997E+02  0.45594000000E+02  0.51100000000E-03 0.  1.
    9900012    2    1    2    0    0  0.13698983730E+02  0.31976721177E+02 -0.25950906497E+02  0.47787281106E+02  0.20000045875E+02 0.  0.
        -12    1    1    2    0    0 -0.13698983730E+02 -0.31976721177E+02  0.25950906497E+02  0.43400718894E+02  0.00000000000E+00 0.  1.
         11    1    3    3    0    0  0.28154943623E+01  0.14836824236E+02 -0.29581478367E+01  0.15388599703E+02  0.51100000000E-03 0. -1.
        -11    1    3    3    0    0  0.52592915655E+01  0.93794603649E+01 -0.46760218770E+01  0.11726022572E+02  0.51100000000E-03 0.  1.
        -12    1    3    3    0    0  0.56241978020E+01  0.77604365763E+01 -0.18316736783E+02  0.20672658831E+02  0.00000000000E+00 0.  1.
</event>
<event>
 7    1  0.4083500E-009  0.4778727E+02  0.7816164E-02  0.1312668E+00
        -11   -1    0    0    0    0  0.00000000000E+00  0.00000000000E+00  0.45593999997E+02  0.45594000000E+02  0.51100000000E-03 0. -1.
         11   -1    0    0    0    0 -0.00000000000E+00 -0.00000000000E+00 -0.45593999997E+02  0.45594000000E+02  0.51100000000E-03 0.  1.
    9900012    2    1    2    0    0  0.42874269634E+02 -0.49453827493E+01 -0.45785580322E+01  0.47787274190E+02  0.20000014340E+02 0.  0.
        -12    1    1    2    0    0 -0.42874269634E+02  0.49453827493E+01  0.45785580322E+01  0.43400725810E+02  0.00000000000E+00 0.  1.
         11    1    3    3    0    0  0.10490458559E+01  0.17253478694E+00 -0.11096120912E+01  0.15367188144E+01  0.51100000000E-03 0. -1.
        -11    1    3    3    0    0 -0.15961423546E+01  0.40515786508E+00 -0.18112669960E+01  0.24479607234E+01  0.51100000000E-03 0.  1.
         12    1    3    3    0    0  0.43421366133E+02 -0.55230754013E+01 -0.16576789451E+01  0.43802594652E+02  0.00000000000E+00 0. -1.
</event>
<event>
 7    1  0.4083500E-009  0.4778727E+02  0.7816164E-02  0.1312668E+00
        -11   -1    0    0    0    0  0.00000000000E+00  0.00000000000E+00  0.45593999997E+02  0.45594000000E+02  0.51100000000E-03 0. -1.
         11   -1    0    0    0    0 -0.00000000000E+00 -0.00000000000E+00 -0.45593999997E+02  0.45594000000E+02  0.51100000000E-03 0.  1.
    9900012    2    1    2    0    0 -0.20347270921E+02 -0.13432605506E+02  0.35905110557E+02  0.47787270873E+02  0.19999999220E+02 0.  0.
        -12    1    1    2    0    0  0.20347270921E+02  0.13432605506E+02 -0.35905110557E+02  0.43400729127E+02  0.00000000000E+00 0.  1.
         11    1    3    3    0    0 -0.13193980916E+02 -0.10560880540E+02  0.32665051442E+02  0.36777967809E+02  0.51100000000E-03 0. -1.
        -11    1    3    3    0    0 -0.69873996309E+01 -0.39395430383E+01  0.46198473388E+01  0.92567133826E+01  0.51100000000E-03 0.  1.
        -12    1    3    3    0    0 -0.16589037429E+00  0.10678180720E+01 -0.13797882238E+01  0.17525896820E+01  0.00000000000E+00 0.  1.
</event>
<event>
 7    1  0.4083500E-009  0.4778724E+02  0.7816164E-02  0.1312668E+00
        -11   -1    0    0    0    0  0.00000000000E+00  0.00000000000E+00  0.45593999997E+02  0.45594000000E+02  0.51100000000E-03 0.  1.
         11   -1    0    0    0    0 -0.00000000000E+00 -0.00000000000E+00 -0.45593999997E+02  0.45594000000E+02  0.51100000000E-03 0. -1.
    9900012    2    1    2    0    0  0.19872902670E+02 -0.83949409300E+01 -0.37659239553E+02  0.47787244045E+02  0.19999876900E+02 0.  0.
        -12    1    1    2    0    0 -0.19872902670E+02  0.83949409300E+01  0.37659239553E+02  0.43400755955E+02  0.00000000000E+00 0.  1.
         11    1    3    3    0    0  0.64512113301E+01 -0.96607403421E+01 -0.14267097578E+02  0.18398317998E+02  0.51100000000E-03 0. -1.
        -11    1    3    3    0    0  0.40344690703E+01 -0.82494991996E+00 -0.22759135326E-01  0.41180093842E+01  0.51100000000E-03 0.  1.
         12    1    3    3    0    0  0.93872222693E+01  0.20907493321E+01 -0.23369382840E+02  0.25270916663E+02  0.00000000000E+00 0. -1.
</event>
<event>
 7    1  0.4083500E-009  0.4778727E+02  0.7816164E-02  0.1312668E+00
        -11   -1    0    0    0    0  0.00000000000E+00  0.00000000000E+00  0.45593999997E+02  0.45594000000E+02  0.51100000000E-03 0.  1.
         11   -1    0    0    0    0 -0.00000000000E+00 -0.00000000000E+00 -0.45593999997E+02  0.45594000000E+02  0.51100000000E-03 0. -1.
    9900012    2    1    2    0    0  0.10915208523E+02 -0.41063252047E+02 -0.88482348694E+01  0.47787266065E+02  0.19999977297E+02 0.  0.
        -12    1    1    2    0    0 -0.10915208523E+02  0.41063252047E+02  0.88482348694E+01  0.43400733935E+02  0.00000000000E+00 0.  1.
         11    1    3    3    0    0  0.80494912208E+00 -0.34893293025E+01  0.25513724130E+00  0.35900497689E+01  0.51100000000E-03 0. -1.
        -11    1    3    3    0    0  0.12240492844E+02 -0.11488900852E+02 -0.60648444828E+01  0.17849561528E+02  0.51100000000E-03 0.  1.
         12    1    3    3    0    0 -0.21302334435E+01 -0.26085021892E+02 -0.30385276279E+01  0.26347654768E+02  0.00000000000E+00 0. -1.
</event>
<event>
 7    1  0.4083500E-009  0.4778727E+02  0.7816164E-02  0.1312668E+00
        -11   -1    0    0    0    0  0.00000000000E+00  0.00000000000E+00  0.45593999997E+02  0.45594000000E+02  0.51100000000E-03 0. -1.
         11   -1    0    0    0    0 -0.00000000000E+00 -0.00000000000E+00 -0.45593999997E+02  0.45594000000E+02  0.51100000000E-03 0.  1.
    9900012    2    1    2    0    0 -0.89818939760E+00  0.36718175964E+02  0.23121256627E+02  0.47787266155E+02  0.19999977706E+02 0.  0.
        -12    1    1    2    0    0  0.89818939760E+00 -0.36718175964E+02 -0.23121256627E+02  0.43400733845E+02  0.00000000000E+00 0.  1.
         11    1    3    3    0    0 -0.31545653473E+01  0.13503986778E+00  0.45846852121E+01  0.55667636066E+01  0.51100000000E-03 0. -1.
        -11    1    3    3    0    0 -0.33163330629E+01  0.17287889959E+02  0.11064832755E+02  0.20791818784E+02  0.51100000000E-03 0.  1.
         12    1    3    3    0    0  0.55727090127E+01  0.19295246137E+02  0.74717386599E+01  0.21428683764E+02  0.00000000000E+00 0. -1.
</event>
<event>
 7    1  0.4083500E-009  0.4778727E+02  0.7816164E-02  0.1312668E+00
        -11   -1    0    0    0    0  0.00000000000E+00  0.00000000000E+00  0.45593999997E+02  0.45594000000E+02  0.51100000000E-03 0.  1.
         11   -1    0    0    0    0 -0.00000000000E+00 -0.00000000000E+00 -0.45593999997E+02  0.45594000000E+02  0.51100000000E-03 0. -1.
    9900012    2    1    2    0    0 -0.36327833692E+02  0.15158032130E+02 -0.18279664387E+02  0.47787267646E+02  0.19999984504E+02 0.  0.
        -12    1    1    2    0    0  0.36327833692E+02 -0.15158032130E+02  0.18279664387E+02  0.43400732354E+02  0.00000000000E+00 0.  1.
         11    1    3    3    0    0 -0.18197139778E+02  0.47253691852E+01 -0.13872536770E+02  0.23364765925E+02  0.51100000000E-03 0. -1.
        -11    1    3    3    0    0 -0.16566567565E+02  0.69273292328E+01 -0.75325866735E+01  0.19472516875E+02  0.51100000000E-03 0.  1.
        -12    1    3    3    0    0 -0.15641263483E+01  0.35053337119E+01  0.31254590559E+01  0.49499848460E+01  0.00000000000E+00 0.  1.
</event>
<event>
 7    1  0.4083500E-009  0.4778727E+02  0.7816164E-02  0.1312668E+00
        -11   -1    0    0    0    0  0.00000000000E+00  0.00000000000E+00  0.45593999997E+02  0.45594000000E+02  0.51100000000E-03 0. -1.
         11   -1    0    0    0    0 -0.00000000000E+00 -0.00000000000E+00 -0.45593999997E+02  0.45594000000E+02  0.51100000000E-03 0.  1.
    9900012    2    1    2    0    0 -0.30787590806E+02  0.15775504697E+02  0.26208408802E+02  0.47787274338E+02  0.20000015015E+02 0.  0.
        -12    1    1    2    0    0  0.30787590806E+02 -0.15775504697E+02 -0.26208408802E+02  0.43400725662E+02  0.00000000000E+00 0.  1.
         11    1    3    3    0    0 -0.17393617118E+02  0.39114359739E+01  0.11472790354E+02  0.21200522790E+02  0.51100000000E-03 0. -1.
        -11    1    3    3    0    0 -0.39087233828E+01 -0.18634146835E+00  0.96770986497E+01  0.10438346620E+02  0.51100000000E-03 0.  1.
         12    1    3    3    0    0 -0.94852503057E+01  0.12050410191E+02  0.50585197987E+01  0.16148404927E+02  0.00000000000E+00 0. -1.
</event>
<event>
 7    1  0.4083500E-009  0.4778727E+02  0.7816164E-02  0.1312668E+00
        -11   -1    0    0    0    0  0.00000000000E+00  0.00000000000E+00  0.45593999997E+02  0.45594000000E+02  0.51100000000E-03 0. -1.
         11   -1    0    0    0    0 -0.00000000000E+00 -0.00000000000E+00 -0.45593999997E+02  0.45594000000E+02  0.51100000000E-03 0.  1.
    9900012    2    1    2    0    0  0.25115255848E+02  0.19800786056E+02  0.29338980354E+02  0.47787274511E+02  0.20000015805E+02 0.  0.
        -12    1    1    2    0    0 -0.25115255848E+02 -0.19800786056E+02 -0.29338980354E+02  0.43400725489E+02  0.00000000000E+00 0.  1.
         11    1    3    3    0    0  0.17082432249E+02  0.78567180357E+01  0.14714488812E+02  0.23875797182E+02  0.51100000000E-03 0. -1.
        -11    1    3    3    0    0  0.40426165621E+01  0.11230605626E+01  0.11076955269E+02  0.11844954706E+02  0.51100000000E-03 0.  1.
        -12    1    3    3    0    0  0.39902070374E+01  0.10821007458E+02  0.35475362736E+01  0.12066522623E+02  0.00000000000E+00 0.  1.
</event>
<event>
 7    1  0.4083500E-009  0.4778727E+02  0.7816164E-02  0.1312668E+00
        -11   -1    0    0    0    0  0.00000000000E+00  0.00000000000E+00  0.45593999997E+02  0.45594000000E+02  0.51100000000E-03 0. -1.
         11   -1    0    0    0    0 -0.00000000000E+00 -0.00000000000E+00 -0.45593999997E+02  0.45594000000E+02  0.51100000000E-03 0.  1.
    9900012    2    1    2    0    0 -0.12424549384E+02  0.38035183520E+02  0.16810077844E+02  0.47787270399E+02  0.19999997056E+02 0.  0.
        -12    1    1    2    0    0  0.12424549384E+02 -0.38035183520E+02 -0.16810077844E+02  0.43400729601E+02  0.00000000000E+00 0.  1.
         11    1    3    3    0    0 -0.10717552131E+02  0.14043946193E+02  0.55010724223E+01  0.18502976691E+02  0.51100000000E-03 0. -1.
        -11    1    3    3    0    0 -0.49004077611E+01  0.37045200199E+01  0.46179572351E+01  0.76852452198E+01  0.51100000000E-03 0.  1.
         12    1    3    3    0    0  0.31934105076E+01  0.20286717307E+02  0.66910481868E+01  0.21599048488E+02  0.00000000000E+00 0. -1.
</event>
<event>
 7    1  0.4083500E-009  0.4778728E+02  0.7816164E-02  0.1312668E+00
        -11   -1    0    0    0    0  0.00000000000E+00  0.00000000000E+00  0.45593999997E+02  0.45594000000E+02  0.51100000000E-03 0.  1.
         11   -1    0    0    0    0 -0.00000000000E+00 -0.00000000000E+00 -0.45593999997E+02  0.45594000000E+02  0.51100000000E-03 0. -1.
    9900012    2    1    2    0    0 -0.29800915336E+02  0.91221065375E+01 -0.30204551306E+02  0.47787282240E+02  0.20000051044E+02 0.  0.
        -12    1    1    2    0    0  0.29800915336E+02 -0.91221065375E+01  0.30204551306E+02  0.43400717760E+02  0.00000000000E+00 0.  1.
         11    1    3    3    0    0 -0.63784423097E+01 -0.24015149960E+01 -0.67040357027E+01  0.95601200588E+01  0.51100000000E-03 0. -1.
        -11    1    3    3    0    0 -0.49585494743E+01  0.32501056587E+01  0.14505051221E+01  0.61036353964E+01  0.51100000000E-03 0.  1.
         12    1    3    3    0    0 -0.18463923552E+02  0.82735158747E+01 -0.24951020725E+02  0.32123526785E+02  0.00000000000E+00 0. -1.
</event>
<event>
 7    1  0.4092005E-009  0.4778727E+02  0.7816164E-02  0.1312668E+00
        -11   -1    0    0    0    0  0.00000000000E+00  0.00000000000E+00  0.45593999997E+02  0.45594000000E+02  0.51100000000E-03 0.  1.
         11   -1    0    0    0    0 -0.00000000000E+00 -0.00000000000E+00 -0.45593999997E+02  0.45594000000E+02  0.51100000000E-03 0. -1.
    9900012    2    1    2    0    0  0.37778267426E+02 -0.16079821248E+02 -0.14066465694E+02  0.47787267308E+02  0.19999982964E+02 0.  0.
        -12    1    1    2    0    0 -0.37778267426E+02  0.16079821248E+02  0.14066465694E+02  0.43400732692E+02  0.00000000000E+00 0.  1.
         11    1    3    3    0    0  0.47715939647E+01 -0.59386138798E+01 -0.25095639182E+01  0.80207951662E+01  0.51100000000E-03 0. -1.
        -11    1    3    3    0    0  0.17938275041E+01  0.26919810498E+01 -0.40680778714E+01  0.51974837101E+01  0.51100000000E-03 0.  1.
         12    1    3    3    0    0  0.31212845957E+02 -0.12833188418E+02 -0.74888239042E+01  0.34568988432E+02  0.00000000000E+00 0. -1.
</event>
<event>
 7    1  0.4083500E-009  0.4778727E+02  0.7816164E-02  0.1312668E+00
        -11   -1    0    0    0    0  0.00000000000E+00  0.00000000000E+00  0.45593999997E+02  0.45594000000E+02  0.51100000000E-03 0.  1.
         11   -1    0    0    0    0 -0.00000000000E+00 -0.00000000000E+00 -0.45593999997E+02  0.45594000000E+02  0.51100000000E-03 0. -1.
    9900012    2    1    2    0    0 -0.78157790110E+01  0.39847212217E+02  0.15321123882E+02  0.47787267748E+02  0.19999984968E+02 0.  0.
        -12    1    1    2    0    0  0.78157790110E+01 -0.39847212217E+02 -0.15321123882E+02  0.43400732252E+02  0.00000000000E+00 0.  1.
         11    1    3    3    0    0 -0.11097414081E+01  0.35248524916E+01  0.47396911033E+01  0.60100568297E+01  0.51100000000E-03 0. -1.
        -11    1    3    3    0    0 -0.78296795084E+00  0.21453490850E+01 -0.36330150827E+01  0.42911956797E+01  0.51100000000E-03 0.  1.
         12    1    3    3    0    0 -0.59230696520E+01  0.34177010641E+02  0.14214447861E+02  0.37486015238E+02  0.00000000000E+00 0. -1.
</event>
<event>
 7    1  0.4083500E-009  0.4778727E+02  0.7816164E-02  0.1312668E+00
        -11   -1    0    0    0    0  0.00000000000E+00  0.00000000000E+00  0.45593999997E+02  0.45594000000E+02  0.51100000000E-03 0.  1.
         11   -1    0    0    0    0 -0.00000000000E+00 -0.00000000000E+00 -0.45593999997E+02  0.45594000000E+02  0.51100000000E-03 0. -1.
    9900012    2    1    2    0    0 -0.32894880925E+02 -0.27813378521E+02  0.52882861773E+01  0.47787272051E+02  0.20000004588E+02 0.  0.
        -12    1    1    2    0    0  0.32894880925E+02  0.27813378521E+02 -0.52882861773E+01  0.43400727949E+02  0.00000000000E+00 0.  1.
         11    1    3    3    0    0 -0.14075892467E+02 -0.20126419101E+02 -0.23780449507E+01  0.24675060134E+02  0.51100000000E-03 0. -1.
        -11    1    3    3    0    0 -0.21426561932E+00 -0.74706316641E+00  0.24660603424E+01  0.25856270040E+01  0.51100000000E-03 0.  1.
        -12    1    3    3    0    0 -0.18604722839E+02 -0.69398962537E+01  0.52002707855E+01  0.20526584913E+02  0.00000000000E+00 0.  1.
</event>
<event>
 7    1  0.4083500E-009  0.4778728E+02  0.7816164E-02  0.1312668E+00
        -11   -1    0    0    0    0  0.00000000000E+00  0.00000000000E+00  0.45593999997E+02  0.45594000000E+02  0.51100000000E-03 0. -1.
         11   -1    0    0    0    0 -0.00000000000E+00 -0.00000000000E+00 -0.45593999997E+02  0.45594000000E+02  0.51100000000E-03 0.  1.
    9900012    2    1    2    0    0 -0.11587992832E+02  0.21738487100E+02  0.35732047985E+02  0.47787278203E+02  0.20000032639E+02 0.  0.
        -12    1    1    2    0    0  0.11587992832E+02 -0.21738487100E+02 -0.35732047985E+02  0.43400721797E+02  0.00000000000E+00 0.  1.
         11    1    3    3    0    0  0.17659089808E+01  0.15426822497E+01  0.37091939902E+01  0.43882141436E+01  0.51100000000E-03 0. -1.
        -11    1    3    3    0    0 -0.13717387824E+02  0.13729860993E+02  0.31372273965E+02  0.36890315607E+02  0.51100000000E-03 0.  1.
        -12    1    3    3    0    0  0.36348601036E+00  0.64659438573E+01  0.65058003052E+00  0.65087484528E+01  0.00000000000E+00 0.  1.
</event>
<event>
 7    1  0.4083500E-009  0.4778727E+02  0.7816164E-02  0.1312668E+00
        -11   -1    0    0    0    0  0.00000000000E+00  0.00000000000E+00  0.45593999997E+02  0.45594000000E+02  0.51100000000E-03 0.  1.
         11   -1    0    0    0    0 -0.00000000000E+00 -0.00000000000E+00 -0.45593999997E+02  0.45594000000E+02  0.51100000000E-03 0. -1.
    9900012    2    1    2    0    0  0.11083712682E+02  0.21447939811E+02 -0.36066058587E+02  0.47787269696E+02  0.19999993852E+02 0.  0.
        -12    1    1    2    0    0 -0.11083712682E+02 -0.21447939811E+02  0.36066058587E+02  0.43400730304E+02  0.00000000000E+00 0.  1.
         11    1    3    3    0    0 -0.12300968629E+01  0.94902093879E+01 -0.16938509342E+02  0.19454827460E+02  0.51100000000E-03 0. -1.
        -11    1    3    3    0    0  0.14034066771E+00  0.61591142537E+01 -0.18831254448E+01  0.64420917096E+01  0.51100000000E-03 0.  1.
         12    1    3    3    0    0  0.12173468877E+02  0.57986161697E+01 -0.17244423800E+02  0.21890350527E+02  0.00000000000E+00 0. -1.
</event>
<event>
 7    1  0.4083500E-009  0.4778727E+02  0.7816164E-02  0.1312668E+00
        -11   -1    0    0    0    0  0.00000000000E+00  0.00000000000E+00  0.45593999997E+02  0.45594000000E+02  0.51100000000E-03 0. -1.
         11   -1    0    0    0    0 -0.00000000000E+00 -0.00000000000E+00 -0.45593999997E+02  0.45594000000E+02  0.51100000000E-03 0.  1.
    9900012    2    1    2    0    0 -0.87274361160E+01 -0.24817493541E+02  0.34518797204E+02  0.47787268586E+02  0.19999988792E+02 0.  0.
        -12    1    1    2    0    0  0.87274361160E+01  0.24817493541E+02 -0.34518797204E+02  0.43400731414E+02  0.00000000000E+00 0.  1.
         11    1    3    3    0    0  0.32102617327E+01 -0.22488825440E+01  0.77793539243E+01  0.87110045821E+01  0.51100000000E-03 0. -1.
        -11    1    3    3    0    0  0.11974639852E+01 -0.19921345424E+01 -0.62372522350E+00  0.24065646566E+01  0.51100000000E-03 0.  1.
         12    1    3    3    0    0 -0.13135161834E+02 -0.20576476454E+02  0.27363168504E+02  0.36669699348E+02  0.00000000000E+00 0. -1.
</event>
<event>
 7    1  0.4083500E-009  0.4778728E+02  0.7816164E-02  0.1312668E+00
        -11   -1    0    0    0    0  0.00000000000E+00  0.00000000000E+00  0.45593999997E+02  0.45594000000E+02  0.51100000000E-03 0. -1.
         11   -1    0    0    0    0 -0.00000000000E+00 -0.00000000000E+00 -0.45593999997E+02  0.45594000000E+02  0.51100000000E-03 0.  1.
    9900012    2    1    2    0    0  0.34835836468E+02  0.92928725873E+01  0.24160496863E+02  0.47787278900E+02  0.20000035816E+02 0.  0.
        -12    1    1    2    0    0 -0.34835836468E+02 -0.92928725873E+01 -0.24160496863E+02  0.43400721100E+02  0.00000000000E+00 0.  1.
         11    1    3    3    0    0  0.93225935164E+01  0.10384361143E+02  0.36365273979E+01  0.14421166319E+02  0.51100000000E-03 0. -1.
        -11    1    3    3    0    0  0.73228348472E+00  0.46255941342E+00 -0.34387110505E+00  0.93190552683E+00  0.51100000000E-03 0.  1.
         12    1    3    3    0    0  0.24780959467E+02 -0.15540479690E+01  0.20867840570E+02  0.32434207054E+02  0.00000000000E+00 0. -1.
</event>
<event>
 7    1  0.4083500E-009  0.4778727E+02  0.7816164E-02  0.1312668E+00
        -11   -1    0    0    0    0  0.00000000000E+00  0.00000000000E+00  0.45593999997E+02  0.45594000000E+02  0.51100000000E-03 0.  1.
         11   -1    0    0    0    0 -0.00000000000E+00 -0.00000000000E+00 -0.45593999997E+02  0.45594000000E+02  0.51100000000E-03 0. -1.
    9900012    2    1    2    0    0 -0.37584134801E+02  0.10689816929E+02 -0.18888722968E+02  0.47787271549E+02  0.20000002298E+02 0.  0.
        -12    1    1    2    0    0  0.37584134801E+02 -0.10689816929E+02  0.18888722968E+02  0.43400728451E+02  0.00000000000E+00 0.  1.
         11    1    3    3    0    0  0.12587292707E+01 -0.17705321488E+01 -0.17967562302E+00  0.21797860119E+01  0.51100000000E-03 0. -1.
        -11    1    3    3    0    0 -0.86109316325E+01  0.56425260810E+01 -0.71343160236E+01  0.12525362651E+02  0.51100000000E-03 0.  1.
         12    1    3    3    0    0 -0.30231932440E+02  0.68178229969E+01 -0.11574731322E+02  0.33082122886E+02  0.00000000000E+00 0. -1.
</event>
<event>
 7    1  0.4083500E-009  0.4778727E+02  0.7816164E-02  0.1312668E+00
        -11   -1    0    0    0    0  0.00000000000E+00  0.00000000000E+00  0.45593999997E+02  0.45594000000E+02  0.51100000000E-03 0.  1.
         11   -1    0    0    0    0 -0.00000000000E+00 -0.00000000000E+00 -0.45593999997E+02  0.45594000000E+02  0.51100000000E-03 0. -1.
    9900012    2    1    2    0    0 -0.36327052348E+02 -0.13175706450E+02 -0.19757766466E+02  0.47787270646E+02  0.19999998182E+02 0.  0.
        -12    1    1    2    0    0  0.36327052348E+02  0.13175706450E+02  0.19757766466E+02  0.43400729354E+02  0.00000000000E+00 0.  1.
         11    1    3    3    0    0 -0.17446932901E+02 -0.47195347888E+01 -0.14635950513E+02  0.23256838220E+02  0.51100000000E-03 0. -1.
        -11    1    3    3    0    0 -0.72162663135E+00 -0.61146226665E+00 -0.46489854356E+01  0.47442277496E+01  0.51100000000E-03 0.  1.
        -12    1    3    3    0    0 -0.18158492815E+02 -0.78447093942E+01 -0.47283051752E+00  0.19786204677E+02  0.00000000000E+00 0.  1.
</event>
<event>
 7    1  0.4083500E-009  0.4778727E+02  0.7816164E-02  0.1312668E+00
        -11   -1    0    0    0    0  0.00000000000E+00  0.00000000000E+00  0.45593999997E+02  0.45594000000E+02  0.51100000000E-03 0. -1.
         11   -1    0    0    0    0 -0.00000000000E+00 -0.00000000000E+00 -0.45593999997E+02  0.45594000000E+02  0.51100000000E-03 0.  1.
    9900012    2    1    2    0    0 -0.34037846852E+02 -0.12677831482E+02 -0.23755437914E+02  0.47787271205E+02  0.20000000732E+02 0.  0.
        -12    1    1    2    0    0  0.34037846852E+02  0.12677831482E+02  0.23755437914E+02  0.43400728795E+02  0.00000000000E+00 0.  1.
         11    1    3    3    0    0 -0.25912809191E+02 -0.10246352559E+02 -0.23571141906E+02  0.36497399249E+02  0.51100000000E-03 0. -1.
        -11    1    3    3    0    0 -0.75800225539E+01 -0.20893517966E+00 -0.25483547860E+01  0.79996567553E+01  0.51100000000E-03 0.  1.
        -12    1    3    3    0    0 -0.54501510728E+00 -0.22225437442E+01  0.23640587776E+01  0.32902152005E+01  0.00000000000E+00 0.  1.
</event>
<event>
 7    1  0.4083500E-009  0.4778727E+02  0.7816164E-02  0.1312668E+00
        -11   -1    0    0    0    0  0.00000000000E+00  0.00000000000E+00  0.45593999997E+02  0.45594000000E+02  0.51100000000E-03 0.  1.
         11   -1    0    0    0    0 -0.00000000000E+00 -0.00000000000E+00 -0.45593999997E+02  0.45594000000E+02  0.51100000000E-03 0. -1.
    9900012    2    1    2    0    0 -0.28085443759E+02  0.27090811124E+02 -0.18997881069E+02  0.47787266324E+02  0.19999978478E+02 0.  0.
        -12    1    1    2    0    0  0.28085443759E+02 -0.27090811124E+02  0.18997881069E+02  0.43400733676E+02  0.00000000000E+00 0.  1.
         11    1    3    3    0    0 -0.15613902886E+00 -0.29447856636E+00  0.15971669888E+01  0.16315758253E+01  0.51100000000E-03 0. -1.
        -11    1    3    3    0    0 -0.58386266678E+01 -0.23217410999E+00 -0.18478933568E+01  0.61284725914E+01  0.51100000000E-03 0.  1.
         12    1    3    3    0    0 -0.22090678063E+02  0.27617463800E+02 -0.18747154701E+02  0.40027217907E+02  0.00000000000E+00 0. -1.
</event>
<event>
 7    1  0.4083500E-009  0.4778727E+02  0.7816164E-02  0.1312668E+00
        -11   -1    0    0    0    0  0.00000000000E+00  0.00000000000E+00  0.45593999997E+02  0.45594000000E+02  0.51100000000E-03 0.  1.
         11   -1    0    0    0    0 -0.00000000000E+00 -0.00000000000E+00 -0.45593999997E+02  0.45594000000E+02  0.51100000000E-03 0. -1.
    9900012    2    1    2    0    0 -0.15296426042E+02  0.28047981372E+02 -0.29376070769E+02  0.47787269101E+02  0.19999991139E+02 0.  0.
        -12    1    1    2    0    0  0.15296426042E+02 -0.28047981372E+02  0.29376070769E+02  0.43400730899E+02  0.00000000000E+00 0.  1.
         11    1    3    3    0    0 -0.54968888763E+01  0.13973803026E+02 -0.95329514120E+01  0.17786515151E+02  0.51100000000E-03 0. -1.
        -11    1    3    3    0    0 -0.83685633577E+01  0.16951040611E+02 -0.14745492336E+02  0.23974990614E+02  0.51100000000E-03 0.  1.
        -12    1    3    3    0    0 -0.14309738082E+01 -0.28768622649E+01 -0.50976270211E+01  0.60257633357E+01  0.00000000000E+00 0.  1.
</event>
<event>
 7    1  0.4083500E-009  0.4778725E+02  0.7816164E-02  0.1312668E+00
        -11   -1    0    0    0    0  0.00000000000E+00  0.00000000000E+00  0.45593999997E+02  0.45594000000E+02  0.51100000000E-03 0.  1.
         11   -1    0    0    0    0 -0.00000000000E+00 -0.00000000000E+00 -0.45593999997E+02  0.45594000000E+02  0.51100000000E-03 0. -1.
    9900012    2    1    2    0    0  0.12621045765E+02  0.13787008286E+02 -0.39169535299E+02  0.47787252434E+02  0.19999915148E+02 0.  0.
        -12    1    1    2    0    0 -0.12621045765E+02 -0.13787008286E+02  0.39169535299E+02  0.43400747566E+02  0.00000000000E+00 0.  1.
         11    1    3    3    0    0  0.95170512181E+01  0.69739457149E+01 -0.10707993514E+02  0.15933339514E+02  0.51100000000E-03 0.  1.
        -11    1    3    3    0    0  0.43276257249E+01  0.99732446079E+01 -0.22713456117E+02  0.25181243843E+02  0.51100000000E-03 0. -1.
         12    1    3    3    0    0 -0.12236311778E+01 -0.31601820364E+01 -0.57480856686E+01  0.66726690774E+01  0.00000000000E+00 0. -1.
</event>
<event>
 7    1  0.4083500E-009  0.4778727E+02  0.7816164E-02  0.1312668E+00
        -11   -1    0    0    0    0  0.00000000000E+00  0.00000000000E+00  0.45593999997E+02  0.45594000000E+02  0.51100000000E-03 0.  1.
         11   -1    0    0    0    0 -0.00000000000E+00 -0.00000000000E+00 -0.45593999997E+02  0.45594000000E+02  0.51100000000E-03 0. -1.
    9900012    2    1    2    0    0 -0.22110808993E+02 -0.19898516329E+02 -0.31603552159E+02  0.47787270334E+02  0.19999996763E+02 0.  0.
        -12    1    1    2    0    0  0.22110808993E+02  0.19898516329E+02  0.31603552159E+02  0.43400729666E+02  0.00000000000E+00 0.  1.
         11    1    3    3    0    0 -0.48942682517E+01 -0.48042478172E+01 -0.49426351632E+01  0.84536560981E+01  0.51100000000E-03 0. -1.
        -11    1    3    3    0    0 -0.27417929630E+01 -0.11212799248E+01 -0.16557645901E+02  0.16820533147E+02  0.51100000000E-03 0.  1.
        -12    1    3    3    0    0 -0.14474747779E+02 -0.13972988587E+02 -0.10103271096E+02  0.22513081089E+02  0.00000000000E+00 0.  1.
</event>
<event>
 7    1  0.4083500E-009  0.4778727E+02  0.7816164E-02  0.1312668E+00
        -11   -1    0    0    0    0  0.00000000000E+00  0.00000000000E+00  0.45593999997E+02  0.45594000000E+02  0.51100000000E-03 0.  1.
         11   -1    0    0    0    0 -0.00000000000E+00 -0.00000000000E+00 -0.45593999997E+02  0.45594000000E+02  0.51100000000E-03 0. -1.
    9900012    2    1    2    0    0 -0.33981122216E+02  0.31763017434E+01 -0.26810773266E+02  0.47787272783E+02  0.20000007928E+02 0.  0.
        -12    1    1    2    0    0  0.33981122216E+02 -0.31763017434E+01  0.26810773266E+02  0.43400727217E+02  0.00000000000E+00 0.  1.
         11    1    3    3    0    0  0.13904829731E+01 -0.44205290471E+00 -0.23125997283E+01  0.27344051334E+01  0.51100000000E-03 0. -1.
        -11    1    3    3    0    0  0.12035353513E+00 -0.14979895736E+01  0.19336217057E+00  0.15152052423E+01  0.51100000000E-03 0.  1.
         12    1    3    3    0    0 -0.35491958724E+02  0.51163442217E+01 -0.24691535709E+02  0.43537662408E+02  0.00000000000E+00 0. -1.
</event>
<event>
 7    1  0.4083500E-009  0.4778727E+02  0.7816164E-02  0.1312668E+00
        -11   -1    0    0    0    0  0.00000000000E+00  0.00000000000E+00  0.45593999997E+02  0.45594000000E+02  0.51100000000E-03 0.  1.
         11   -1    0    0    0    0 -0.00000000000E+00 -0.00000000000E+00 -0.45593999997E+02  0.45594000000E+02  0.51100000000E-03 0. -1.
    9900012    2    1    2    0    0 -0.14462675648E+02  0.39534898773E+02  0.10556796818E+02  0.47787272276E+02  0.20000005614E+02 0.  0.
        -12    1    1    2    0    0  0.14462675648E+02 -0.39534898773E+02 -0.10556796818E+02  0.43400727724E+02  0.00000000000E+00 0.  1.
         11    1    3    3    0    0 -0.12837794319E+02  0.32083081471E+02  0.11544766719E+02  0.36433703058E+02  0.51100000000E-03 0. -1.
        -11    1    3    3    0    0 -0.22405659611E+01  0.90816004333E+01 -0.16337942016E+01  0.94955192597E+01  0.51100000000E-03 0.  1.
         12    1    3    3    0    0  0.61568463204E+00 -0.16297831307E+01  0.64582430102E+00  0.18580499582E+01  0.00000000000E+00 0. -1.
</event>
<event>
 7    1  0.4083500E-009  0.4778727E+02  0.7816164E-02  0.1312668E+00
        -11   -1    0    0    0    0  0.00000000000E+00  0.00000000000E+00  0.45593999997E+02  0.45594000000E+02  0.51100000000E-03 0.  1.
         11   -1    0    0    0    0 -0.00000000000E+00 -0.00000000000E+00 -0.45593999997E+02  0.45594000000E+02  0.51100000000E-03 0. -1.
    9900012    2    1    2    0    0  0.24985031397E+02 -0.15896776247E+02 -0.31727969904E+02  0.47787270015E+02  0.19999995308E+02 0.  0.
        -12    1    1    2    0    0 -0.24985031397E+02  0.15896776247E+02  0.31727969904E+02  0.43400729985E+02  0.00000000000E+00 0.  1.
         11    1    3    3    0    0  0.94714751422E+00 -0.35197018819E+01 -0.98400695370E+01  0.10493443596E+02  0.51100000000E-03 0. -1.
        -11    1    3    3    0    0  0.71270851336E+01 -0.10965669272E+02 -0.77160895250E+01  0.15184837269E+02  0.51100000000E-03 0.  1.
        -12    1    3    3    0    0  0.16910798749E+02 -0.14114050932E+01 -0.14171810842E+02  0.22108989150E+02  0.00000000000E+00 0.  1.
</event>
<event>
 7    1  0.4083500E-009  0.4778727E+02  0.7816164E-02  0.1312668E+00
        -11   -1    0    0    0    0  0.00000000000E+00  0.00000000000E+00  0.45593999997E+02  0.45594000000E+02  0.51100000000E-03 0.  1.
         11   -1    0    0    0    0 -0.00000000000E+00 -0.00000000000E+00 -0.45593999997E+02  0.45594000000E+02  0.51100000000E-03 0. -1.
    9900012    2    1    2    0    0 -0.28834108516E+02 -0.15117389343E+02 -0.28699863029E+02  0.47787269450E+02  0.19999992728E+02 0.  0.
        -12    1    1    2    0    0  0.28834108516E+02  0.15117389343E+02  0.28699863029E+02  0.43400730550E+02  0.00000000000E+00 0.  1.
         11    1    3    3    0    0 -0.99932364261E+01 -0.44210338269E+01 -0.13863284505E+02  0.17652222860E+02  0.51100000000E-03 0. -1.
        -11    1    3    3    0    0 -0.15819444850E+02 -0.92190943510E+01 -0.17885404713E+02  0.25595590206E+02  0.51100000000E-03 0.  1.
        -12    1    3    3    0    0 -0.30214272400E+01 -0.14772611651E+01  0.30488261898E+01  0.45394563829E+01  0.00000000000E+00 0.  1.
</event>
<event>
 7    1  0.4083500E-009  0.4778727E+02  0.7816164E-02  0.1312668E+00
        -11   -1    0    0    0    0  0.00000000000E+00  0.00000000000E+00  0.45593999997E+02  0.45594000000E+02  0.51100000000E-03 0.  1.
         11   -1    0    0    0    0 -0.00000000000E+00 -0.00000000000E+00 -0.45593999997E+02  0.45594000000E+02  0.51100000000E-03 0. -1.
    9900012    2    1    2    0    0  0.22611463498E+02 -0.36785622434E+02 -0.43775344511E+01  0.47787272964E+02  0.20000008752E+02 0.  0.
        -12    1    1    2    0    0 -0.22611463498E+02  0.36785622434E+02  0.43775344511E+01  0.43400727036E+02  0.00000000000E+00 0.  1.
         11    1    3    3    0    0  0.16245146625E+02 -0.35101427210E+02 -0.11290168334E+01  0.38694827307E+02  0.51100000000E-03 0. -1.
        -11    1    3    3    0    0 -0.66546888080E+00 -0.92992630632E+00 -0.13514150249E+01  0.17702922349E+01  0.51100000000E-03 0.  1.
        -12    1    3    3    0    0  0.70317857539E+01 -0.75426891755E+00 -0.18971025928E+01  0.73221534220E+01  0.00000000000E+00 0.  1.
</event>
<event>
 7    1  0.4083500E-009  0.4778728E+02  0.7816164E-02  0.1312668E+00
        -11   -1    0    0    0    0  0.00000000000E+00  0.00000000000E+00  0.45593999997E+02  0.45594000000E+02  0.51100000000E-03 0.  1.
         11   -1    0    0    0    0 -0.00000000000E+00 -0.00000000000E+00 -0.45593999997E+02  0.45594000000E+02  0.51100000000E-03 0. -1.
    9900012    2    1    2    0    0 -0.35088033594E+02 -0.25469336470E+02 -0.19403561995E+01  0.47787283602E+02  0.20000057256E+02 0.  0.
        -12    1    1    2    0    0  0.35088033594E+02  0.25469336470E+02  0.19403561995E+01  0.43400716398E+02  0.00000000000E+00 0.  1.
         11    1    3    3    0    0 -0.10440837348E+02  0.47125327726E+00  0.42657746332E+01  0.11288489609E+02  0.51100000000E-03 0.  1.
        -11    1    3    3    0    0 -0.17124176004E+01 -0.26264491676E+01 -0.14365147606E+01  0.34487945991E+01  0.51100000000E-03 0. -1.
        -12    1    3    3    0    0 -0.22934778645E+02 -0.23314140579E+02 -0.47696160721E+01  0.33049999394E+02  0.00000000000E+00 0.  1.
</event>
<event>
 7    1  0.4083500E-009  0.4778727E+02  0.7816164E-02  0.1312668E+00
        -11   -1    0    0    0    0  0.00000000000E+00  0.00000000000E+00  0.45593999997E+02  0.45594000000E+02  0.51100000000E-03 0.  1.
         11   -1    0    0    0    0 -0.00000000000E+00 -0.00000000000E+00 -0.45593999997E+02  0.45594000000E+02  0.51100000000E-03 0. -1.
    9900012    2    1    2    0    0  0.33391745966E+02  0.26982089967E+02 -0.63703336946E+01  0.47787273865E+02  0.20000012861E+02 0.  0.
        -12    1    1    2    0    0 -0.33391745966E+02 -0.26982089967E+02  0.63703336946E+01  0.43400726135E+02  0.00000000000E+00 0.  1.
         11    1    3    3    0    0  0.21341373693E+01  0.17555875446E+01 -0.44633361250E+01  0.52495713695E+01  0.51100000000E-03 0.  1.
        -11    1    3    3    0    0  0.83204702159E+01  0.23597471527E+01 -0.50203506141E+01  0.10000127589E+02  0.51100000000E-03 0. -1.
        -12    1    3    3    0    0  0.22937138381E+02  0.22866755270E+02  0.31133530445E+01  0.32537574907E+02  0.00000000000E+00 0.  1.
</event>
<event>
 7    1  0.4083500E-009  0.4778726E+02  0.7816164E-02  0.1312668E+00
        -11   -1    0    0    0    0  0.00000000000E+00  0.00000000000E+00  0.45593999997E+02  0.45594000000E+02  0.51100000000E-03 0.  1.
         11   -1    0    0    0    0 -0.00000000000E+00 -0.00000000000E+00 -0.45593999997E+02  0.45594000000E+02  0.51100000000E-03 0. -1.
    9900012    2    1    2    0    0 -0.32301113182E+02  0.15992387127E+02 -0.24176552442E+02  0.47787262141E+02  0.19999959403E+02 0.  0.
        -12    1    1    2    0    0  0.32301113182E+02 -0.15992387127E+02  0.24176552442E+02  0.43400737859E+02  0.00000000000E+00 0.  1.
         11    1    3    3    0    0 -0.20227720770E+02  0.66776671346E+01 -0.19648570050E+02  0.28979617513E+02  0.51100000000E-03 0. -1.
        -11    1    3    3    0    0 -0.84523323375E+00  0.35196977751E+01 -0.49889833646E+01  0.61638175606E+01  0.51100000000E-03 0.  1.
        -12    1    3    3    0    0 -0.11228159178E+02  0.57950222168E+01  0.46100097244E+00  0.12643827067E+02  0.00000000000E+00 0.  1.
</event>
<event>
 7    1  0.4083500E-009  0.4778726E+02  0.7816164E-02  0.1312668E+00
        -11   -1    0    0    0    0  0.00000000000E+00  0.00000000000E+00  0.45593999997E+02  0.45594000000E+02  0.51100000000E-03 0. -1.
         11   -1    0    0    0    0 -0.00000000000E+00 -0.00000000000E+00 -0.45593999997E+02  0.45594000000E+02  0.51100000000E-03 0.  1.
    9900012    2    1    2    0    0 -0.23625144763E+02 -0.13455446329E+02  0.33829386681E+02  0.47787263783E+02  0.19999966892E+02 0.  0.
        -12    1    1    2    0    0  0.23625144763E+02  0.13455446329E+02 -0.33829386681E+02  0.43400736217E+02  0.00000000000E+00 0.  1.
         11    1    3    3    0    0  0.60642528394E-01 -0.62762408234E+01  0.43991136279E+01  0.76646642041E+01  0.51100000000E-03 0. -1.
        -11    1    3    3    0    0 -0.27078883963E+01 -0.55572531247E+01  0.57125142018E+01  0.84171575146E+01  0.51100000000E-03 0.  1.
        -12    1    3    3    0    0 -0.20977898895E+02 -0.16219523810E+01  0.23717758851E+02  0.31705442064E+02  0.00000000000E+00 0.  1.
</event>
<event>
 7    1  0.4083500E-009  0.4778728E+02  0.7816164E-02  0.1312668E+00
        -11   -1    0    0    0    0  0.00000000000E+00  0.00000000000E+00  0.45593999997E+02  0.45594000000E+02  0.51100000000E-03 0.  1.
         11   -1    0    0    0    0 -0.00000000000E+00 -0.00000000000E+00 -0.45593999997E+02  0.45594000000E+02  0.51100000000E-03 0. -1.
    9900012    2    1    2    0    0  0.31593795483E+02  0.21837444758E+02 -0.20213381879E+02  0.47787277499E+02  0.20000029430E+02 0.  0.
        -12    1    1    2    0    0 -0.31593795483E+02 -0.21837444758E+02  0.20213381879E+02  0.43400722501E+02  0.00000000000E+00 0.  1.
         11    1    3    3    0    0  0.16213420381E+01  0.15978481088E+01 -0.61546804776E+01  0.65621612771E+01  0.51100000000E-03 0. -1.
        -11    1    3    3    0    0  0.89375952989E+01  0.41255213458E+00  0.29337898005E+00  0.89519204910E+01  0.51100000000E-03 0.  1.
         12    1    3    3    0    0  0.21034858146E+02  0.19827044515E+02 -0.14352080382E+02  0.32273195731E+02  0.00000000000E+00 0. -1.
</event>
<event>
 7    1  0.4083500E-009  0.4778724E+02  0.7816164E-02  0.1312668E+00
        -11   -1    0    0    0    0  0.00000000000E+00  0.00000000000E+00  0.45593999997E+02  0.45594000000E+02  0.51100000000E-03 0. -1.
         11   -1    0    0    0    0 -0.00000000000E+00 -0.00000000000E+00 -0.45593999997E+02  0.45594000000E+02  0.51100000000E-03 0.  1.
    9900012    2    1    2    0    0 -0.53741602092E+01  0.42966098225E+02 -0.29425299431E+01  0.47787243358E+02  0.19999873765E+02 0.  0.
        -12    1    1    2    0    0  0.53741602092E+01 -0.42966098225E+02  0.29425299431E+01  0.43400756642E+02  0.00000000000E+00 0.  1.
         11    1    3    3    0    0 -0.45262513881E+01  0.82398915890E+01 -0.19657980869E+00  0.94032658640E+01  0.51100000000E-03 0. -1.
        -11    1    3    3    0    0 -0.77584118172E+00  0.35930595404E+02 -0.62564019613E+00  0.35944416000E+02  0.51100000000E-03 0.  1.
        -12    1    3    3    0    0 -0.72067639396E-01 -0.12043887682E+01 -0.21203099382E+01  0.24395614941E+01  0.00000000000E+00 0.  1.
</event>
<event>
 7    1  0.4083500E-009  0.4778728E+02  0.7816164E-02  0.1312668E+00
        -11   -1    0    0    0    0  0.00000000000E+00  0.00000000000E+00  0.45593999997E+02  0.45594000000E+02  0.51100000000E-03 0. -1.
         11   -1    0    0    0    0 -0.00000000000E+00 -0.00000000000E+00 -0.45593999997E+02  0.45594000000E+02  0.51100000000E-03 0.  1.
    9900012    2    1    2    0    0  0.32421131406E+02  0.12667197496E+02  0.25923629580E+02  0.47787283132E+02  0.20000055113E+02 0.  0.
        -12    1    1    2    0    0 -0.32421131406E+02 -0.12667197496E+02 -0.25923629580E+02  0.43400716868E+02  0.00000000000E+00 0.  1.
         11    1    3    3    0    0  0.97232678058E+01  0.81637756710E+01  0.95528865023E+01  0.15888574852E+02  0.51100000000E-03 0. -1.
        -11    1    3    3    0    0  0.22445526358E+02  0.46265155914E+01  0.18683964617E+02  0.29568510853E+02  0.51100000000E-03 0.  1.
        -12    1    3    3    0    0  0.25233724259E+00 -0.12309376693E+00 -0.23132215396E+01  0.23301974274E+01  0.00000000000E+00 0.  1.
</event>
<event>
 7    1  0.4083500E-009  0.4778724E+02  0.7816164E-02  0.1312668E+00
        -11   -1    0    0    0    0  0.00000000000E+00  0.00000000000E+00  0.45593999997E+02  0.45594000000E+02  0.51100000000E-03 0.  1.
         11   -1    0    0    0    0 -0.00000000000E+00 -0.00000000000E+00 -0.45593999997E+02  0.45594000000E+02  0.51100000000E-03 0. -1.
    9900012    2    1    2    0    0 -0.17350982896E+02  0.26257884512E+02 -0.29884658046E+02  0.47787240871E+02  0.19999862426E+02 0.  0.
        -12    1    1    2    0    0  0.17350982896E+02 -0.26257884512E+02  0.29884658046E+02  0.43400759129E+02  0.00000000000E+00 0.  1.
         11    1    3    3    0    0 -0.15936614651E+01  0.13601972769E+02 -0.40779072049E+01  0.14289252868E+02  0.51100000000E-03 0.  1.
        -11    1    3    3    0    0 -0.93826987316E+00  0.34964745297E+01 -0.68781116105E+01  0.77726510329E+01  0.51100000000E-03 0. -1.
        -12    1    3    3    0    0 -0.14819051557E+02  0.91594372127E+01 -0.18928639230E+02  0.25725336970E+02  0.00000000000E+00 0.  1.
</event>
<event>
 7    1  0.4083500E-009  0.4778727E+02  0.7816164E-02  0.1312668E+00
        -11   -1    0    0    0    0  0.00000000000E+00  0.00000000000E+00  0.45593999997E+02  0.45594000000E+02  0.51100000000E-03 0. -1.
         11   -1    0    0    0    0 -0.00000000000E+00 -0.00000000000E+00 -0.45593999997E+02  0.45594000000E+02  0.51100000000E-03 0.  1.
    9900012    2    1    2    0    0  0.36253540356E+01 -0.22716309481E+02  0.36802842076E+02  0.47787273126E+02  0.20000009489E+02 0.  0.
        -12    1    1    2    0    0 -0.36253540356E+01  0.22716309481E+02 -0.36802842076E+02  0.43400726874E+02  0.00000000000E+00 0.  1.
         11    1    3    3    0    0  0.23435905327E+01 -0.12480000089E+02  0.12697256024E+02  0.17957258410E+02  0.51100000000E-03 0. -1.
        -11    1    3    3    0    0  0.48149237050E+00 -0.42139032637E+01 -0.69345490172E+00  0.42976383725E+01  0.51100000000E-03 0.  1.
        -12    1    3    3    0    0  0.80027113236E+00 -0.60224061282E+01  0.24799040954E+02  0.25532376343E+02  0.00000000000E+00 0.  1.
</event>
<event>
 7    1  0.4083500E-009  0.4778728E+02  0.7816164E-02  0.1312668E+00
        -11   -1    0    0    0    0  0.00000000000E+00  0.00000000000E+00  0.45593999997E+02  0.45594000000E+02  0.51100000000E-03 0.  1.
         11   -1    0    0    0    0 -0.00000000000E+00 -0.00000000000E+00 -0.45593999997E+02  0.45594000000E+02  0.51100000000E-03 0. -1.
    9900012    2    1    2    0    0 -0.30727242073E+02  0.25679839949E+02 -0.16733353643E+02  0.47787277548E+02  0.20000029652E+02 0.  0.
        -12    1    1    2    0    0  0.30727242073E+02 -0.25679839949E+02  0.16733353643E+02  0.43400722452E+02  0.00000000000E+00 0.  1.
         11    1    3    3    0    0 -0.20437267355E+02  0.19651533279E+02 -0.14435072201E+02  0.31815656003E+02  0.51100000000E-03 0.  1.
        -11    1    3    3    0    0 -0.56995022561E+01  0.87979411172E+00 -0.58486730891E+01  0.82137288006E+01  0.51100000000E-03 0. -1.
        -12    1    3    3    0    0 -0.45904724619E+01  0.51485125585E+01  0.35503916474E+01  0.77578927447E+01  0.00000000000E+00 0.  1.
</event>
<event>
 7    1  0.4083500E-009  0.4778727E+02  0.7816164E-02  0.1312668E+00
        -11   -1    0    0    0    0  0.00000000000E+00  0.00000000000E+00  0.45593999997E+02  0.45594000000E+02  0.51100000000E-03 0.  1.
         11   -1    0    0    0    0 -0.00000000000E+00 -0.00000000000E+00 -0.45593999997E+02  0.45594000000E+02  0.51100000000E-03 0. -1.
    9900012    2    1    2    0    0 -0.20233539718E+02  0.18082035663E+02 -0.33871331713E+02  0.47787271260E+02  0.20000000981E+02 0.  0.
        -12    1    1    2    0    0  0.20233539718E+02 -0.18082035663E+02  0.33871331713E+02  0.43400728740E+02  0.00000000000E+00 0.  1.
         11    1    3    3    0    0 -0.26519863771E+01  0.95059055402E+01 -0.64771192232E+01  0.11804590022E+02  0.51100000000E-03 0. -1.
        -11    1    3    3    0    0 -0.30362683667E+00 -0.18903570754E+00  0.13066622470E+01  0.13547288451E+01  0.51100000000E-03 0.  1.
         12    1    3    3    0    0 -0.17277926504E+02  0.87651658300E+01 -0.28700874736E+02  0.34627952393E+02  0.00000000000E+00 0. -1.
</event>
<event>
 7    1  0.4083500E-009  0.4778726E+02  0.7816164E-02  0.1312668E+00
        -11   -1    0    0    0    0  0.00000000000E+00  0.00000000000E+00  0.45593999997E+02  0.45594000000E+02  0.51100000000E-03 0.  1.
         11   -1    0    0    0    0 -0.00000000000E+00 -0.00000000000E+00 -0.45593999997E+02  0.45594000000E+02  0.51100000000E-03 0. -1.
    9900012    2    1    2    0    0 -0.36054131825E+02 -0.11053385463E+02 -0.21483642573E+02  0.47787255190E+02  0.19999927713E+02 0.  0.
        -12    1    1    2    0    0  0.36054131825E+02  0.11053385463E+02  0.21483642573E+02  0.43400744810E+02  0.00000000000E+00 0.  1.
         11    1    3    3    0    0 -0.87571786453E+00 -0.54805979113E+00 -0.46703341419E+01  0.47832282583E+01  0.51100000000E-03 0. -1.
        -11    1    3    3    0    0 -0.16079795966E+02  0.67489108558E+00 -0.16524733701E+01  0.16178565597E+02  0.51100000000E-03 0.  1.
         12    1    3    3    0    0 -0.19098617995E+02 -0.11180216757E+02 -0.15160835061E+02  0.26825461334E+02  0.00000000000E+00 0. -1.
</event>
<event>
 7    1  0.4083500E-009  0.4778726E+02  0.7816164E-02  0.1312668E+00
        -11   -1    0    0    0    0  0.00000000000E+00  0.00000000000E+00  0.45593999997E+02  0.45594000000E+02  0.51100000000E-03 0.  1.
         11   -1    0    0    0    0 -0.00000000000E+00 -0.00000000000E+00 -0.45593999997E+02  0.45594000000E+02  0.51100000000E-03 0. -1.
    9900012    2    1    2    0    0  0.34972688113E+02  0.18377493849E+02 -0.17966710518E+02  0.47787264051E+02  0.19999968115E+02 0.  0.
        -12    1    1    2    0    0 -0.34972688113E+02 -0.18377493849E+02  0.17966710518E+02  0.43400735949E+02  0.00000000000E+00 0.  1.
         11    1    3    3    0    0 -0.14940038121E+01 -0.31584525837E+00  0.68954753830E+00  0.16754944603E+01  0.51100000000E-03 0. -1.
        -11    1    3    3    0    0  0.81140604848E+01  0.79265916216E+01 -0.83321678581E+01  0.14074581833E+02  0.51100000000E-03 0.  1.
         12    1    3    3    0    0  0.28352631441E+02  0.10766747486E+02 -0.10324090199E+02  0.32037187758E+02  0.00000000000E+00 0. -1.
</event>
<event>
 7    1  0.4083500E-009  0.4778727E+02  0.7816164E-02  0.1312668E+00
        -11   -1    0    0    0    0  0.00000000000E+00  0.00000000000E+00  0.45593999997E+02  0.45594000000E+02  0.51100000000E-03 0. -1.
         11   -1    0    0    0    0 -0.00000000000E+00 -0.00000000000E+00 -0.45593999997E+02  0.45594000000E+02  0.51100000000E-03 0.  1.
    9900012    2    1    2    0    0 -0.27977368481E+01  0.41897435863E+02  0.10972718642E+02  0.47787273995E+02  0.20000013455E+02 0.  0.
        -12    1    1    2    0    0  0.27977368481E+01 -0.41897435863E+02 -0.10972718642E+02  0.43400726005E+02  0.00000000000E+00 0.  1.
         11    1    3    3    0    0 -0.61843138298E+01  0.21881414672E+02  0.82533743873E+01  0.24190085462E+02  0.51100000000E-03 0. -1.
        -11    1    3    3    0    0 -0.32608278483E+01  0.81898065054E+01  0.45292217104E+01  0.99105892063E+01  0.51100000000E-03 0.  1.
        -12    1    3    3    0    0  0.66474048300E+01  0.11826214685E+02 -0.18098774559E+01  0.13686599328E+02  0.00000000000E+00 0.  1.
</event>
<event>
 7    1  0.4083500E-009  0.4778728E+02  0.7816164E-02  0.1312668E+00
        -11   -1    0    0    0    0  0.00000000000E+00  0.00000000000E+00  0.45593999997E+02  0.45594000000E+02  0.51100000000E-03 0. -1.
         11   -1    0    0    0    0 -0.00000000000E+00 -0.00000000000E+00 -0.45593999997E+02  0.45594000000E+02  0.51100000000E-03 0.  1.
    9900012    2    1    2    0    0 -0.13546601563E+02 -0.25564839465E+02  0.32350442586E+02  0.47787279196E+02  0.20000037166E+02 0.  0.
        -12    1    1    2    0    0  0.13546601563E+02  0.25564839465E+02 -0.32350442586E+02  0.43400720804E+02  0.00000000000E+00 0.  1.
         11    1    3    3    0    0 -0.28038871149E+01 -0.54927401207E+01  0.49003657825E+01  0.78769005357E+01  0.51100000000E-03 0. -1.
        -11    1    3    3    0    0 -0.43477462648E+01 -0.16836477982E+01 -0.16091645595E+01  0.49322386735E+01  0.51100000000E-03 0.  1.
         12    1    3    3    0    0 -0.63949681830E+01 -0.18388451547E+02  0.29059241363E+02  0.34978139987E+02  0.00000000000E+00 0. -1.
</event>
<event>
 7    1  0.5276906E-009  0.4778727E+02  0.7816164E-02  0.1312668E+00
        -11   -1    0    0    0    0  0.00000000000E+00  0.00000000000E+00  0.45593999997E+02  0.45594000000E+02  0.51100000000E-03 0.  1.
         11   -1    0    0    0    0 -0.00000000000E+00 -0.00000000000E+00 -0.45593999997E+02  0.45594000000E+02  0.51100000000E-03 0. -1.
    9900012    2    1    2    0    0 -0.30524027658E+02  0.47609989893E+01 -0.30483438583E+02  0.47787269549E+02  0.19999993180E+02 0.  0.
        -12    1    1    2    0    0  0.30524027658E+02 -0.47609989893E+01  0.30483438583E+02  0.43400730451E+02  0.00000000000E+00 0.  1.
         11    1    3    3    0    0 -0.36610537844E+01 -0.14105843418E+01  0.51053924063E-02  0.39234027736E+01  0.51100000000E-03 0. -1.
        -11    1    3    3    0    0 -0.97115883718E+01  0.96447060314E+01 -0.10191978045E+02  0.17064926600E+02  0.51100000000E-03 0.  1.
        -12    1    3    3    0    0 -0.17151385502E+02 -0.34731227003E+01 -0.20296565931E+02  0.26798940175E+02  0.00000000000E+00 0.  1.
</event>
<event>
 7    1  0.4083500E-009  0.4778727E+02  0.7816164E-02  0.1312668E+00
        -11   -1    0    0    0    0  0.00000000000E+00  0.00000000000E+00  0.45593999997E+02  0.45594000000E+02  0.51100000000E-03 0.  1.
         11   -1    0    0    0    0 -0.00000000000E+00 -0.00000000000E+00 -0.45593999997E+02  0.45594000000E+02  0.51100000000E-03 0. -1.
    9900012    2    1    2    0    0  0.26641679948E+02 -0.26970817545E+02 -0.21128633581E+02  0.47787271130E+02  0.20000000390E+02 0.  0.
        -12    1    1    2    0    0 -0.26641679948E+02  0.26970817545E+02  0.21128633581E+02  0.43400728870E+02  0.00000000000E+00 0.  1.
         11    1    3    3    0    0  0.11814016685E+02 -0.15070943849E+02 -0.17451783275E+02  0.25908861003E+02  0.51100000000E-03 0. -1.
        -11    1    3    3    0    0 -0.99279447159E+00  0.40605442222E+00 -0.13145847151E+01  0.16966597452E+01  0.51100000000E-03 0.  1.
        -12    1    3    3    0    0  0.15820457734E+02 -0.12305928118E+02 -0.23622655906E+01  0.20181750382E+02  0.00000000000E+00 0.  1.
</event>
<event>
 7    1  0.4083500E-009  0.4778727E+02  0.7816164E-02  0.1312668E+00
        -11   -1    0    0    0    0  0.00000000000E+00  0.00000000000E+00  0.45593999997E+02  0.45594000000E+02  0.51100000000E-03 0.  1.
         11   -1    0    0    0    0 -0.00000000000E+00 -0.00000000000E+00 -0.45593999997E+02  0.45594000000E+02  0.51100000000E-03 0. -1.
    9900012    2    1    2    0    0  0.78367497458E+01 -0.20506535846E+02 -0.37439160223E+02  0.47787269854E+02  0.19999994575E+02 0.  0.
        -12    1    1    2    0    0 -0.78367497458E+01  0.20506535846E+02  0.37439160223E+02  0.43400730146E+02  0.00000000000E+00 0.  1.
         11    1    3    3    0    0 -0.61149436756E+00  0.20066253518E+01 -0.34573713812E+01  0.40439940397E+01  0.51100000000E-03 0. -1.
        -11    1    3    3    0    0 -0.18706591308E+01  0.18063895259E+00 -0.40322713214E+00  0.19221312120E+01  0.51100000000E-03 0.  1.
         12    1    3    3    0    0  0.10318903244E+02 -0.22693800150E+02 -0.33578561710E+02  0.41821144603E+02  0.00000000000E+00 0. -1.
</event>
<event>
 7    1  0.4083500E-009  0.4778727E+02  0.7816164E-02  0.1312668E+00
        -11   -1    0    0    0    0  0.00000000000E+00  0.00000000000E+00  0.45593999997E+02  0.45594000000E+02  0.51100000000E-03 0.  1.
         11   -1    0    0    0    0 -0.00000000000E+00 -0.00000000000E+00 -0.45593999997E+02  0.45594000000E+02  0.51100000000E-03 0. -1.
    9900012    2    1    2    0    0 -0.20349900531E+02 -0.38312872867E+02 -0.12761773433E+01  0.47787270657E+02  0.19999998232E+02 0.  0.
        -12    1    1    2    0    0  0.20349900531E+02  0.38312872867E+02  0.12761773433E+01  0.43400729343E+02  0.00000000000E+00 0.  1.
         11    1    3    3    0    0 -0.19307898654E+02 -0.25040219433E+02 -0.20670421263E+01  0.31687224604E+02  0.51100000000E-03 0. -1.
        -11    1    3    3    0    0 -0.45179040906E+01 -0.64055680513E+01  0.24774724428E+01  0.82207438469E+01  0.51100000000E-03 0.  1.
        -12    1    3    3    0    0  0.34759022139E+01 -0.68670853826E+01 -0.16866076598E+01  0.78793022058E+01  0.00000000000E+00 0.  1.
</event>
<event>
 7    1  0.4083500E-009  0.4778727E+02  0.7816164E-02  0.1312668E+00
        -11   -1    0    0    0    0  0.00000000000E+00  0.00000000000E+00  0.45593999997E+02  0.45594000000E+02  0.51100000000E-03 0. -1.
         11   -1    0    0    0    0 -0.00000000000E+00 -0.00000000000E+00 -0.45593999997E+02  0.45594000000E+02  0.51100000000E-03 0.  1.
    9900012    2    1    2    0    0 -0.12874670462E+02 -0.73619471479E+01  0.40788085956E+02  0.47787270037E+02  0.19999995408E+02 0.  0.
        -12    1    1    2    0    0  0.12874670462E+02  0.73619471479E+01 -0.40788085956E+02  0.43400729963E+02  0.00000000000E+00 0.  1.
         11    1    3    3    0    0 -0.10038235949E+02 -0.52803172331E+01  0.20340519052E+02  0.23289152982E+02  0.51100000000E-03 0. -1.
        -11    1    3    3    0    0 -0.78872048080E+00 -0.74310594973E+01  0.90040044674E+01  0.11701060719E+02  0.51100000000E-03 0.  1.
         12    1    3    3    0    0 -0.20477140315E+01  0.53494295825E+01  0.11443562437E+02  0.12797056336E+02  0.00000000000E+00 0. -1.
</event>
<event>
 7    1  0.4083500E-009  0.4778727E+02  0.7816164E-02  0.1312668E+00
        -11   -1    0    0    0    0  0.00000000000E+00  0.00000000000E+00  0.45593999997E+02  0.45594000000E+02  0.51100000000E-03 0.  1.
         11   -1    0    0    0    0 -0.00000000000E+00 -0.00000000000E+00 -0.45593999997E+02  0.45594000000E+02  0.51100000000E-03 0. -1.
    9900012    2    1    2    0    0 -0.35775950324E+02  0.21140050100E+02 -0.12522116546E+02  0.47787265645E+02  0.19999975380E+02 0.  0.
        -12    1    1    2    0    0  0.35775950324E+02 -0.21140050100E+02  0.12522116546E+02  0.43400734355E+02  0.00000000000E+00 0.  1.
         11    1    3    3    0    0 -0.21335143271E+02  0.11344825302E+02 -0.10511553460E+02  0.26351207864E+02  0.51100000000E-03 0. -1.
        -11    1    3    3    0    0 -0.32636629225E+01 -0.22626468066E+00 -0.51481847902E+01  0.60997129664E+01  0.51100000000E-03 0.  1.
        -12    1    3    3    0    0 -0.11177144131E+02  0.10021489479E+02  0.31376217039E+01  0.15336344814E+02  0.00000000000E+00 0.  1.
</event>
<event>
 7    1  0.4083500E-009  0.4778727E+02  0.7816164E-02  0.1312668E+00
        -11   -1    0    0    0    0  0.00000000000E+00  0.00000000000E+00  0.45593999997E+02  0.45594000000E+02  0.51100000000E-03 0.  1.
         11   -1    0    0    0    0 -0.00000000000E+00 -0.00000000000E+00 -0.45593999997E+02  0.45594000000E+02  0.51100000000E-03 0. -1.
    9900012    2    1    2    0    0  0.51261951769E+01  0.37903156570E+02 -0.20510882609E+02  0.47787268896E+02  0.19999990204E+02 0.  0.
        -12    1    1    2    0    0 -0.51261951769E+01 -0.37903156570E+02  0.20510882609E+02  0.43400731104E+02  0.00000000000E+00 0.  1.
         11    1    3    3    0    0  0.32049456310E+01  0.35728434299E+02 -0.22746467910E+02  0.42475810723E+02  0.51100000000E-03 0. -1.
        -11    1    3    3    0    0  0.17880019602E+01  0.49577251086E+00 -0.65359298739E+00  0.19672126083E+01  0.51100000000E-03 0.  1.
        -12    1    3    3    0    0  0.13324758578E+00  0.16789497598E+01  0.28891782878E+01  0.33442455642E+01  0.00000000000E+00 0.  1.
</event>
<event>
 7    1  0.4083500E-009  0.4778727E+02  0.7816164E-02  0.1312668E+00
        -11   -1    0    0    0    0  0.00000000000E+00  0.00000000000E+00  0.45593999997E+02  0.45594000000E+02  0.51100000000E-03 0.  1.
         11   -1    0    0    0    0 -0.00000000000E+00 -0.00000000000E+00 -0.45593999997E+02  0.45594000000E+02  0.51100000000E-03 0. -1.
    9900012    2    1    2    0    0 -0.13386177586E+02 -0.12149571603E+00 -0.41284607545E+02  0.47787270378E+02  0.19999996961E+02 0.  0.
        -12    1    1    2    0    0  0.13386177586E+02  0.12149571603E+00  0.41284607545E+02  0.43400729622E+02  0.00000000000E+00 0.  1.
         11    1    3    3    0    0 -0.11206824503E+02 -0.30876705859E+01 -0.33094017749E+02  0.35076211827E+02  0.51100000000E-03 0. -1.
        -11    1    3    3    0    0 -0.32121640249E+01 -0.23913409217E+01 -0.20573163891E+01  0.45021172921E+01  0.51100000000E-03 0.  1.
         12    1    3    3    0    0  0.10328109426E+01  0.53575157915E+01 -0.61332734071E+01  0.82089412586E+01  0.00000000000E+00 0. -1.
</event>
<event>
 7    1  0.4083500E-009  0.4778727E+02  0.7816164E-02  0.1312668E+00
        -11   -1    0    0    0    0  0.00000000000E+00  0.00000000000E+00  0.45593999997E+02  0.45594000000E+02  0.51100000000E-03 0.  1.
         11   -1    0    0    0    0 -0.00000000000E+00 -0.00000000000E+00 -0.45593999997E+02  0.45594000000E+02  0.51100000000E-03 0. -1.
    9900012    2    1    2    0    0 -0.95053994647E+01  0.37645425738E+02 -0.19393111641E+02  0.47787268703E+02  0.19999989326E+02 0.  0.
        -12    1    1    2    0    0  0.95053994647E+01 -0.37645425738E+02  0.19393111641E+02  0.43400731297E+02  0.00000000000E+00 0.  1.
         11    1    3    3    0    0 -0.72213818220E+01  0.24095713958E+02 -0.10197916181E+02  0.27143125857E+02  0.51100000000E-03 0. -1.
        -11    1    3    3    0    0  0.23179872718E+01  0.12768386106E+02 -0.38255161696E+01  0.13529202599E+02  0.51100000000E-03 0.  1.
        -12    1    3    3    0    0 -0.46020049146E+01  0.78132567373E+00 -0.53696792911E+01  0.71149402479E+01  0.00000000000E+00 0.  1.
</event>
<event>
 7    1  0.4083500E-009  0.4778727E+02  0.7816164E-02  0.1312668E+00
        -11   -1    0    0    0    0  0.00000000000E+00  0.00000000000E+00  0.45593999997E+02  0.45594000000E+02  0.51100000000E-03 0. -1.
         11   -1    0    0    0    0 -0.00000000000E+00 -0.00000000000E+00 -0.45593999997E+02  0.45594000000E+02  0.51100000000E-03 0.  1.
    9900012    2    1    2    0    0  0.72385162864E+01 -0.42786824384E+02 -0.71755018417E+00  0.47787270315E+02  0.19999996676E+02 0.  0.
        -12    1    1    2    0    0 -0.72385162864E+01  0.42786824384E+02  0.71755018417E+00  0.43400729685E+02  0.00000000000E+00 0.  1.
         11    1    3    3    0    0  0.24751633344E+01 -0.11866548173E+02  0.73002254273E+01  0.14150430757E+02  0.51100000000E-03 0. -1.
        -11    1    3    3    0    0  0.54730948913E+01 -0.19446685413E+02 -0.11256096930E+01  0.20233520176E+02  0.51100000000E-03 0.  1.
        -12    1    3    3    0    0 -0.70974193933E+00 -0.11473590798E+02 -0.68921659185E+01  0.13403319382E+02  0.00000000000E+00 0.  1.
</event>
<event>
 7    1  0.4083500E-009  0.4778728E+02  0.7816164E-02  0.1312668E+00
        -11   -1    0    0    0    0  0.00000000000E+00  0.00000000000E+00  0.45593999997E+02  0.45594000000E+02  0.51100000000E-03 0.  1.
         11   -1    0    0    0    0 -0.00000000000E+00 -0.00000000000E+00 -0.45593999997E+02  0.45594000000E+02  0.51100000000E-03 0. -1.
    9900012    2    1    2    0    0  0.30894972983E+02  0.22637411745E+02 -0.20412520150E+02  0.47787277137E+02  0.20000027777E+02 0.  0.
        -12    1    1    2    0    0 -0.30894972983E+02 -0.22637411745E+02  0.20412520150E+02  0.43400722863E+02  0.00000000000E+00 0.  1.
         11    1    3    3    0    0  0.12473378852E+02  0.47417354055E+01 -0.96202287579E+01  0.16450472220E+02  0.51100000000E-03 0. -1.
        -11    1    3    3    0    0  0.12672442785E+01  0.56227356789E+01 -0.82893300797E+01  0.10096239795E+02  0.51100000000E-03 0.  1.
         12    1    3    3    0    0  0.17154349853E+02  0.12272940661E+02 -0.25029613125E+01  0.21240565122E+02  0.00000000000E+00 0. -1.
</event>
<event>
 7    1  0.4083500E-009  0.4778726E+02  0.7816164E-02  0.1312668E+00
        -11   -1    0    0    0    0  0.00000000000E+00  0.00000000000E+00  0.45593999997E+02  0.45594000000E+02  0.51100000000E-03 0.  1.
         11   -1    0    0    0    0 -0.00000000000E+00 -0.00000000000E+00 -0.45593999997E+02  0.45594000000E+02  0.51100000000E-03 0. -1.
    9900012    2    1    2    0    0 -0.30491085636E+02  0.30838365802E+02  0.17067510039E+01  0.47787261440E+02  0.19999956208E+02 0.  0.
        -12    1    1    2    0    0  0.30491085636E+02 -0.30838365802E+02 -0.17067510039E+01  0.43400738560E+02  0.00000000000E+00 0.  1.
         11    1    3    3    0    0 -0.12134520376E+02  0.23816296969E+02  0.50052523716E+01  0.27194027610E+02  0.51100000000E-03 0. -1.
        -11    1    3    3    0    0 -0.23465257234E+00 -0.57441209338E+00  0.16168654613E+00  0.64121282196E+00  0.51100000000E-03 0.  1.
         12    1    3    3    0    0 -0.18121912687E+02  0.75964809267E+01 -0.34601879138E+01  0.19952021008E+02  0.00000000000E+00 0. -1.
</event>
<event>
 7    1  0.4083500E-009  0.4778727E+02  0.7816164E-02  0.1312668E+00
        -11   -1    0    0    0    0  0.00000000000E+00  0.00000000000E+00  0.45593999997E+02  0.45594000000E+02  0.51100000000E-03 0.  1.
         11   -1    0    0    0    0 -0.00000000000E+00 -0.00000000000E+00 -0.45593999997E+02  0.45594000000E+02  0.51100000000E-03 0. -1.
    9900012    2    1    2    0    0 -0.36241647649E+02 -0.21212271413E+02 -0.10963837142E+02  0.47787271807E+02  0.20000003476E+02 0.  0.
        -12    1    1    2    0    0  0.36241647649E+02  0.21212271413E+02  0.10963837142E+02  0.43400728193E+02  0.00000000000E+00 0.  1.
         11    1    3    3    0    0 -0.81759328000E+01  0.99677977574E+00 -0.35407316121E+01  0.89652790074E+01  0.51100000000E-03 0. -1.
        -11    1    3    3    0    0 -0.44296863169E+01 -0.43983848333E+00 -0.48537905690E+01  0.65859594523E+01  0.51100000000E-03 0.  1.
         12    1    3    3    0    0 -0.23636028532E+02 -0.21769212705E+02 -0.25693149612E+01  0.32236033347E+02  0.00000000000E+00 0. -1.
</event>
<event>
 7    1  0.4083500E-009  0.4778727E+02  0.7816164E-02  0.1312668E+00
        -11   -1    0    0    0    0  0.00000000000E+00  0.00000000000E+00  0.45593999997E+02  0.45594000000E+02  0.51100000000E-03 0.  1.
         11   -1    0    0    0    0 -0.00000000000E+00 -0.00000000000E+00 -0.45593999997E+02  0.45594000000E+02  0.51100000000E-03 0. -1.
    9900012    2    1    2    0    0 -0.25318989371E+02  0.34789276562E+02 -0.56813947083E+01  0.47787271524E+02  0.20000002184E+02 0.  0.
        -12    1    1    2    0    0  0.25318989371E+02 -0.34789276562E+02  0.56813947083E+01  0.43400728476E+02  0.00000000000E+00 0.  1.
         11    1    3    3    0    0 -0.16724798953E+01 -0.17210326433E+00  0.24360382180E+01  0.29599140181E+01  0.51100000000E-03 0. -1.
        -11    1    3    3    0    0 -0.12682963801E+00  0.91943212202E+01 -0.19351563954E+01  0.93966195514E+01  0.51100000000E-03 0.  1.
         12    1    3    3    0    0 -0.23519679837E+02  0.25767058606E+02 -0.61822765310E+01  0.35430737954E+02  0.00000000000E+00 0. -1.
</event>
<event>
 7    1  0.4083500E-009  0.4778726E+02  0.7816164E-02  0.1312668E+00
        -11   -1    0    0    0    0  0.00000000000E+00  0.00000000000E+00  0.45593999997E+02  0.45594000000E+02  0.51100000000E-03 0.  1.
         11   -1    0    0    0    0 -0.00000000000E+00 -0.00000000000E+00 -0.45593999997E+02  0.45594000000E+02  0.51100000000E-03 0. -1.
    9900012    2    1    2    0    0  0.10962159594E+02  0.33309164294E+01 -0.41861204450E+02  0.47787258242E+02  0.19999941626E+02 0.  0.
        -12    1    1    2    0    0 -0.10962159594E+02 -0.33309164294E+01  0.41861204450E+02  0.43400741758E+02  0.00000000000E+00 0.  1.
         11    1    3    3    0    0  0.44950423365E+01 -0.37096330046E+01 -0.13041065659E+02  0.14284123229E+02  0.51100000000E-03 0. -1.
        -11    1    3    3    0    0  0.12515847434E+01 -0.43469669802E+01 -0.67242113808E+01  0.81041720892E+01  0.51100000000E-03 0.  1.
        -12    1    3    3    0    0  0.52155325138E+01  0.11387516414E+02 -0.22095927410E+02  0.25398962924E+02  0.00000000000E+00 0.  1.
</event>
<event>
 7    1  0.4083500E-009  0.4778727E+02  0.7816164E-02  0.1312668E+00
        -11   -1    0    0    0    0  0.00000000000E+00  0.00000000000E+00  0.45593999997E+02  0.45594000000E+02  0.51100000000E-03 0.  1.
         11   -1    0    0    0    0 -0.00000000000E+00 -0.00000000000E+00 -0.45593999997E+02  0.45594000000E+02  0.51100000000E-03 0. -1.
    9900012    2    1    2    0    0 -0.39844675823E+02  0.10191779363E+02  0.13861910947E+02  0.47787272666E+02  0.20000007393E+02 0.  0.
        -12    1    1    2    0    0  0.39844675823E+02 -0.10191779363E+02 -0.13861910947E+02  0.43400727334E+02  0.00000000000E+00 0.  1.
         11    1    3    3    0    0 -0.26503667667E+02  0.14611329432E+02  0.68222121584E+01  0.31023828368E+02  0.51100000000E-03 0. -1.
        -11    1    3    3    0    0 -0.65375265776E+01  0.25986333749E+00  0.50626674173E+01  0.82726890638E+01  0.51100000000E-03 0.  1.
        -12    1    3    3    0    0 -0.68034815780E+01 -0.46794134061E+01  0.19770313715E+01  0.84907552345E+01  0.00000000000E+00 0.  1.
</event>
<event>
 7    1  0.4083500E-009  0.4778727E+02  0.7816164E-02  0.1312668E+00
        -11   -1    0    0    0    0  0.00000000000E+00  0.00000000000E+00  0.45593999997E+02  0.45594000000E+02  0.51100000000E-03 0. -1.
         11   -1    0    0    0    0 -0.00000000000E+00 -0.00000000000E+00 -0.45593999997E+02  0.45594000000E+02  0.51100000000E-03 0.  1.
    9900012    2    1    2    0    0  0.18617259622E+02 -0.37275968751E+02  0.12145906723E+02  0.47787271293E+02  0.20000001134E+02 0.  0.
        -12    1    1    2    0    0 -0.18617259622E+02  0.37275968751E+02 -0.12145906723E+02  0.43400728707E+02  0.00000000000E+00 0.  1.
         11    1    3    3    0    0 -0.17959144015E+01  0.68333463509E+00  0.15182404574E+01  0.24489404053E+01  0.51100000000E-03 0. -1.
        -11    1    3    3    0    0  0.40478096065E+01 -0.11860716367E+02 -0.61033182418E+00  0.12547265063E+02  0.51100000000E-03 0.  1.
         12    1    3    3    0    0  0.16365364416E+02 -0.26098587019E+02  0.11237998090E+02  0.32791065825E+02  0.00000000000E+00 0. -1.
</event>
<event>
 7    1  0.4083500E-009  0.4778728E+02  0.7816164E-02  0.1312668E+00
        -11   -1    0    0    0    0  0.00000000000E+00  0.00000000000E+00  0.45593999997E+02  0.45594000000E+02  0.51100000000E-03 0. -1.
         11   -1    0    0    0    0 -0.00000000000E+00 -0.00000000000E+00 -0.45593999997E+02  0.45594000000E+02  0.51100000000E-03 0.  1.
    9900012    2    1    2    0    0  0.11895606729E+02  0.40786880583E+02  0.88627172094E+01  0.47787276002E+02  0.20000022605E+02 0.  0.
        -12    1    1    2    0    0 -0.11895606729E+02 -0.40786880583E+02 -0.88627172094E+01  0.43400723998E+02  0.00000000000E+00 0.  1.
         11    1    3    3    0    0  0.22466771209E+01  0.12135402408E+02  0.84466369546E-01  0.12341907653E+02  0.51100000000E-03 0. -1.
        -11    1    3    3    0    0  0.73450834753E+01  0.71250362124E+01 -0.31762522187E+01  0.10714708148E+02  0.51100000000E-03 0.  1.
         12    1    3    3    0    0  0.23038461332E+01  0.21526441963E+02  0.11954503059E+02  0.24730660201E+02  0.00000000000E+00 0. -1.
</event>
<event>
 7    1  0.4083500E-009  0.4778727E+02  0.7816164E-02  0.1312668E+00
        -11   -1    0    0    0    0  0.00000000000E+00  0.00000000000E+00  0.45593999997E+02  0.45594000000E+02  0.51100000000E-03 0. -1.
         11   -1    0    0    0    0 -0.00000000000E+00 -0.00000000000E+00 -0.45593999997E+02  0.45594000000E+02  0.51100000000E-03 0.  1.
    9900012    2    1    2    0    0 -0.92819318238E+01  0.42113236876E+02  0.48932902786E+01  0.47787271108E+02  0.20000000291E+02 0.  0.
        -12    1    1    2    0    0  0.92819318238E+01 -0.42113236876E+02 -0.48932902786E+01  0.43400728892E+02  0.00000000000E+00 0.  1.
         11    1    3    3    0    0 -0.11446532027E+01  0.75104826498E+00  0.39566505752E+01  0.41868112552E+01  0.51100000000E-03 0. -1.
        -11    1    3    3    0    0 -0.33428130629E+01  0.46009711345E+01 -0.28019175482E+01  0.63398798697E+01  0.51100000000E-03 0.  1.
         12    1    3    3    0    0 -0.47944655582E+01  0.36761217477E+02  0.37385572516E+01  0.37260579983E+02  0.00000000000E+00 0. -1.
</event>
<event>
 7    1  0.4083500E-009  0.4778727E+02  0.7816164E-02  0.1312668E+00
        -11   -1    0    0    0    0  0.00000000000E+00  0.00000000000E+00  0.45593999997E+02  0.45594000000E+02  0.51100000000E-03 0.  1.
         11   -1    0    0    0    0 -0.00000000000E+00 -0.00000000000E+00 -0.45593999997E+02  0.45594000000E+02  0.51100000000E-03 0. -1.
    9900012    2    1    2    0    0  0.26642629517E+01  0.39850785706E+02  0.16983510453E+02  0.47787273673E+02  0.20000011983E+02 0.  0.
        -12    1    1    2    0    0 -0.26642629517E+01 -0.39850785706E+02 -0.16983510453E+02  0.43400726327E+02  0.00000000000E+00 0.  1.
         11    1    3    3    0    0  0.47718147276E+01  0.27223891055E+02  0.13863159192E+02  0.30920828628E+02  0.51100000000E-03 0. -1.
        -11    1    3    3    0    0  0.29217529468E+01  0.12724529192E-01  0.11698384647E+01  0.31472725478E+01  0.51100000000E-03 0.  1.
        -12    1    3    3    0    0 -0.50293047226E+01  0.12614170121E+02  0.19505127963E+01  0.13719172497E+02  0.00000000000E+00 0.  1.
</event>
<event>
 7    1  0.4083500E-009  0.4778727E+02  0.7816164E-02  0.1312668E+00
        -11   -1    0    0    0    0  0.00000000000E+00  0.00000000000E+00  0.45593999997E+02  0.45594000000E+02  0.51100000000E-03 0.  1.
         11   -1    0    0    0    0 -0.00000000000E+00 -0.00000000000E+00 -0.45593999997E+02  0.45594000000E+02  0.51100000000E-03 0. -1.
    9900012    2    1    2    0    0 -0.87059783087E+01 -0.40323843652E+01 -0.42326929090E+02  0.47787272953E+02  0.20000008702E+02 0.  0.
        -12    1    1    2    0    0  0.87059783087E+01  0.40323843652E+01  0.42326929090E+02  0.43400727047E+02  0.00000000000E+00 0.  1.
         11    1    3    3    0    0 -0.24738622422E+01  0.27647030338E+01 -0.57727556895E+01  0.68620904811E+01  0.51100000000E-03 0. -1.
        -11    1    3    3    0    0  0.40808832317E+01 -0.17479293449E+01 -0.21704108256E+02  0.22153491382E+02  0.51100000000E-03 0.  1.
        -12    1    3    3    0    0 -0.10312999298E+02 -0.50491580542E+01 -0.14850065145E+02  0.18771691090E+02  0.00000000000E+00 0.  1.
</event>
<event>
 7    1  0.4083500E-009  0.4778726E+02  0.7816164E-02  0.1312668E+00
        -11   -1    0    0    0    0  0.00000000000E+00  0.00000000000E+00  0.45593999997E+02  0.45594000000E+02  0.51100000000E-03 0.  1.
         11   -1    0    0    0    0 -0.00000000000E+00 -0.00000000000E+00 -0.45593999997E+02  0.45594000000E+02  0.51100000000E-03 0. -1.
    9900012    2    1    2    0    0  0.27008771172E+01 -0.39961234612E+01 -0.43131895770E+02  0.47787260690E+02  0.19999952789E+02 0.  0.
        -12    1    1    2    0    0 -0.27008771172E+01  0.39961234612E+01  0.43131895770E+02  0.43400739310E+02  0.00000000000E+00 0.  1.
         11    1    3    3    0    0  0.75681812764E+00 -0.57067630831E+01 -0.46465561479E+01  0.73979999231E+01  0.51100000000E-03 0. -1.
        -11    1    3    3    0    0  0.10008230460E+01 -0.12213704166E+01  0.19092774717E+00  0.15905490026E+01  0.51100000000E-03 0.  1.
         12    1    3    3    0    0  0.94323594361E+00  0.29320100384E+01 -0.38676267370E+02  0.38798711764E+02  0.00000000000E+00 0. -1.
</event>
<event>
 7    1  0.4083500E-009  0.4778727E+02  0.7816164E-02  0.1312668E+00
        -11   -1    0    0    0    0  0.00000000000E+00  0.00000000000E+00  0.45593999997E+02  0.45594000000E+02  0.51100000000E-03 0.  1.
         11   -1    0    0    0    0 -0.00000000000E+00 -0.00000000000E+00 -0.45593999997E+02  0.45594000000E+02  0.51100000000E-03 0. -1.
    9900012    2    1    2    0    0 -0.25697556895E+02 -0.32113310802E+01 -0.34827379495E+02  0.47787269129E+02  0.19999991268E+02 0.  0.
        -12    1    1    2    0    0  0.25697556895E+02  0.32113310802E+01  0.34827379495E+02  0.43400730871E+02  0.00000000000E+00 0.  1.
         11    1    3    3    0    0 -0.81153855919E+01  0.54484991475E+01 -0.20725960786E+02  0.22915302246E+02  0.51100000000E-03 0. -1.
        -11    1    3    3    0    0 -0.32322858095E+01 -0.12131420105E+01 -0.51251883635E-01  0.34528266839E+01  0.51100000000E-03 0.  1.
         12    1    3    3    0    0 -0.14349885493E+02 -0.74466882171E+01 -0.14050166825E+02  0.21419140199E+02  0.00000000000E+00 0. -1.
</event>
<event>
 7    1  0.4083500E-009  0.4778727E+02  0.7816164E-02  0.1312668E+00
        -11   -1    0    0    0    0  0.00000000000E+00  0.00000000000E+00  0.45593999997E+02  0.45594000000E+02  0.51100000000E-03 0.  1.
         11   -1    0    0    0    0 -0.00000000000E+00 -0.00000000000E+00 -0.45593999997E+02  0.45594000000E+02  0.51100000000E-03 0. -1.
    9900012    2    1    2    0    0  0.98735553311E+01  0.12335346697E+01 -0.42244698927E+02  0.47787270858E+02  0.19999999149E+02 0.  0.
        -12    1    1    2    0    0 -0.98735553311E+01 -0.12335346697E+01  0.42244698927E+02  0.43400729142E+02  0.00000000000E+00 0.  1.
         11    1    3    3    0    0  0.14925225505E+01 -0.31078521843E+00 -0.11329915077E+01  0.18994422953E+01  0.51100000000E-03 0. -1.
        -11    1    3    3    0    0 -0.35389689963E+01 -0.54409018929E+01 -0.11328123112E+02  0.13055806695E+02  0.51100000000E-03 0.  1.
         12    1    3    3    0    0  0.11920001777E+02  0.69852217810E+01 -0.29783584307E+02  0.32832021867E+02  0.00000000000E+00 0. -1.
</event>
<event>
 7    1  0.4083500E-009  0.4778727E+02  0.7816164E-02  0.1312668E+00
        -11   -1    0    0    0    0  0.00000000000E+00  0.00000000000E+00  0.45593999997E+02  0.45594000000E+02  0.51100000000E-03 0.  1.
         11   -1    0    0    0    0 -0.00000000000E+00 -0.00000000000E+00 -0.45593999997E+02  0.45594000000E+02  0.51100000000E-03 0. -1.
    9900012    2    1    2    0    0 -0.34284602250E+02  0.36245727443E+01 -0.26363836320E+02  0.47787270231E+02  0.19999996289E+02 0.  0.
        -12    1    1    2    0    0  0.34284602250E+02 -0.36245727443E+01  0.26363836320E+02  0.43400729769E+02  0.00000000000E+00 0.  1.
         11    1    3    3    0    0 -0.16177766876E+01  0.37576657548E+01  0.34946599981E+00  0.41060175453E+01  0.51100000000E-03 0. -1.
        -11    1    3    3    0    0 -0.26485211518E+01 -0.31297421093E+01 -0.15035057808E+01  0.43669760540E+01  0.51100000000E-03 0.  1.
         12    1    3    3    0    0 -0.30018304410E+02  0.29966490988E+01 -0.25209796539E+02  0.39314276631E+02  0.00000000000E+00 0. -1.
</event>
<event>
 7    1  0.4083500E-009  0.4778724E+02  0.7816164E-02  0.1312668E+00
        -11   -1    0    0    0    0  0.00000000000E+00  0.00000000000E+00  0.45593999997E+02  0.45594000000E+02  0.51100000000E-03 0.  1.
         11   -1    0    0    0    0 -0.00000000000E+00 -0.00000000000E+00 -0.45593999997E+02  0.45594000000E+02  0.51100000000E-03 0. -1.
    9900012    2    1    2    0    0 -0.14011213737E+02 -0.45985463759E+01 -0.40818684562E+02  0.47787242535E+02  0.19999870013E+02 0.  0.
        -12    1    1    2    0    0  0.14011213737E+02  0.45985463759E+01  0.40818684562E+02  0.43400757465E+02  0.00000000000E+00 0.  1.
         11    1    3    3    0    0 -0.91070716771E+01  0.93581441864E+00 -0.17136962335E+02  0.19429101407E+02  0.51100000000E-03 0. -1.
        -11    1    3    3    0    0 -0.66718836621E+01 -0.69281756073E+01 -0.24205824946E+02  0.26046796548E+02  0.51100000000E-03 0.  1.
        -12    1    3    3    0    0  0.17677416024E+01  0.13938148127E+01  0.52410271861E+00  0.23113445794E+01  0.00000000000E+00 0.  1.
</event>
<event>
 7    1  0.4083500E-009  0.4778728E+02  0.7816164E-02  0.1312668E+00
        -11   -1    0    0    0    0  0.00000000000E+00  0.00000000000E+00  0.45593999997E+02  0.45594000000E+02  0.51100000000E-03 0. -1.
         11   -1    0    0    0    0 -0.00000000000E+00 -0.00000000000E+00 -0.45593999997E+02  0.45594000000E+02  0.51100000000E-03 0.  1.
    9900012    2    1    2    0    0  0.27689357552E+02 -0.71446383262E+01  0.32647763206E+02  0.47787276264E+02  0.20000023797E+02 0.  0.
        -12    1    1    2    0    0 -0.27689357552E+02  0.71446383262E+01 -0.32647763206E+02  0.43400723736E+02  0.00000000000E+00 0.  1.
         11    1    3    3    0    0  0.22930520869E+01 -0.48583937932E+01  0.13966800892E+02  0.14964411300E+02  0.51100000000E-03 0. -1.
        -11    1    3    3    0    0  0.52086479043E+01 -0.31751773556E+01  0.77039793510E+01  0.98266506162E+01  0.51100000000E-03 0.  1.
        -12    1    3    3    0    0  0.20187657561E+02  0.88893282260E+00  0.10976982963E+02  0.22996214348E+02  0.00000000000E+00 0.  1.
</event>
<event>
 7    1  0.4083500E-009  0.4778727E+02  0.7816164E-02  0.1312668E+00
        -11   -1    0    0    0    0  0.00000000000E+00  0.00000000000E+00  0.45593999997E+02  0.45594000000E+02  0.51100000000E-03 0. -1.
         11   -1    0    0    0    0 -0.00000000000E+00 -0.00000000000E+00 -0.45593999997E+02  0.45594000000E+02  0.51100000000E-03 0.  1.
    9900012    2    1    2    0    0 -0.46047087789E+01  0.41968677425E+02 -0.10052352517E+02  0.47787273982E+02  0.20000013393E+02 0.  0.
        -12    1    1    2    0    0  0.46047087789E+01 -0.41968677425E+02  0.10052352517E+02  0.43400726018E+02  0.00000000000E+00 0.  1.
         11    1    3    3    0    0 -0.11762649806E+01  0.92225240131E+01 -0.75042177625E+01  0.11947879852E+02  0.51100000000E-03 0. -1.
        -11    1    3    3    0    0 -0.82157326594E+01  0.12652471726E+02 -0.14192252894E+01  0.15152475197E+02  0.51100000000E-03 0.  1.
         12    1    3    3    0    0  0.47872888611E+01  0.20093681687E+02 -0.11289094654E+01  0.20686918933E+02  0.00000000000E+00 0. -1.
</event>
<event>
 7    1  0.4083500E-009  0.4778727E+02  0.7816164E-02  0.1312668E+00
        -11   -1    0    0    0    0  0.00000000000E+00  0.00000000000E+00  0.45593999997E+02  0.45594000000E+02  0.51100000000E-03 0.  1.
         11   -1    0    0    0    0 -0.00000000000E+00 -0.00000000000E+00 -0.45593999997E+02  0.45594000000E+02  0.51100000000E-03 0. -1.
    9900012    2    1    2    0    0  0.39272588549E+02  0.45275985590E+01 -0.17910552417E+02  0.47787271344E+02  0.20000001364E+02 0.  0.
        -12    1    1    2    0    0 -0.39272588549E+02 -0.45275985590E+01  0.17910552417E+02  0.43400728656E+02  0.00000000000E+00 0.  1.
         11    1    3    3    0    0  0.39890585145E+01 -0.64382919225E+00 -0.67066758341E+01  0.78298534383E+01  0.51100000000E-03 0. -1.
        -11    1    3    3    0    0  0.93750401117E+01 -0.31175107773E+01  0.13976822103E+01  0.99781644787E+01  0.51100000000E-03 0.  1.
         12    1    3    3    0    0  0.25908489923E+02  0.82889385285E+01 -0.12601558793E+02  0.29979253427E+02  0.00000000000E+00 0. -1.
</event>
<event>
 7    1  0.4083500E-009  0.4778727E+02  0.7816164E-02  0.1312668E+00
        -11   -1    0    0    0    0  0.00000000000E+00  0.00000000000E+00  0.45593999997E+02  0.45594000000E+02  0.51100000000E-03 0.  1.
         11   -1    0    0    0    0 -0.00000000000E+00 -0.00000000000E+00 -0.45593999997E+02  0.45594000000E+02  0.51100000000E-03 0. -1.
    9900012    2    1    2    0    0  0.21280933663E+02  0.51962085700E+01 -0.37466577900E+02  0.47787272118E+02  0.20000004897E+02 0.  0.
        -12    1    1    2    0    0 -0.21280933663E+02 -0.51962085700E+01  0.37466577900E+02  0.43400727882E+02  0.00000000000E+00 0.  1.
         11    1    3    3    0    0  0.11273813657E+02  0.65275427381E+01 -0.26377794623E+02  0.29419308931E+02  0.51100000000E-03 0. -1.
        -11    1    3    3    0    0  0.83995533765E+01 -0.35922086387E+01 -0.12316179422E+02  0.15334429746E+02  0.51100000000E-03 0.  1.
         12    1    3    3    0    0  0.16075666294E+01  0.22608744707E+01  0.12273961444E+01  0.30335334406E+01  0.00000000000E+00 0. -1.
</event>
<event>
 7    1  0.4083500E-009  0.4778727E+02  0.7816164E-02  0.1312668E+00
        -11   -1    0    0    0    0  0.00000000000E+00  0.00000000000E+00  0.45593999997E+02  0.45594000000E+02  0.51100000000E-03 0.  1.
         11   -1    0    0    0    0 -0.00000000000E+00 -0.00000000000E+00 -0.45593999997E+02  0.45594000000E+02  0.51100000000E-03 0. -1.
    9900012    2    1    2    0    0 -0.73072740831E+01 -0.24395180621E+02 -0.35144021225E+02  0.47787270514E+02  0.19999997583E+02 0.  0.
        -12    1    1    2    0    0  0.73072740831E+01  0.24395180621E+02  0.35144021225E+02  0.43400729486E+02  0.00000000000E+00 0.  1.
         11    1    3    3    0    0 -0.31080201057E+01 -0.30746146550E+01 -0.33814469806E+01  0.55269546948E+01  0.51100000000E-03 0. -1.
        -11    1    3    3    0    0  0.64728027632E+01 -0.86986268182E+01 -0.87829705955E+01  0.13953632390E+02  0.51100000000E-03 0.  1.
        -12    1    3    3    0    0 -0.10672056741E+02 -0.12621939147E+02 -0.22979603649E+02  0.28306683429E+02  0.00000000000E+00 0.  1.
</event>
<event>
 7    1  0.4083500E-009  0.4778727E+02  0.7816164E-02  0.1312668E+00
        -11   -1    0    0    0    0  0.00000000000E+00  0.00000000000E+00  0.45593999997E+02  0.45594000000E+02  0.51100000000E-03 0.  1.
         11   -1    0    0    0    0 -0.00000000000E+00 -0.00000000000E+00 -0.45593999997E+02  0.45594000000E+02  0.51100000000E-03 0. -1.
    9900012    2    1    2    0    0 -0.11147708797E+02  0.30756971197E+01 -0.41831712180E+02  0.47787268807E+02  0.19999989797E+02 0.  0.
        -12    1    1    2    0    0  0.11147708797E+02 -0.30756971197E+01  0.41831712180E+02  0.43400731193E+02  0.00000000000E+00 0.  1.
         11    1    3    3    0    0 -0.26884556134E+01 -0.61307163475E+01 -0.13123584294E+02  0.14732343381E+02  0.51100000000E-03 0. -1.
        -11    1    3    3    0    0  0.24952843649E+01  0.14677030679E+01 -0.39499919816E+01  0.48972475201E+01  0.51100000000E-03 0.  1.
         12    1    3    3    0    0 -0.10954537549E+02  0.77387103993E+01 -0.24758135905E+02  0.28157677905E+02  0.00000000000E+00 0. -1.
</event>
<event>
 7    1  0.4083500E-009  0.4778727E+02  0.7816164E-02  0.1312668E+00
        -11   -1    0    0    0    0  0.00000000000E+00  0.00000000000E+00  0.45593999997E+02  0.45594000000E+02  0.51100000000E-03 0.  1.
         11   -1    0    0    0    0 -0.00000000000E+00 -0.00000000000E+00 -0.45593999997E+02  0.45594000000E+02  0.51100000000E-03 0. -1.
    9900012    2    1    2    0    0  0.33605557377E+02 -0.10515591654E+02 -0.25371485019E+02  0.47787269516E+02  0.19999993032E+02 0.  0.
        -12    1    1    2    0    0 -0.33605557377E+02  0.10515591654E+02  0.25371485019E+02  0.43400730484E+02  0.00000000000E+00 0.  1.
         11    1    3    3    0    0  0.86897858091E+01  0.33174838980E+01 -0.71316356874E+01  0.11720849144E+02  0.51100000000E-03 0. -1.
        -11    1    3    3    0    0  0.23342895606E+02 -0.74240001936E+01 -0.14889940855E+02  0.28665604704E+02  0.51100000000E-03 0.  1.
        -12    1    3    3    0    0  0.15728759621E+01 -0.64090753584E+01 -0.33499084770E+01  0.74008156676E+01  0.00000000000E+00 0.  1.
</event>
<event>
 7    1  0.4083500E-009  0.4778727E+02  0.7816164E-02  0.1312668E+00
        -11   -1    0    0    0    0  0.00000000000E+00  0.00000000000E+00  0.45593999997E+02  0.45594000000E+02  0.51100000000E-03 0. -1.
         11   -1    0    0    0    0 -0.00000000000E+00 -0.00000000000E+00 -0.45593999997E+02  0.45594000000E+02  0.51100000000E-03 0.  1.
    9900012    2    1    2    0    0  0.82514648832E-03 -0.41874857059E+02  0.11407005421E+02  0.47787269279E+02  0.19999991952E+02 0.  0.
        -12    1    1    2    0    0 -0.82514648832E-03  0.41874857059E+02 -0.11407005421E+02  0.43400730721E+02  0.00000000000E+00 0.  1.
         11    1    3    3    0    0  0.50421974446E+01 -0.16817142517E+02  0.88350714016E+01  0.19654478483E+02  0.51100000000E-03 0.  1.
        -11    1    3    3    0    0 -0.67226512729E-01 -0.14374150180E+02  0.64100214293E+01  0.15738776566E+02  0.51100000000E-03 0. -1.
        -12    1    3    3    0    0 -0.49741457854E+01 -0.10683564362E+02 -0.38380874098E+01  0.12394014230E+02  0.00000000000E+00 0.  1.
</event>
<event>
 7    1  0.4083500E-009  0.4778727E+02  0.7816164E-02  0.1312668E+00
        -11   -1    0    0    0    0  0.00000000000E+00  0.00000000000E+00  0.45593999997E+02  0.45594000000E+02  0.51100000000E-03 0.  1.
         11   -1    0    0    0    0 -0.00000000000E+00 -0.00000000000E+00 -0.45593999997E+02  0.45594000000E+02  0.51100000000E-03 0. -1.
    9900012    2    1    2    0    0 -0.10135899498E+02  0.40698580052E+02 -0.11158506007E+02  0.47787272666E+02  0.20000007391E+02 0.  0.
        -12    1    1    2    0    0  0.10135899498E+02 -0.40698580052E+02  0.11158506007E+02  0.43400727334E+02  0.00000000000E+00 0.  1.
         11    1    3    3    0    0 -0.14948981432E+01 -0.12286918482E+01 -0.17352076677E+01  0.25991056207E+01  0.51100000000E-03 0. -1.
        -11    1    3    3    0    0 -0.38905195427E+00 -0.67080798506E+00 -0.38929016148E+00  0.86769341757E+00  0.51100000000E-03 0.  1.
        -12    1    3    3    0    0 -0.82519494007E+01  0.42598079885E+02 -0.90340081775E+01  0.44320473627E+02  0.00000000000E+00 0.  1.
</event>
<event>
 7    1  0.4083500E-009  0.4778727E+02  0.7816164E-02  0.1312668E+00
        -11   -1    0    0    0    0  0.00000000000E+00  0.00000000000E+00  0.45593999997E+02  0.45594000000E+02  0.51100000000E-03 0.  1.
         11   -1    0    0    0    0 -0.00000000000E+00 -0.00000000000E+00 -0.45593999997E+02  0.45594000000E+02  0.51100000000E-03 0. -1.
    9900012    2    1    2    0    0 -0.37496907426E+02  0.20463588496E+02 -0.76711766848E+01  0.47787268757E+02  0.19999989571E+02 0.  0.
        -12    1    1    2    0    0  0.37496907426E+02 -0.20463588496E+02  0.76711766848E+01  0.43400731243E+02  0.00000000000E+00 0.  1.
         11    1    3    3    0    0 -0.78749179844E+01  0.29750489336E+01  0.48842355983E+01  0.97324717857E+01  0.51100000000E-03 0. -1.
        -11    1    3    3    0    0 -0.19941674982E+01  0.76787911119E+00  0.17234263312E+01  0.27452761101E+01  0.51100000000E-03 0.  1.
         12    1    3    3    0    0 -0.27627821944E+02  0.16720660452E+02 -0.14278838614E+02  0.35309520861E+02  0.00000000000E+00 0. -1.
</event>
<event>
 7    1  0.4083500E-009  0.4778726E+02  0.7816164E-02  0.1312668E+00
        -11   -1    0    0    0    0  0.00000000000E+00  0.00000000000E+00  0.45593999997E+02  0.45594000000E+02  0.51100000000E-03 0.  1.
         11   -1    0    0    0    0 -0.00000000000E+00 -0.00000000000E+00 -0.45593999997E+02  0.45594000000E+02  0.51100000000E-03 0. -1.
    9900012    2    1    2    0    0 -0.42214281223E+02  0.55081375330E+01 -0.84403249252E+01  0.47787260340E+02  0.19999951192E+02 0.  0.
        -12    1    1    2    0    0  0.42214281223E+02 -0.55081375330E+01  0.84403249252E+01  0.43400739660E+02  0.00000000000E+00 0.  1.
         11    1    3    3    0    0 -0.14579442167E+02  0.28294372877E+01 -0.58655271659E-01  0.14851575336E+02  0.51100000000E-03 0. -1.
        -11    1    3    3    0    0 -0.50266700412E+01  0.26643587154E+01  0.41915460001E+01  0.70664897367E+01  0.51100000000E-03 0.  1.
         12    1    3    3    0    0 -0.22608169015E+02  0.14341529904E-01 -0.12573215654E+02  0.25869195267E+02  0.00000000000E+00 0. -1.
</event>
<event>
 7    1  0.4083500E-009  0.4778727E+02  0.7816164E-02  0.1312668E+00
        -11   -1    0    0    0    0  0.00000000000E+00  0.00000000000E+00  0.45593999997E+02  0.45594000000E+02  0.51100000000E-03 0.  1.
         11   -1    0    0    0    0 -0.00000000000E+00 -0.00000000000E+00 -0.45593999997E+02  0.45594000000E+02  0.51100000000E-03 0. -1.
    9900012    2    1    2    0    0  0.22925140101E+02  0.42555060897E+01 -0.36605358102E+02  0.47787267028E+02  0.19999981687E+02 0.  0.
        -12    1    1    2    0    0 -0.22925140101E+02 -0.42555060897E+01  0.36605358102E+02  0.43400732972E+02  0.00000000000E+00 0.  1.
         11    1    3    3    0    0  0.73981608030E+01  0.75099982089E+01 -0.10215373132E+02  0.14679465415E+02  0.51100000000E-03 0. -1.
        -11    1    3    3    0    0 -0.20438308965E+01 -0.43725845575E+00 -0.39437947842E+01  0.44634019819E+01  0.51100000000E-03 0.  1.
         12    1    3    3    0    0  0.17570810194E+02 -0.28172336635E+01 -0.22446190186E+02  0.28644399632E+02  0.00000000000E+00 0. -1.
</event>
<event>
 7    1  0.4083500E-009  0.4778727E+02  0.7816164E-02  0.1312668E+00
        -11   -1    0    0    0    0  0.00000000000E+00  0.00000000000E+00  0.45593999997E+02  0.45594000000E+02  0.51100000000E-03 0.  1.
         11   -1    0    0    0    0 -0.00000000000E+00 -0.00000000000E+00 -0.45593999997E+02  0.45594000000E+02  0.51100000000E-03 0. -1.
    9900012    2    1    2    0    0  0.30869481091E+02 -0.30257989213E+02 -0.38926232360E+01  0.47787270863E+02  0.19999999171E+02 0.  0.
        -12    1    1    2    0    0 -0.30869481091E+02  0.30257989213E+02  0.38926232360E+01  0.43400729137E+02  0.00000000000E+00 0.  1.
         11    1    3    3    0    0  0.97424362130E+01 -0.75759989360E+01 -0.16510697805E+01  0.12451379639E+02  0.51100000000E-03 0. -1.
        -11    1    3    3    0    0  0.77170481803E+01 -0.20006856853E+02  0.20482409398E+00  0.21444558912E+02  0.51100000000E-03 0.  1.
         12    1    3    3    0    0  0.13409996697E+02 -0.26751334231E+01 -0.24463775495E+01  0.13891332311E+02  0.00000000000E+00 0. -1.
</event>
<event>
 7    1  0.4083500E-009  0.4778727E+02  0.7816164E-02  0.1312668E+00
        -11   -1    0    0    0    0  0.00000000000E+00  0.00000000000E+00  0.45593999997E+02  0.45594000000E+02  0.51100000000E-03 0. -1.
         11   -1    0    0    0    0 -0.00000000000E+00 -0.00000000000E+00 -0.45593999997E+02  0.45594000000E+02  0.51100000000E-03 0.  1.
    9900012    2    1    2    0    0 -0.40277076536E+02  0.95021347698E+01  0.13080139909E+02  0.47787268214E+02  0.19999987096E+02 0.  0.
        -12    1    1    2    0    0  0.40277076536E+02 -0.95021347698E+01 -0.13080139909E+02  0.43400731786E+02  0.00000000000E+00 0.  1.
         11    1    3    3    0    0 -0.24534329105E+02  0.76777225194E+01  0.66468037352E+01  0.26552979642E+02  0.51100000000E-03 0. -1.
        -11    1    3    3    0    0 -0.17209527750E+02 -0.33251032539E+00  0.69714958461E+01  0.18570949440E+02  0.51100000000E-03 0.  1.
         12    1    3    3    0    0  0.14667803189E+01  0.21569225758E+01 -0.53815967199E+00  0.26633391325E+01  0.00000000000E+00 0. -1.
</event>
<event>
 7    1  0.4083500E-009  0.4778727E+02  0.7816164E-02  0.1312668E+00
        -11   -1    0    0    0    0  0.00000000000E+00  0.00000000000E+00  0.45593999997E+02  0.45594000000E+02  0.51100000000E-03 0.  1.
         11   -1    0    0    0    0 -0.00000000000E+00 -0.00000000000E+00 -0.45593999997E+02  0.45594000000E+02  0.51100000000E-03 0. -1.
    9900012    2    1    2    0    0 -0.46448657140E+01  0.34548916095E+02 -0.25853845682E+02  0.47787265935E+02  0.19999976704E+02 0.  0.
        -12    1    1    2    0    0  0.46448657140E+01 -0.34548916095E+02  0.25853845682E+02  0.43400734065E+02  0.00000000000E+00 0.  1.
         11    1    3    3    0    0 -0.46407021206E+01  0.91980944466E+01 -0.38241575875E+01  0.10989323871E+02  0.51100000000E-03 0.  1.
        -11    1    3    3    0    0 -0.43785024381E+01  0.52422535844E+01 -0.12222869837E+02  0.14001823222E+02  0.51100000000E-03 0. -1.
         12    1    3    3    0    0  0.43743388447E+01  0.20108568064E+02 -0.98068182576E+01  0.22796118842E+02  0.00000000000E+00 0. -1.
</event>
<event>
 7    1  0.4083500E-009  0.4778727E+02  0.7816164E-02  0.1312668E+00
        -11   -1    0    0    0    0  0.00000000000E+00  0.00000000000E+00  0.45593999997E+02  0.45594000000E+02  0.51100000000E-03 0.  1.
         11   -1    0    0    0    0 -0.00000000000E+00 -0.00000000000E+00 -0.45593999997E+02  0.45594000000E+02  0.51100000000E-03 0. -1.
    9900012    2    1    2    0    0 -0.33161717080E+02 -0.24469250873E+02 -0.13608072793E+02  0.47787270016E+02  0.19999995312E+02 0.  0.
        -12    1    1    2    0    0  0.33161717080E+02  0.24469250873E+02  0.13608072793E+02  0.43400729984E+02  0.00000000000E+00 0.  1.
         11    1    3    3    0    0 -0.17606416674E+02 -0.87921823867E+01 -0.75139780149E+01  0.21065332779E+02  0.51100000000E-03 0. -1.
        -11    1    3    3    0    0 -0.73047556160E+01  0.35679233306E+00  0.92535488227E+00  0.73717730091E+01  0.51100000000E-03 0.  1.
         12    1    3    3    0    0 -0.82505447896E+01 -0.16033860820E+02 -0.70194496608E+01  0.19350164228E+02  0.00000000000E+00 0. -1.
</event>
<event>
 7    1  0.4083500E-009  0.4778727E+02  0.7816164E-02  0.1312668E+00
        -11   -1    0    0    0    0  0.00000000000E+00  0.00000000000E+00  0.45593999997E+02  0.45594000000E+02  0.51100000000E-03 0.  1.
         11   -1    0    0    0    0 -0.00000000000E+00 -0.00000000000E+00 -0.45593999997E+02  0.45594000000E+02  0.51100000000E-03 0. -1.
    9900012    2    1    2    0    0  0.12599311949E+02  0.64491365806E+01 -0.41027909234E+02  0.47787270049E+02  0.19999995461E+02 0.  0.
        -12    1    1    2    0    0 -0.12599311949E+02 -0.64491365806E+01  0.41027909234E+02  0.43400729951E+02  0.00000000000E+00 0.  1.
         11    1    3    3    0    0 -0.13755280224E+01 -0.19893863858E+01 -0.34014872849E+01  0.41737095662E+01  0.51100000000E-03 0. -1.
        -11    1    3    3    0    0  0.76581895887E-01 -0.32316397477E+01 -0.10418288487E+02  0.10908258134E+02  0.51100000000E-03 0.  1.
         12    1    3    3    0    0  0.13898258075E+02  0.11670162714E+02 -0.27208133462E+02  0.32705302349E+02  0.00000000000E+00 0. -1.
</event>
<event>
 7    1  0.4083500E-009  0.4778727E+02  0.7816164E-02  0.1312668E+00
        -11   -1    0    0    0    0  0.00000000000E+00  0.00000000000E+00  0.45593999997E+02  0.45594000000E+02  0.51100000000E-03 0.  1.
         11   -1    0    0    0    0 -0.00000000000E+00 -0.00000000000E+00 -0.45593999997E+02  0.45594000000E+02  0.51100000000E-03 0. -1.
    9900012    2    1    2    0    0 -0.75920435098E+01  0.15130657699E+02 -0.39963075647E+02  0.47787270257E+02  0.19999996409E+02 0.  0.
        -12    1    1    2    0    0  0.75920435098E+01 -0.15130657699E+02  0.39963075647E+02  0.43400729743E+02  0.00000000000E+00 0.  1.
         11    1    3    3    0    0 -0.55386023643E+01  0.10722124304E+01 -0.18433114460E+02  0.19277070955E+02  0.51100000000E-03 0. -1.
        -11    1    3    3    0    0 -0.57344166434E+01  0.65298700664E+01 -0.16730407938E+02  0.18852832343E+02  0.51100000000E-03 0.  1.
        -12    1    3    3    0    0  0.36809754978E+01  0.75285752017E+01 -0.47995532495E+01  0.96573669589E+01  0.00000000000E+00 0.  1.
</event>
<event>
 7    1  0.4083500E-009  0.4778727E+02  0.7816164E-02  0.1312668E+00
        -11   -1    0    0    0    0  0.00000000000E+00  0.00000000000E+00  0.45593999997E+02  0.45594000000E+02  0.51100000000E-03 0.  1.
         11   -1    0    0    0    0 -0.00000000000E+00 -0.00000000000E+00 -0.45593999997E+02  0.45594000000E+02  0.51100000000E-03 0. -1.
    9900012    2    1    2    0    0 -0.43079276891E+02  0.12279984307E+01 -0.51274929985E+01  0.47787271181E+02  0.20000000621E+02 0.  0.
        -12    1    1    2    0    0  0.43079276891E+02 -0.12279984307E+01  0.51274929985E+01  0.43400728819E+02  0.00000000000E+00 0.  1.
         11    1    3    3    0    0 -0.13634868081E+02  0.47538378516E+01  0.43210822039E+00  0.14446290862E+02  0.51100000000E-03 0. -1.
        -11    1    3    3    0    0 -0.64017393723E+01  0.23027624112E+01 -0.66955577813E+01  0.95454426811E+01  0.51100000000E-03 0.  1.
         12    1    3    3    0    0 -0.23042669438E+02 -0.58286018321E+01  0.11359565625E+01  0.23795537637E+02  0.00000000000E+00 0. -1.
</event>
<event>
 7    1  0.4083500E-009  0.4778726E+02  0.7816164E-02  0.1312668E+00
        -11   -1    0    0    0    0  0.00000000000E+00  0.00000000000E+00  0.45593999997E+02  0.45594000000E+02  0.51100000000E-03 0.  1.
         11   -1    0    0    0    0 -0.00000000000E+00 -0.00000000000E+00 -0.45593999997E+02  0.45594000000E+02  0.51100000000E-03 0. -1.
    9900012    2    1    2    0    0 -0.17404434658E+02  0.13996765250E+02 -0.37212902275E+02  0.47787264074E+02  0.19999968217E+02 0.  0.
        -12    1    1    2    0    0  0.17404434658E+02 -0.13996765250E+02  0.37212902275E+02  0.43400735926E+02  0.00000000000E+00 0.  1.
         11    1    3    3    0    0 -0.56905947917E+01 -0.46477369540E+00 -0.10111542691E+02  0.11612156541E+02  0.51100000000E-03 0. -1.
        -11    1    3    3    0    0  0.20477284730E+01  0.27912321136E+01  0.18007082324E+00  0.34664959792E+01  0.51100000000E-03 0.  1.
         12    1    3    3    0    0 -0.13761568339E+02  0.11670306832E+02 -0.27281430407E+02  0.32708611553E+02  0.00000000000E+00 0. -1.
</event>
<event>
 7    1  0.4083500E-009  0.4778727E+02  0.7816164E-02  0.1312668E+00
        -11   -1    0    0    0    0  0.00000000000E+00  0.00000000000E+00  0.45593999997E+02  0.45594000000E+02  0.51100000000E-03 0.  1.
         11   -1    0    0    0    0 -0.00000000000E+00 -0.00000000000E+00 -0.45593999997E+02  0.45594000000E+02  0.51100000000E-03 0. -1.
    9900012    2    1    2    0    0 -0.21759476605E+02  0.85991415244E+01 -0.36554109851E+02  0.47787274153E+02  0.20000014174E+02 0.  0.
        -12    1    1    2    0    0  0.21759476605E+02 -0.85991415244E+01  0.36554109851E+02  0.43400725847E+02  0.00000000000E+00 0.  1.
         11    1    3    3    0    0 -0.15077138513E+02 -0.50523429311E+00 -0.14564362275E+02  0.20968929781E+02  0.51100000000E-03 0. -1.
        -11    1    3    3    0    0 -0.32822731080E+01 -0.19241878530E+01 -0.57858077982E+01  0.69246940573E+01  0.51100000000E-03 0.  1.
        -12    1    3    3    0    0 -0.34000649836E+01  0.11028563671E+02 -0.16203939777E+02  0.19893650314E+02  0.00000000000E+00 0.  1.
</event>
<event>
 7    1  0.4083500E-009  0.4778726E+02  0.7816164E-02  0.1312668E+00
        -11   -1    0    0    0    0  0.00000000000E+00  0.00000000000E+00  0.45593999997E+02  0.45594000000E+02  0.51100000000E-03 0. -1.
         11   -1    0    0    0    0 -0.00000000000E+00 -0.00000000000E+00 -0.45593999997E+02  0.45594000000E+02  0.51100000000E-03 0.  1.
    9900012    2    1    2    0    0 -0.16564399210E+02 -0.18308727042E+01  0.40073592674E+02  0.47787259847E+02  0.19999948945E+02 0.  0.
        -12    1    1    2    0    0  0.16564399210E+02  0.18308727042E+01 -0.40073592674E+02  0.43400740153E+02  0.00000000000E+00 0.  1.
         11    1    3    3    0    0 -0.34455690899E+01 -0.21339429578E+01  0.17874569229E+01  0.44295215784E+01  0.51100000000E-03 0.  1.
        -11    1    3    3    0    0  0.22489888772E+01 -0.30869179964E+01  0.35129092760E+01  0.51891758044E+01  0.51100000000E-03 0. -1.
         12    1    3    3    0    0 -0.15367818997E+02  0.33899882501E+01  0.34773226475E+02  0.38168562464E+02  0.00000000000E+00 0. -1.
</event>
<event>
 7    1  0.4083500E-009  0.4778727E+02  0.7816164E-02  0.1312668E+00
        -11   -1    0    0    0    0  0.00000000000E+00  0.00000000000E+00  0.45593999997E+02  0.45594000000E+02  0.51100000000E-03 0.  1.
         11   -1    0    0    0    0 -0.00000000000E+00 -0.00000000000E+00 -0.45593999997E+02  0.45594000000E+02  0.51100000000E-03 0. -1.
    9900012    2    1    2    0    0  0.19423919981E+02  0.38007475844E+02 -0.78591529073E+01  0.47787272220E+02  0.20000005358E+02 0.  0.
        -12    1    1    2    0    0 -0.19423919981E+02 -0.38007475844E+02  0.78591529073E+01  0.43400727780E+02  0.00000000000E+00 0.  1.
         11    1    3    3    0    0  0.13923854812E+02  0.14698238859E+02  0.33646828874E+01  0.20523962814E+02  0.51100000000E-03 0. -1.
        -11    1    3    3    0    0  0.49902429785E-01  0.33432633710E+01  0.64475506613E+00  0.34052326759E+01  0.51100000000E-03 0.  1.
        -12    1    3    3    0    0  0.54501627384E+01  0.19965973613E+02 -0.11868590861E+02  0.23858076729E+02  0.00000000000E+00 0.  1.
</event>
<event>
 7    1  0.4403001E-009  0.4778725E+02  0.7816164E-02  0.1312668E+00
        -11   -1    0    0    0    0  0.00000000000E+00  0.00000000000E+00  0.45593999997E+02  0.45594000000E+02  0.51100000000E-03 0.  1.
         11   -1    0    0    0    0 -0.00000000000E+00 -0.00000000000E+00 -0.45593999997E+02  0.45594000000E+02  0.51100000000E-03 0. -1.
    9900012    2    1    2    0    0  0.27166486510E+01  0.41055774189E+02 -0.13808272785E+02  0.47787249183E+02  0.19999900326E+02 0.  0.
        -12    1    1    2    0    0 -0.27166486510E+01 -0.41055774189E+02  0.13808272785E+02  0.43400750817E+02  0.00000000000E+00 0.  1.
         11    1    3    3    0    0  0.38302186620E+01  0.11537576312E+02  0.15994320683E+01  0.12261501758E+02  0.51100000000E-03 0.  1.
        -11    1    3    3    0    0 -0.15540530939E+01 -0.60515119418E+00 -0.18449887807E+01  0.24870208782E+01  0.51100000000E-03 0. -1.
         12    1    3    3    0    0  0.44048308286E+00  0.30123349071E+02 -0.13562716072E+02  0.33038726547E+02  0.00000000000E+00 0. -1.
</event>
<event>
 7    1  0.4083500E-009  0.4778727E+02  0.7816164E-02  0.1312668E+00
        -11   -1    0    0    0    0  0.00000000000E+00  0.00000000000E+00  0.45593999997E+02  0.45594000000E+02  0.51100000000E-03 0.  1.
         11   -1    0    0    0    0 -0.00000000000E+00 -0.00000000000E+00 -0.45593999997E+02  0.45594000000E+02  0.51100000000E-03 0. -1.
    9900012    2    1    2    0    0  0.34091723260E+01  0.31084686803E+02 -0.30095566287E+02  0.47787270516E+02  0.19999997589E+02 0.  0.
        -12    1    1    2    0    0 -0.34091723260E+01 -0.31084686803E+02  0.30095566287E+02  0.43400729484E+02  0.00000000000E+00 0.  1.
         11    1    3    3    0    0  0.17365221294E+01 -0.69784239723E+00 -0.60168837269E+01  0.63012207676E+01  0.51100000000E-03 0. -1.
        -11    1    3    3    0    0 -0.41528796536E+01  0.57716640023E+01 -0.56235104549E+01  0.90654500644E+01  0.51100000000E-03 0.  1.
        -12    1    3    3    0    0  0.58255298502E+01  0.26010865198E+02 -0.18455172105E+02  0.32420599684E+02  0.00000000000E+00 0.  1.
</event>
<event>
 7    1  0.4083500E-009  0.4778727E+02  0.7816164E-02  0.1312668E+00
        -11   -1    0    0    0    0  0.00000000000E+00  0.00000000000E+00  0.45593999997E+02  0.45594000000E+02  0.51100000000E-03 0. -1.
         11   -1    0    0    0    0 -0.00000000000E+00 -0.00000000000E+00 -0.45593999997E+02  0.45594000000E+02  0.51100000000E-03 0.  1.
    9900012    2    1    2    0    0 -0.43164960592E+02  0.79722076767E+00  0.44467899484E+01  0.47787270458E+02  0.19999997328E+02 0.  0.
        -12    1    1    2    0    0  0.43164960592E+02 -0.79722076767E+00 -0.44467899484E+01  0.43400729542E+02  0.00000000000E+00 0.  1.
         11    1    3    3    0    0 -0.10958953774E+02  0.30869943779E+00  0.33235007582E+01  0.11455986239E+02  0.51100000000E-03 0. -1.
        -11    1    3    3    0    0 -0.12236557465E+02 -0.79623666938E+01 -0.28195929567E+00  0.14601784934E+02  0.51100000000E-03 0.  1.
        -12    1    3    3    0    0 -0.19969449354E+02  0.84508880237E+01  0.14052484859E+01  0.21729499286E+02  0.00000000000E+00 0.  1.
</event>
<event>
 7    1  0.4083500E-009  0.4778727E+02  0.7816164E-02  0.1312668E+00
        -11   -1    0    0    0    0  0.00000000000E+00  0.00000000000E+00  0.45593999997E+02  0.45594000000E+02  0.51100000000E-03 0.  1.
         11   -1    0    0    0    0 -0.00000000000E+00 -0.00000000000E+00 -0.45593999997E+02  0.45594000000E+02  0.51100000000E-03 0. -1.
    9900012    2    1    2    0    0 -0.25137384866E+02 -0.34727964124E+02 -0.67604389768E+01  0.47787272526E+02  0.20000006755E+02 0.  0.
        -12    1    1    2    0    0  0.25137384866E+02  0.34727964124E+02  0.67604389768E+01  0.43400727474E+02  0.00000000000E+00 0.  1.
         11    1    3    3    0    0 -0.16175150336E+02 -0.10664133866E+02 -0.55258697704E+01  0.20146822987E+02  0.51100000000E-03 0. -1.
        -11    1    3    3    0    0 -0.30089282660E+01 -0.91931117273E+01 -0.54153640507E+01  0.11085716964E+02  0.51100000000E-03 0.  1.
         12    1    3    3    0    0 -0.59533062641E+01 -0.14870718531E+02  0.41807948443E+01  0.16554732575E+02  0.00000000000E+00 0. -1.
</event>
<event>
 7    1  0.4083500E-009  0.4778727E+02  0.7816164E-02  0.1312668E+00
        -11   -1    0    0    0    0  0.00000000000E+00  0.00000000000E+00  0.45593999997E+02  0.45594000000E+02  0.51100000000E-03 0.  1.
         11   -1    0    0    0    0 -0.00000000000E+00 -0.00000000000E+00 -0.45593999997E+02  0.45594000000E+02  0.51100000000E-03 0. -1.
    9900012    2    1    2    0    0  0.37608459001E+02  0.20169915348E+02 -0.78994756370E+01  0.47787269719E+02  0.19999993959E+02 0.  0.
        -12    1    1    2    0    0 -0.37608459001E+02 -0.20169915348E+02  0.78994756370E+01  0.43400730281E+02  0.00000000000E+00 0.  1.
         11    1    3    3    0    0  0.91435220216E+01  0.51099826294E+01 -0.30965566834E+01  0.10922663640E+02  0.51100000000E-03 0. -1.
        -11    1    3    3    0    0  0.44658760929E+01 -0.39207285950E+01 -0.46479813514E+00  0.59608891585E+01  0.51100000000E-03 0.  1.
        -12    1    3    3    0    0  0.23999060886E+02  0.18980661314E+02 -0.43381208185E+01  0.30903716921E+02  0.00000000000E+00 0.  1.
</event>
<event>
 7    1  0.4083500E-009  0.4778727E+02  0.7816164E-02  0.1312668E+00
        -11   -1    0    0    0    0  0.00000000000E+00  0.00000000000E+00  0.45593999997E+02  0.45594000000E+02  0.51100000000E-03 0.  1.
         11   -1    0    0    0    0 -0.00000000000E+00 -0.00000000000E+00 -0.45593999997E+02  0.45594000000E+02  0.51100000000E-03 0. -1.
    9900012    2    1    2    0    0  0.21734510735E+02 -0.11105320797E+02 -0.35887407810E+02  0.47787272515E+02  0.20000006706E+02 0.  0.
        -12    1    1    2    0    0 -0.21734510735E+02  0.11105320797E+02  0.35887407810E+02  0.43400727485E+02  0.00000000000E+00 0.  1.
         11    1    3    3    0    0  0.10250360482E+02 -0.21480530070E+01 -0.16254583702E+02  0.19336377978E+02  0.51100000000E-03 0. -1.
        -11    1    3    3    0    0  0.84402725542E+01 -0.12575061689E+02 -0.17822284114E+02  0.23388120672E+02  0.51100000000E-03 0.  1.
         12    1    3    3    0    0  0.30438776989E+01  0.36177938986E+01 -0.18105399935E+01  0.50627738648E+01  0.00000000000E+00 0. -1.
</event>
<event>
 7    1  0.4083500E-009  0.4778727E+02  0.7816164E-02  0.1312668E+00
        -11   -1    0    0    0    0  0.00000000000E+00  0.00000000000E+00  0.45593999997E+02  0.45594000000E+02  0.51100000000E-03 0. -1.
         11   -1    0    0    0    0 -0.00000000000E+00 -0.00000000000E+00 -0.45593999997E+02  0.45594000000E+02  0.51100000000E-03 0.  1.
    9900012    2    1    2    0    0 -0.40042195682E+02  0.67021411176E+01  0.15340376683E+02  0.47787270889E+02  0.19999999290E+02 0.  0.
        -12    1    1    2    0    0  0.40042195682E+02 -0.67021411176E+01 -0.15340376683E+02  0.43400729111E+02  0.00000000000E+00 0.  1.
         11    1    3    3    0    0 -0.51970209156E+01 -0.10147227966E+01  0.87987599448E+01  0.10269219327E+02  0.51100000000E-03 0. -1.
        -11    1    3    3    0    0 -0.11435008944E+02  0.21499528648E+01  0.67551527502E+01  0.13454137498E+02  0.51100000000E-03 0.  1.
        -12    1    3    3    0    0 -0.23410165822E+02  0.55669110494E+01 -0.21353601161E+00  0.24063914064E+02  0.00000000000E+00 0.  1.
</event>
<event>
 7    1  0.4083500E-009  0.4778727E+02  0.7816164E-02  0.1312668E+00
        -11   -1    0    0    0    0  0.00000000000E+00  0.00000000000E+00  0.45593999997E+02  0.45594000000E+02  0.51100000000E-03 0.  1.
         11   -1    0    0    0    0 -0.00000000000E+00 -0.00000000000E+00 -0.45593999997E+02  0.45594000000E+02  0.51100000000E-03 0. -1.
    9900012    2    1    2    0    0 -0.65812672532E+01 -0.40809093862E+02 -0.13226039862E+02  0.47787270157E+02  0.19999995952E+02 0.  0.
        -12    1    1    2    0    0  0.65812672532E+01  0.40809093862E+02  0.13226039862E+02  0.43400729843E+02  0.00000000000E+00 0.  1.
         11    1    3    3    0    0  0.26464257828E+00 -0.15373056073E+02 -0.55799837665E+01  0.16356561614E+02  0.51100000000E-03 0. -1.
        -11    1    3    3    0    0  0.40106883484E+01 -0.20893498231E+01 -0.25230558135E+01  0.51784954002E+01  0.51100000000E-03 0.  1.
         12    1    3    3    0    0 -0.10856598180E+02 -0.23346687966E+02 -0.51230002820E+01  0.26252213143E+02  0.00000000000E+00 0. -1.
</event>
<event>
 7    1  0.5630848E-009  0.4778727E+02  0.7816164E-02  0.1312668E+00
        -11   -1    0    0    0    0  0.00000000000E+00  0.00000000000E+00  0.45593999997E+02  0.45594000000E+02  0.51100000000E-03 0.  1.
         11   -1    0    0    0    0 -0.00000000000E+00 -0.00000000000E+00 -0.45593999997E+02  0.45594000000E+02  0.51100000000E-03 0. -1.
    9900012    2    1    2    0    0  0.40369360921E+02 -0.15263647776E+02  0.45781059568E+01  0.47787270758E+02  0.19999998693E+02 0.  0.
        -12    1    1    2    0    0 -0.40369360921E+02  0.15263647776E+02 -0.45781059568E+01  0.43400729242E+02  0.00000000000E+00 0.  1.
         11    1    3    3    0    0  0.95570248960E+01 -0.11133249781E+02 -0.72404837679E+00  0.14690480655E+02  0.51100000000E-03 0. -1.
        -11    1    3    3    0    0  0.23770421332E+01  0.40378548335E+00  0.34945061790E+01  0.42455795500E+01  0.51100000000E-03 0.  1.
         12    1    3    3    0    0  0.28435293892E+02 -0.45341834782E+01  0.18076481546E+01  0.28851210553E+02  0.00000000000E+00 0. -1.
</event>
<event>
 7    1  0.4083500E-009  0.4778727E+02  0.7816164E-02  0.1312668E+00
        -11   -1    0    0    0    0  0.00000000000E+00  0.00000000000E+00  0.45593999997E+02  0.45594000000E+02  0.51100000000E-03 0.  1.
         11   -1    0    0    0    0 -0.00000000000E+00 -0.00000000000E+00 -0.45593999997E+02  0.45594000000E+02  0.51100000000E-03 0. -1.
    9900012    2    1    2    0    0  0.16780323133E+02  0.24535193037E+02 -0.31623858380E+02  0.47787270045E+02  0.19999995443E+02 0.  0.
        -12    1    1    2    0    0 -0.16780323133E+02 -0.24535193037E+02  0.31623858380E+02  0.43400729955E+02  0.00000000000E+00 0.  1.
         11    1    3    3    0    0  0.12671974059E+02  0.16765526486E+02 -0.17878946297E+02  0.27592001121E+02  0.51100000000E-03 0. -1.
        -11    1    3    3    0    0  0.30497462990E+01  0.76193670356E+01 -0.15841819516E+02  0.17841495239E+02  0.51100000000E-03 0.  1.
        -12    1    3    3    0    0  0.10586027747E+01  0.15029951545E+00  0.20969074332E+01  0.23537736854E+01  0.00000000000E+00 0.  1.
</event>
<event>
 7    1  0.4083500E-009  0.4778727E+02  0.7816164E-02  0.1312668E+00
        -11   -1    0    0    0    0  0.00000000000E+00  0.00000000000E+00  0.45593999997E+02  0.45594000000E+02  0.51100000000E-03 0. -1.
         11   -1    0    0    0    0 -0.00000000000E+00 -0.00000000000E+00 -0.45593999997E+02  0.45594000000E+02  0.51100000000E-03 0.  1.
    9900012    2    1    2    0    0 -0.38855537655E+02 -0.17608287736E+02  0.79886621406E+01  0.47787270441E+02  0.19999997248E+02 0.  0.
        -12    1    1    2    0    0  0.38855537655E+02  0.17608287736E+02 -0.79886621406E+01  0.43400729559E+02  0.00000000000E+00 0.  1.
         11    1    3    3    0    0 -0.28328128520E+02 -0.60383677631E+01  0.69353920526E+01  0.29783290850E+02  0.51100000000E-03 0. -1.
        -11    1    3    3    0    0 -0.10264037869E+02 -0.57237420527E+01 -0.10180814314E+01  0.11796108957E+02  0.51100000000E-03 0.  1.
        -12    1    3    3    0    0 -0.26337126688E+00 -0.58461779199E+01  0.20713515194E+01  0.62078706343E+01  0.00000000000E+00 0.  1.
</event>
<event>
 7    1  0.4083500E-009  0.4778726E+02  0.7816164E-02  0.1312668E+00
        -11   -1    0    0    0    0  0.00000000000E+00  0.00000000000E+00  0.45593999997E+02  0.45594000000E+02  0.51100000000E-03 0.  1.
         11   -1    0    0    0    0 -0.00000000000E+00 -0.00000000000E+00 -0.45593999997E+02  0.45594000000E+02  0.51100000000E-03 0. -1.
    9900012    2    1    2    0    0 -0.92396413072E+01 -0.28926802401E+02 -0.31007958047E+02  0.47787258867E+02  0.19999944479E+02 0.  0.
        -12    1    1    2    0    0  0.92396413072E+01  0.28926802401E+02  0.31007958047E+02  0.43400741133E+02  0.00000000000E+00 0.  1.
         11    1    3    3    0    0 -0.17013533099E+01 -0.30582801621E+00 -0.97834699172E+00  0.19862771604E+01  0.51100000000E-03 0. -1.
        -11    1    3    3    0    0  0.10551765527E+01  0.19741376899E+01 -0.25504393628E+00  0.22529236220E+01  0.51100000000E-03 0.  1.
         12    1    3    3    0    0 -0.85934645499E+01 -0.30595112074E+02 -0.29774567119E+02  0.43548058085E+02  0.00000000000E+00 0. -1.
</event>
<event>
 7    1  0.4083500E-009  0.4778728E+02  0.7816164E-02  0.1312668E+00
        -11   -1    0    0    0    0  0.00000000000E+00  0.00000000000E+00  0.45593999997E+02  0.45594000000E+02  0.51100000000E-03 0.  1.
         11   -1    0    0    0    0 -0.00000000000E+00 -0.00000000000E+00 -0.45593999997E+02  0.45594000000E+02  0.51100000000E-03 0. -1.
    9900012    2    1    2    0    0 -0.80390658569E+01 -0.22586534016E+02 -0.36177957450E+02  0.47787277610E+02  0.20000029936E+02 0.  0.
        -12    1    1    2    0    0  0.80390658569E+01  0.22586534016E+02  0.36177957450E+02  0.43400722390E+02  0.00000000000E+00 0.  1.
         11    1    3    3    0    0 -0.52308341066E+01 -0.82241605670E+01 -0.13716133238E+02  0.16826489644E+02  0.51100000000E-03 0. -1.
        -11    1    3    3    0    0 -0.49128412575E+01  0.62487449804E+00 -0.16340264691E+01  0.52150282954E+01  0.51100000000E-03 0.  1.
        -12    1    3    3    0    0  0.21046095072E+01 -0.14987247947E+02 -0.20827797743E+02  0.25745759671E+02  0.00000000000E+00 0.  1.
</event>
<event>
 7    1  0.4083500E-009  0.4778727E+02  0.7816164E-02  0.1312668E+00
        -11   -1    0    0    0    0  0.00000000000E+00  0.00000000000E+00  0.45593999997E+02  0.45594000000E+02  0.51100000000E-03 0. -1.
         11   -1    0    0    0    0 -0.00000000000E+00 -0.00000000000E+00 -0.45593999997E+02  0.45594000000E+02  0.51100000000E-03 0.  1.
    9900012    2    1    2    0    0 -0.33658192952E+02  0.13294433573E+02  0.23958456519E+02  0.47787267799E+02  0.19999985203E+02 0.  0.
        -12    1    1    2    0    0  0.33658192952E+02 -0.13294433573E+02 -0.23958456519E+02  0.43400732201E+02  0.00000000000E+00 0.  1.
         11    1    3    3    0    0 -0.49185416922E+01  0.20576453832E+01 -0.11246503279E+01  0.54489260889E+01  0.51100000000E-03 0. -1.
        -11    1    3    3    0    0 -0.91370063331E+01  0.60086229587E+01  0.11997443021E+01  0.11001264529E+02  0.51100000000E-03 0.  1.
        -12    1    3    3    0    0 -0.19602644926E+02  0.52281652306E+01  0.23883362545E+02  0.31337077181E+02  0.00000000000E+00 0.  1.
</event>
<event>
 7    1  0.4083500E-009  0.4778727E+02  0.7816164E-02  0.1312668E+00
        -11   -1    0    0    0    0  0.00000000000E+00  0.00000000000E+00  0.45593999997E+02  0.45594000000E+02  0.51100000000E-03 0. -1.
         11   -1    0    0    0    0 -0.00000000000E+00 -0.00000000000E+00 -0.45593999997E+02  0.45594000000E+02  0.51100000000E-03 0.  1.
    9900012    2    1    2    0    0 -0.21769600297E+02  0.19953267652E+02  0.31805263208E+02  0.47787272416E+02  0.20000006253E+02 0.  0.
        -12    1    1    2    0    0  0.21769600297E+02 -0.19953267652E+02 -0.31805263208E+02  0.43400727584E+02  0.00000000000E+00 0.  1.
         11    1    3    3    0    0 -0.61919818980E+01  0.83676992158E+01  0.73035316835E+01  0.12716155288E+02  0.51100000000E-03 0. -1.
        -11    1    3    3    0    0  0.33103954557E+01  0.24048555183E+01  0.39631061504E+01  0.56963373108E+01  0.51100000000E-03 0.  1.
        -12    1    3    3    0    0 -0.18888013854E+02  0.91807129183E+01  0.20538625374E+02  0.29374779817E+02  0.00000000000E+00 0.  1.
</event>
<event>
 7    1  0.4083500E-009  0.4778727E+02  0.7816164E-02  0.1312668E+00
        -11   -1    0    0    0    0  0.00000000000E+00  0.00000000000E+00  0.45593999997E+02  0.45594000000E+02  0.51100000000E-03 0. -1.
         11   -1    0    0    0    0 -0.00000000000E+00 -0.00000000000E+00 -0.45593999997E+02  0.45594000000E+02  0.51100000000E-03 0.  1.
    9900012    2    1    2    0    0  0.23958990743E+02  0.16119020612E+02 -0.32400111871E+02  0.47787270604E+02  0.19999997990E+02 0.  0.
        -12    1    1    2    0    0 -0.23958990743E+02 -0.16119020612E+02  0.32400111871E+02  0.43400729396E+02  0.00000000000E+00 0.  1.
         11    1    3    3    0    0  0.73120622664E+01  0.68352092034E+00 -0.44501503615E+01  0.85870422113E+01  0.51100000000E-03 0. -1.
        -11    1    3    3    0    0  0.82991153801E+01 -0.86495954652E+00 -0.13507674925E+02  0.15877051151E+02  0.51100000000E-03 0.  1.
        -12    1    3    3    0    0  0.83478130965E+01  0.16300459238E+02 -0.14442286584E+02  0.23323177242E+02  0.00000000000E+00 0.  1.
</event>
<event>
 7    1  0.4083500E-009  0.4778727E+02  0.7816164E-02  0.1312668E+00
        -11   -1    0    0    0    0  0.00000000000E+00  0.00000000000E+00  0.45593999997E+02  0.45594000000E+02  0.51100000000E-03 0. -1.
         11   -1    0    0    0    0 -0.00000000000E+00 -0.00000000000E+00 -0.45593999997E+02  0.45594000000E+02  0.51100000000E-03 0.  1.
    9900012    2    1    2    0    0  0.13091522256E+02 -0.33342307939E+02  0.24505627290E+02  0.47787271636E+02  0.20000002695E+02 0.  0.
        -12    1    1    2    0    0 -0.13091522256E+02  0.33342307939E+02 -0.24505627290E+02  0.43400728364E+02  0.00000000000E+00 0.  1.
         11    1    3    3    0    0  0.11409766283E+02 -0.97519304868E+01  0.58274273689E+01  0.16100988319E+02  0.51100000000E-03 0. -1.
        -11    1    3    3    0    0  0.34682854573E+01 -0.74552459911E+01  0.10986008235E+02  0.13722320285E+02  0.51100000000E-03 0.  1.
        -12    1    3    3    0    0 -0.17865294837E+01 -0.16135131461E+02  0.76921916856E+01  0.17963963031E+02  0.00000000000E+00 0.  1.
</event>
<event>
 7    1  0.4083500E-009  0.4778724E+02  0.7816164E-02  0.1312668E+00
        -11   -1    0    0    0    0  0.00000000000E+00  0.00000000000E+00  0.45593999997E+02  0.45594000000E+02  0.51100000000E-03 0. -1.
         11   -1    0    0    0    0 -0.00000000000E+00 -0.00000000000E+00 -0.45593999997E+02  0.45594000000E+02  0.51100000000E-03 0.  1.
    9900012    2    1    2    0    0  0.13377787141E+02  0.14243216595E+02  0.38752955011E+02  0.47787240446E+02  0.19999860489E+02 0.  0.
        -12    1    1    2    0    0 -0.13377787141E+02 -0.14243216595E+02 -0.38752955011E+02  0.43400759554E+02  0.00000000000E+00 0.  1.
         11    1    3    3    0    0  0.43727478248E+01  0.93894648876E+01  0.30296458539E+02  0.32018094489E+02  0.51100000000E-03 0. -1.
        -11    1    3    3    0    0  0.41910380406E+01  0.36150656504E+01  0.92064538675E+01  0.10742080459E+02  0.51100000000E-03 0.  1.
        -12    1    3    3    0    0  0.48140012756E+01  0.12386860567E+01 -0.74995739538E+00  0.50270654983E+01  0.00000000000E+00 0.  1.
</event>
<event>
 7    1  0.4083500E-009  0.4778728E+02  0.7816164E-02  0.1312668E+00
        -11   -1    0    0    0    0  0.00000000000E+00  0.00000000000E+00  0.45593999997E+02  0.45594000000E+02  0.51100000000E-03 0.  1.
         11   -1    0    0    0    0 -0.00000000000E+00 -0.00000000000E+00 -0.45593999997E+02  0.45594000000E+02  0.51100000000E-03 0. -1.
    9900012    2    1    2    0    0 -0.27282375109E+02 -0.69460370913E+01 -0.33031007741E+02  0.47787275406E+02  0.20000019888E+02 0.  0.
        -12    1    1    2    0    0  0.27282375109E+02  0.69460370913E+01  0.33031007741E+02  0.43400724594E+02  0.00000000000E+00 0.  1.
         11    1    3    3    0    0 -0.63640647115E+01 -0.54160768726E+01 -0.14529807124E+02  0.16761578197E+02  0.51100000000E-03 0. -1.
        -11    1    3    3    0    0 -0.20712081447E+02 -0.21573722388E+01 -0.20317083106E+02  0.29093443231E+02  0.51100000000E-03 0.  1.
        -12    1    3    3    0    0 -0.20622895066E+00  0.62741202006E+00  0.18158824888E+01  0.19322539782E+01  0.00000000000E+00 0.  1.
</event>
<event>
 7    1  0.4083500E-009  0.4778727E+02  0.7816164E-02  0.1312668E+00
        -11   -1    0    0    0    0  0.00000000000E+00  0.00000000000E+00  0.45593999997E+02  0.45594000000E+02  0.51100000000E-03 0.  1.
         11   -1    0    0    0    0 -0.00000000000E+00 -0.00000000000E+00 -0.45593999997E+02  0.45594000000E+02  0.51100000000E-03 0. -1.
    9900012    2    1    2    0    0  0.18387510324E+02  0.34054091778E+01 -0.39165365436E+02  0.47787271926E+02  0.20000004021E+02 0.  0.
        -12    1    1    2    0    0 -0.18387510324E+02 -0.34054091778E+01  0.39165365436E+02  0.43400728074E+02  0.00000000000E+00 0.  1.
         11    1    3    3    0    0  0.71910315456E+01  0.77571529033E+01 -0.12162572633E+02  0.16118701225E+02  0.51100000000E-03 0. -1.
        -11    1    3    3    0    0 -0.18998705547E+01 -0.14566074919E+00 -0.78362350583E+00  0.20602891152E+01  0.51100000000E-03 0.  1.
        -12    1    3    3    0    0  0.13096349333E+02 -0.42060829763E+01 -0.26219169297E+02  0.29608281586E+02  0.00000000000E+00 0.  1.
</event>
<event>
 7    1  0.4083500E-009  0.4778727E+02  0.7816164E-02  0.1312668E+00
        -11   -1    0    0    0    0  0.00000000000E+00  0.00000000000E+00  0.45593999997E+02  0.45594000000E+02  0.51100000000E-03 0.  1.
         11   -1    0    0    0    0 -0.00000000000E+00 -0.00000000000E+00 -0.45593999997E+02  0.45594000000E+02  0.51100000000E-03 0. -1.
    9900012    2    1    2    0    0  0.29403639937E+02 -0.21389360003E+02 -0.23696938554E+02  0.47787266599E+02  0.19999979732E+02 0.  0.
        -12    1    1    2    0    0 -0.29403639937E+02  0.21389360003E+02  0.23696938554E+02  0.43400733401E+02  0.00000000000E+00 0.  1.
         11    1    3    3    0    0  0.20170944915E+01 -0.37214588929E+01 -0.48664504025E+01  0.64498268395E+01  0.51100000000E-03 0. -1.
        -11    1    3    3    0    0 -0.14310114731E+00 -0.53129568890E+01  0.74821260672E+00  0.53672908631E+01  0.51100000000E-03 0.  1.
         12    1    3    3    0    0  0.27529646593E+02 -0.12354944221E+02 -0.19578700759E+02  0.35970148896E+02  0.00000000000E+00 0. -1.
</event>
<event>
 7    1  0.4083500E-009  0.4778727E+02  0.7816164E-02  0.1312668E+00
        -11   -1    0    0    0    0  0.00000000000E+00  0.00000000000E+00  0.45593999997E+02  0.45594000000E+02  0.51100000000E-03 0.  1.
         11   -1    0    0    0    0 -0.00000000000E+00 -0.00000000000E+00 -0.45593999997E+02  0.45594000000E+02  0.51100000000E-03 0. -1.
    9900012    2    1    2    0    0  0.21969106632E+02 -0.13807182042E+02 -0.34789993108E+02  0.47787267948E+02  0.19999985884E+02 0.  0.
        -12    1    1    2    0    0 -0.21969106632E+02  0.13807182042E+02  0.34789993108E+02  0.43400732052E+02  0.00000000000E+00 0.  1.
         11    1    3    3    0    0  0.97130676455E+01 -0.11423444954E+02 -0.23383866246E+02  0.27778480495E+02  0.51100000000E-03 0. -1.
        -11    1    3    3    0    0 -0.17675745907E+01 -0.13130929059E+01 -0.62896829351E+00  0.22900074865E+01  0.51100000000E-03 0.  1.
         12    1    3    3    0    0  0.14023613577E+02 -0.10706441824E+01 -0.10777158568E+02  0.17718779967E+02  0.00000000000E+00 0. -1.
</event>
<event>
 7    1  0.4083500E-009  0.4778728E+02  0.7816164E-02  0.1312668E+00
        -11   -1    0    0    0    0  0.00000000000E+00  0.00000000000E+00  0.45593999997E+02  0.45594000000E+02  0.51100000000E-03 0.  1.
         11   -1    0    0    0    0 -0.00000000000E+00 -0.00000000000E+00 -0.45593999997E+02  0.45594000000E+02  0.51100000000E-03 0. -1.
    9900012    2    1    2    0    0  0.27621113904E+02 -0.63320902697E+01 -0.32872501980E+02  0.47787277807E+02  0.20000030832E+02 0.  0.
        -12    1    1    2    0    0 -0.27621113904E+02  0.63320902697E+01  0.32872501980E+02  0.43400722193E+02  0.00000000000E+00 0.  1.
         11    1    3    3    0    0  0.97689142863E+01 -0.73534179460E+00 -0.56955386903E+01  0.11331883123E+02  0.51100000000E-03 0. -1.
        -11    1    3    3    0    0  0.15314259837E+02 -0.23855219812E+01 -0.28251479252E+02  0.32223645816E+02  0.51100000000E-03 0.  1.
        -12    1    3    3    0    0  0.25379397808E+01 -0.32112264939E+01  0.10745159622E+01  0.42317488677E+01  0.00000000000E+00 0.  1.
</event>
<event>
 7    1  0.4083500E-009  0.4778726E+02  0.7816164E-02  0.1312668E+00
        -11   -1    0    0    0    0  0.00000000000E+00  0.00000000000E+00  0.45593999997E+02  0.45594000000E+02  0.51100000000E-03 0.  1.
         11   -1    0    0    0    0 -0.00000000000E+00 -0.00000000000E+00 -0.45593999997E+02  0.45594000000E+02  0.51100000000E-03 0. -1.
    9900012    2    1    2    0    0 -0.44098850860E+01  0.12875243136E+01 -0.43156913713E+02  0.47787262603E+02  0.19999961514E+02 0.  0.
        -12    1    1    2    0    0  0.44098850860E+01 -0.12875243136E+01  0.43156913713E+02  0.43400737397E+02  0.00000000000E+00 0.  1.
         11    1    3    3    0    0 -0.51772098659E+01  0.10190177023E+01 -0.23086853467E+02  0.23682160001E+02  0.51100000000E-03 0. -1.
        -11    1    3    3    0    0  0.90619469939E+00  0.50525182031E+00 -0.22066000543E+02  0.22090379093E+02  0.51100000000E-03 0.  1.
        -12    1    3    3    0    0 -0.13886991955E+00 -0.23674520897E+00  0.19959402969E+01  0.20147235089E+01  0.00000000000E+00 0.  1.
</event>
<event>
 7    1  0.4083500E-009  0.4778726E+02  0.7816164E-02  0.1312668E+00
        -11   -1    0    0    0    0  0.00000000000E+00  0.00000000000E+00  0.45593999997E+02  0.45594000000E+02  0.51100000000E-03 0.  1.
         11   -1    0    0    0    0 -0.00000000000E+00 -0.00000000000E+00 -0.45593999997E+02  0.45594000000E+02  0.51100000000E-03 0. -1.
    9900012    2    1    2    0    0  0.38050754155E+02  0.10059611440E+02 -0.18291215211E+02  0.47787260053E+02  0.19999949885E+02 0.  0.
        -12    1    1    2    0    0 -0.38050754155E+02 -0.10059611440E+02  0.18291215211E+02  0.43400739947E+02  0.00000000000E+00 0.  1.
         11    1    3    3    0    0  0.16204257652E+02 -0.20653538112E+01 -0.11294609817E+02  0.19859805225E+02  0.51100000000E-03 0. -1.
        -11    1    3    3    0    0  0.11652842551E+02  0.80180797673E+00 -0.43474378381E+01  0.12463219951E+02  0.51100000000E-03 0.  1.
        -12    1    3    3    0    0  0.10193653953E+02  0.11323157275E+02 -0.26491675562E+01  0.15464234876E+02  0.00000000000E+00 0.  1.
</event>
<event>
 7    1  0.4083500E-009  0.4778727E+02  0.7816164E-02  0.1312668E+00
        -11   -1    0    0    0    0  0.00000000000E+00  0.00000000000E+00  0.45593999997E+02  0.45594000000E+02  0.51100000000E-03 0.  1.
         11   -1    0    0    0    0 -0.00000000000E+00 -0.00000000000E+00 -0.45593999997E+02  0.45594000000E+02  0.51100000000E-03 0. -1.
    9900012    2    1    2    0    0 -0.42752484898E+02 -0.65901924812E+01  0.35238787195E+01  0.47787270477E+02  0.19999997411E+02 0.  0.
        -12    1    1    2    0    0  0.42752484898E+02  0.65901924812E+01 -0.35238787195E+01  0.43400729523E+02  0.00000000000E+00 0.  1.
         11    1    3    3    0    0 -0.61412847765E+01 -0.41112258220E+01  0.49044048455E-01  0.73905319190E+01  0.51100000000E-03 0. -1.
        -11    1    3    3    0    0 -0.79842633914E+01 -0.66162462394E+01  0.48333903136E+01  0.11440491178E+02  0.51100000000E-03 0.  1.
         12    1    3    3    0    0 -0.28626936730E+02  0.41372795802E+01 -0.13585556425E+01  0.28956247380E+02  0.00000000000E+00 0. -1.
</event>
<event>
 7    1  0.4083500E-009  0.4778726E+02  0.7816164E-02  0.1312668E+00
        -11   -1    0    0    0    0  0.00000000000E+00  0.00000000000E+00  0.45593999997E+02  0.45594000000E+02  0.51100000000E-03 0. -1.
         11   -1    0    0    0    0 -0.00000000000E+00 -0.00000000000E+00 -0.45593999997E+02  0.45594000000E+02  0.51100000000E-03 0.  1.
    9900012    2    1    2    0    0  0.41087148284E+02 -0.85193077049E+01  0.11085647169E+02  0.47787263474E+02  0.19999965483E+02 0.  0.
        -12    1    1    2    0    0 -0.41087148284E+02  0.85193077049E+01 -0.11085647169E+02  0.43400736526E+02  0.00000000000E+00 0.  1.
         11    1    3    3    0    0  0.22575072073E+02 -0.99799453490E+01  0.33458063710E+01  0.24908384308E+02  0.51100000000E-03 0. -1.
        -11    1    3    3    0    0  0.68336274415E+01 -0.40165582630E+01  0.18193247559E+00  0.79287012793E+01  0.51100000000E-03 0.  1.
        -12    1    3    3    0    0  0.11678448769E+02  0.54771959070E+01  0.75579083220E+01  0.14950177887E+02  0.00000000000E+00 0.  1.
</event>
<event>
 7    1  0.4083500E-009  0.4778727E+02  0.7816164E-02  0.1312668E+00
        -11   -1    0    0    0    0  0.00000000000E+00  0.00000000000E+00  0.45593999997E+02  0.45594000000E+02  0.51100000000E-03 0. -1.
         11   -1    0    0    0    0 -0.00000000000E+00 -0.00000000000E+00 -0.45593999997E+02  0.45594000000E+02  0.51100000000E-03 0.  1.
    9900012    2    1    2    0    0 -0.24067291819E+01  0.28653752584E+02  0.32508365929E+02  0.47787265698E+02  0.19999975625E+02 0.  0.
        -12    1    1    2    0    0  0.24067291819E+01 -0.28653752584E+02 -0.32508365929E+02  0.43400734302E+02  0.00000000000E+00 0.  1.
         11    1    3    3    0    0 -0.35780256088E+00 -0.19352697580E+01  0.98417958529E+00  0.22004320998E+01  0.51100000000E-03 0. -1.
        -11    1    3    3    0    0 -0.65032417071E+01  0.12690357020E+02  0.11129800490E+02  0.18088940632E+02  0.51100000000E-03 0.  1.
         12    1    3    3    0    0  0.44543150860E+01  0.17898665322E+02  0.20394385854E+02  0.27497892966E+02  0.00000000000E+00 0. -1.
</event>
<event>
 7    1  0.4083500E-009  0.4778727E+02  0.7816164E-02  0.1312668E+00
        -11   -1    0    0    0    0  0.00000000000E+00  0.00000000000E+00  0.45593999997E+02  0.45594000000E+02  0.51100000000E-03 0.  1.
         11   -1    0    0    0    0 -0.00000000000E+00 -0.00000000000E+00 -0.45593999997E+02  0.45594000000E+02  0.51100000000E-03 0. -1.
    9900012    2    1    2    0    0 -0.18923821416E+02 -0.22913228326E+02 -0.31630624367E+02  0.47787269048E+02  0.19999990898E+02 0.  0.
        -12    1    1    2    0    0  0.18923821416E+02  0.22913228326E+02  0.31630624367E+02  0.43400730952E+02  0.00000000000E+00 0.  1.
         11    1    3    3    0    0 -0.57198852800E+01 -0.35356187707E+01 -0.14537699336E+02  0.16017565044E+02  0.51100000000E-03 0. -1.
        -11    1    3    3    0    0  0.48836415973E+00 -0.51708479070E+01 -0.91068253056E+01  0.10483817770E+02  0.51100000000E-03 0.  1.
         12    1    3    3    0    0 -0.13692300295E+02 -0.14206761649E+02 -0.79860997259E+01  0.21285886234E+02  0.00000000000E+00 0. -1.
</event>
<event>
 7    1  0.4083500E-009  0.4778727E+02  0.7816164E-02  0.1312668E+00
        -11   -1    0    0    0    0  0.00000000000E+00  0.00000000000E+00  0.45593999997E+02  0.45594000000E+02  0.51100000000E-03 0. -1.
         11   -1    0    0    0    0 -0.00000000000E+00 -0.00000000000E+00 -0.45593999997E+02  0.45594000000E+02  0.51100000000E-03 0.  1.
    9900012    2    1    2    0    0 -0.10415942915E+02  0.33756090545E+02  0.25212250044E+02  0.47787273417E+02  0.20000010815E+02 0.  0.
        -12    1    1    2    0    0  0.10415942915E+02 -0.33756090545E+02 -0.25212250044E+02  0.43400726583E+02  0.00000000000E+00 0.  1.
         11    1    3    3    0    0 -0.66987717287E+01  0.39014322482E+01  0.65367426749E+01  0.10140203219E+02  0.51100000000E-03 0. -1.
        -11    1    3    3    0    0 -0.46411201463E+01  0.20801766297E+02  0.18983890806E+02  0.28541926839E+02  0.51100000000E-03 0.  1.
        -12    1    3    3    0    0  0.92394895952E+00  0.90528919996E+01 -0.30838343681E+00  0.91051433586E+01  0.00000000000E+00 0.  1.
</event>
<event>
 7    1  0.4083500E-009  0.4778727E+02  0.7816164E-02  0.1312668E+00
        -11   -1    0    0    0    0  0.00000000000E+00  0.00000000000E+00  0.45593999997E+02  0.45594000000E+02  0.51100000000E-03 0. -1.
         11   -1    0    0    0    0 -0.00000000000E+00 -0.00000000000E+00 -0.45593999997E+02  0.45594000000E+02  0.51100000000E-03 0.  1.
    9900012    2    1    2    0    0  0.32454382680E+02  0.21849634683E+02  0.18786428336E+02  0.47787269815E+02  0.19999994396E+02 0.  0.
        -12    1    1    2    0    0 -0.32454382680E+02 -0.21849634683E+02 -0.18786428336E+02  0.43400730185E+02  0.00000000000E+00 0.  1.
         11    1    3    3    0    0  0.54812347450E+00  0.78896399891E+01  0.33871914971E+01  0.86034833062E+01  0.51100000000E-03 0. -1.
        -11    1    3    3    0    0  0.95513173408E+01  0.47666760961E+01  0.95303643535E+01  0.14310021276E+02  0.51100000000E-03 0.  1.
         12    1    3    3    0    0  0.22354941865E+02  0.91933185981E+01  0.58688724850E+01  0.24873765233E+02  0.00000000000E+00 0. -1.
</event>
<event>
 7    1  0.4083500E-009  0.4778727E+02  0.7816164E-02  0.1312668E+00
        -11   -1    0    0    0    0  0.00000000000E+00  0.00000000000E+00  0.45593999997E+02  0.45594000000E+02  0.51100000000E-03 0.  1.
         11   -1    0    0    0    0 -0.00000000000E+00 -0.00000000000E+00 -0.45593999997E+02  0.45594000000E+02  0.51100000000E-03 0. -1.
    9900012    2    1    2    0    0 -0.29513999659E+02  0.38758648339E+01  0.31583612254E+02  0.47787273426E+02  0.20000010860E+02 0.  0.
        -12    1    1    2    0    0  0.29513999659E+02 -0.38758648339E+01 -0.31583612254E+02  0.43400726574E+02  0.00000000000E+00 0.  1.
         11    1    3    3    0    0 -0.25882519472E+01  0.23320821359E+01  0.10915473137E+02  0.11457975794E+02  0.51100000000E-03 0. -1.
        -11    1    3    3    0    0 -0.40130205872E+01 -0.42715045772E+01  0.65746202960E+01  0.88077078677E+01  0.51100000000E-03 0.  1.
         12    1    3    3    0    0 -0.22912727125E+02  0.58152872751E+01  0.14093518821E+02  0.27521589764E+02  0.00000000000E+00 0. -1.
</event>
<event>
 7    1  0.4083500E-009  0.4778727E+02  0.7816164E-02  0.1312668E+00
        -11   -1    0    0    0    0  0.00000000000E+00  0.00000000000E+00  0.45593999997E+02  0.45594000000E+02  0.51100000000E-03 0. -1.
         11   -1    0    0    0    0 -0.00000000000E+00 -0.00000000000E+00 -0.45593999997E+02  0.45594000000E+02  0.51100000000E-03 0.  1.
    9900012    2    1    2    0    0  0.21662755105E+02 -0.34842125875E+02 -0.14155374991E+02  0.47787270336E+02  0.19999996770E+02 0.  0.
        -12    1    1    2    0    0 -0.21662755105E+02  0.34842125875E+02  0.14155374991E+02  0.43400729664E+02  0.00000000000E+00 0.  1.
         11    1    3    3    0    0  0.95477137158E+01 -0.15333759551E+02  0.26274696977E+01  0.18253400134E+02  0.51100000000E-03 0. -1.
        -11    1    3    3    0    0  0.98303687486E-01 -0.65795201634E+01 -0.35775999402E+01  0.74899246183E+01  0.51100000000E-03 0.  1.
         12    1    3    3    0    0  0.12016737702E+02 -0.12928846161E+02 -0.13205244748E+02  0.22043945584E+02  0.00000000000E+00 0. -1.
</event>
<event>
 7    1  0.4083500E-009  0.4778727E+02  0.7816164E-02  0.1312668E+00
        -11   -1    0    0    0    0  0.00000000000E+00  0.00000000000E+00  0.45593999997E+02  0.45594000000E+02  0.51100000000E-03 0.  1.
         11   -1    0    0    0    0 -0.00000000000E+00 -0.00000000000E+00 -0.45593999997E+02  0.45594000000E+02  0.51100000000E-03 0. -1.
    9900012    2    1    2    0    0 -0.15845591328E+02  0.32159938307E+02 -0.24459743231E+02  0.47787269183E+02  0.19999991515E+02 0.  0.
        -12    1    1    2    0    0  0.15845591328E+02 -0.32159938307E+02  0.24459743231E+02  0.43400730817E+02  0.00000000000E+00 0.  1.
         11    1    3    3    0    0 -0.98688016408E+01  0.17367415956E+02 -0.12031757903E+02  0.23319167681E+02  0.51100000000E-03 0. -1.
        -11    1    3    3    0    0 -0.69033865725E+01  0.26336763546E+01 -0.49277859040E+00  0.74051217620E+01  0.51100000000E-03 0.  1.
        -12    1    3    3    0    0  0.92659688500E+00  0.12158845997E+02 -0.11935206738E+02  0.17062979741E+02  0.00000000000E+00 0.  1.
</event>
<event>
 7    1  0.4083500E-009  0.4778732E+02  0.7816164E-02  0.1312668E+00
        -11   -1    0    0    0    0  0.00000000000E+00  0.00000000000E+00  0.45593999997E+02  0.45594000000E+02  0.51100000000E-03 0.  1.
         11   -1    0    0    0    0 -0.00000000000E+00 -0.00000000000E+00 -0.45593999997E+02  0.45594000000E+02  0.51100000000E-03 0. -1.
    9900012    2    1    2    0    0 -0.16510498128E+02  0.22824903449E+02 -0.33015848043E+02  0.47787320421E+02  0.20000225128E+02 0.  0.
        -12    1    1    2    0    0  0.16510498128E+02 -0.22824903449E+02  0.33015848043E+02  0.43400679579E+02  0.00000000000E+00 0.  1.
         11    1    3    3    0    0 -0.90242555881E+01  0.74783965798E+01 -0.18947869475E+02  0.22279707409E+02  0.51100000000E-03 0. -1.
        -11    1    3    3    0    0 -0.55837247451E+01  0.14891192376E+02 -0.16139399872E+02  0.22658460249E+02  0.51100000000E-03 0.  1.
        -12    1    3    3    0    0 -0.19025177948E+01  0.45531449405E+00  0.20714213041E+01  0.28491527631E+01  0.00000000000E+00 0.  1.
</event>
<event>
 7    1  0.4083500E-009  0.4778727E+02  0.7816164E-02  0.1312668E+00
        -11   -1    0    0    0    0  0.00000000000E+00  0.00000000000E+00  0.45593999997E+02  0.45594000000E+02  0.51100000000E-03 0.  1.
         11   -1    0    0    0    0 -0.00000000000E+00 -0.00000000000E+00 -0.45593999997E+02  0.45594000000E+02  0.51100000000E-03 0. -1.
    9900012    2    1    2    0    0 -0.11530190808E+02  0.19650865169E+02 -0.36939431290E+02  0.47787269753E+02  0.19999994113E+02 0.  0.
        -12    1    1    2    0    0  0.11530190808E+02 -0.19650865169E+02  0.36939431290E+02  0.43400730247E+02  0.00000000000E+00 0.  1.
         11    1    3    3    0    0 -0.15002572886E+02  0.18162233878E+02 -0.27454943897E+02  0.36176205955E+02  0.51100000000E-03 0. -1.
        -11    1    3    3    0    0  0.13163303831E+01  0.34207532303E+01 -0.64387673415E+01  0.74089137854E+01  0.51100000000E-03 0.  1.
         12    1    3    3    0    0  0.21560516948E+01 -0.19321219399E+01 -0.30457200515E+01  0.42021500132E+01  0.00000000000E+00 0. -1.
</event>
<event>
 7    1  0.4083500E-009  0.4778726E+02  0.7816164E-02  0.1312668E+00
        -11   -1    0    0    0    0  0.00000000000E+00  0.00000000000E+00  0.45593999997E+02  0.45594000000E+02  0.51100000000E-03 0. -1.
         11   -1    0    0    0    0 -0.00000000000E+00 -0.00000000000E+00 -0.45593999997E+02  0.45594000000E+02  0.51100000000E-03 0.  1.
    9900012    2    1    2    0    0  0.78429212476E+01 -0.42657352305E+02 -0.15693241799E+01  0.47787263857E+02  0.19999967230E+02 0.  0.
        -12    1    1    2    0    0 -0.78429212476E+01  0.42657352305E+02  0.15693241799E+01  0.43400736143E+02  0.00000000000E+00 0.  1.
         11    1    3    3    0    0 -0.10067458541E+01 -0.20903954536E+02 -0.21580759616E+01  0.21039157411E+02  0.51100000000E-03 0. -1.
        -11    1    3    3    0    0  0.56758775742E+01 -0.11286663502E+02 -0.59932722297E+01  0.13982977921E+02  0.51100000000E-03 0.  1.
         12    1    3    3    0    0  0.31737895275E+01 -0.10466734267E+02  0.65820240114E+01  0.12765128525E+02  0.00000000000E+00 0. -1.
</event>
<event>
 7    1  0.4083500E-009  0.4778728E+02  0.7816164E-02  0.1312668E+00
        -11   -1    0    0    0    0  0.00000000000E+00  0.00000000000E+00  0.45593999997E+02  0.45594000000E+02  0.51100000000E-03 0. -1.
         11   -1    0    0    0    0 -0.00000000000E+00 -0.00000000000E+00 -0.45593999997E+02  0.45594000000E+02  0.51100000000E-03 0.  1.
    9900012    2    1    2    0    0 -0.84971932825E+01 -0.64141147247E+01  0.42074688025E+02  0.47787279571E+02  0.20000038875E+02 0.  0.
        -12    1    1    2    0    0  0.84971932825E+01  0.64141147247E+01 -0.42074688025E+02  0.43400720429E+02  0.00000000000E+00 0.  1.
         11    1    3    3    0    0 -0.62537205254E+01 -0.51166348290E+01  0.24144342519E+02  0.25460523331E+02  0.51100000000E-03 0. -1.
        -11    1    3    3    0    0 -0.24745566284E+01  0.37861119750E+01  0.97867076037E+00  0.46277285047E+01  0.51100000000E-03 0.  1.
         12    1    3    3    0    0  0.23108387136E+00 -0.50835918707E+01  0.16951674746E+02  0.17699027735E+02  0.00000000000E+00 0. -1.
</event>
<event>
 7    1  0.4083500E-009  0.4778727E+02  0.7816164E-02  0.1312668E+00
        -11   -1    0    0    0    0  0.00000000000E+00  0.00000000000E+00  0.45593999997E+02  0.45594000000E+02  0.51100000000E-03 0. -1.
         11   -1    0    0    0    0 -0.00000000000E+00 -0.00000000000E+00 -0.45593999997E+02  0.45594000000E+02  0.51100000000E-03 0.  1.
    9900012    2    1    2    0    0 -0.59292435012E+01  0.15854437739E+02  0.39963786767E+02  0.47787269853E+02  0.19999994568E+02 0.  0.
        -12    1    1    2    0    0  0.59292435012E+01 -0.15854437739E+02 -0.39963786767E+02  0.43400730147E+02  0.00000000000E+00 0.  1.
         11    1    3    3    0    0  0.38302702113E+00  0.11219656782E+02  0.20172855986E+02  0.23086176099E+02  0.51100000000E-03 0. -1.
        -11    1    3    3    0    0  0.14070310719E+01  0.32760374713E+01  0.15210677232E+02  0.15622959389E+02  0.51100000000E-03 0.  1.
        -12    1    3    3    0    0 -0.77193015942E+01  0.13587434856E+01  0.45802535492E+01  0.90781343644E+01  0.00000000000E+00 0.  1.
</event>
<event>
 7    1  0.4083500E-009  0.4778729E+02  0.7816164E-02  0.1312668E+00
        -11   -1    0    0    0    0  0.00000000000E+00  0.00000000000E+00  0.45593999997E+02  0.45594000000E+02  0.51100000000E-03 0.  1.
         11   -1    0    0    0    0 -0.00000000000E+00 -0.00000000000E+00 -0.45593999997E+02  0.45594000000E+02  0.51100000000E-03 0. -1.
    9900012    2    1    2    0    0  0.30100533892E+02 -0.30257314710E+02 -0.78787206598E+01  0.47787291789E+02  0.20000094581E+02 0.  0.
        -12    1    1    2    0    0 -0.30100533892E+02  0.30257314710E+02  0.78787206598E+01  0.43400708211E+02  0.00000000000E+00 0.  1.
         11    1    3    3    0    0  0.34939410799E-01 -0.85433888714E+01 -0.21392683657E+01  0.88072233747E+01  0.51100000000E-03 0. -1.
        -11    1    3    3    0    0  0.53936723923E+01 -0.79439741907E+01  0.17261573055E+01  0.97559236940E+01  0.51100000000E-03 0.  1.
         12    1    3    3    0    0  0.24671922089E+02 -0.13769951648E+02 -0.74656095996E+01  0.29224144720E+02  0.00000000000E+00 0. -1.
</event>
<event>
 7    1  0.4083500E-009  0.4778727E+02  0.7816164E-02  0.1312668E+00
        -11   -1    0    0    0    0  0.00000000000E+00  0.00000000000E+00  0.45593999997E+02  0.45594000000E+02  0.51100000000E-03 0.  1.
         11   -1    0    0    0    0 -0.00000000000E+00 -0.00000000000E+00 -0.45593999997E+02  0.45594000000E+02  0.51100000000E-03 0. -1.
    9900012    2    1    2    0    0 -0.15385046449E+02  0.16424968763E+02 -0.37109895055E+02  0.47787267701E+02  0.19999984755E+02 0.  0.
        -12    1    1    2    0    0  0.15385046449E+02 -0.16424968763E+02  0.37109895055E+02  0.43400732299E+02  0.00000000000E+00 0.  1.
         11    1    3    3    0    0 -0.65829723997E+01  0.10164580997E+02 -0.14381778642E+02  0.18801324146E+02  0.51100000000E-03 0. -1.
        -11    1    3    3    0    0 -0.23152486938E+01  0.89643773564E+01 -0.65321022993E+01  0.11330878104E+02  0.51100000000E-03 0.  1.
        -12    1    3    3    0    0 -0.64868253556E+01 -0.27039895904E+01 -0.16196014114E+02  0.17655065451E+02  0.00000000000E+00 0.  1.
</event>
<event>
 7    1  0.4083500E-009  0.4778725E+02  0.7816164E-02  0.1312668E+00
        -11   -1    0    0    0    0  0.00000000000E+00  0.00000000000E+00  0.45593999997E+02  0.45594000000E+02  0.51100000000E-03 0.  1.
         11   -1    0    0    0    0 -0.00000000000E+00 -0.00000000000E+00 -0.45593999997E+02  0.45594000000E+02  0.51100000000E-03 0. -1.
    9900012    2    1    2    0    0 -0.20757903641E+02  0.17930814246E+02 -0.33633625972E+02  0.47787245869E+02  0.19999885216E+02 0.  0.
        -12    1    1    2    0    0  0.20757903641E+02 -0.17930814246E+02  0.33633625972E+02  0.43400754131E+02  0.00000000000E+00 0.  1.
         11    1    3    3    0    0 -0.10906433332E+02  0.79020461568E+01 -0.22568639301E+02  0.26281858793E+02  0.51100000000E-03 0. -1.
        -11    1    3    3    0    0  0.21061817604E+01  0.94732379362E+00 -0.46206380485E+01  0.51656287336E+01  0.51100000000E-03 0.  1.
        -12    1    3    3    0    0 -0.11957652069E+02  0.90814442958E+01 -0.64443486228E+01  0.16339758342E+02  0.00000000000E+00 0.  1.
</event>
<event>
 7    1  0.4083500E-009  0.4778722E+02  0.7816164E-02  0.1312668E+00
        -11   -1    0    0    0    0  0.00000000000E+00  0.00000000000E+00  0.45593999997E+02  0.45594000000E+02  0.51100000000E-03 0.  1.
         11   -1    0    0    0    0 -0.00000000000E+00 -0.00000000000E+00 -0.45593999997E+02  0.45594000000E+02  0.51100000000E-03 0. -1.
    9900012    2    1    2    0    0  0.18538267419E+01  0.11347762923E+02 -0.41849957369E+02  0.47787224330E+02  0.19999787010E+02 0.  0.
        -12    1    1    2    0    0 -0.18538267419E+01 -0.11347762923E+02  0.41849957369E+02  0.43400775670E+02  0.00000000000E+00 0.  1.
         11    1    3    3    0    0 -0.18461652430E+01  0.71031265451E+01 -0.11318966045E+02  0.13490060244E+02  0.51100000000E-03 0. -1.
        -11    1    3    3    0    0 -0.63848143811E+00  0.36004999428E+01 -0.29585194908E+02  0.29810317281E+02  0.51100000000E-03 0.  1.
         12    1    3    3    0    0  0.43384734230E+01  0.64413643474E+00 -0.94579641697E+00  0.44868468050E+01  0.00000000000E+00 0. -1.
</event>
<event>
 7    1  0.4083500E-009  0.4778728E+02  0.7816164E-02  0.1312668E+00
        -11   -1    0    0    0    0  0.00000000000E+00  0.00000000000E+00  0.45593999997E+02  0.45594000000E+02  0.51100000000E-03 0.  1.
         11   -1    0    0    0    0 -0.00000000000E+00 -0.00000000000E+00 -0.45593999997E+02  0.45594000000E+02  0.51100000000E-03 0. -1.
    9900012    2    1    2    0    0 -0.61620882726E+00 -0.41808248285E+02 -0.11632436661E+02  0.47787275114E+02  0.20000018553E+02 0.  0.
        -12    1    1    2    0    0  0.61620882726E+00  0.41808248285E+02  0.11632436661E+02  0.43400724886E+02  0.00000000000E+00 0.  1.
         11    1    3    3    0    0  0.49829257148E+01 -0.22669866820E+02 -0.87991375967E+01  0.24822917496E+02  0.51100000000E-03 0. -1.
        -11    1    3    3    0    0  0.42364627957E+00 -0.13399310267E+02 -0.50975077589E+01  0.14342439730E+02  0.51100000000E-03 0.  1.
        -12    1    3    3    0    0 -0.60227808216E+01 -0.57390711977E+01  0.22642086945E+01  0.86219178870E+01  0.00000000000E+00 0.  1.
</event>
<event>
 7    1  0.4083500E-009  0.4778726E+02  0.7816164E-02  0.1312668E+00
        -11   -1    0    0    0    0  0.00000000000E+00  0.00000000000E+00  0.45593999997E+02  0.45594000000E+02  0.51100000000E-03 0.  1.
         11   -1    0    0    0    0 -0.00000000000E+00 -0.00000000000E+00 -0.45593999997E+02  0.45594000000E+02  0.51100000000E-03 0. -1.
    9900012    2    1    2    0    0 -0.13028422040E+02 -0.38873036282E+02  0.14239775813E+02  0.47787263303E+02  0.19999964704E+02 0.  0.
        -12    1    1    2    0    0  0.13028422040E+02  0.38873036282E+02 -0.14239775813E+02  0.43400736697E+02  0.00000000000E+00 0.  1.
         11    1    3    3    0    0 -0.84798197289E+01 -0.20393143380E+02  0.10539193965E+02  0.24471662168E+02  0.51100000000E-03 0. -1.
        -11    1    3    3    0    0  0.44323176503E+01 -0.71734015153E+01  0.26467040764E+01  0.88378827658E+01  0.51100000000E-03 0.  1.
         12    1    3    3    0    0 -0.89809199617E+01 -0.11306491387E+02  0.10538777711E+01  0.14477718370E+02  0.00000000000E+00 0. -1.
</event>
<event>
 7    1  0.4083500E-009  0.4778727E+02  0.7816164E-02  0.1312668E+00
        -11   -1    0    0    0    0  0.00000000000E+00  0.00000000000E+00  0.45593999997E+02  0.45594000000E+02  0.51100000000E-03 0. -1.
         11   -1    0    0    0    0 -0.00000000000E+00 -0.00000000000E+00 -0.45593999997E+02  0.45594000000E+02  0.51100000000E-03 0.  1.
    9900012    2    1    2    0    0 -0.41804668009E+02  0.93240453654E+01 -0.70039684357E+01  0.47787266560E+02  0.19999979552E+02 0.  0.
        -12    1    1    2    0    0  0.41804668009E+02 -0.93240453654E+01  0.70039684357E+01  0.43400733440E+02  0.00000000000E+00 0.  1.
         11    1    3    3    0    0 -0.17055271245E+02  0.24978160144E+01 -0.54800800081E+01  0.18087361313E+02  0.51100000000E-03 0. -1.
        -11    1    3    3    0    0 -0.15758121361E+02 -0.83824151752E-01 -0.68363721388E+01  0.17177351356E+02  0.51100000000E-03 0.  1.
         12    1    3    3    0    0 -0.89912754026E+01  0.69100535027E+01  0.53124837112E+01  0.12522553891E+02  0.00000000000E+00 0. -1.
</event>
<event>
 7    1  0.4083500E-009  0.4778724E+02  0.7816164E-02  0.1312668E+00
        -11   -1    0    0    0    0  0.00000000000E+00  0.00000000000E+00  0.45593999997E+02  0.45594000000E+02  0.51100000000E-03 0. -1.
         11   -1    0    0    0    0 -0.00000000000E+00 -0.00000000000E+00 -0.45593999997E+02  0.45594000000E+02  0.51100000000E-03 0.  1.
    9900012    2    1    2    0    0  0.17096989326E+01  0.43348303689E+02  0.12757931474E+01  0.47787237895E+02  0.19999848859E+02 0.  0.
        -12    1    1    2    0    0 -0.17096989326E+01 -0.43348303689E+02 -0.12757931474E+01  0.43400762105E+02  0.00000000000E+00 0.  1.
         11    1    3    3    0    0 -0.29303950038E+01  0.11795065706E+02  0.53633309153E+00  0.12165461082E+02  0.51100000000E-03 0. -1.
        -11    1    3    3    0    0 -0.86520566748E+00  0.20419822946E+02  0.71399369821E+01  0.21649398383E+02  0.51100000000E-03 0.  1.
         12    1    3    3    0    0  0.55052996040E+01  0.11133415037E+02 -0.64004769263E+01  0.13972378430E+02  0.00000000000E+00 0. -1.
</event>
<event>
 7    1  0.4083500E-009  0.4778727E+02  0.7816164E-02  0.1312668E+00
        -11   -1    0    0    0    0  0.00000000000E+00  0.00000000000E+00  0.45593999997E+02  0.45594000000E+02  0.51100000000E-03 0. -1.
         11   -1    0    0    0    0 -0.00000000000E+00 -0.00000000000E+00 -0.45593999997E+02  0.45594000000E+02  0.51100000000E-03 0.  1.
    9900012    2    1    2    0    0  0.75232459771E+01 -0.36687829331E+02 -0.21932333524E+02  0.47787270687E+02  0.19999998370E+02 0.  0.
        -12    1    1    2    0    0 -0.75232459771E+01  0.36687829331E+02  0.21932333524E+02  0.43400729313E+02  0.00000000000E+00 0.  1.
         11    1    3    3    0    0 -0.45628737679E+01 -0.13359410342E+02 -0.61599436987E+01  0.15402550709E+02  0.51100000000E-03 0. -1.
        -11    1    3    3    0    0  0.53447504099E+00 -0.10024033891E+02 -0.25540095560E+01  0.10358083032E+02  0.51100000000E-03 0.  1.
        -12    1    3    3    0    0  0.11551644704E+02 -0.13304385098E+02 -0.13218380269E+02  0.22026636946E+02  0.00000000000E+00 0.  1.
</event>
<event>
 7    1  0.4083500E-009  0.4778727E+02  0.7816164E-02  0.1312668E+00
        -11   -1    0    0    0    0  0.00000000000E+00  0.00000000000E+00  0.45593999997E+02  0.45594000000E+02  0.51100000000E-03 0.  1.
         11   -1    0    0    0    0 -0.00000000000E+00 -0.00000000000E+00 -0.45593999997E+02  0.45594000000E+02  0.51100000000E-03 0. -1.
    9900012    2    1    2    0    0  0.12946941121E+02 -0.14509893555E+02 -0.38800296830E+02  0.47787270404E+02  0.19999997080E+02 0.  0.
        -12    1    1    2    0    0 -0.12946941121E+02  0.14509893555E+02  0.38800296830E+02  0.43400729596E+02  0.00000000000E+00 0.  1.
         11    1    3    3    0    0  0.68844362796E+01 -0.12122276899E+02 -0.20671194346E+02  0.24932776340E+02  0.51100000000E-03 0. -1.
        -11    1    3    3    0    0  0.47015765395E+01 -0.58338617536E+01 -0.45208218014E+01  0.87508053880E+01  0.51100000000E-03 0.  1.
        -12    1    3    3    0    0  0.13609283013E+01  0.34462450972E+01 -0.13608280683E+02  0.14103688676E+02  0.00000000000E+00 0.  1.
</event>
<event>
 7    1  0.4083500E-009  0.4778727E+02  0.7816164E-02  0.1312668E+00
        -11   -1    0    0    0    0  0.00000000000E+00  0.00000000000E+00  0.45593999997E+02  0.45594000000E+02  0.51100000000E-03 0.  1.
         11   -1    0    0    0    0 -0.00000000000E+00 -0.00000000000E+00 -0.45593999997E+02  0.45594000000E+02  0.51100000000E-03 0. -1.
    9900012    2    1    2    0    0  0.85065960673E+01 -0.36467425522E+02 -0.21940556292E+02  0.47787270614E+02  0.19999998038E+02 0.  0.
        -12    1    1    2    0    0 -0.85065960673E+01  0.36467425522E+02  0.21940556292E+02  0.43400729386E+02  0.00000000000E+00 0.  1.
         11    1    3    3    0    0  0.68309198363E+01 -0.35071481746E+01 -0.88989781775E+01  0.11753866045E+02  0.51100000000E-03 0. -1.
        -11    1    3    3    0    0  0.36096204777E+00 -0.75905967871E+01 -0.27977935267E+00  0.76043231081E+01  0.51100000000E-03 0.  1.
         12    1    3    3    0    0  0.13147141832E+01 -0.25369680560E+02 -0.12761798761E+02  0.28429081461E+02  0.00000000000E+00 0. -1.
</event>
<event>
 7    1  0.4083500E-009  0.4778727E+02  0.7816164E-02  0.1312668E+00
        -11   -1    0    0    0    0  0.00000000000E+00  0.00000000000E+00  0.45593999997E+02  0.45594000000E+02  0.51100000000E-03 0. -1.
         11   -1    0    0    0    0 -0.00000000000E+00 -0.00000000000E+00 -0.45593999997E+02  0.45594000000E+02  0.51100000000E-03 0.  1.
    9900012    2    1    2    0    0 -0.39139067137E+02  0.39657789939E+00  0.18750980506E+02  0.47787272814E+02  0.20000008066E+02 0.  0.
        -12    1    1    2    0    0  0.39139067137E+02 -0.39657789939E+00 -0.18750980506E+02  0.43400727186E+02  0.00000000000E+00 0.  1.
         11    1    3    3    0    0 -0.14737248719E+02 -0.26668684485E+01  0.82859330394E+01  0.17115939172E+02  0.51100000000E-03 0. -1.
        -11    1    3    3    0    0 -0.11515763578E+02  0.48321140551E+01  0.12308388103E+02  0.17534496142E+02  0.51100000000E-03 0.  1.
        -12    1    3    3    0    0 -0.12886054840E+02 -0.17686677072E+01 -0.18433406358E+01  0.13136837500E+02  0.00000000000E+00 0.  1.
</event>
<event>
 7    1  0.4083500E-009  0.4778727E+02  0.7816164E-02  0.1312668E+00
        -11   -1    0    0    0    0  0.00000000000E+00  0.00000000000E+00  0.45593999997E+02  0.45594000000E+02  0.51100000000E-03 0.  1.
         11   -1    0    0    0    0 -0.00000000000E+00 -0.00000000000E+00 -0.45593999997E+02  0.45594000000E+02  0.51100000000E-03 0. -1.
    9900012    2    1    2    0    0  0.20595633456E+02 -0.99867948578E+01 -0.36874202166E+02  0.47787274495E+02  0.20000015732E+02 0.  0.
        -12    1    1    2    0    0 -0.20595633456E+02  0.99867948578E+01  0.36874202166E+02  0.43400725505E+02  0.00000000000E+00 0.  1.
         11    1    3    3    0    0  0.78813004448E+01 -0.12311728621E+02 -0.21154073928E+02  0.25713584005E+02  0.51100000000E-03 0. -1.
        -11    1    3    3    0    0  0.13928396405E+01 -0.18804965827E+01 -0.11775028873E+00  0.23431037223E+01  0.51100000000E-03 0.  1.
        -12    1    3    3    0    0  0.11321493371E+02  0.42054303463E+01 -0.15602377949E+02  0.19730586768E+02  0.00000000000E+00 0.  1.
</event>
<event>
 7    1  0.4083500E-009  0.4778729E+02  0.7816164E-02  0.1312668E+00
        -11   -1    0    0    0    0  0.00000000000E+00  0.00000000000E+00  0.45593999997E+02  0.45594000000E+02  0.51100000000E-03 0.  1.
         11   -1    0    0    0    0 -0.00000000000E+00 -0.00000000000E+00 -0.45593999997E+02  0.45594000000E+02  0.51100000000E-03 0. -1.
    9900012    2    1    2    0    0 -0.40269151043E+02  0.11756198784E+02 -0.11126926715E+02  0.47787294548E+02  0.20000107162E+02 0.  0.
        -12    1    1    2    0    0  0.40269151043E+02 -0.11756198784E+02  0.11126926715E+02  0.43400705452E+02  0.00000000000E+00 0.  1.
         11    1    3    3    0    0 -0.17552998933E+02  0.11579707190E+02 -0.77125365708E+01  0.22398227849E+02  0.51100000000E-03 0. -1.
        -11    1    3    3    0    0  0.62361045695E+00  0.14884986776E+01 -0.97503750049E+00  0.18855282294E+01  0.51100000000E-03 0.  1.
         12    1    3    3    0    0 -0.23339762567E+02 -0.13120070835E+01 -0.24393526441E+01  0.23503538470E+02  0.00000000000E+00 0. -1.
</event>
<event>
 7    1  0.4083500E-009  0.4778727E+02  0.7816164E-02  0.1312668E+00
        -11   -1    0    0    0    0  0.00000000000E+00  0.00000000000E+00  0.45593999997E+02  0.45594000000E+02  0.51100000000E-03 0.  1.
         11   -1    0    0    0    0 -0.00000000000E+00 -0.00000000000E+00 -0.45593999997E+02  0.45594000000E+02  0.51100000000E-03 0. -1.
    9900012    2    1    2    0    0 -0.34237754395E+02 -0.42349200143E+01 -0.26333720730E+02  0.47787271653E+02  0.20000002776E+02 0.  0.
        -12    1    1    2    0    0  0.34237754395E+02  0.42349200143E+01  0.26333720730E+02  0.43400728347E+02  0.00000000000E+00 0.  1.
         11    1    3    3    0    0 -0.18387526524E+02 -0.70869170458E+01 -0.80360593568E+01  0.21281536014E+02  0.51100000000E-03 0. -1.
        -11    1    3    3    0    0  0.11921416710E+00 -0.14078675074E+01 -0.52834815709E+01  0.54691389366E+01  0.51100000000E-03 0.  1.
        -12    1    3    3    0    0 -0.15969442038E+02  0.42598645389E+01 -0.13014179802E+02  0.21036596703E+02  0.00000000000E+00 0.  1.
</event>
<event>
 7    1  0.4083500E-009  0.4778727E+02  0.7816164E-02  0.1312668E+00
        -11   -1    0    0    0    0  0.00000000000E+00  0.00000000000E+00  0.45593999997E+02  0.45594000000E+02  0.51100000000E-03 0.  1.
         11   -1    0    0    0    0 -0.00000000000E+00 -0.00000000000E+00 -0.45593999997E+02  0.45594000000E+02  0.51100000000E-03 0. -1.
    9900012    2    1    2    0    0 -0.10049907512E+02 -0.24426449710E+02 -0.34437930696E+02  0.47787272390E+02  0.20000006135E+02 0.  0.
        -12    1    1    2    0    0  0.10049907512E+02  0.24426449710E+02  0.34437930696E+02  0.43400727610E+02  0.00000000000E+00 0.  1.
         11    1    3    3    0    0 -0.14998245097E+01  0.68130677026E+00 -0.12451625471E+01  0.20649654972E+01  0.51100000000E-03 0. -1.
        -11    1    3    3    0    0 -0.18818221998E+00 -0.15589796705E+02 -0.27963520176E+02  0.32016177704E+02  0.51100000000E-03 0.  1.
        -12    1    3    3    0    0 -0.83619007823E+01 -0.95179597757E+01 -0.52292479727E+01  0.13706129189E+02  0.00000000000E+00 0.  1.
</event>
<event>
 7    1  0.4083500E-009  0.4778724E+02  0.7816164E-02  0.1312668E+00
        -11   -1    0    0    0    0  0.00000000000E+00  0.00000000000E+00  0.45593999997E+02  0.45594000000E+02  0.51100000000E-03 0.  1.
         11   -1    0    0    0    0 -0.00000000000E+00 -0.00000000000E+00 -0.45593999997E+02  0.45594000000E+02  0.51100000000E-03 0. -1.
    9900012    2    1    2    0    0 -0.42754200413E+02  0.39906809059E+01 -0.63070523507E+01  0.47787238527E+02  0.19999851741E+02 0.  0.
        -12    1    1    2    0    0  0.42754200413E+02 -0.39906809059E+01  0.63070523507E+01  0.43400761473E+02  0.00000000000E+00 0.  1.
         11    1    3    3    0    0 -0.37603706443E+02  0.29184008068E+01 -0.10559733879E+02  0.39167126285E+02  0.51100000000E-03 0. -1.
        -11    1    3    3    0    0  0.80630936317E-01 -0.47607983660E+00 -0.96002932394E+00  0.10746208274E+01  0.51100000000E-03 0.  1.
        -12    1    3    3    0    0 -0.52311249060E+01  0.15483599357E+01  0.52127108521E+01  0.75454914155E+01  0.00000000000E+00 0.  1.
</event>
<event>
 7    1  0.4083500E-009  0.4778727E+02  0.7816164E-02  0.1312668E+00
        -11   -1    0    0    0    0  0.00000000000E+00  0.00000000000E+00  0.45593999997E+02  0.45594000000E+02  0.51100000000E-03 0. -1.
         11   -1    0    0    0    0 -0.00000000000E+00 -0.00000000000E+00 -0.45593999997E+02  0.45594000000E+02  0.51100000000E-03 0.  1.
    9900012    2    1    2    0    0  0.40582865065E+02 -0.62858856487E+00  0.15370725852E+02  0.47787271047E+02  0.20000000012E+02 0.  0.
        -12    1    1    2    0    0 -0.40582865065E+02  0.62858856487E+00 -0.15370725852E+02  0.43400728953E+02  0.00000000000E+00 0.  1.
         11    1    3    3    0    0  0.96548969985E+01  0.59763399067E+01  0.46972535830E+01  0.12288118905E+02  0.51100000000E-03 0. -1.
        -11    1    3    3    0    0  0.43837570776E+01 -0.11832790776E+01 -0.27033237803E+01  0.52844522150E+01  0.51100000000E-03 0.  1.
         12    1    3    3    0    0  0.26544210989E+02 -0.54216493939E+01  0.13376796049E+02  0.30214699927E+02  0.00000000000E+00 0. -1.
</event>
<event>
 7    1  0.4083500E-009  0.4778731E+02  0.7816164E-02  0.1312668E+00
        -11   -1    0    0    0    0  0.00000000000E+00  0.00000000000E+00  0.45593999997E+02  0.45594000000E+02  0.51100000000E-03 0. -1.
         11   -1    0    0    0    0 -0.00000000000E+00 -0.00000000000E+00 -0.45593999997E+02  0.45594000000E+02  0.51100000000E-03 0.  1.
    9900012    2    1    2    0    0 -0.69357805747E+01 -0.16932682107E+02  0.39354789408E+02  0.47787306171E+02  0.20000160156E+02 0.  0.
        -12    1    1    2    0    0  0.69357805747E+01  0.16932682107E+02 -0.39354789408E+02  0.43400693829E+02  0.00000000000E+00 0.  1.
         11    1    3    3    0    0 -0.42779640762E+01  0.22634492389E+00  0.12181855124E+02  0.12913163950E+02  0.51100000000E-03 0. -1.
        -11    1    3    3    0    0 -0.44045415349E+01 -0.30646505714E+00  0.29355481304E+01  0.53020137732E+01  0.51100000000E-03 0.  1.
        -12    1    3    3    0    0  0.17467250364E+01 -0.16852561974E+02  0.24237386153E+02  0.29572128448E+02  0.00000000000E+00 0.  1.
</event>
<event>
 7    1  0.4083500E-009  0.4778727E+02  0.7816164E-02  0.1312668E+00
        -11   -1    0    0    0    0  0.00000000000E+00  0.00000000000E+00  0.45593999997E+02  0.45594000000E+02  0.51100000000E-03 0.  1.
         11   -1    0    0    0    0 -0.00000000000E+00 -0.00000000000E+00 -0.45593999997E+02  0.45594000000E+02  0.51100000000E-03 0. -1.
    9900012    2    1    2    0    0  0.11037825838E+01  0.58318104475E+01 -0.42992960422E+02  0.47787274258E+02  0.20000014653E+02 0.  0.
        -12    1    1    2    0    0 -0.11037825838E+01 -0.58318104475E+01  0.42992960422E+02  0.43400725742E+02  0.00000000000E+00 0.  1.
         11    1    3    3    0    0 -0.65229232156E+01 -0.27167306820E+01 -0.15297361564E+02  0.16850472515E+02  0.51100000000E-03 0. -1.
        -11    1    3    3    0    0  0.27285916100E+01 -0.66307022520E+00 -0.29046756468E+01  0.40400513823E+01  0.51100000000E-03 0.  1.
         12    1    3    3    0    0  0.48981141894E+01  0.92116113546E+01 -0.24790923211E+02  0.26896750361E+02  0.00000000000E+00 0. -1.
</event>
<event>
 7    1  0.4083500E-009  0.4778727E+02  0.7816164E-02  0.1312668E+00
        -11   -1    0    0    0    0  0.00000000000E+00  0.00000000000E+00  0.45593999997E+02  0.45594000000E+02  0.51100000000E-03 0.  1.
         11   -1    0    0    0    0 -0.00000000000E+00 -0.00000000000E+00 -0.45593999997E+02  0.45594000000E+02  0.51100000000E-03 0. -1.
    9900012    2    1    2    0    0  0.19395607875E+02 -0.23196943688E+02 -0.31134148324E+02  0.47787274278E+02  0.20000014742E+02 0.  0.
        -12    1    1    2    0    0 -0.19395607875E+02  0.23196943688E+02  0.31134148324E+02  0.43400725722E+02  0.00000000000E+00 0.  1.
         11    1    3    3    0    0  0.13436689902E+02 -0.16410094540E+02 -0.13840217758E+02  0.25325628644E+02  0.51100000000E-03 0. -1.
        -11    1    3    3    0    0  0.44040465802E+01  0.22260088613E+00 -0.81205118564E+00  0.44838158777E+01  0.51100000000E-03 0.  1.
        -12    1    3    3    0    0  0.15548713927E+01 -0.70094500346E+01 -0.16481879381E+02  0.17977829757E+02  0.00000000000E+00 0.  1.
</event>
<event>
 7    1  0.4083500E-009  0.4778727E+02  0.7816164E-02  0.1312668E+00
        -11   -1    0    0    0    0  0.00000000000E+00  0.00000000000E+00  0.45593999997E+02  0.45594000000E+02  0.51100000000E-03 0.  1.
         11   -1    0    0    0    0 -0.00000000000E+00 -0.00000000000E+00 -0.45593999997E+02  0.45594000000E+02  0.51100000000E-03 0. -1.
    9900012    2    1    2    0    0  0.37727038138E+02  0.10486617456E+02 -0.18716964220E+02  0.47787270721E+02  0.19999998526E+02 0.  0.
        -12    1    1    2    0    0 -0.37727038138E+02 -0.10486617456E+02  0.18716964220E+02  0.43400729279E+02  0.00000000000E+00 0.  1.
         11    1    3    3    0    0  0.37071057928E+02  0.10049133957E+02 -0.17973263460E+02  0.42406209791E+02  0.51100000000E-03 0. -1.
        -11    1    3    3    0    0  0.21903004326E+01  0.13005713220E+01  0.11505283327E+01  0.27951059827E+01  0.51100000000E-03 0.  1.
         12    1    3    3    0    0 -0.15343202227E+01 -0.86308782225E+00 -0.18942290924E+01  0.25859549473E+01  0.00000000000E+00 0. -1.
</event>
<event>
 7    1  0.4083500E-009  0.4778728E+02  0.7816164E-02  0.1312668E+00
        -11   -1    0    0    0    0  0.00000000000E+00  0.00000000000E+00  0.45593999997E+02  0.45594000000E+02  0.51100000000E-03 0. -1.
         11   -1    0    0    0    0 -0.00000000000E+00 -0.00000000000E+00 -0.45593999997E+02  0.45594000000E+02  0.51100000000E-03 0.  1.
    9900012    2    1    2    0    0 -0.64471324353E+01 -0.42464253056E+02  0.62325368164E+01  0.47787276280E+02  0.20000023871E+02 0.  0.
        -12    1    1    2    0    0  0.64471324353E+01  0.42464253056E+02 -0.62325368164E+01  0.43400723720E+02  0.00000000000E+00 0.  1.
         11    1    3    3    0    0 -0.36443119893E+01 -0.18141030616E+01  0.27104922058E+01  0.48906797127E+01  0.51100000000E-03 0. -1.
        -11    1    3    3    0    0 -0.11694556112E+01 -0.11590160626E+02 -0.48382997776E+01  0.12613825540E+02  0.51100000000E-03 0.  1.
         12    1    3    3    0    0 -0.16333648348E+01 -0.29059989369E+02  0.83603443882E+01  0.30282771027E+02  0.00000000000E+00 0. -1.
</event>
<event>
 7    1  0.4083500E-009  0.4778727E+02  0.7816164E-02  0.1312668E+00
        -11   -1    0    0    0    0  0.00000000000E+00  0.00000000000E+00  0.45593999997E+02  0.45594000000E+02  0.51100000000E-03 0. -1.
         11   -1    0    0    0    0 -0.00000000000E+00 -0.00000000000E+00 -0.45593999997E+02  0.45594000000E+02  0.51100000000E-03 0.  1.
    9900012    2    1    2    0    0 -0.15883027510E+02 -0.38919526285E+02  0.10799218526E+02  0.47787271781E+02  0.20000003360E+02 0.  0.
        -12    1    1    2    0    0  0.15883027510E+02  0.38919526285E+02 -0.10799218526E+02  0.43400728219E+02  0.00000000000E+00 0.  1.
         11    1    3    3    0    0 -0.65761040447E+01 -0.13129087493E+02  0.86745128253E+01  0.17054772230E+02  0.51100000000E-03 0. -1.
        -11    1    3    3    0    0 -0.17464685408E+01 -0.17020540032E+02  0.65722796221E+01  0.18328769599E+02  0.51100000000E-03 0.  1.
        -12    1    3    3    0    0 -0.75604549248E+01 -0.87698987600E+01 -0.44475739214E+01  0.12403729952E+02  0.00000000000E+00 0.  1.
</event>
<event>
 7    1  0.4083500E-009  0.4778726E+02  0.7816164E-02  0.1312668E+00
        -11   -1    0    0    0    0  0.00000000000E+00  0.00000000000E+00  0.45593999997E+02  0.45594000000E+02  0.51100000000E-03 0.  1.
         11   -1    0    0    0    0 -0.00000000000E+00 -0.00000000000E+00 -0.45593999997E+02  0.45594000000E+02  0.51100000000E-03 0. -1.
    9900012    2    1    2    0    0 -0.30249096358E+02  0.31122585305E+02  0.27982405890E-01  0.47787263491E+02  0.19999965561E+02 0.  0.
        -12    1    1    2    0    0  0.30249096358E+02 -0.31122585305E+02 -0.27982405890E-01  0.43400736509E+02  0.00000000000E+00 0.  1.
         11    1    3    3    0    0 -0.15447143923E+02  0.10329729027E+02  0.12967747062E+00  0.18583174477E+02  0.51100000000E-03 0. -1.
        -11    1    3    3    0    0 -0.10906778318E+02  0.13860049109E+02  0.65731236762E+01  0.18821921520E+02  0.51100000000E-03 0.  1.
         12    1    3    3    0    0 -0.38951741165E+01  0.69328071688E+01 -0.66748187409E+01  0.10382167493E+02  0.00000000000E+00 0. -1.
</event>
<event>
 7    1  0.4083500E-009  0.4778727E+02  0.7816164E-02  0.1312668E+00
        -11   -1    0    0    0    0  0.00000000000E+00  0.00000000000E+00  0.45593999997E+02  0.45594000000E+02  0.51100000000E-03 0. -1.
         11   -1    0    0    0    0 -0.00000000000E+00 -0.00000000000E+00 -0.45593999997E+02  0.45594000000E+02  0.51100000000E-03 0.  1.
    9900012    2    1    2    0    0 -0.21511712321E+01 -0.36632619250E+02  0.23174282910E+02  0.47787265914E+02  0.19999976608E+02 0.  0.
        -12    1    1    2    0    0  0.21511712321E+01  0.36632619250E+02 -0.23174282910E+02  0.43400734086E+02  0.00000000000E+00 0.  1.
         11    1    3    3    0    0  0.22326521422E+01 -0.16654251916E+01  0.53818920717E+01  0.60599619792E+01  0.51100000000E-03 0. -1.
        -11    1    3    3    0    0 -0.43418375777E+01 -0.69549393972E+01  0.94247763673E+01  0.12491963233E+02  0.51100000000E-03 0.  1.
         12    1    3    3    0    0 -0.41985796695E-01 -0.28012254662E+02  0.83676144713E+01  0.29235340702E+02  0.00000000000E+00 0. -1.
</event>
<event>
 7    1  0.4083500E-009  0.4778727E+02  0.7816164E-02  0.1312668E+00
        -11   -1    0    0    0    0  0.00000000000E+00  0.00000000000E+00  0.45593999997E+02  0.45594000000E+02  0.51100000000E-03 0.  1.
         11   -1    0    0    0    0 -0.00000000000E+00 -0.00000000000E+00 -0.45593999997E+02  0.45594000000E+02  0.51100000000E-03 0. -1.
    9900012    2    1    2    0    0 -0.27124716309E+02 -0.29072957790E+02 -0.17396452048E+02  0.47787266672E+02  0.19999980065E+02 0.  0.
        -12    1    1    2    0    0  0.27124716309E+02  0.29072957790E+02  0.17396452048E+02  0.43400733328E+02  0.00000000000E+00 0.  1.
         11    1    3    3    0    0 -0.41643131226E+00 -0.59938548192E+01 -0.12331154639E+01  0.61335376937E+01  0.51100000000E-03 0. -1.
        -11    1    3    3    0    0  0.11397152334E+01 -0.46231276887E+01 -0.60433471649E+00  0.47997376126E+01  0.51100000000E-03 0.  1.
         12    1    3    3    0    0 -0.27848000231E+02 -0.18455975282E+02 -0.15559001867E+02  0.36853991366E+02  0.00000000000E+00 0. -1.
</event>
<event>
 7    1  0.4083500E-009  0.4778727E+02  0.7816164E-02  0.1312668E+00
        -11   -1    0    0    0    0  0.00000000000E+00  0.00000000000E+00  0.45593999997E+02  0.45594000000E+02  0.51100000000E-03 0. -1.
         11   -1    0    0    0    0 -0.00000000000E+00 -0.00000000000E+00 -0.45593999997E+02  0.45594000000E+02  0.51100000000E-03 0.  1.
    9900012    2    1    2    0    0 -0.25061773975E+02 -0.34464631717E+02 -0.82292176704E+01  0.47787269849E+02  0.19999994550E+02 0.  0.
        -12    1    1    2    0    0  0.25061773975E+02  0.34464631717E+02  0.82292176704E+01  0.43400730151E+02  0.00000000000E+00 0.  1.
         11    1    3    3    0    0 -0.14269675704E+01 -0.50488916004E+01 -0.11190533351E+01  0.53646829792E+01  0.51100000000E-03 0. -1.
        -11    1    3    3    0    0 -0.83944656471E-01 -0.10189613354E+02  0.25837375088E+01  0.10512419645E+02  0.51100000000E-03 0.  1.
         12    1    3    3    0    0 -0.23550861748E+02 -0.19226126762E+02 -0.96939018442E+01  0.31910167225E+02  0.00000000000E+00 0. -1.
</event>
<event>
 7    1  0.4083500E-009  0.4778727E+02  0.7816164E-02  0.1312668E+00
        -11   -1    0    0    0    0  0.00000000000E+00  0.00000000000E+00  0.45593999997E+02  0.45594000000E+02  0.51100000000E-03 0.  1.
         11   -1    0    0    0    0 -0.00000000000E+00 -0.00000000000E+00 -0.45593999997E+02  0.45594000000E+02  0.51100000000E-03 0. -1.
    9900012    2    1    2    0    0  0.31134502687E+02 -0.10291013978E+02 -0.28431696936E+02  0.47787267093E+02  0.19999981984E+02 0.  0.
        -12    1    1    2    0    0 -0.31134502687E+02  0.10291013978E+02  0.28431696936E+02  0.43400732907E+02  0.00000000000E+00 0.  1.
         11    1    3    3    0    0  0.12669869679E+02 -0.25961308106E+01 -0.39650688452E+01  0.13527278517E+02  0.51100000000E-03 0. -1.
        -11    1    3    3    0    0  0.16104368116E+02 -0.41873712480E+00 -0.14329706823E+02  0.21560763231E+02  0.51100000000E-03 0.  1.
         12    1    3    3    0    0  0.23602648911E+01 -0.72761460423E+01 -0.10136921268E+02  0.12699225345E+02  0.00000000000E+00 0. -1.
</event>
<event>
 7    1  0.4083500E-009  0.4778727E+02  0.7816164E-02  0.1312668E+00
        -11   -1    0    0    0    0  0.00000000000E+00  0.00000000000E+00  0.45593999997E+02  0.45594000000E+02  0.51100000000E-03 0.  1.
         11   -1    0    0    0    0 -0.00000000000E+00 -0.00000000000E+00 -0.45593999997E+02  0.45594000000E+02  0.51100000000E-03 0. -1.
    9900012    2    1    2    0    0  0.33302249758E+02 -0.14041580273E+01 -0.27795896692E+02  0.47787269918E+02  0.19999994864E+02 0.  0.
        -12    1    1    2    0    0 -0.33302249758E+02  0.14041580273E+01  0.27795896692E+02  0.43400730082E+02  0.00000000000E+00 0.  1.
         11    1    3    3    0    0  0.11541970702E+02 -0.70461436402E+00 -0.10009604694E+02  0.15293977752E+02  0.51100000000E-03 0. -1.
        -11    1    3    3    0    0  0.38898609348E+01 -0.68690446932E+01 -0.78626454285E+01  0.11141633026E+02  0.51100000000E-03 0.  1.
        -12    1    3    3    0    0  0.17870418122E+02  0.61695010300E+01 -0.99236465695E+01  0.21351659140E+02  0.00000000000E+00 0.  1.
</event>
<event>
 7    1  0.4083500E-009  0.4778727E+02  0.7816164E-02  0.1312668E+00
        -11   -1    0    0    0    0  0.00000000000E+00  0.00000000000E+00  0.45593999997E+02  0.45594000000E+02  0.51100000000E-03 0.  1.
         11   -1    0    0    0    0 -0.00000000000E+00 -0.00000000000E+00 -0.45593999997E+02  0.45594000000E+02  0.51100000000E-03 0. -1.
    9900012    2    1    2    0    0  0.47361090852E+01 -0.28457334848E+01 -0.43047581388E+02  0.47787271992E+02  0.20000004319E+02 0.  0.
        -12    1    1    2    0    0 -0.47361090852E+01  0.28457334848E+01  0.43047581388E+02  0.43400728008E+02  0.00000000000E+00 0.  1.
         11    1    3    3    0    0  0.52091295794E+00 -0.84436415077E+01 -0.21923272990E+02  0.23498858080E+02  0.51100000000E-03 0. -1.
        -11    1    3    3    0    0  0.49965047539E+00  0.21324745490E+01 -0.18387331369E+02  0.18517317663E+02  0.51100000000E-03 0.  1.
        -12    1    3    3    0    0  0.37155456518E+01  0.34654334739E+01 -0.27369770285E+01  0.57710962483E+01  0.00000000000E+00 0.  1.
</event>
<event>
 7    1  0.4083500E-009  0.4778727E+02  0.7816164E-02  0.1312668E+00
        -11   -1    0    0    0    0  0.00000000000E+00  0.00000000000E+00  0.45593999997E+02  0.45594000000E+02  0.51100000000E-03 0.  1.
         11   -1    0    0    0    0 -0.00000000000E+00 -0.00000000000E+00 -0.45593999997E+02  0.45594000000E+02  0.51100000000E-03 0. -1.
    9900012    2    1    2    0    0  0.35377444995E+02  0.20972965203E+02  0.13863432692E+02  0.47787266714E+02  0.19999980256E+02 0.  0.
        -12    1    1    2    0    0 -0.35377444995E+02 -0.20972965203E+02 -0.13863432692E+02  0.43400733286E+02  0.00000000000E+00 0.  1.
         11    1    3    3    0    0  0.15110874906E+02  0.11361823225E+02  0.51534009536E+01  0.19595589021E+02  0.51100000000E-03 0. -1.
        -11    1    3    3    0    0  0.84262773943E+01  0.16836088807E+01 -0.36431890105E+01  0.93332478814E+01  0.51100000000E-03 0.  1.
         12    1    3    3    0    0  0.11840292695E+02  0.79275330969E+01  0.12353220748E+02  0.18858429812E+02  0.00000000000E+00 0. -1.
</event>
<event>
 7    1  0.4083500E-009  0.4778728E+02  0.7816164E-02  0.1312668E+00
        -11   -1    0    0    0    0  0.00000000000E+00  0.00000000000E+00  0.45593999997E+02  0.45594000000E+02  0.51100000000E-03 0.  1.
         11   -1    0    0    0    0 -0.00000000000E+00 -0.00000000000E+00 -0.45593999997E+02  0.45594000000E+02  0.51100000000E-03 0. -1.
    9900012    2    1    2    0    0  0.12178414918E+02  0.39217850304E+02  0.14045230884E+02  0.47787284764E+02  0.20000062555E+02 0.  0.
        -12    1    1    2    0    0 -0.12178414918E+02 -0.39217850304E+02 -0.14045230884E+02  0.43400715236E+02  0.00000000000E+00 0.  1.
         11    1    3    3    0    0  0.10414025448E+02  0.19438434544E+02  0.25866148091E+01  0.22203496121E+02  0.51100000000E-03 0. -1.
        -11    1    3    3    0    0  0.15513436266E+01  0.11310773472E+02  0.10385104666E+00  0.11417138384E+02  0.51100000000E-03 0.  1.
        -12    1    3    3    0    0  0.21304584381E+00  0.84686422880E+01  0.11354765029E+02  0.14166650260E+02  0.00000000000E+00 0.  1.
</event>
<event>
 7    1  0.4083500E-009  0.4778727E+02  0.7816164E-02  0.1312668E+00
        -11   -1    0    0    0    0  0.00000000000E+00  0.00000000000E+00  0.45593999997E+02  0.45594000000E+02  0.51100000000E-03 0.  1.
         11   -1    0    0    0    0 -0.00000000000E+00 -0.00000000000E+00 -0.45593999997E+02  0.45594000000E+02  0.51100000000E-03 0. -1.
    9900012    2    1    2    0    0  0.97555158897E+01  0.15389216952E+02 -0.39390677871E+02  0.47787267381E+02  0.19999983299E+02 0.  0.
        -12    1    1    2    0    0 -0.97555158897E+01 -0.15389216952E+02  0.39390677871E+02  0.43400732619E+02  0.00000000000E+00 0.  1.
         11    1    3    3    0    0 -0.14881284399E+00 -0.11199811261E+01  0.45058880847E+00  0.12163607691E+01  0.51100000000E-03 0. -1.
        -11    1    3    3    0    0 -0.50769103122E+00  0.93413321933E+01 -0.79893217751E+01  0.12302337177E+02  0.51100000000E-03 0.  1.
         12    1    3    3    0    0  0.10412019765E+02  0.71678658843E+01 -0.31851944905E+02  0.34268569435E+02  0.00000000000E+00 0. -1.
</event>
<event>
 7    1  0.4083500E-009  0.4778727E+02  0.7816164E-02  0.1312668E+00
        -11   -1    0    0    0    0  0.00000000000E+00  0.00000000000E+00  0.45593999997E+02  0.45594000000E+02  0.51100000000E-03 0.  1.
         11   -1    0    0    0    0 -0.00000000000E+00 -0.00000000000E+00 -0.45593999997E+02  0.45594000000E+02  0.51100000000E-03 0. -1.
    9900012    2    1    2    0    0  0.15602126222E+00 -0.38883327395E+02 -0.19279150756E+02  0.47787272520E+02  0.20000006727E+02 0.  0.
        -12    1    1    2    0    0 -0.15602126222E+00  0.38883327395E+02  0.19279150756E+02  0.43400727480E+02  0.00000000000E+00 0.  1.
         11    1    3    3    0    0  0.10166755771E+01 -0.12134894093E+02 -0.19797638594E+01  0.12337290995E+02  0.51100000000E-03 0. -1.
        -11    1    3    3    0    0  0.70638341589E+01 -0.15031358659E+02 -0.11282736560E+02  0.20078337598E+02  0.51100000000E-03 0.  1.
         12    1    3    3    0    0 -0.79244884738E+01 -0.11717074643E+02 -0.60166503367E+01  0.15371643927E+02  0.00000000000E+00 0. -1.
</event>
<event>
 7    1  0.4083500E-009  0.4778727E+02  0.7816164E-02  0.1312668E+00
        -11   -1    0    0    0    0  0.00000000000E+00  0.00000000000E+00  0.45593999997E+02  0.45594000000E+02  0.51100000000E-03 0.  1.
         11   -1    0    0    0    0 -0.00000000000E+00 -0.00000000000E+00 -0.45593999997E+02  0.45594000000E+02  0.51100000000E-03 0. -1.
    9900012    2    1    2    0    0 -0.95250661920E+01  0.97257211908E+01 -0.41210516156E+02  0.47787272120E+02  0.20000004903E+02 0.  0.
        -12    1    1    2    0    0  0.95250661920E+01 -0.97257211908E+01  0.41210516156E+02  0.43400727880E+02  0.00000000000E+00 0.  1.
         11    1    3    3    0    0 -0.70821486223E+01 -0.70924731321E+00 -0.19906134312E+02  0.21140341633E+02  0.51100000000E-03 0. -1.
        -11    1    3    3    0    0 -0.46298099628E+01  0.37484064665E+01 -0.17833694826E+02  0.18802296741E+02  0.51100000000E-03 0.  1.
        -12    1    3    3    0    0  0.21868923932E+01  0.66865620376E+01 -0.34706870182E+01  0.78446337454E+01  0.00000000000E+00 0.  1.
</event>
<event>
 7    1  0.4083500E-009  0.4778726E+02  0.7816164E-02  0.1312668E+00
        -11   -1    0    0    0    0  0.00000000000E+00  0.00000000000E+00  0.45593999997E+02  0.45594000000E+02  0.51100000000E-03 0. -1.
         11   -1    0    0    0    0 -0.00000000000E+00 -0.00000000000E+00 -0.45593999997E+02  0.45594000000E+02  0.51100000000E-03 0.  1.
    9900012    2    1    2    0    0  0.21899861028E+02  0.73688629372E+01  0.36738537177E+02  0.47787260745E+02  0.19999953039E+02 0.  0.
        -12    1    1    2    0    0 -0.21899861028E+02 -0.73688629372E+01 -0.36738537177E+02  0.43400739255E+02  0.00000000000E+00 0.  1.
         11    1    3    3    0    0  0.84607777951E+01  0.19000291533E+01  0.14419425539E+02  0.16826012742E+02  0.51100000000E-03 0. -1.
        -11    1    3    3    0    0  0.13261966792E+02  0.63007842236E+01  0.82013801338E+01  0.16817915489E+02  0.51100000000E-03 0.  1.
         12    1    3    3    0    0  0.17711644106E+00 -0.83195043972E+00  0.14117731504E+02  0.14143332514E+02  0.00000000000E+00 0. -1.
</event>
<event>
 7    1  0.4083500E-009  0.4778730E+02  0.7816164E-02  0.1312668E+00
        -11   -1    0    0    0    0  0.00000000000E+00  0.00000000000E+00  0.45593999997E+02  0.45594000000E+02  0.51100000000E-03 0.  1.
         11   -1    0    0    0    0 -0.00000000000E+00 -0.00000000000E+00 -0.45593999997E+02  0.45594000000E+02  0.51100000000E-03 0. -1.
    9900012    2    1    2    0    0 -0.56291285983E+01 -0.21342055531E+02 -0.37369115124E+02  0.47787295072E+02  0.20000109551E+02 0.  0.
        -12    1    1    2    0    0  0.56291285983E+01  0.21342055531E+02  0.37369115124E+02  0.43400704928E+02  0.00000000000E+00 0.  1.
         11    1    3    3    0    0 -0.70224231537E+01 -0.12400598280E+02 -0.22720987962E+02  0.26820375816E+02  0.51100000000E-03 0. -1.
        -11    1    3    3    0    0  0.45949709504E+01 -0.10472473535E+02 -0.10754118396E+02  0.15698328660E+02  0.51100000000E-03 0.  1.
         12    1    3    3    0    0 -0.32016763950E+01  0.15310162839E+01 -0.38940087657E+01  0.52685905959E+01  0.00000000000E+00 0. -1.
</event>
<event>
 7    1  0.4083500E-009  0.4778728E+02  0.7816164E-02  0.1312668E+00
        -11   -1    0    0    0    0  0.00000000000E+00  0.00000000000E+00  0.45593999997E+02  0.45594000000E+02  0.51100000000E-03 0. -1.
         11   -1    0    0    0    0 -0.00000000000E+00 -0.00000000000E+00 -0.45593999997E+02  0.45594000000E+02  0.51100000000E-03 0.  1.
    9900012    2    1    2    0    0 -0.11156541254E+02  0.39308448622E+02 -0.14628746409E+02  0.47787276880E+02  0.20000026606E+02 0.  0.
        -12    1    1    2    0    0  0.11156541254E+02 -0.39308448622E+02  0.14628746409E+02  0.43400723120E+02  0.00000000000E+00 0.  1.
         11    1    3    3    0    0 -0.66522521227E+01  0.32232216746E+02 -0.95549912990E+01  0.34270484585E+02  0.51100000000E-03 0. -1.
        -11    1    3    3    0    0  0.96082329353E+00  0.31165351993E+01 -0.58760838763E+01  0.67204415802E+01  0.51100000000E-03 0.  1.
        -12    1    3    3    0    0 -0.54651124251E+01  0.39596966769E+01  0.80232876649E+00  0.67963507150E+01  0.00000000000E+00 0.  1.
</event>
<event>
 7    1  0.4083500E-009  0.4778727E+02  0.7816164E-02  0.1312668E+00
        -11   -1    0    0    0    0  0.00000000000E+00  0.00000000000E+00  0.45593999997E+02  0.45594000000E+02  0.51100000000E-03 0. -1.
         11   -1    0    0    0    0 -0.00000000000E+00 -0.00000000000E+00 -0.45593999997E+02  0.45594000000E+02  0.51100000000E-03 0.  1.
    9900012    2    1    2    0    0  0.12080129041E+02 -0.37150874389E+02  0.18907827668E+02  0.47787274976E+02  0.20000017925E+02 0.  0.
        -12    1    1    2    0    0 -0.12080129041E+02  0.37150874389E+02 -0.18907827668E+02  0.43400725024E+02  0.00000000000E+00 0.  1.
         11    1    3    3    0    0  0.49137435210E+01 -0.21001001703E+02  0.43472561613E+01  0.22001945012E+02  0.51100000000E-03 0. -1.
        -11    1    3    3    0    0  0.35124462274E+01 -0.38394876741E+01 -0.13141458192E+01  0.53671150160E+01  0.51100000000E-03 0.  1.
         12    1    3    3    0    0  0.36539392929E+01 -0.12310385012E+02  0.15874717326E+02  0.20418214948E+02  0.00000000000E+00 0. -1.
</event>
<event>
 7    1  0.4083500E-009  0.4778727E+02  0.7816164E-02  0.1312668E+00
        -11   -1    0    0    0    0  0.00000000000E+00  0.00000000000E+00  0.45593999997E+02  0.45594000000E+02  0.51100000000E-03 0. -1.
         11   -1    0    0    0    0 -0.00000000000E+00 -0.00000000000E+00 -0.45593999997E+02  0.45594000000E+02  0.51100000000E-03 0.  1.
    9900012    2    1    2    0    0 -0.38951924097E+02  0.14477142107E+02 -0.12521308889E+02  0.47787271772E+02  0.20000003317E+02 0.  0.
        -12    1    1    2    0    0  0.38951924097E+02 -0.14477142107E+02  0.12521308889E+02  0.43400728228E+02  0.00000000000E+00 0.  1.
         11    1    3    3    0    0 -0.11981518789E+02  0.42264863636E+01 -0.22414837297E+01  0.12901326639E+02  0.51100000000E-03 0. -1.
        -11    1    3    3    0    0 -0.16293350346E+02  0.90337436904E+01 -0.14223414056E+02  0.23439012313E+02  0.51100000000E-03 0.  1.
        -12    1    3    3    0    0 -0.10677054961E+02  0.12169120534E+01  0.39435888964E+01  0.11446932820E+02  0.00000000000E+00 0.  1.
</event>
<event>
 7    1  0.4083500E-009  0.4778727E+02  0.7816164E-02  0.1312668E+00
        -11   -1    0    0    0    0  0.00000000000E+00  0.00000000000E+00  0.45593999997E+02  0.45594000000E+02  0.51100000000E-03 0.  1.
         11   -1    0    0    0    0 -0.00000000000E+00 -0.00000000000E+00 -0.45593999997E+02  0.45594000000E+02  0.51100000000E-03 0. -1.
    9900012    2    1    2    0    0  0.94311793826E+01  0.14810084677E+02 -0.39690521128E+02  0.47787271664E+02  0.20000002826E+02 0.  0.
        -12    1    1    2    0    0 -0.94311793826E+01 -0.14810084677E+02  0.39690521128E+02  0.43400728336E+02  0.00000000000E+00 0.  1.
         11    1    3    3    0    0 -0.30716510561E+00 -0.13015899669E+01 -0.11876401947E+02  0.11951460593E+02  0.51100000000E-03 0. -1.
        -11    1    3    3    0    0  0.31617312097E+01  0.10735006506E+02 -0.24086299279E+02  0.26559117495E+02  0.51100000000E-03 0.  1.
        -12    1    3    3    0    0  0.65766132785E+01  0.53766681378E+01 -0.37278199026E+01  0.92766935761E+01  0.00000000000E+00 0.  1.
</event>
<event>
 7    1  0.4083500E-009  0.4778728E+02  0.7816164E-02  0.1312668E+00
        -11   -1    0    0    0    0  0.00000000000E+00  0.00000000000E+00  0.45593999997E+02  0.45594000000E+02  0.51100000000E-03 0. -1.
         11   -1    0    0    0    0 -0.00000000000E+00 -0.00000000000E+00 -0.45593999997E+02  0.45594000000E+02  0.51100000000E-03 0.  1.
    9900012    2    1    2    0    0  0.36071208230E+01 -0.26921469599E+01  0.43166697941E+02  0.47787276653E+02  0.20000025572E+02 0.  0.
        -12    1    1    2    0    0 -0.36071208230E+01  0.26921469599E+01 -0.43166697941E+02  0.43400723347E+02  0.00000000000E+00 0.  1.
         11    1    3    3    0    0 -0.47267070402E+01  0.22318731354E+00  0.97723322777E+01  0.10857718472E+02  0.51100000000E-03 0.  1.
        -11    1    3    3    0    0 -0.23761438233E+01 -0.42877616392E+01  0.88962912929E+01  0.10157507488E+02  0.51100000000E-03 0. -1.
         12    1    3    3    0    0  0.10709971687E+02  0.13724273658E+01  0.24498074371E+02  0.26772050692E+02  0.00000000000E+00 0. -1.
</event>
<event>
 7    1  0.4083500E-009  0.4778727E+02  0.7816164E-02  0.1312668E+00
        -11   -1    0    0    0    0  0.00000000000E+00  0.00000000000E+00  0.45593999997E+02  0.45594000000E+02  0.51100000000E-03 0.  1.
         11   -1    0    0    0    0 -0.00000000000E+00 -0.00000000000E+00 -0.45593999997E+02  0.45594000000E+02  0.51100000000E-03 0. -1.
    9900012    2    1    2    0    0 -0.40093515079E+02 -0.11910489454E+02 -0.11587644989E+02  0.47787271587E+02  0.20000002473E+02 0.  0.
        -12    1    1    2    0    0  0.40093515079E+02  0.11910489454E+02  0.11587644989E+02  0.43400728413E+02  0.00000000000E+00 0.  1.
         11    1    3    3    0    0 -0.14064144188E+02 -0.56697658309E+01  0.10126504710E+01  0.15197758307E+02  0.51100000000E-03 0. -1.
        -11    1    3    3    0    0 -0.13810618753E+02 -0.15565815666E+01  0.72016088147E+00  0.13916708248E+02  0.51100000000E-03 0.  1.
        -12    1    3    3    0    0 -0.12218752138E+02 -0.46841420564E+01 -0.13320456341E+02  0.18672805031E+02  0.00000000000E+00 0.  1.
</event>
<event>
 7    1  0.4083500E-009  0.4778727E+02  0.7816164E-02  0.1312668E+00
        -11   -1    0    0    0    0  0.00000000000E+00  0.00000000000E+00  0.45593999997E+02  0.45594000000E+02  0.51100000000E-03 0.  1.
         11   -1    0    0    0    0 -0.00000000000E+00 -0.00000000000E+00 -0.45593999997E+02  0.45594000000E+02  0.51100000000E-03 0. -1.
    9900012    2    1    2    0    0  0.23057095241E+02  0.11124122652E+02 -0.35046361724E+02  0.47787271713E+02  0.20000003050E+02 0.  0.
        -12    1    1    2    0    0 -0.23057095241E+02 -0.11124122652E+02  0.35046361724E+02  0.43400728287E+02  0.00000000000E+00 0.  1.
         11    1    3    3    0    0  0.39812442084E+01 -0.10254969758E+00 -0.66671595829E+01  0.77660697301E+01  0.51100000000E-03 0. -1.
        -11    1    3    3    0    0  0.20509768853E+02  0.11602188542E+02 -0.18304829582E+02  0.29838367644E+02  0.51100000000E-03 0.  1.
        -12    1    3    3    0    0 -0.14339178202E+01 -0.37551619293E+00 -0.10074372559E+02  0.10182834339E+02  0.00000000000E+00 0.  1.
</event>
<event>
 7    1  0.4083500E-009  0.4778727E+02  0.7816164E-02  0.1312668E+00
        -11   -1    0    0    0    0  0.00000000000E+00  0.00000000000E+00  0.45593999997E+02  0.45594000000E+02  0.51100000000E-03 0. -1.
         11   -1    0    0    0    0 -0.00000000000E+00 -0.00000000000E+00 -0.45593999997E+02  0.45594000000E+02  0.51100000000E-03 0.  1.
    9900012    2    1    2    0    0  0.53832431614E+01 -0.24280143842E+02  0.35568509227E+02  0.47787267972E+02  0.19999985992E+02 0.  0.
        -12    1    1    2    0    0 -0.53832431614E+01  0.24280143842E+02 -0.35568509227E+02  0.43400732028E+02  0.00000000000E+00 0.  1.
         11    1    3    3    0    0 -0.12832032113E+01 -0.12356276484E+02  0.85535973172E+01  0.15082712168E+02  0.51100000000E-03 0. -1.
        -11    1    3    3    0    0 -0.19197853528E+01 -0.61841287644E+01  0.17508269252E+02  0.18667311452E+02  0.51100000000E-03 0.  1.
        -12    1    3    3    0    0  0.85862317256E+01 -0.57397385941E+01  0.95066426576E+01  0.14037244352E+02  0.00000000000E+00 0.  1.
</event>
<event>
 7    1  0.4083500E-009  0.4778727E+02  0.7816164E-02  0.1312668E+00
        -11   -1    0    0    0    0  0.00000000000E+00  0.00000000000E+00  0.45593999997E+02  0.45594000000E+02  0.51100000000E-03 0.  1.
         11   -1    0    0    0    0 -0.00000000000E+00 -0.00000000000E+00 -0.45593999997E+02  0.45594000000E+02  0.51100000000E-03 0. -1.
    9900012    2    1    2    0    0 -0.32291681102E+02 -0.27248334620E+02 -0.99196297499E+01  0.47787268873E+02  0.19999990101E+02 0.  0.
        -12    1    1    2    0    0  0.32291681102E+02  0.27248334620E+02  0.99196297499E+01  0.43400731127E+02  0.00000000000E+00 0.  1.
         11    1    3    3    0    0 -0.16426872455E+02 -0.14540157006E+02 -0.17984013226E+01  0.22011191517E+02  0.51100000000E-03 0. -1.
        -11    1    3    3    0    0 -0.13901857705E+01 -0.61657351814E+01  0.23582857195E+01  0.67461410154E+01  0.51100000000E-03 0.  1.
        -12    1    3    3    0    0 -0.14474622876E+02 -0.65424424331E+01 -0.10479514147E+02  0.19029936341E+02  0.00000000000E+00 0.  1.
</event>
<event>
 7    1  0.4083500E-009  0.4778727E+02  0.7816164E-02  0.1312668E+00
        -11   -1    0    0    0    0  0.00000000000E+00  0.00000000000E+00  0.45593999997E+02  0.45594000000E+02  0.51100000000E-03 0. -1.
         11   -1    0    0    0    0 -0.00000000000E+00 -0.00000000000E+00 -0.45593999997E+02  0.45594000000E+02  0.51100000000E-03 0.  1.
    9900012    2    1    2    0    0 -0.33047856807E+02 -0.24511883707E+02 -0.13806888387E+02  0.47787269023E+02  0.19999990785E+02 0.  0.
        -12    1    1    2    0    0  0.33047856807E+02  0.24511883707E+02  0.13806888387E+02  0.43400730977E+02  0.00000000000E+00 0.  1.
         11    1    3    3    0    0 -0.11477860096E+02  0.47487198423E-03 -0.23135583524E+01  0.11708707235E+02  0.51100000000E-03 0. -1.
        -11    1    3    3    0    0 -0.43360055923E+01 -0.17217529061E+01 -0.48776403620E+01  0.67495743072E+01  0.51100000000E-03 0.  1.
        -12    1    3    3    0    0 -0.17233991119E+02 -0.22790605673E+02 -0.66156896722E+01  0.29328987481E+02  0.00000000000E+00 0.  1.
</event>
<event>
 7    1  0.4083500E-009  0.4778727E+02  0.7816164E-02  0.1312668E+00
        -11   -1    0    0    0    0  0.00000000000E+00  0.00000000000E+00  0.45593999997E+02  0.45594000000E+02  0.51100000000E-03 0.  1.
         11   -1    0    0    0    0 -0.00000000000E+00 -0.00000000000E+00 -0.45593999997E+02  0.45594000000E+02  0.51100000000E-03 0. -1.
    9900012    2    1    2    0    0  0.15742542260E+02 -0.30977462395E+02 -0.26003704958E+02  0.47787268615E+02  0.19999988921E+02 0.  0.
        -12    1    1    2    0    0 -0.15742542260E+02  0.30977462395E+02  0.26003704958E+02  0.43400731385E+02  0.00000000000E+00 0.  1.
         11    1    3    3    0    0  0.46288060818E+01 -0.72142915741E+01 -0.37984460766E+01  0.93755022008E+01  0.51100000000E-03 0. -1.
        -11    1    3    3    0    0 -0.18881161239E+01  0.15001640856E+01 -0.39879931147E+01  0.46604253159E+01  0.51100000000E-03 0.  1.
        -12    1    3    3    0    0  0.13001852302E+02 -0.25263334907E+02 -0.18217265767E+02  0.33751341098E+02  0.00000000000E+00 0.  1.
</event>
<event>
 7    1  0.4083500E-009  0.4778728E+02  0.7816164E-02  0.1312668E+00
        -11   -1    0    0    0    0  0.00000000000E+00  0.00000000000E+00  0.45593999997E+02  0.45594000000E+02  0.51100000000E-03 0.  1.
         11   -1    0    0    0    0 -0.00000000000E+00 -0.00000000000E+00 -0.45593999997E+02  0.45594000000E+02  0.51100000000E-03 0. -1.
    9900012    2    1    2    0    0  0.26317181234E+02 -0.15867746043E+02 -0.30647078517E+02  0.47787276340E+02  0.20000024145E+02 0.  0.
        -12    1    1    2    0    0 -0.26317181234E+02  0.15867746043E+02  0.30647078517E+02  0.43400723660E+02  0.00000000000E+00 0.  1.
         11    1    3    3    0    0  0.25025590411E+01 -0.22782330171E+01 -0.91533179443E+01  0.97589126999E+01  0.51100000000E-03 0. -1.
        -11    1    3    3    0    0 -0.19699653857E+01 -0.11391886608E+01 -0.86156973817E-01  0.22772654020E+01  0.51100000000E-03 0.  1.
         12    1    3    3    0    0  0.25784587579E+02 -0.12450324365E+02 -0.21407603599E+02  0.35751098238E+02  0.00000000000E+00 0. -1.
</event>
<event>
 7    1  0.4083500E-009  0.4778727E+02  0.7816164E-02  0.1312668E+00
        -11   -1    0    0    0    0  0.00000000000E+00  0.00000000000E+00  0.45593999997E+02  0.45594000000E+02  0.51100000000E-03 0.  1.
         11   -1    0    0    0    0 -0.00000000000E+00 -0.00000000000E+00 -0.45593999997E+02  0.45594000000E+02  0.51100000000E-03 0. -1.
    9900012    2    1    2    0    0  0.68912129827E+01  0.25932156571E+02 -0.34112424892E+02  0.47787273131E+02  0.20000009512E+02 0.  0.
        -12    1    1    2    0    0 -0.68912129827E+01 -0.25932156571E+02  0.34112424892E+02  0.43400726869E+02  0.00000000000E+00 0.  1.
         11    1    3    3    0    0 -0.15770284019E+01  0.13235723728E+02 -0.17990229940E+02  0.22390171387E+02  0.51100000000E-03 0. -1.
        -11    1    3    3    0    0 -0.30006392279E+01  0.92953321475E+00 -0.19439589208E+01  0.36941635481E+01  0.51100000000E-03 0.  1.
        -12    1    3    3    0    0  0.11468880612E+02  0.11766899629E+02 -0.14178236031E+02  0.21702938196E+02  0.00000000000E+00 0.  1.
</event>
<event>
 7    1  0.4083500E-009  0.4778727E+02  0.7816164E-02  0.1312668E+00
        -11   -1    0    0    0    0  0.00000000000E+00  0.00000000000E+00  0.45593999997E+02  0.45594000000E+02  0.51100000000E-03 0.  1.
         11   -1    0    0    0    0 -0.00000000000E+00 -0.00000000000E+00 -0.45593999997E+02  0.45594000000E+02  0.51100000000E-03 0. -1.
    9900012    2    1    2    0    0 -0.24043902079E+02  0.35093942214E+02  0.85982164654E+01  0.47787270355E+02  0.19999996858E+02 0.  0.
        -12    1    1    2    0    0  0.24043902079E+02 -0.35093942214E+02 -0.85982164654E+01  0.43400729645E+02  0.00000000000E+00 0.  1.
         11    1    3    3    0    0 -0.10047058985E+02  0.28022811868E+02  0.77816691892E+01  0.30769721398E+02  0.51100000000E-03 0. -1.
        -11    1    3    3    0    0 -0.62479577124E+00  0.17322593262E+01 -0.15733754363E+01  0.24221070689E+01  0.51100000000E-03 0.  1.
         12    1    3    3    0    0 -0.13372047322E+02  0.53388710200E+01  0.23899227125E+01  0.14595441889E+02  0.00000000000E+00 0. -1.
</event>
<event>
 7    1  0.4083500E-009  0.4778727E+02  0.7816164E-02  0.1312668E+00
        -11   -1    0    0    0    0  0.00000000000E+00  0.00000000000E+00  0.45593999997E+02  0.45594000000E+02  0.51100000000E-03 0.  1.
         11   -1    0    0    0    0 -0.00000000000E+00 -0.00000000000E+00 -0.45593999997E+02  0.45594000000E+02  0.51100000000E-03 0. -1.
    9900012    2    1    2    0    0 -0.15107076931E+02 -0.35271137025E+02 -0.20281675307E+02  0.47787271508E+02  0.20000002112E+02 0.  0.
        -12    1    1    2    0    0  0.15107076931E+02  0.35271137025E+02  0.20281675307E+02  0.43400728492E+02  0.00000000000E+00 0.  1.
         11    1    3    3    0    0  0.10065970238E+01 -0.31853357974E+01 -0.26119885646E+01  0.42405290039E+01  0.51100000000E-03 0. -1.
        -11    1    3    3    0    0 -0.16277861944E+02 -0.26834707066E+02 -0.77605537199E+01  0.32331045252E+02  0.51100000000E-03 0.  1.
        -12    1    3    3    0    0  0.16418798964E+00 -0.52510941611E+01 -0.99091330221E+01  0.11215697251E+02  0.00000000000E+00 0.  1.
</event>
<event>
 7    1  0.4083500E-009  0.4778727E+02  0.7816164E-02  0.1312668E+00
        -11   -1    0    0    0    0  0.00000000000E+00  0.00000000000E+00  0.45593999997E+02  0.45594000000E+02  0.51100000000E-03 0.  1.
         11   -1    0    0    0    0 -0.00000000000E+00 -0.00000000000E+00 -0.45593999997E+02  0.45594000000E+02  0.51100000000E-03 0. -1.
    9900012    2    1    2    0    0 -0.36177384784E+02  0.15962636325E+02  0.17888949313E+02  0.47787269180E+02  0.19999991498E+02 0.  0.
        -12    1    1    2    0    0  0.36177384784E+02 -0.15962636325E+02 -0.17888949313E+02  0.43400730820E+02  0.00000000000E+00 0.  1.
         11    1    3    3    0    0 -0.10085392558E+02  0.24260096346E+01  0.53670238049E+00  0.10386949287E+02  0.51100000000E-03 0. -1.
        -11    1    3    3    0    0 -0.12915101270E+02  0.58304452101E+01  0.17000156122E+02  0.22131408464E+02  0.51100000000E-03 0.  1.
        -12    1    3    3    0    0 -0.13176890955E+02  0.77061814804E+01  0.35209081024E+00  0.15268911428E+02  0.00000000000E+00 0.  1.
</event>
<event>
 7    1  0.4083500E-009  0.4778728E+02  0.7816164E-02  0.1312668E+00
        -11   -1    0    0    0    0  0.00000000000E+00  0.00000000000E+00  0.45593999997E+02  0.45594000000E+02  0.51100000000E-03 0. -1.
         11   -1    0    0    0    0 -0.00000000000E+00 -0.00000000000E+00 -0.45593999997E+02  0.45594000000E+02  0.51100000000E-03 0.  1.
    9900012    2    1    2    0    0 -0.41977962314E+01  0.16242673914E+02  0.40027202203E+02  0.47787275751E+02  0.20000021461E+02 0.  0.
        -12    1    1    2    0    0  0.41977962314E+01 -0.16242673914E+02 -0.40027202203E+02  0.43400724249E+02  0.00000000000E+00 0.  1.
         11    1    3    3    0    0 -0.13530757340E+01  0.90304308360E+01  0.30772410472E+02  0.32098609651E+02  0.51100000000E-03 0. -1.
        -11    1    3    3    0    0  0.10029576091E+01 -0.77368337896E+00  0.61762311587E+01  0.63047871909E+01  0.51100000000E-03 0.  1.
        -12    1    3    3    0    0 -0.38476781065E+01  0.79859264568E+01  0.30785605727E+01  0.93838789093E+01  0.00000000000E+00 0.  1.
</event>
<event>
 7    1  0.4083500E-009  0.4778727E+02  0.7816164E-02  0.1312668E+00
        -11   -1    0    0    0    0  0.00000000000E+00  0.00000000000E+00  0.45593999997E+02  0.45594000000E+02  0.51100000000E-03 0.  1.
         11   -1    0    0    0    0 -0.00000000000E+00 -0.00000000000E+00 -0.45593999997E+02  0.45594000000E+02  0.51100000000E-03 0. -1.
    9900012    2    1    2    0    0 -0.88511225006E+01  0.18975469820E+02 -0.38015948236E+02  0.47787272533E+02  0.20000006786E+02 0.  0.
        -12    1    1    2    0    0  0.88511225006E+01 -0.18975469820E+02  0.38015948236E+02  0.43400727467E+02  0.00000000000E+00 0.  1.
         11    1    3    3    0    0  0.20064930472E+01  0.24618300054E+01 -0.25088124757E+01  0.40473153600E+01  0.51100000000E-03 0. -1.
        -11    1    3    3    0    0  0.27539721726E+01  0.35600296723E+01 -0.12554591186E+01  0.46727242434E+01  0.51100000000E-03 0.  1.
        -12    1    3    3    0    0 -0.13611587720E+02  0.12953610143E+02 -0.34251676642E+02  0.39067232929E+02  0.00000000000E+00 0.  1.
</event>
<event>
 7    1  0.4083500E-009  0.4778727E+02  0.7816164E-02  0.1312668E+00
        -11   -1    0    0    0    0  0.00000000000E+00  0.00000000000E+00  0.45593999997E+02  0.45594000000E+02  0.51100000000E-03 0.  1.
         11   -1    0    0    0    0 -0.00000000000E+00 -0.00000000000E+00 -0.45593999997E+02  0.45594000000E+02  0.51100000000E-03 0. -1.
    9900012    2    1    2    0    0 -0.42069302789E+02  0.94203383948E+01  0.50054048233E+01  0.47787273162E+02  0.20000009654E+02 0.  0.
        -12    1    1    2    0    0  0.42069302789E+02 -0.94203383948E+01 -0.50054048233E+01  0.43400726838E+02  0.00000000000E+00 0.  1.
         11    1    3    3    0    0 -0.85549273935E+01 -0.71048440529E+00  0.23306319242E+01  0.88951344130E+01  0.51100000000E-03 0. -1.
        -11    1    3    3    0    0  0.14862012509E+01  0.19418124857E+01 -0.12258070893E+01  0.27353305411E+01  0.51100000000E-03 0.  1.
        -12    1    3    3    0    0 -0.35000576647E+02  0.81890103144E+01  0.39005799884E+01  0.36156808208E+02  0.00000000000E+00 0.  1.
</event>
<event>
 7    1  0.4083500E-009  0.4778729E+02  0.7816164E-02  0.1312668E+00
        -11   -1    0    0    0    0  0.00000000000E+00  0.00000000000E+00  0.45593999997E+02  0.45594000000E+02  0.51100000000E-03 0. -1.
         11   -1    0    0    0    0 -0.00000000000E+00 -0.00000000000E+00 -0.45593999997E+02  0.45594000000E+02  0.51100000000E-03 0.  1.
    9900012    2    1    2    0    0 -0.30011059042E+02 -0.30400054185E+02  0.76677846523E+01  0.47787287094E+02  0.20000073175E+02 0.  0.
        -12    1    1    2    0    0  0.30011059042E+02  0.30400054185E+02 -0.76677846523E+01  0.43400712906E+02  0.00000000000E+00 0.  1.
         11    1    3    3    0    0 -0.14814704677E+02 -0.12999930763E+02  0.10852050637E+02  0.22499792839E+02  0.51100000000E-03 0. -1.
        -11    1    3    3    0    0 -0.23846293080E+01  0.10137616968E+01 -0.88253133973E+00  0.27373402312E+01  0.51100000000E-03 0.  1.
         12    1    3    3    0    0 -0.12811725058E+02 -0.18413885119E+02 -0.23017346450E+01  0.22550154024E+02  0.00000000000E+00 0. -1.
</event>
<event>
 7    1  0.4083500E-009  0.4778727E+02  0.7816164E-02  0.1312668E+00
        -11   -1    0    0    0    0  0.00000000000E+00  0.00000000000E+00  0.45593999997E+02  0.45594000000E+02  0.51100000000E-03 0.  1.
         11   -1    0    0    0    0 -0.00000000000E+00 -0.00000000000E+00 -0.45593999997E+02  0.45594000000E+02  0.51100000000E-03 0. -1.
    9900012    2    1    2    0    0 -0.21772644914E+01  0.33338582039E+02 -0.27702376505E+02  0.47787271929E+02  0.20000004034E+02 0.  0.
        -12    1    1    2    0    0  0.21772644914E+01 -0.33338582039E+02  0.27702376505E+02  0.43400728071E+02  0.00000000000E+00 0.  1.
         11    1    3    3    0    0 -0.34458950253E+00  0.87850066173E+01 -0.44564449166E+01  0.98567228199E+01  0.51100000000E-03 0. -1.
        -11    1    3    3    0    0  0.72382029624E+01  0.65630023173E+01 -0.65389191472E+01  0.11756787206E+02  0.51100000000E-03 0.  1.
         12    1    3    3    0    0 -0.90708779513E+01  0.17990573104E+02 -0.16707012442E+02  0.26173761903E+02  0.00000000000E+00 0. -1.
</event>
<event>
 7    1  0.4083500E-009  0.4778727E+02  0.7816164E-02  0.1312668E+00
        -11   -1    0    0    0    0  0.00000000000E+00  0.00000000000E+00  0.45593999997E+02  0.45594000000E+02  0.51100000000E-03 0.  1.
         11   -1    0    0    0    0 -0.00000000000E+00 -0.00000000000E+00 -0.45593999997E+02  0.45594000000E+02  0.51100000000E-03 0. -1.
    9900012    2    1    2    0    0  0.36437126411E+02 -0.24960649376E+01 -0.23446298785E+02  0.47787269039E+02  0.19999990855E+02 0.  0.
        -12    1    1    2    0    0 -0.36437126411E+02  0.24960649376E+01  0.23446298785E+02  0.43400730961E+02  0.00000000000E+00 0.  1.
         11    1    3    3    0    0  0.84029606869E+01  0.78235346512E+00 -0.10852769155E+02  0.13747887978E+02  0.51100000000E-03 0.  1.
        -11    1    3    3    0    0  0.23142372051E+02 -0.31076715824E+01 -0.15795016478E+02  0.28190593336E+02  0.51100000000E-03 0. -1.
        -12    1    3    3    0    0  0.48917936730E+01 -0.17074682039E+00  0.32014868484E+01  0.58487877254E+01  0.00000000000E+00 0.  1.
</event>
<event>
 7    1  0.4083500E-009  0.4778728E+02  0.7816164E-02  0.1312668E+00
        -11   -1    0    0    0    0  0.00000000000E+00  0.00000000000E+00  0.45593999997E+02  0.45594000000E+02  0.51100000000E-03 0.  1.
         11   -1    0    0    0    0 -0.00000000000E+00 -0.00000000000E+00 -0.45593999997E+02  0.45594000000E+02  0.51100000000E-03 0. -1.
    9900012    2    1    2    0    0  0.10732907526E+02 -0.25666564918E+02 -0.33311482857E+02  0.47787277093E+02  0.20000027578E+02 0.  0.
        -12    1    1    2    0    0 -0.10732907526E+02  0.25666564918E+02  0.33311482857E+02  0.43400722907E+02  0.00000000000E+00 0.  1.
         11    1    3    3    0    0  0.25744290749E+01 -0.11246539215E+02 -0.30372013583E+01  0.11930503834E+02  0.51100000000E-03 0. -1.
        -11    1    3    3    0    0 -0.21727078527E+01 -0.16564819871E+01 -0.53893731122E+01  0.60423451400E+01  0.51100000000E-03 0.  1.
         12    1    3    3    0    0  0.10331186304E+02 -0.12763543716E+02 -0.24884908387E+02  0.29814428119E+02  0.00000000000E+00 0. -1.
</event>
<event>
 7    1  0.4083500E-009  0.4778727E+02  0.7816164E-02  0.1312668E+00
        -11   -1    0    0    0    0  0.00000000000E+00  0.00000000000E+00  0.45593999997E+02  0.45594000000E+02  0.51100000000E-03 0. -1.
         11   -1    0    0    0    0 -0.00000000000E+00 -0.00000000000E+00 -0.45593999997E+02  0.45594000000E+02  0.51100000000E-03 0.  1.
    9900012    2    1    2    0    0 -0.23568411117E+02  0.35674716319E+02 -0.74476547788E+01  0.47787274790E+02  0.20000017079E+02 0.  0.
        -12    1    1    2    0    0  0.23568411117E+02 -0.35674716319E+02  0.74476547788E+01  0.43400725210E+02  0.00000000000E+00 0.  1.
         11    1    3    3    0    0 -0.91613802586E+00  0.52672254328E+01 -0.23543995611E+01  0.58417608815E+01  0.51100000000E-03 0. -1.
        -11    1    3    3    0    0 -0.24761815498E+02  0.30501959031E+02 -0.38038965910E+01  0.39471339488E+02  0.51100000000E-03 0.  1.
        -12    1    3    3    0    0  0.21095424067E+01 -0.94468144262E-01 -0.12893586267E+01  0.24741744207E+01  0.00000000000E+00 0.  1.
</event>
<event>
 7    1  0.4083500E-009  0.4778727E+02  0.7816164E-02  0.1312668E+00
        -11   -1    0    0    0    0  0.00000000000E+00  0.00000000000E+00  0.45593999997E+02  0.45594000000E+02  0.51100000000E-03 0. -1.
         11   -1    0    0    0    0 -0.00000000000E+00 -0.00000000000E+00 -0.45593999997E+02  0.45594000000E+02  0.51100000000E-03 0.  1.
    9900012    2    1    2    0    0 -0.37758348949E+02  0.19039005081E+02 -0.97696786867E+01  0.47787271303E+02  0.20000001177E+02 0.  0.
        -12    1    1    2    0    0  0.37758348949E+02 -0.19039005081E+02  0.97696786867E+01  0.43400728697E+02  0.00000000000E+00 0.  1.
         11    1    3    3    0    0 -0.17047376864E+02  0.87834146567E+01 -0.15324156047E+01  0.19238236115E+02  0.51100000000E-03 0. -1.
        -11    1    3    3    0    0 -0.71208587429E+01  0.11593644342E+02 -0.51549940401E+01  0.14549679796E+02  0.51100000000E-03 0.  1.
        -12    1    3    3    0    0 -0.13590113341E+02 -0.13380539170E+01 -0.30822690420E+01  0.13999355391E+02  0.00000000000E+00 0.  1.
</event>
<event>
 7    1  0.4083500E-009  0.4778727E+02  0.7816164E-02  0.1312668E+00
        -11   -1    0    0    0    0  0.00000000000E+00  0.00000000000E+00  0.45593999997E+02  0.45594000000E+02  0.51100000000E-03 0.  1.
         11   -1    0    0    0    0 -0.00000000000E+00 -0.00000000000E+00 -0.45593999997E+02  0.45594000000E+02  0.51100000000E-03 0. -1.
    9900012    2    1    2    0    0  0.64592485254E+01 -0.42906461811E+02  0.96813433171E+00  0.47787266818E+02  0.19999980731E+02 0.  0.
        -12    1    1    2    0    0 -0.64592485254E+01  0.42906461811E+02 -0.96813433171E+00  0.43400733182E+02  0.00000000000E+00 0.  1.
         11    1    3    3    0    0  0.23845873458E+01 -0.17214170793E+02  0.29599295101E-01  0.17378573281E+02  0.51100000000E-03 0. -1.
        -11    1    3    3    0    0  0.76752356994E+01 -0.19408269314E+02  0.58292569369E+01  0.21669573080E+02  0.51100000000E-03 0.  1.
        -12    1    3    3    0    0 -0.36005745198E+01 -0.62840217043E+01 -0.48907219003E+01  0.87391204568E+01  0.00000000000E+00 0.  1.
</event>
<event>
 7    1  0.4083500E-009  0.4778726E+02  0.7816164E-02  0.1312668E+00
        -11   -1    0    0    0    0  0.00000000000E+00  0.00000000000E+00  0.45593999997E+02  0.45594000000E+02  0.51100000000E-03 0.  1.
         11   -1    0    0    0    0 -0.00000000000E+00 -0.00000000000E+00 -0.45593999997E+02  0.45594000000E+02  0.51100000000E-03 0. -1.
    9900012    2    1    2    0    0  0.19014087611E+02  0.38010848672E+02  0.87900196047E+01  0.47787255892E+02  0.19999930916E+02 0.  0.
        -12    1    1    2    0    0 -0.19014087611E+02 -0.38010848672E+02 -0.87900196047E+01  0.43400744108E+02  0.00000000000E+00 0.  1.
         11    1    3    3    0    0  0.65467493428E+01  0.12922756906E+02  0.21819875531E+01  0.14649868360E+02  0.51100000000E-03 0. -1.
        -11    1    3    3    0    0  0.15398810801E+02  0.18285058239E+02  0.87010375394E+01  0.25439630174E+02  0.51100000000E-03 0.  1.
         12    1    3    3    0    0 -0.29314725327E+01  0.68030335265E+01 -0.20930054878E+01  0.76977573581E+01  0.00000000000E+00 0. -1.
</event>
<event>
 7    1  0.4083500E-009  0.4778727E+02  0.7816164E-02  0.1312668E+00
        -11   -1    0    0    0    0  0.00000000000E+00  0.00000000000E+00  0.45593999997E+02  0.45594000000E+02  0.51100000000E-03 0. -1.
         11   -1    0    0    0    0 -0.00000000000E+00 -0.00000000000E+00 -0.45593999997E+02  0.45594000000E+02  0.51100000000E-03 0.  1.
    9900012    2    1    2    0    0  0.12258024713E+02  0.31458961479E+02  0.27270827722E+02  0.47787268763E+02  0.19999989600E+02 0.  0.
        -12    1    1    2    0    0 -0.12258024713E+02 -0.31458961479E+02 -0.27270827722E+02  0.43400731237E+02  0.00000000000E+00 0.  1.
         11    1    3    3    0    0 -0.19648885327E+00  0.64287321229E+01  0.81395370773E+01  0.10373970728E+02  0.51100000000E-03 0. -1.
        -11    1    3    3    0    0 -0.22710774318E+01  0.70638936354E+00  0.52673781311E+01  0.57794507759E+01  0.51100000000E-03 0.  1.
        -12    1    3    3    0    0  0.14725590998E+02  0.24323839993E+02  0.13863912514E+02  0.31633847259E+02  0.00000000000E+00 0.  1.
</event>
<event>
 7    1  0.4083500E-009  0.4778726E+02  0.7816164E-02  0.1312668E+00
        -11   -1    0    0    0    0  0.00000000000E+00  0.00000000000E+00  0.45593999997E+02  0.45594000000E+02  0.51100000000E-03 0.  1.
         11   -1    0    0    0    0 -0.00000000000E+00 -0.00000000000E+00 -0.45593999997E+02  0.45594000000E+02  0.51100000000E-03 0. -1.
    9900012    2    1    2    0    0 -0.13720047370E+02 -0.37268580800E+02 -0.17505354380E+02  0.47787259837E+02  0.19999948902E+02 0.  0.
        -12    1    1    2    0    0  0.13720047370E+02  0.37268580800E+02  0.17505354380E+02  0.43400740163E+02  0.00000000000E+00 0.  1.
         11    1    3    3    0    0 -0.88176781194E+01 -0.22449764553E+02 -0.11697551841E+02  0.26806269700E+02  0.51100000000E-03 0. -1.
        -11    1    3    3    0    0 -0.46840966633E+01 -0.13979924276E+02 -0.92673880853E+01  0.17414463141E+02  0.51100000000E-03 0.  1.
        -12    1    3    3    0    0 -0.21827258683E+00 -0.83889197212E+00  0.34595855464E+01  0.35665269964E+01  0.00000000000E+00 0.  1.
</event>
<event>
 7    1  0.4083500E-009  0.4778727E+02  0.7816164E-02  0.1312668E+00
        -11   -1    0    0    0    0  0.00000000000E+00  0.00000000000E+00  0.45593999997E+02  0.45594000000E+02  0.51100000000E-03 0.  1.
         11   -1    0    0    0    0 -0.00000000000E+00 -0.00000000000E+00 -0.45593999997E+02  0.45594000000E+02  0.51100000000E-03 0. -1.
    9900012    2    1    2    0    0  0.86361142768E+01 -0.37587874248E+02 -0.19904591581E+02  0.47787268137E+02  0.19999986742E+02 0.  0.
        -12    1    1    2    0    0 -0.86361142768E+01  0.37587874248E+02  0.19904591581E+02  0.43400731863E+02  0.00000000000E+00 0.  1.
         11    1    3    3    0    0 -0.53243192040E+00 -0.37106057985E+01 -0.30669784031E+01  0.48433909534E+01  0.51100000000E-03 0. -1.
        -11    1    3    3    0    0 -0.32643866868E+01 -0.23180444103E+01  0.16296027367E+01  0.43226329557E+01  0.51100000000E-03 0.  1.
        -12    1    3    3    0    0  0.12432932884E+02 -0.31559224039E+02 -0.18467215915E+02  0.38621244228E+02  0.00000000000E+00 0.  1.
</event>
<event>
 7    1  0.4083500E-009  0.4778727E+02  0.7816164E-02  0.1312668E+00
        -11   -1    0    0    0    0  0.00000000000E+00  0.00000000000E+00  0.45593999997E+02  0.45594000000E+02  0.51100000000E-03 0.  1.
         11   -1    0    0    0    0 -0.00000000000E+00 -0.00000000000E+00 -0.45593999997E+02  0.45594000000E+02  0.51100000000E-03 0. -1.
    9900012    2    1    2    0    0 -0.34278722991E+02  0.71852852822E+01 -0.25631315267E+02  0.47787268476E+02  0.19999988291E+02 0.  0.
        -12    1    1    2    0    0  0.34278722991E+02 -0.71852852822E+01  0.25631315267E+02  0.43400731524E+02  0.00000000000E+00 0.  1.
         11    1    3    3    0    0 -0.74006805932E+01 -0.40718676890E+01 -0.53561222734E+01  0.10001911107E+02  0.51100000000E-03 0.  1.
        -11    1    3    3    0    0 -0.11500794583E+02 -0.18860440423E+01 -0.72207856072E+01  0.13710039504E+02  0.51100000000E-03 0. -1.
        -12    1    3    3    0    0 -0.15377247815E+02  0.13143197014E+02 -0.13054407387E+02  0.24075317865E+02  0.00000000000E+00 0.  1.
</event>
<event>
 7    1  0.4083500E-009  0.4778727E+02  0.7816164E-02  0.1312668E+00
        -11   -1    0    0    0    0  0.00000000000E+00  0.00000000000E+00  0.45593999997E+02  0.45594000000E+02  0.51100000000E-03 0.  1.
         11   -1    0    0    0    0 -0.00000000000E+00 -0.00000000000E+00 -0.45593999997E+02  0.45594000000E+02  0.51100000000E-03 0. -1.
    9900012    2    1    2    0    0  0.96407281090E+01 -0.27591101501E+02 -0.32084430122E+02  0.47787272163E+02  0.20000005101E+02 0.  0.
        -12    1    1    2    0    0 -0.96407281090E+01  0.27591101501E+02  0.32084430122E+02  0.43400727837E+02  0.00000000000E+00 0.  1.
         11    1    3    3    0    0  0.24013836796E+01 -0.22610079917E+02 -0.25832457234E+02  0.34413633990E+02  0.51100000000E-03 0. -1.
        -11    1    3    3    0    0  0.58548001162E+01 -0.88637389906E+00 -0.67997130462E+01  0.90166757101E+01  0.51100000000E-03 0.  1.
        -12    1    3    3    0    0  0.13845443132E+01 -0.40946476850E+01  0.54774015798E+00  0.43569624625E+01  0.00000000000E+00 0.  1.
</event>
<event>
 7    1  0.4083500E-009  0.4778727E+02  0.7816164E-02  0.1312668E+00
        -11   -1    0    0    0    0  0.00000000000E+00  0.00000000000E+00  0.45593999997E+02  0.45594000000E+02  0.51100000000E-03 0.  1.
         11   -1    0    0    0    0 -0.00000000000E+00 -0.00000000000E+00 -0.45593999997E+02  0.45594000000E+02  0.51100000000E-03 0. -1.
    9900012    2    1    2    0    0  0.22142660216E+02 -0.17871710127E+02 -0.32770838386E+02  0.47787271056E+02  0.20000000053E+02 0.  0.
        -12    1    1    2    0    0 -0.22142660216E+02  0.17871710127E+02  0.32770838386E+02  0.43400728944E+02  0.00000000000E+00 0.  1.
         11    1    3    3    0    0 -0.23226474339E+00 -0.92852386100E+01 -0.11030708021E+02  0.14420337120E+02  0.51100000000E-03 0. -1.
        -11    1    3    3    0    0  0.89470562020E+01 -0.72578051070E+01 -0.74867714885E+01  0.13739625076E+02  0.51100000000E-03 0.  1.
        -12    1    3    3    0    0  0.13427868758E+02 -0.13286664100E+01 -0.14253358877E+02  0.19627308860E+02  0.00000000000E+00 0.  1.
</event>
<event>
 7    1  0.4083500E-009  0.4778727E+02  0.7816164E-02  0.1312668E+00
        -11   -1    0    0    0    0  0.00000000000E+00  0.00000000000E+00  0.45593999997E+02  0.45594000000E+02  0.51100000000E-03 0.  1.
         11   -1    0    0    0    0 -0.00000000000E+00 -0.00000000000E+00 -0.45593999997E+02  0.45594000000E+02  0.51100000000E-03 0. -1.
    9900012    2    1    2    0    0 -0.61771548137E+01  0.42432223375E+02 -0.67061436447E+01  0.47787272071E+02  0.20000004683E+02 0.  0.
        -12    1    1    2    0    0  0.61771548137E+01 -0.42432223375E+02  0.67061436447E+01  0.43400727929E+02  0.00000000000E+00 0.  1.
         11    1    3    3    0    0 -0.11300130566E+02  0.23743797099E+02 -0.70809094810E+01  0.27232336125E+02  0.51100000000E-03 0. -1.
        -11    1    3    3    0    0 -0.68994285563E+00  0.21477250987E+01  0.19095073382E+01  0.29554970444E+01  0.51100000000E-03 0.  1.
        -12    1    3    3    0    0  0.58129186084E+01  0.16540701177E+02 -0.15347415018E+01  0.17599438902E+02  0.00000000000E+00 0.  1.
</event>
<event>
 7    1  0.4083500E-009  0.4778727E+02  0.7816164E-02  0.1312668E+00
        -11   -1    0    0    0    0  0.00000000000E+00  0.00000000000E+00  0.45593999997E+02  0.45594000000E+02  0.51100000000E-03 0. -1.
         11   -1    0    0    0    0 -0.00000000000E+00 -0.00000000000E+00 -0.45593999997E+02  0.45594000000E+02  0.51100000000E-03 0.  1.
    9900012    2    1    2    0    0  0.24933741358E+02  0.23093815750E+01  0.35448533125E+02  0.47787271872E+02  0.20000003772E+02 0.  0.
        -12    1    1    2    0    0 -0.24933741358E+02 -0.23093815750E+01 -0.35448533125E+02  0.43400728128E+02  0.00000000000E+00 0.  1.
         11    1    3    3    0    0  0.32239737875E+01  0.48061674499E+01  0.36205062458E+01  0.68265158226E+01  0.51100000000E-03 0. -1.
        -11    1    3    3    0    0  0.17530506980E+02  0.12657689725E+01  0.14635078967E+02  0.22871519029E+02  0.51100000000E-03 0.  1.
        -12    1    3    3    0    0  0.41792605907E+01 -0.37625548474E+01  0.17192947912E+02  0.18089237020E+02  0.00000000000E+00 0.  1.
</event>
<event>
 7    1  0.4083500E-009  0.4778727E+02  0.7816164E-02  0.1312668E+00
        -11   -1    0    0    0    0  0.00000000000E+00  0.00000000000E+00  0.45593999997E+02  0.45594000000E+02  0.51100000000E-03 0.  1.
         11   -1    0    0    0    0 -0.00000000000E+00 -0.00000000000E+00 -0.45593999997E+02  0.45594000000E+02  0.51100000000E-03 0. -1.
    9900012    2    1    2    0    0 -0.33264400222E+01 -0.20908311201E+02 -0.37886678225E+02  0.47787273423E+02  0.20000010846E+02 0.  0.
        -12    1    1    2    0    0  0.33264400222E+01  0.20908311201E+02  0.37886678225E+02  0.43400726577E+02  0.00000000000E+00 0.  1.
         11    1    3    3    0    0  0.21505619891E+01 -0.83964576010E+00 -0.10408346311E+02  0.10661313008E+02  0.51100000000E-03 0. -1.
        -11    1    3    3    0    0  0.35208863202E+01 -0.18743681934E+01 -0.82641029832E+01  0.91763443147E+01  0.51100000000E-03 0.  1.
         12    1    3    3    0    0 -0.89978883314E+01 -0.18194297247E+02 -0.19214228931E+02  0.27949616100E+02  0.00000000000E+00 0. -1.
</event>
<event>
 7    1  0.4083500E-009  0.4778727E+02  0.7816164E-02  0.1312668E+00
        -11   -1    0    0    0    0  0.00000000000E+00  0.00000000000E+00  0.45593999997E+02  0.45594000000E+02  0.51100000000E-03 0.  1.
         11   -1    0    0    0    0 -0.00000000000E+00 -0.00000000000E+00 -0.45593999997E+02  0.45594000000E+02  0.51100000000E-03 0. -1.
    9900012    2    1    2    0    0 -0.40262210952E+02  0.10016710550E+02 -0.12737465427E+02  0.47787272512E+02  0.20000006693E+02 0.  0.
        -12    1    1    2    0    0  0.40262210952E+02 -0.10016710550E+02  0.12737465427E+02  0.43400727488E+02  0.00000000000E+00 0.  1.
         11    1    3    3    0    0 -0.78494018718E+01  0.38785682872E+01 -0.84318360862E+01  0.12155338817E+02  0.51100000000E-03 0. -1.
        -11    1    3    3    0    0 -0.99223726288E+01 -0.38016557691E+01 -0.28428805608E+01  0.10999456137E+02  0.51100000000E-03 0.  1.
         12    1    3    3    0    0 -0.22490436451E+02  0.99397980316E+01 -0.14627487799E+01  0.24632477558E+02  0.00000000000E+00 0. -1.
</event>
<event>
 7    1  0.4083500E-009  0.4778727E+02  0.7816164E-02  0.1312668E+00
        -11   -1    0    0    0    0  0.00000000000E+00  0.00000000000E+00  0.45593999997E+02  0.45594000000E+02  0.51100000000E-03 0.  1.
         11   -1    0    0    0    0 -0.00000000000E+00 -0.00000000000E+00 -0.45593999997E+02  0.45594000000E+02  0.51100000000E-03 0. -1.
    9900012    2    1    2    0    0  0.23406728432E+02  0.17095859163E+02 -0.32302941323E+02  0.47787270115E+02  0.19999995763E+02 0.  0.
        -12    1    1    2    0    0 -0.23406728432E+02 -0.17095859163E+02  0.32302941323E+02  0.43400729885E+02  0.00000000000E+00 0.  1.
         11    1    3    3    0    0  0.51518257920E+01  0.12801871675E+02 -0.15565251490E+02  0.20801593246E+02  0.51100000000E-03 0. -1.
        -11    1    3    3    0    0 -0.61563996408E-01 -0.16275089257E+01 -0.27291961828E+01  0.31782208064E+01  0.51100000000E-03 0.  1.
         12    1    3    3    0    0  0.18316466636E+02  0.59214964130E+01 -0.14008493651E+02  0.23807456063E+02  0.00000000000E+00 0. -1.
</event>
<event>
 7    1  0.4083500E-009  0.4778727E+02  0.7816164E-02  0.1312668E+00
        -11   -1    0    0    0    0  0.00000000000E+00  0.00000000000E+00  0.45593999997E+02  0.45594000000E+02  0.51100000000E-03 0.  1.
         11   -1    0    0    0    0 -0.00000000000E+00 -0.00000000000E+00 -0.45593999997E+02  0.45594000000E+02  0.51100000000E-03 0. -1.
    9900012    2    1    2    0    0  0.37063250457E+02  0.14033579480E+02 -0.17691729480E+02  0.47787272132E+02  0.20000004959E+02 0.  0.
        -12    1    1    2    0    0 -0.37063250457E+02 -0.14033579480E+02  0.17691729480E+02  0.43400727868E+02  0.00000000000E+00 0.  1.
         11    1    3    3    0    0  0.24744189537E+02  0.91682025282E+01 -0.10741072015E+02  0.28490375247E+02  0.51100000000E-03 0. -1.
        -11    1    3    3    0    0  0.93932098969E+01  0.17282125781E+01  0.16438241125E+01  0.96912986155E+01  0.51100000000E-03 0.  1.
         12    1    3    3    0    0  0.29258510231E+01  0.31371643732E+01 -0.85944815781E+01  0.96055982693E+01  0.00000000000E+00 0. -1.
</event>
<event>
 7    1  0.4083500E-009  0.4778727E+02  0.7816164E-02  0.1312668E+00
        -11   -1    0    0    0    0  0.00000000000E+00  0.00000000000E+00  0.45593999997E+02  0.45594000000E+02  0.51100000000E-03 0.  1.
         11   -1    0    0    0    0 -0.00000000000E+00 -0.00000000000E+00 -0.45593999997E+02  0.45594000000E+02  0.51100000000E-03 0. -1.
    9900012    2    1    2    0    0 -0.35255437043E+02 -0.23014178992E+02 -0.10536827412E+02  0.47787274112E+02  0.20000013985E+02 0.  0.
        -12    1    1    2    0    0  0.35255437043E+02  0.23014178992E+02  0.10536827412E+02  0.43400725888E+02  0.00000000000E+00 0.  1.
         11    1    3    3    0    0 -0.17718483056E+02 -0.42248252543E+01 -0.42853796972E+01  0.18712516390E+02  0.51100000000E-03 0. -1.
        -11    1    3    3    0    0 -0.58682981965E+01  0.43047692994E+00 -0.79519542583E+00  0.59375559059E+01  0.51100000000E-03 0.  1.
         12    1    3    3    0    0 -0.11668655790E+02 -0.19219830667E+02 -0.54562522885E+01  0.23137201816E+02  0.00000000000E+00 0. -1.
</event>
<event>
 7    1  0.4083500E-009  0.4778727E+02  0.7816164E-02  0.1312668E+00
        -11   -1    0    0    0    0  0.00000000000E+00  0.00000000000E+00  0.45593999997E+02  0.45594000000E+02  0.51100000000E-03 0.  1.
         11   -1    0    0    0    0 -0.00000000000E+00 -0.00000000000E+00 -0.45593999997E+02  0.45594000000E+02  0.51100000000E-03 0. -1.
    9900012    2    1    2    0    0  0.40131362370E+02  0.98580120715E+01  0.13263359082E+02  0.47787270262E+02  0.19999996432E+02 0.  0.
        -12    1    1    2    0    0 -0.40131362370E+02 -0.98580120715E+01 -0.13263359082E+02  0.43400729738E+02  0.00000000000E+00 0.  1.
         11    1    3    3    0    0  0.63636841185E+01  0.76306773836E+01  0.84418224189E+01  0.13037947649E+02  0.51100000000E-03 0. -1.
        -11    1    3    3    0    0  0.21149981505E+02  0.12488474478E+01  0.60515128364E+01  0.22034113222E+02  0.51100000000E-03 0.  1.
         12    1    3    3    0    0  0.12617696746E+02  0.97848724003E+00 -0.12299761731E+01  0.12715209390E+02  0.00000000000E+00 0. -1.
</event>
<event>
 7    1  0.4083500E-009  0.4778728E+02  0.7816164E-02  0.1312668E+00
        -11   -1    0    0    0    0  0.00000000000E+00  0.00000000000E+00  0.45593999997E+02  0.45594000000E+02  0.51100000000E-03 0.  1.
         11   -1    0    0    0    0 -0.00000000000E+00 -0.00000000000E+00 -0.45593999997E+02  0.45594000000E+02  0.51100000000E-03 0. -1.
    9900012    2    1    2    0    0 -0.23526850357E+02 -0.28048450011E+02 -0.23310827473E+02  0.47787275199E+02  0.20000018944E+02 0.  0.
        -12    1    1    2    0    0  0.23526850357E+02  0.28048450011E+02  0.23310827473E+02  0.43400724801E+02  0.00000000000E+00 0.  1.
         11    1    3    3    0    0 -0.90918731492E+01 -0.53575152652E+01 -0.11212443236E+02  0.15397532619E+02  0.51100000000E-03 0. -1.
        -11    1    3    3    0    0 -0.64103310246E+01 -0.26672130615E+01 -0.77110738153E+01  0.10376272404E+02  0.51100000000E-03 0.  1.
        -12    1    3    3    0    0 -0.80246461832E+01 -0.20023721684E+02 -0.43873104218E+01  0.22013470176E+02  0.00000000000E+00 0.  1.
</event>
<event>
 7    1  0.4083500E-009  0.4778727E+02  0.7816164E-02  0.1312668E+00
        -11   -1    0    0    0    0  0.00000000000E+00  0.00000000000E+00  0.45593999997E+02  0.45594000000E+02  0.51100000000E-03 0.  1.
         11   -1    0    0    0    0 -0.00000000000E+00 -0.00000000000E+00 -0.45593999997E+02  0.45594000000E+02  0.51100000000E-03 0. -1.
    9900012    2    1    2    0    0  0.24521613321E+02  0.12869679639E+02 -0.33416836470E+02  0.47787272662E+02  0.20000007373E+02 0.  0.
        -12    1    1    2    0    0 -0.24521613321E+02 -0.12869679639E+02  0.33416836470E+02  0.43400727338E+02  0.00000000000E+00 0.  1.
         11    1    3    3    0    0  0.63526904015E+01  0.58839450015E+01 -0.23963095130E+01  0.89844189384E+01  0.51100000000E-03 0. -1.
        -11    1    3    3    0    0  0.15875301179E+02  0.98047623577E+01 -0.20736332371E+02  0.27895412399E+02  0.51100000000E-03 0.  1.
         12    1    3    3    0    0  0.22936217398E+01 -0.28190277202E+01 -0.10284194585E+02  0.10907441324E+02  0.00000000000E+00 0. -1.
</event>
<event>
 7    1  0.4083500E-009  0.4778727E+02  0.7816164E-02  0.1312668E+00
        -11   -1    0    0    0    0  0.00000000000E+00  0.00000000000E+00  0.45593999997E+02  0.45594000000E+02  0.51100000000E-03 0.  1.
         11   -1    0    0    0    0 -0.00000000000E+00 -0.00000000000E+00 -0.45593999997E+02  0.45594000000E+02  0.51100000000E-03 0. -1.
    9900012    2    1    2    0    0  0.10356119928E+02  0.14119827817E+02 -0.39711520932E+02  0.47787266685E+02  0.19999980124E+02 0.  0.
        -12    1    1    2    0    0 -0.10356119928E+02 -0.14119827817E+02  0.39711520932E+02  0.43400733315E+02  0.00000000000E+00 0.  1.
         11    1    3    3    0    0  0.71365405241E+00  0.11955461284E+02 -0.23839162728E+02  0.26678606344E+02  0.51100000000E-03 0. -1.
        -11    1    3    3    0    0 -0.62164509075E+00 -0.34256434527E+00 -0.77479512629E+01  0.77803947189E+01  0.51100000000E-03 0.  1.
        -12    1    3    3    0    0  0.10264110966E+02  0.25069308780E+01 -0.81244069414E+01  0.13328265623E+02  0.00000000000E+00 0.  1.
</event>
<event>
 7    1  0.4083500E-009  0.4778726E+02  0.7816164E-02  0.1312668E+00
        -11   -1    0    0    0    0  0.00000000000E+00  0.00000000000E+00  0.45593999997E+02  0.45594000000E+02  0.51100000000E-03 0.  1.
         11   -1    0    0    0    0 -0.00000000000E+00 -0.00000000000E+00 -0.45593999997E+02  0.45594000000E+02  0.51100000000E-03 0. -1.
    9900012    2    1    2    0    0 -0.18897246168E+02  0.17143890390E+02 -0.35108473767E+02  0.47787264745E+02  0.19999971278E+02 0.  0.
        -12    1    1    2    0    0  0.18897246168E+02 -0.17143890390E+02  0.35108473767E+02  0.43400735255E+02  0.00000000000E+00 0.  1.
         11    1    3    3    0    0 -0.96139672023E+01  0.90636477804E+01 -0.73439086643E+01  0.15116582656E+02  0.51100000000E-03 0. -1.
        -11    1    3    3    0    0 -0.29371071054E+01  0.90746729338E+01 -0.10183070480E+02  0.13952462567E+02  0.51100000000E-03 0.  1.
        -12    1    3    3    0    0 -0.63461718600E+01 -0.99443032411E+00 -0.17581494622E+02  0.18718219523E+02  0.00000000000E+00 0.  1.
</event>
<event>
 7    1  0.4083500E-009  0.4778727E+02  0.7816164E-02  0.1312668E+00
        -11   -1    0    0    0    0  0.00000000000E+00  0.00000000000E+00  0.45593999997E+02  0.45594000000E+02  0.51100000000E-03 0.  1.
         11   -1    0    0    0    0 -0.00000000000E+00 -0.00000000000E+00 -0.45593999997E+02  0.45594000000E+02  0.51100000000E-03 0. -1.
    9900012    2    1    2    0    0  0.18235125402E+02  0.46563696168E+01 -0.39107820858E+02  0.47787271564E+02  0.20000002371E+02 0.  0.
        -12    1    1    2    0    0 -0.18235125402E+02 -0.46563696168E+01  0.39107820858E+02  0.43400728436E+02  0.00000000000E+00 0.  1.
         11    1    3    3    0    0 -0.22947986701E+01  0.29390871350E+01 -0.50717137561E+01  0.62949674192E+01  0.51100000000E-03 0.  1.
        -11    1    3    3    0    0  0.87742304687E+01  0.60454484297E+01 -0.11285957277E+02  0.15521191931E+02  0.51100000000E-03 0. -1.
        -12    1    3    3    0    0  0.11755693604E+02 -0.43281659479E+01 -0.22750149825E+02  0.25971112214E+02  0.00000000000E+00 0.  1.
</event>
<event>
 7    1  0.4083500E-009  0.4778726E+02  0.7816164E-02  0.1312668E+00
        -11   -1    0    0    0    0  0.00000000000E+00  0.00000000000E+00  0.45593999997E+02  0.45594000000E+02  0.51100000000E-03 0.  1.
         11   -1    0    0    0    0 -0.00000000000E+00 -0.00000000000E+00 -0.45593999997E+02  0.45594000000E+02  0.51100000000E-03 0. -1.
    9900012    2    1    2    0    0 -0.24615951501E+02  0.34549486528E+02 -0.91658315357E+01  0.47787256280E+02  0.19999932684E+02 0.  0.
        -12    1    1    2    0    0  0.24615951501E+02 -0.34549486528E+02  0.91658315357E+01  0.43400743720E+02  0.00000000000E+00 0.  1.
         11    1    3    3    0    0 -0.34811128831E+01  0.20357657201E+02 -0.69364090281E+01  0.21786833732E+02  0.51100000000E-03 0. -1.
        -11    1    3    3    0    0 -0.14865860168E+02  0.12272634643E+02 -0.25000738840E+01  0.19438665831E+02  0.51100000000E-03 0.  1.
         12    1    3    3    0    0 -0.62689784498E+01  0.19191946849E+01  0.27065137642E+00  0.65617567168E+01  0.00000000000E+00 0. -1.
</event>
<event>
 7    1  0.4083500E-009  0.4778727E+02  0.7816164E-02  0.1312668E+00
        -11   -1    0    0    0    0  0.00000000000E+00  0.00000000000E+00  0.45593999997E+02  0.45594000000E+02  0.51100000000E-03 0. -1.
         11   -1    0    0    0    0 -0.00000000000E+00 -0.00000000000E+00 -0.45593999997E+02  0.45594000000E+02  0.51100000000E-03 0.  1.
    9900012    2    1    2    0    0  0.35499365725E+02  0.18751675930E+02  0.16486142970E+02  0.47787271583E+02  0.20000002458E+02 0.  0.
        -12    1    1    2    0    0 -0.35499365725E+02 -0.18751675930E+02 -0.16486142970E+02  0.43400728417E+02  0.00000000000E+00 0.  1.
         11    1    3    3    0    0  0.19743872718E+02  0.12145566361E+02  0.14974290648E+01  0.23228809401E+02  0.51100000000E-03 0. -1.
        -11    1    3    3    0    0  0.91075730071E+01  0.29942088634E+01  0.24192408815E+01  0.98876640063E+01  0.51100000000E-03 0.  1.
        -12    1    3    3    0    0  0.66479200002E+01  0.36119007054E+01  0.12569473024E+02  0.14670798176E+02  0.00000000000E+00 0.  1.
</event>
<event>
 7    1  0.4083500E-009  0.4778727E+02  0.7816164E-02  0.1312668E+00
        -11   -1    0    0    0    0  0.00000000000E+00  0.00000000000E+00  0.45593999997E+02  0.45594000000E+02  0.51100000000E-03 0.  1.
         11   -1    0    0    0    0 -0.00000000000E+00 -0.00000000000E+00 -0.45593999997E+02  0.45594000000E+02  0.51100000000E-03 0. -1.
    9900012    2    1    2    0    0 -0.72243486946E+01 -0.23592080023E+02 -0.35704978407E+02  0.47787274926E+02  0.20000017698E+02 0.  0.
        -12    1    1    2    0    0  0.72243486946E+01  0.23592080023E+02  0.35704978407E+02  0.43400725074E+02  0.00000000000E+00 0.  1.
         11    1    3    3    0    0 -0.87887593665E+00 -0.43236715360E+01 -0.53428953619E+00  0.44443249243E+01  0.51100000000E-03 0. -1.
        -11    1    3    3    0    0 -0.25280288574E+00  0.25429455238E+01 -0.50371823392E+01  0.56483349241E+01  0.51100000000E-03 0.  1.
         12    1    3    3    0    0 -0.60926698722E+01 -0.21811354011E+02 -0.30133506532E+02  0.37694615078E+02  0.00000000000E+00 0. -1.
</event>
<event>
 7    1  0.4083500E-009  0.4778733E+02  0.7816164E-02  0.1312668E+00
        -11   -1    0    0    0    0  0.00000000000E+00  0.00000000000E+00  0.45593999997E+02  0.45594000000E+02  0.51100000000E-03 0.  1.
         11   -1    0    0    0    0 -0.00000000000E+00 -0.00000000000E+00 -0.45593999997E+02  0.45594000000E+02  0.51100000000E-03 0. -1.
    9900012    2    1    2    0    0  0.38112580280E+01  0.19997435192E+02 -0.38330084385E+02  0.47787326376E+02  0.20000252277E+02 0.  0.
        -12    1    1    2    0    0 -0.38112580280E+01 -0.19997435192E+02  0.38330084385E+02  0.43400673624E+02  0.00000000000E+00 0.  1.
         11    1    3    3    0    0 -0.10672842140E+01 -0.33580572513E+00 -0.90460885831E+00  0.14388114978E+01  0.51100000000E-03 0. -1.
        -11    1    3    3    0    0  0.94981144409E+01  0.40739907953E+01 -0.12283239998E+02  0.16052712046E+02  0.51100000000E-03 0.  1.
         12    1    3    3    0    0 -0.46195721989E+01  0.16259250122E+02 -0.25142235529E+02  0.30295802832E+02  0.00000000000E+00 0. -1.
</event>
<event>
 7    1  0.4083500E-009  0.4778730E+02  0.7816164E-02  0.1312668E+00
        -11   -1    0    0    0    0  0.00000000000E+00  0.00000000000E+00  0.45593999997E+02  0.45594000000E+02  0.51100000000E-03 0. -1.
         11   -1    0    0    0    0 -0.00000000000E+00 -0.00000000000E+00 -0.45593999997E+02  0.45594000000E+02  0.51100000000E-03 0.  1.
    9900012    2    1    2    0    0  0.90829401633E+01 -0.34042947936E+02  0.25341636063E+02  0.47787301566E+02  0.20000139161E+02 0.  0.
        -12    1    1    2    0    0 -0.90829401633E+01  0.34042947936E+02 -0.25341636063E+02  0.43400698434E+02  0.00000000000E+00 0.  1.
         11    1    3    3    0    0  0.69276304412E+00 -0.14888949991E+02  0.14046862977E+02  0.20481091578E+02  0.51100000000E-03 0. -1.
        -11    1    3    3    0    0  0.91099960180E+01 -0.20984209296E+02  0.10672456830E+02  0.25243422951E+02  0.51100000000E-03 0.  1.
         12    1    3    3    0    0 -0.71981889887E+00  0.18302113515E+01  0.62231625670E+00  0.20627870374E+01  0.00000000000E+00 0. -1.
</event>
<event>
 7    1  0.4083500E-009  0.4778727E+02  0.7816164E-02  0.1312668E+00
        -11   -1    0    0    0    0  0.00000000000E+00  0.00000000000E+00  0.45593999997E+02  0.45594000000E+02  0.51100000000E-03 0.  1.
         11   -1    0    0    0    0 -0.00000000000E+00 -0.00000000000E+00 -0.45593999997E+02  0.45594000000E+02  0.51100000000E-03 0. -1.
    9900012    2    1    2    0    0  0.38127896204E+02  0.19593767973E+02 -0.67801855706E+01  0.47787272717E+02  0.20000007627E+02 0.  0.
        -12    1    1    2    0    0 -0.38127896204E+02 -0.19593767973E+02  0.67801855706E+01  0.43400727283E+02  0.00000000000E+00 0.  1.
         11    1    3    3    0    0  0.11885743889E+02  0.10665121387E+02 -0.48690526360E+01  0.16695011106E+02  0.51100000000E-03 0. -1.
        -11    1    3    3    0    0 -0.17309753193E+01  0.75556252010E+00 -0.29705524261E-01  0.18889237563E+01  0.51100000000E-03 0.  1.
         12    1    3    3    0    0  0.27973127634E+02  0.81730840654E+01 -0.18814274104E+01  0.29203337855E+02  0.00000000000E+00 0. -1.
</event>
<event>
 7    1  0.4083500E-009  0.4778727E+02  0.7816164E-02  0.1312668E+00
        -11   -1    0    0    0    0  0.00000000000E+00  0.00000000000E+00  0.45593999997E+02  0.45594000000E+02  0.51100000000E-03 0.  1.
         11   -1    0    0    0    0 -0.00000000000E+00 -0.00000000000E+00 -0.45593999997E+02  0.45594000000E+02  0.51100000000E-03 0. -1.
    9900012    2    1    2    0    0  0.91524413799E+01 -0.38505102624E+01 -0.42249615341E+02  0.47787267184E+02  0.19999982399E+02 0.  0.
        -12    1    1    2    0    0 -0.91524413799E+01  0.38505102624E+01  0.42249615341E+02  0.43400732816E+02  0.00000000000E+00 0.  1.
         11    1    3    3    0    0  0.63856660081E+01 -0.23734785551E+01 -0.75766054225E+01  0.10188968584E+02  0.51100000000E-03 0. -1.
        -11    1    3    3    0    0  0.16663512049E+01 -0.73307533706E+01 -0.12036976249E+02  0.14191739456E+02  0.51100000000E-03 0.  1.
         12    1    3    3    0    0  0.11004241669E+01  0.58537216632E+01 -0.22636033670E+02  0.23406559144E+02  0.00000000000E+00 0. -1.
</event>
<event>
 7    1  0.4083500E-009  0.4778727E+02  0.7816164E-02  0.1312668E+00
        -11   -1    0    0    0    0  0.00000000000E+00  0.00000000000E+00  0.45593999997E+02  0.45594000000E+02  0.51100000000E-03 0.  1.
         11   -1    0    0    0    0 -0.00000000000E+00 -0.00000000000E+00 -0.45593999997E+02  0.45594000000E+02  0.51100000000E-03 0. -1.
    9900012    2    1    2    0    0 -0.18899372504E+02 -0.62831271216E+01 -0.38561115010E+02  0.47787267768E+02  0.19999985061E+02 0.  0.
        -12    1    1    2    0    0  0.18899372504E+02  0.62831271216E+01  0.38561115010E+02  0.43400732232E+02  0.00000000000E+00 0.  1.
         11    1    3    3    0    0 -0.21225902810E+01  0.19855020069E+01 -0.48661017507E+01  0.56680291310E+01  0.51100000000E-03 0. -1.
        -11    1    3    3    0    0 -0.11837641163E+02 -0.39961419808E+01 -0.63689575597E+01  0.14023641456E+02  0.51100000000E-03 0.  1.
         12    1    3    3    0    0 -0.49391410597E+01 -0.42724871477E+01 -0.27326055699E+02  0.28095597180E+02  0.00000000000E+00 0. -1.
</event>
<event>
 7    1  0.4083500E-009  0.4778727E+02  0.7816164E-02  0.1312668E+00
        -11   -1    0    0    0    0  0.00000000000E+00  0.00000000000E+00  0.45593999997E+02  0.45594000000E+02  0.51100000000E-03 0.  1.
         11   -1    0    0    0    0 -0.00000000000E+00 -0.00000000000E+00 -0.45593999997E+02  0.45594000000E+02  0.51100000000E-03 0. -1.
    9900012    2    1    2    0    0 -0.17201974400E+02 -0.28402415984E+02 -0.27946703295E+02  0.47787269798E+02  0.19999994319E+02 0.  0.
        -12    1    1    2    0    0  0.17201974400E+02  0.28402415984E+02  0.27946703295E+02  0.43400730202E+02  0.00000000000E+00 0.  1.
         11    1    3    3    0    0 -0.28010216675E+01 -0.10569937256E+02 -0.10620348930E+02  0.15243395542E+02  0.51100000000E-03 0. -1.
        -11    1    3    3    0    0 -0.84585221356E+01 -0.95643140993E+01 -0.18301504877E+02  0.22315191729E+02  0.51100000000E-03 0.  1.
        -12    1    3    3    0    0 -0.59424305970E+01 -0.82681646283E+01  0.97515051195E+00  0.10228682527E+02  0.00000000000E+00 0.  1.
</event>
<event>
 7    1  0.4083500E-009  0.4778727E+02  0.7816164E-02  0.1312668E+00
        -11   -1    0    0    0    0  0.00000000000E+00  0.00000000000E+00  0.45593999997E+02  0.45594000000E+02  0.51100000000E-03 0. -1.
         11   -1    0    0    0    0 -0.00000000000E+00 -0.00000000000E+00 -0.45593999997E+02  0.45594000000E+02  0.51100000000E-03 0.  1.
    9900012    2    1    2    0    0  0.38173173499E+02 -0.47925654427E+01  0.20086404335E+02  0.47787268467E+02  0.19999988247E+02 0.  0.
        -12    1    1    2    0    0 -0.38173173499E+02  0.47925654427E+01 -0.20086404335E+02  0.43400731533E+02  0.00000000000E+00 0.  1.
         11    1    3    3    0    0  0.19801537035E+02  0.22406108614E+01  0.98078540145E+01  0.22210700273E+02  0.51100000000E-03 0. -1.
        -11    1    3    3    0    0  0.18961238345E+02 -0.51605220522E+01  0.54934233128E+01  0.20404343836E+02  0.51100000000E-03 0.  1.
         12    1    3    3    0    0 -0.58960188120E+00 -0.18726542519E+01  0.47851270077E+01  0.51722243576E+01  0.00000000000E+00 0. -1.
</event>
<event>
 7    1  0.4083500E-009  0.4778727E+02  0.7816164E-02  0.1312668E+00
        -11   -1    0    0    0    0  0.00000000000E+00  0.00000000000E+00  0.45593999997E+02  0.45594000000E+02  0.51100000000E-03 0.  1.
         11   -1    0    0    0    0 -0.00000000000E+00 -0.00000000000E+00 -0.45593999997E+02  0.45594000000E+02  0.51100000000E-03 0. -1.
    9900012    2    1    2    0    0  0.16969995084E+02 -0.21607512039E+02 -0.33596993700E+02  0.47787270797E+02  0.19999998872E+02 0.  0.
        -12    1    1    2    0    0 -0.16969995084E+02  0.21607512039E+02  0.33596993700E+02  0.43400729203E+02  0.00000000000E+00 0.  1.
         11    1    3    3    0    0  0.12902965382E+02 -0.90383102082E+01 -0.17671659229E+02  0.23674144277E+02  0.51100000000E-03 0. -1.
        -11    1    3    3    0    0  0.32860592928E+01  0.86073946489E+00 -0.17744074568E+00  0.34015501733E+01  0.51100000000E-03 0.  1.
         12    1    3    3    0    0  0.78097040848E+00 -0.13429941296E+02 -0.15747893725E+02  0.20711576347E+02  0.00000000000E+00 0. -1.
</event>
<event>
 7    1  0.4083500E-009  0.4778727E+02  0.7816164E-02  0.1312668E+00
        -11   -1    0    0    0    0  0.00000000000E+00  0.00000000000E+00  0.45593999997E+02  0.45594000000E+02  0.51100000000E-03 0. -1.
         11   -1    0    0    0    0 -0.00000000000E+00 -0.00000000000E+00 -0.45593999997E+02  0.45594000000E+02  0.51100000000E-03 0.  1.
    9900012    2    1    2    0    0  0.36507297807E+02  0.21448511144E+02 -0.95289981224E+01  0.47787271565E+02  0.20000002373E+02 0.  0.
        -12    1    1    2    0    0 -0.36507297807E+02 -0.21448511144E+02  0.95289981224E+01  0.43400728435E+02  0.00000000000E+00 0.  1.
         11    1    3    3    0    0  0.12125480085E+02  0.88265297896E+01 -0.90540842754E+01  0.17518885174E+02  0.51100000000E-03 0. -1.
        -11    1    3    3    0    0  0.32408364995E+01 -0.22468566162E+01  0.17748230079E+01  0.43245095492E+01  0.51100000000E-03 0.  1.
         12    1    3    3    0    0  0.21140981223E+02  0.14868837971E+02 -0.22497368550E+01  0.25943876842E+02  0.00000000000E+00 0. -1.
</event>
<event>
 7    1  0.4083500E-009  0.4778727E+02  0.7816164E-02  0.1312668E+00
        -11   -1    0    0    0    0  0.00000000000E+00  0.00000000000E+00  0.45593999997E+02  0.45594000000E+02  0.51100000000E-03 0.  1.
         11   -1    0    0    0    0 -0.00000000000E+00 -0.00000000000E+00 -0.45593999997E+02  0.45594000000E+02  0.51100000000E-03 0. -1.
    9900012    2    1    2    0    0  0.20682518552E+02  0.31790222880E+02 -0.21100680305E+02  0.47787267820E+02  0.19999985299E+02 0.  0.
        -12    1    1    2    0    0 -0.20682518552E+02 -0.31790222880E+02  0.21100680305E+02  0.43400732180E+02  0.00000000000E+00 0.  1.
         11    1    3    3    0    0  0.47079463906E+01  0.22369088787E+01  0.48795196487E+00  0.52351330384E+01  0.51100000000E-03 0. -1.
        -11    1    3    3    0    0  0.99547811581E+01  0.16331908163E+02 -0.36550195377E+01  0.19472751738E+02  0.51100000000E-03 0.  1.
        -12    1    3    3    0    0  0.60197910032E+01  0.13221405838E+02 -0.17933612732E+02  0.23079383044E+02  0.00000000000E+00 0.  1.
</event>
<event>
 7    1  0.4083500E-009  0.4778727E+02  0.7816164E-02  0.1312668E+00
        -11   -1    0    0    0    0  0.00000000000E+00  0.00000000000E+00  0.45593999997E+02  0.45594000000E+02  0.51100000000E-03 0.  1.
         11   -1    0    0    0    0 -0.00000000000E+00 -0.00000000000E+00 -0.45593999997E+02  0.45594000000E+02  0.51100000000E-03 0. -1.
    9900012    2    1    2    0    0 -0.16048017591E+02 -0.21735945441E+02 -0.33965179127E+02  0.47787267449E+02  0.19999983606E+02 0.  0.
        -12    1    1    2    0    0  0.16048017591E+02  0.21735945441E+02  0.33965179127E+02  0.43400732551E+02  0.00000000000E+00 0.  1.
         11    1    3    3    0    0 -0.10134185672E+02 -0.16098579010E+02 -0.30617224937E+02  0.36045532712E+02  0.51100000000E-03 0. -1.
        -11    1    3    3    0    0 -0.32839064106E+00 -0.14120182472E+01 -0.44244183478E+01  0.46558687611E+01  0.51100000000E-03 0.  1.
        -12    1    3    3    0    0 -0.55854412778E+01 -0.42253481843E+01  0.10764641573E+01  0.70858659759E+01  0.00000000000E+00 0.  1.
</event>
<event>
 7    1  0.4083500E-009  0.4778726E+02  0.7816164E-02  0.1312668E+00
        -11   -1    0    0    0    0  0.00000000000E+00  0.00000000000E+00  0.45593999997E+02  0.45594000000E+02  0.51100000000E-03 0.  1.
         11   -1    0    0    0    0 -0.00000000000E+00 -0.00000000000E+00 -0.45593999997E+02  0.45594000000E+02  0.51100000000E-03 0. -1.
    9900012    2    1    2    0    0  0.35422223845E+02  0.89505650720E+01 -0.23426001990E+02  0.47787261222E+02  0.19999955213E+02 0.  0.
        -12    1    1    2    0    0 -0.35422223845E+02 -0.89505650720E+01  0.23426001990E+02  0.43400738778E+02  0.00000000000E+00 0.  1.
         11    1    3    3    0    0  0.14881953473E+02  0.88848830156E+01 -0.11353992634E+02  0.20720203532E+02  0.51100000000E-03 0. -1.
        -11    1    3    3    0    0  0.18596610322E+02  0.47160995008E+01 -0.96155318979E+01  0.21460055077E+02  0.51100000000E-03 0.  1.
        -12    1    3    3    0    0  0.19436600494E+01 -0.46504174443E+01 -0.24564774582E+01  0.56070026125E+01  0.00000000000E+00 0.  1.
</event>
<event>
 7    1  0.4083500E-009  0.4778726E+02  0.7816164E-02  0.1312668E+00
        -11   -1    0    0    0    0  0.00000000000E+00  0.00000000000E+00  0.45593999997E+02  0.45594000000E+02  0.51100000000E-03 0.  1.
         11   -1    0    0    0    0 -0.00000000000E+00 -0.00000000000E+00 -0.45593999997E+02  0.45594000000E+02  0.51100000000E-03 0. -1.
    9900012    2    1    2    0    0 -0.15631995532E+02  0.15749006844E+02 -0.37299239996E+02  0.47787264924E+02  0.19999972095E+02 0.  0.
        -12    1    1    2    0    0  0.15631995532E+02 -0.15749006844E+02  0.37299239996E+02  0.43400735076E+02  0.00000000000E+00 0.  1.
         11    1    3    3    0    0 -0.15685949752E+02  0.46879054436E+01 -0.28398407053E+02  0.32779490546E+02  0.51100000000E-03 0. -1.
        -11    1    3    3    0    0 -0.12577746735E+01  0.56215262483E+01 -0.19435774489E+01  0.60795598567E+01  0.51100000000E-03 0.  1.
        -12    1    3    3    0    0  0.13117288942E+01  0.54395751519E+01 -0.69572554939E+01  0.89282145210E+01  0.00000000000E+00 0.  1.
</event>
<event>
 7    1  0.4083500E-009  0.4778727E+02  0.7816164E-02  0.1312668E+00
        -11   -1    0    0    0    0  0.00000000000E+00  0.00000000000E+00  0.45593999997E+02  0.45594000000E+02  0.51100000000E-03 0. -1.
         11   -1    0    0    0    0 -0.00000000000E+00 -0.00000000000E+00 -0.45593999997E+02  0.45594000000E+02  0.51100000000E-03 0.  1.
    9900012    2    1    2    0    0  0.21774678674E+02 -0.37535458105E+02 -0.75900928073E+00  0.47787270264E+02  0.19999996442E+02 0.  0.
        -12    1    1    2    0    0 -0.21774678674E+02  0.37535458105E+02  0.75900928073E+00  0.43400729736E+02  0.00000000000E+00 0.  1.
         11    1    3    3    0    0  0.24302376220E+02 -0.26462907908E+02 -0.12170571886E+01  0.35949578764E+02  0.51100000000E-03 0. -1.
        -11    1    3    3    0    0 -0.11352738462E+01 -0.60282230411E+01 -0.13868687075E+01  0.62890162039E+01  0.51100000000E-03 0.  1.
         12    1    3    3    0    0 -0.13924236998E+01 -0.50443271563E+01  0.18449166154E+01  0.55486752957E+01  0.00000000000E+00 0. -1.
</event>
<event>
 7    1  0.4083500E-009  0.4778727E+02  0.7816164E-02  0.1312668E+00
        -11   -1    0    0    0    0  0.00000000000E+00  0.00000000000E+00  0.45593999997E+02  0.45594000000E+02  0.51100000000E-03 0. -1.
         11   -1    0    0    0    0 -0.00000000000E+00 -0.00000000000E+00 -0.45593999997E+02  0.45594000000E+02  0.51100000000E-03 0.  1.
    9900012    2    1    2    0    0  0.21620829757E+02 -0.98194334333E+01  0.36328251709E+02  0.47787269309E+02  0.19999992085E+02 0.  0.
        -12    1    1    2    0    0 -0.21620829757E+02  0.98194334333E+01 -0.36328251709E+02  0.43400730691E+02  0.00000000000E+00 0.  1.
         11    1    3    3    0    0  0.97638856270E+01 -0.70098391745E+01  0.12997149086E+02  0.17703027775E+02  0.51100000000E-03 0.  1.
        -11    1    3    3    0    0  0.11436794390E+02 -0.78826540767E+01  0.16591749738E+02  0.21638453291E+02  0.51100000000E-03 0. -1.
        -12    1    3    3    0    0  0.42014974019E+00  0.50730598179E+01  0.67393528853E+01  0.84457882422E+01  0.00000000000E+00 0.  1.
</event>
<event>
 7    1  0.4083500E-009  0.4778729E+02  0.7816164E-02  0.1312668E+00
        -11   -1    0    0    0    0  0.00000000000E+00  0.00000000000E+00  0.45593999997E+02  0.45594000000E+02  0.51100000000E-03 0.  1.
         11   -1    0    0    0    0 -0.00000000000E+00 -0.00000000000E+00 -0.45593999997E+02  0.45594000000E+02  0.51100000000E-03 0. -1.
    9900012    2    1    2    0    0 -0.12069919451E+02 -0.76284022982E+01 -0.40984711483E+02  0.47787285115E+02  0.20000064153E+02 0.  0.
        -12    1    1    2    0    0  0.12069919451E+02  0.76284022982E+01  0.40984711483E+02  0.43400714885E+02  0.00000000000E+00 0.  1.
         11    1    3    3    0    0 -0.14230878385E+01  0.50521071446E+01 -0.10469699499E+02  0.11711685338E+02  0.51100000000E-03 0.  1.
        -11    1    3    3    0    0 -0.85320459558E+01 -0.25827036008E+01 -0.14767402769E+02  0.17249415958E+02  0.51100000000E-03 0. -1.
        -12    1    3    3    0    0 -0.21147856562E+01 -0.10097805842E+02 -0.15747609215E+02  0.18826183819E+02  0.00000000000E+00 0.  1.
</event>
<event>
 7    1  0.4083500E-009  0.4778727E+02  0.7816164E-02  0.1312668E+00
        -11   -1    0    0    0    0  0.00000000000E+00  0.00000000000E+00  0.45593999997E+02  0.45594000000E+02  0.51100000000E-03 0.  1.
         11   -1    0    0    0    0 -0.00000000000E+00 -0.00000000000E+00 -0.45593999997E+02  0.45594000000E+02  0.51100000000E-03 0. -1.
    9900012    2    1    2    0    0 -0.10683404181E+02  0.32390696817E+02 -0.26838982816E+02  0.47787270008E+02  0.19999995277E+02 0.  0.
        -12    1    1    2    0    0  0.10683404181E+02 -0.32390696817E+02  0.26838982816E+02  0.43400729992E+02  0.00000000000E+00 0.  1.
         11    1    3    3    0    0 -0.18397836171E+01  0.16537308023E+02 -0.13043077697E+02  0.21142119961E+02  0.51100000000E-03 0. -1.
        -11    1    3    3    0    0 -0.10855250950E+02  0.16706189968E+02 -0.10064250255E+02  0.22320895813E+02  0.51100000000E-03 0.  1.
        -12    1    3    3    0    0  0.20116303865E+01 -0.85280117354E+00 -0.37316548648E+01  0.43242542344E+01  0.00000000000E+00 0.  1.
</event>
<event>
 7    1  0.4083500E-009  0.4778728E+02  0.7816164E-02  0.1312668E+00
        -11   -1    0    0    0    0  0.00000000000E+00  0.00000000000E+00  0.45593999997E+02  0.45594000000E+02  0.51100000000E-03 0.  1.
         11   -1    0    0    0    0 -0.00000000000E+00 -0.00000000000E+00 -0.45593999997E+02  0.45594000000E+02  0.51100000000E-03 0. -1.
    9900012    2    1    2    0    0 -0.11881921614E+02 -0.29040144644E+02 -0.29985209553E+02  0.47787275880E+02  0.20000022047E+02 0.  0.
        -12    1    1    2    0    0  0.11881921614E+02  0.29040144644E+02  0.29985209553E+02  0.43400724120E+02  0.00000000000E+00 0.  1.
         11    1    3    3    0    0 -0.67914806904E+01 -0.24810073632E+02 -0.24167177123E+02  0.35294708016E+02  0.51100000000E-03 0. -1.
        -11    1    3    3    0    0 -0.90301911640E+00 -0.57465424398E+01 -0.55356836312E+01  0.80300676873E+01  0.51100000000E-03 0.  1.
        -12    1    3    3    0    0 -0.41874218073E+01  0.15164714275E+01 -0.28234879923E+00  0.44625001768E+01  0.00000000000E+00 0.  1.
</event>
<event>
 7    1  0.4083500E-009  0.4778727E+02  0.7816164E-02  0.1312668E+00
        -11   -1    0    0    0    0  0.00000000000E+00  0.00000000000E+00  0.45593999997E+02  0.45594000000E+02  0.51100000000E-03 0. -1.
         11   -1    0    0    0    0 -0.00000000000E+00 -0.00000000000E+00 -0.45593999997E+02  0.45594000000E+02  0.51100000000E-03 0.  1.
    9900012    2    1    2    0    0 -0.42175712391E+02 -0.57035459395E+01 -0.85030596826E+01  0.47787272172E+02  0.20000005143E+02 0.  0.
        -12    1    1    2    0    0  0.42175712391E+02  0.57035459395E+01  0.85030596826E+01  0.43400727828E+02  0.00000000000E+00 0.  1.
         11    1    3    3    0    0 -0.26198181346E+02  0.50014060659E+00 -0.77035338721E+01  0.27311889002E+02  0.51100000000E-03 0. -1.
        -11    1    3    3    0    0 -0.17571200706E+02 -0.66613265397E+01 -0.55775573807E+00  0.18799772798E+02  0.51100000000E-03 0.  1.
        -12    1    3    3    0    0  0.15936696611E+01  0.45763999366E+00 -0.24177007250E+00  0.16756103725E+01  0.00000000000E+00 0.  1.
</event>
<event>
 7    1  0.4083500E-009  0.4778727E+02  0.7816164E-02  0.1312668E+00
        -11   -1    0    0    0    0  0.00000000000E+00  0.00000000000E+00  0.45593999997E+02  0.45594000000E+02  0.51100000000E-03 0.  1.
         11   -1    0    0    0    0 -0.00000000000E+00 -0.00000000000E+00 -0.45593999997E+02  0.45594000000E+02  0.51100000000E-03 0. -1.
    9900012    2    1    2    0    0  0.13767989409E+02 -0.31041760433E+02 -0.27027295129E+02  0.47787272989E+02  0.20000008864E+02 0.  0.
        -12    1    1    2    0    0 -0.13767989409E+02  0.31041760433E+02  0.27027295129E+02  0.43400727011E+02  0.00000000000E+00 0.  1.
         11    1    3    3    0    0  0.30194085476E+01 -0.15675475392E+02 -0.10871486493E+02  0.19313895919E+02  0.51100000000E-03 0. -1.
        -11    1    3    3    0    0 -0.22658560595E+01 -0.82838983051E+01 -0.67494592316E+01  0.10923015838E+02  0.51100000000E-03 0.  1.
        -12    1    3    3    0    0  0.13014436921E+02 -0.70823867355E+01 -0.94063494044E+01  0.17550361232E+02  0.00000000000E+00 0.  1.
</event>
<event>
 7    1  0.4083500E-009  0.4778727E+02  0.7816164E-02  0.1312668E+00
        -11   -1    0    0    0    0  0.00000000000E+00  0.00000000000E+00  0.45593999997E+02  0.45594000000E+02  0.51100000000E-03 0.  1.
         11   -1    0    0    0    0 -0.00000000000E+00 -0.00000000000E+00 -0.45593999997E+02  0.45594000000E+02  0.51100000000E-03 0. -1.
    9900012    2    1    2    0    0  0.85424025737E+01  0.28901277830E+02 -0.31230861909E+02  0.47787271463E+02  0.20000001910E+02 0.  0.
        -12    1    1    2    0    0 -0.85424025737E+01 -0.28901277830E+02  0.31230861909E+02  0.43400728537E+02  0.00000000000E+00 0.  1.
         11    1    3    3    0    0  0.32373417005E+01  0.13030429503E+02 -0.11216040443E+02  0.17494914626E+02  0.51100000000E-03 0.  1.
        -11    1    3    3    0    0  0.92117923936E+01  0.16156884603E+02 -0.18020442345E+02  0.25896686694E+02  0.51100000000E-03 0. -1.
        -12    1    3    3    0    0 -0.39067315204E+01 -0.28603627562E+00 -0.19943791210E+01  0.43956701425E+01  0.00000000000E+00 0.  1.
</event>
<event>
 7    1  0.4083500E-009  0.4778727E+02  0.7816164E-02  0.1312668E+00
        -11   -1    0    0    0    0  0.00000000000E+00  0.00000000000E+00  0.45593999997E+02  0.45594000000E+02  0.51100000000E-03 0.  1.
         11   -1    0    0    0    0 -0.00000000000E+00 -0.00000000000E+00 -0.45593999997E+02  0.45594000000E+02  0.51100000000E-03 0. -1.
    9900012    2    1    2    0    0  0.37193220412E+02  0.10219814065E+01 -0.22343750561E+02  0.47787270977E+02  0.19999999690E+02 0.  0.
        -12    1    1    2    0    0 -0.37193220412E+02 -0.10219814065E+01  0.22343750561E+02  0.43400729023E+02  0.00000000000E+00 0.  1.
         11    1    3    3    0    0 -0.20018083791E+00  0.56036722625E+00  0.14887888549E+00  0.61339137570E+00  0.51100000000E-03 0.  1.
        -11    1    3    3    0    0  0.28280752624E+02 -0.88701090969E+00 -0.24858063298E+02  0.37663126112E+02  0.51100000000E-03 0. -1.
         12    1    3    3    0    0  0.91126486267E+01  0.13486250900E+01  0.23654338516E+01  0.95107534892E+01  0.00000000000E+00 0. -1.
</event>
<event>
 7    1  0.4083500E-009  0.4778727E+02  0.7816164E-02  0.1312668E+00
        -11   -1    0    0    0    0  0.00000000000E+00  0.00000000000E+00  0.45593999997E+02  0.45594000000E+02  0.51100000000E-03 0.  1.
         11   -1    0    0    0    0 -0.00000000000E+00 -0.00000000000E+00 -0.45593999997E+02  0.45594000000E+02  0.51100000000E-03 0. -1.
    9900012    2    1    2    0    0  0.29307575755E+02  0.13237682631E+02 -0.29145378603E+02  0.47787270375E+02  0.19999996947E+02 0.  0.
        -12    1    1    2    0    0 -0.29307575755E+02 -0.13237682631E+02  0.29145378603E+02  0.43400729625E+02  0.00000000000E+00 0.  1.
         11    1    3    3    0    0  0.15226475185E+02  0.10775674587E+02 -0.10685005093E+02  0.21497210133E+02  0.51100000000E-03 0. -1.
        -11    1    3    3    0    0  0.12078626511E+02  0.28762316447E+01 -0.62332796848E+01  0.13893153089E+02  0.51100000000E-03 0.  1.
        -12    1    3    3    0    0  0.20024740580E+01 -0.41422360026E+00 -0.12227093825E+02  0.12396907153E+02  0.00000000000E+00 0.  1.
</event>
<event>
 7    1  0.4083500E-009  0.4778727E+02  0.7816164E-02  0.1312668E+00
        -11   -1    0    0    0    0  0.00000000000E+00  0.00000000000E+00  0.45593999997E+02  0.45594000000E+02  0.51100000000E-03 0.  1.
         11   -1    0    0    0    0 -0.00000000000E+00 -0.00000000000E+00 -0.45593999997E+02  0.45594000000E+02  0.51100000000E-03 0. -1.
    9900012    2    1    2    0    0 -0.41224398030E+02 -0.53642928337E+01 -0.12465820761E+02  0.47787270539E+02  0.19999997693E+02 0.  0.
        -12    1    1    2    0    0  0.41224398030E+02  0.53642928337E+01  0.12465820761E+02  0.43400729461E+02  0.00000000000E+00 0.  1.
         11    1    3    3    0    0 -0.22248521377E+02 -0.17534722817E+01 -0.11741499456E+02  0.25217735390E+02  0.51100000000E-03 0. -1.
        -11    1    3    3    0    0  0.15224699301E+01  0.20995431444E+00 -0.76802602183E+00  0.17180977078E+01  0.51100000000E-03 0.  1.
         12    1    3    3    0    0 -0.20498346583E+02 -0.38207748665E+01  0.43704716067E-01  0.20851437440E+02  0.00000000000E+00 0. -1.
</event>
<event>
 7    1  0.4083500E-009  0.4778728E+02  0.7816164E-02  0.1312668E+00
        -11   -1    0    0    0    0  0.00000000000E+00  0.00000000000E+00  0.45593999997E+02  0.45594000000E+02  0.51100000000E-03 0. -1.
         11   -1    0    0    0    0 -0.00000000000E+00 -0.00000000000E+00 -0.45593999997E+02  0.45594000000E+02  0.51100000000E-03 0.  1.
    9900012    2    1    2    0    0 -0.85719862590E+01 -0.32528311414E+01  0.42421249825E+02  0.47787282315E+02  0.20000051385E+02 0.  0.
        -12    1    1    2    0    0  0.85719862590E+01  0.32528311414E+01 -0.42421249825E+02  0.43400717685E+02  0.00000000000E+00 0.  1.
         11    1    3    3    0    0  0.98426144076E+00 -0.66412361888E+01  0.84705302080E+01  0.10808546200E+02  0.51100000000E-03 0. -1.
        -11    1    3    3    0    0 -0.13634980431E+01  0.13513640159E+01 -0.75167871251E-01  0.19211876761E+01  0.51100000000E-03 0.  1.
        -12    1    3    3    0    0 -0.81927496567E+01  0.20370410316E+01  0.34025887489E+02  0.35057548438E+02  0.00000000000E+00 0.  1.
</event>
<event>
 7    1  0.4083500E-009  0.4778727E+02  0.7816164E-02  0.1312668E+00
        -11   -1    0    0    0    0  0.00000000000E+00  0.00000000000E+00  0.45593999997E+02  0.45594000000E+02  0.51100000000E-03 0.  1.
         11   -1    0    0    0    0 -0.00000000000E+00 -0.00000000000E+00 -0.45593999997E+02  0.45594000000E+02  0.51100000000E-03 0. -1.
    9900012    2    1    2    0    0  0.20635870918E+00 -0.39306132818E+02  0.18401324290E+02  0.47787269630E+02  0.19999993551E+02 0.  0.
        -12    1    1    2    0    0 -0.20635870918E+00  0.39306132818E+02 -0.18401324290E+02  0.43400730370E+02  0.00000000000E+00 0.  1.
         11    1    3    3    0    0 -0.26992819834E+01 -0.30419108551E+01  0.27233942828E+01  0.48945093275E+01  0.51100000000E-03 0. -1.
        -11    1    3    3    0    0 -0.16845786820E+01 -0.14878330596E+02  0.14722536327E+02  0.20998942897E+02  0.51100000000E-03 0.  1.
         12    1    3    3    0    0  0.45902193746E+01 -0.21385891367E+02  0.95539367994E+00  0.21893817405E+02  0.00000000000E+00 0. -1.
</event>
<event>
 7    1  0.4083500E-009  0.4778727E+02  0.7816164E-02  0.1312668E+00
        -11   -1    0    0    0    0  0.00000000000E+00  0.00000000000E+00  0.45593999997E+02  0.45594000000E+02  0.51100000000E-03 0.  1.
         11   -1    0    0    0    0 -0.00000000000E+00 -0.00000000000E+00 -0.45593999997E+02  0.45594000000E+02  0.51100000000E-03 0. -1.
    9900012    2    1    2    0    0 -0.15583879494E+02  0.24083212696E+01 -0.40434716794E+02  0.47787266900E+02  0.19999981104E+02 0.  0.
        -12    1    1    2    0    0  0.15583879494E+02 -0.24083212696E+01  0.40434716794E+02  0.43400733100E+02  0.00000000000E+00 0.  1.
         11    1    3    3    0    0  0.14855198264E+01  0.98042974592E+00 -0.77601745548E+00  0.19417041468E+01  0.51100000000E-03 0. -1.
        -11    1    3    3    0    0 -0.91921172781E+01  0.16250778453E+01 -0.55964305231E+01  0.10883746272E+02  0.51100000000E-03 0.  1.
         12    1    3    3    0    0 -0.78772820421E+01 -0.19718632166E+00 -0.34062268815E+02  0.34961816481E+02  0.00000000000E+00 0. -1.
</event>
<event>
 7    1  0.4083500E-009  0.4778727E+02  0.7816164E-02  0.1312668E+00
        -11   -1    0    0    0    0  0.00000000000E+00  0.00000000000E+00  0.45593999997E+02  0.45594000000E+02  0.51100000000E-03 0.  1.
         11   -1    0    0    0    0 -0.00000000000E+00 -0.00000000000E+00 -0.45593999997E+02  0.45594000000E+02  0.51100000000E-03 0. -1.
    9900012    2    1    2    0    0  0.13988830099E+02  0.32372661337E+02 -0.25297167500E+02  0.47787271283E+02  0.20000001090E+02 0.  0.
        -12    1    1    2    0    0 -0.13988830099E+02 -0.32372661337E+02  0.25297167500E+02  0.43400728717E+02  0.00000000000E+00 0.  1.
         11    1    3    3    0    0  0.38461221834E+01  0.75767683103E+01  0.51885122169E+00  0.85128890941E+01  0.51100000000E-03 0. -1.
        -11    1    3    3    0    0  0.10333391691E+02  0.89978421117E+01 -0.10416326382E+02  0.17211624039E+02  0.51100000000E-03 0.  1.
        -12    1    3    3    0    0 -0.19068377611E+00  0.15798050915E+02 -0.15399692340E+02  0.22062758150E+02  0.00000000000E+00 0.  1.
</event>
<event>
 7    1  0.4083500E-009  0.4778727E+02  0.7816164E-02  0.1312668E+00
        -11   -1    0    0    0    0  0.00000000000E+00  0.00000000000E+00  0.45593999997E+02  0.45594000000E+02  0.51100000000E-03 0.  1.
         11   -1    0    0    0    0 -0.00000000000E+00 -0.00000000000E+00 -0.45593999997E+02  0.45594000000E+02  0.51100000000E-03 0. -1.
    9900012    2    1    2    0    0 -0.42257306509E+02 -0.98596997426E+01  0.85424931921E+00  0.47787269887E+02  0.19999994725E+02 0.  0.
        -12    1    1    2    0    0  0.42257306509E+02  0.98596997426E+01 -0.85424931921E+00  0.43400730113E+02  0.00000000000E+00 0.  1.
         11    1    3    3    0    0 -0.19099899298E+02  0.71756269563E+00  0.39851571070E+01  0.19524408489E+02  0.51100000000E-03 0. -1.
        -11    1    3    3    0    0 -0.21137597049E+02 -0.54834646192E+01  0.22277737027E+00  0.21838407067E+02  0.51100000000E-03 0.  1.
        -12    1    3    3    0    0 -0.20198101622E+01 -0.50937978191E+01 -0.33536851581E+01  0.64244543311E+01  0.00000000000E+00 0.  1.
</event>
<event>
 7    1  0.4083500E-009  0.4778726E+02  0.7816164E-02  0.1312668E+00
        -11   -1    0    0    0    0  0.00000000000E+00  0.00000000000E+00  0.45593999997E+02  0.45594000000E+02  0.51100000000E-03 0.  1.
         11   -1    0    0    0    0 -0.00000000000E+00 -0.00000000000E+00 -0.45593999997E+02  0.45594000000E+02  0.51100000000E-03 0. -1.
    9900012    2    1    2    0    0  0.21053061284E+02 -0.17674464819E+02 -0.33585805861E+02  0.47787257478E+02  0.19999938145E+02 0.  0.
        -12    1    1    2    0    0 -0.21053061284E+02  0.17674464819E+02  0.33585805861E+02  0.43400742522E+02  0.00000000000E+00 0.  1.
         11    1    3    3    0    0  0.61220920506E+01 -0.45550541561E+01 -0.29463916829E+01  0.81798382411E+01  0.51100000000E-03 0. -1.
        -11    1    3    3    0    0 -0.11929414185E+00 -0.43429273259E+01  0.18845488971E-01  0.43446063417E+01  0.51100000000E-03 0.  1.
         12    1    3    3    0    0  0.15050263376E+02 -0.87764833375E+01 -0.30658259668E+02  0.35262812895E+02  0.00000000000E+00 0. -1.
</event>
<event>
 7    1  0.4083500E-009  0.4778727E+02  0.7816164E-02  0.1312668E+00
        -11   -1    0    0    0    0  0.00000000000E+00  0.00000000000E+00  0.45593999997E+02  0.45594000000E+02  0.51100000000E-03 0.  1.
         11   -1    0    0    0    0 -0.00000000000E+00 -0.00000000000E+00 -0.45593999997E+02  0.45594000000E+02  0.51100000000E-03 0. -1.
    9900012    2    1    2    0    0 -0.15551860126E+02  0.83002853225E+00 -0.40510167314E+02  0.47787274701E+02  0.20000016670E+02 0.  0.
        -12    1    1    2    0    0  0.15551860126E+02 -0.83002853225E+00  0.40510167314E+02  0.43400725299E+02  0.00000000000E+00 0.  1.
         11    1    3    3    0    0  0.16266316044E+01 -0.88834377509E+00 -0.13820219849E+01  0.23119407577E+01  0.51100000000E-03 0. -1.
        -11    1    3    3    0    0  0.10277321250E+01 -0.77930822235E-01 -0.15779028014E+02  0.15812654169E+02  0.51100000000E-03 0.  1.
         12    1    3    3    0    0 -0.18206223855E+02  0.17963031296E+01 -0.23349117314E+02  0.29662679774E+02  0.00000000000E+00 0. -1.
</event>
<event>
 7    1  0.4083500E-009  0.4778727E+02  0.7816164E-02  0.1312668E+00
        -11   -1    0    0    0    0  0.00000000000E+00  0.00000000000E+00  0.45593999997E+02  0.45594000000E+02  0.51100000000E-03 0. -1.
         11   -1    0    0    0    0 -0.00000000000E+00 -0.00000000000E+00 -0.45593999997E+02  0.45594000000E+02  0.51100000000E-03 0.  1.
    9900012    2    1    2    0    0  0.40133883642E+02  0.10011900099E+02  0.13139872098E+02  0.47787274217E+02  0.20000014463E+02 0.  0.
        -12    1    1    2    0    0 -0.40133883642E+02 -0.10011900099E+02 -0.13139872098E+02  0.43400725783E+02  0.00000000000E+00 0.  1.
         11    1    3    3    0    0  0.14909354921E+02  0.36633294911E+01  0.56455306389E+01  0.16357899119E+02  0.51100000000E-03 0. -1.
        -11    1    3    3    0    0  0.11311226895E+02 -0.51465182965E+01  0.39254541289E+01  0.13032255938E+02  0.51100000000E-03 0.  1.
         12    1    3    3    0    0  0.13913301826E+02  0.11495088904E+02  0.35688873297E+01  0.18397119160E+02  0.00000000000E+00 0. -1.
</event>
<event>
 7    1  0.4083500E-009  0.4778727E+02  0.7816164E-02  0.1312668E+00
        -11   -1    0    0    0    0  0.00000000000E+00  0.00000000000E+00  0.45593999997E+02  0.45594000000E+02  0.51100000000E-03 0.  1.
         11   -1    0    0    0    0 -0.00000000000E+00 -0.00000000000E+00 -0.45593999997E+02  0.45594000000E+02  0.51100000000E-03 0. -1.
    9900012    2    1    2    0    0  0.12680344355E+02 -0.26760891277E+01 -0.41420655469E+02  0.47787270911E+02  0.19999999394E+02 0.  0.
        -12    1    1    2    0    0 -0.12680344355E+02  0.26760891277E+01  0.41420655469E+02  0.43400729089E+02  0.00000000000E+00 0.  1.
         11    1    3    3    0    0  0.62729057902E+01  0.16970741035E+01 -0.60396071312E+01  0.88716549823E+01  0.51100000000E-03 0. -1.
        -11    1    3    3    0    0 -0.26752068470E+01 -0.14414525671E+00 -0.22189839327E+02  0.22350983852E+02  0.51100000000E-03 0.  1.
         12    1    3    3    0    0  0.90826454114E+01 -0.42290179745E+01 -0.13191209010E+02  0.16564632077E+02  0.00000000000E+00 0. -1.
</event>
<event>
 7    1  0.4083500E-009  0.4778727E+02  0.7816164E-02  0.1312668E+00
        -11   -1    0    0    0    0  0.00000000000E+00  0.00000000000E+00  0.45593999997E+02  0.45594000000E+02  0.51100000000E-03 0.  1.
         11   -1    0    0    0    0 -0.00000000000E+00 -0.00000000000E+00 -0.45593999997E+02  0.45594000000E+02  0.51100000000E-03 0. -1.
    9900012    2    1    2    0    0 -0.27731185576E+02  0.22891860753E+02 -0.24301600221E+02  0.47787265957E+02  0.19999976803E+02 0.  0.
        -12    1    1    2    0    0  0.27731185576E+02 -0.22891860753E+02  0.24301600221E+02  0.43400734043E+02  0.00000000000E+00 0.  1.
         11    1    3    3    0    0 -0.27051580200E+01  0.35722376091E+01 -0.44139805661E+00  0.45026207873E+01  0.51100000000E-03 0. -1.
        -11    1    3    3    0    0 -0.21271670595E+02  0.57545277400E+01 -0.14835006886E+02  0.26564562653E+02  0.51100000000E-03 0.  1.
        -12    1    3    3    0    0 -0.37543569610E+01  0.13565095404E+02 -0.90251952789E+01  0.16720082516E+02  0.00000000000E+00 0.  1.
</event>
<event>
 7    1  0.4083500E-009  0.4778725E+02  0.7816164E-02  0.1312668E+00
        -11   -1    0    0    0    0  0.00000000000E+00  0.00000000000E+00  0.45593999997E+02  0.45594000000E+02  0.51100000000E-03 0. -1.
         11   -1    0    0    0    0 -0.00000000000E+00 -0.00000000000E+00 -0.45593999997E+02  0.45594000000E+02  0.51100000000E-03 0.  1.
    9900012    2    1    2    0    0  0.13754169263E+02  0.26047389761E+01  0.41081184208E+02  0.47787245015E+02  0.19999881323E+02 0.  0.
        -12    1    1    2    0    0 -0.13754169263E+02 -0.26047389761E+01 -0.41081184208E+02  0.43400754985E+02  0.00000000000E+00 0.  1.
         11    1    3    3    0    0  0.15343671991E+02  0.29026563598E+01  0.30537573593E+02  0.34298645532E+02  0.51100000000E-03 0. -1.
        -11    1    3    3    0    0  0.81067753304E-01  0.36659158594E+01  0.70520970803E+01  0.79484328367E+01  0.51100000000E-03 0.  1.
         12    1    3    3    0    0 -0.16705704806E+01 -0.39638332430E+01  0.34915135347E+01  0.55401666466E+01  0.00000000000E+00 0. -1.
</event>
<event>
 7    1  0.4083500E-009  0.4778728E+02  0.7816164E-02  0.1312668E+00
        -11   -1    0    0    0    0  0.00000000000E+00  0.00000000000E+00  0.45593999997E+02  0.45594000000E+02  0.51100000000E-03 0.  1.
         11   -1    0    0    0    0 -0.00000000000E+00 -0.00000000000E+00 -0.45593999997E+02  0.45594000000E+02  0.51100000000E-03 0. -1.
    9900012    2    1    2    0    0 -0.42878086622E+02 -0.25924705597E+01 -0.61944249175E+01  0.47787284384E+02  0.20000060820E+02 0.  0.
        -12    1    1    2    0    0  0.42878086622E+02  0.25924705597E+01  0.61944249175E+01  0.43400715616E+02  0.00000000000E+00 0.  1.
         11    1    3    3    0    0 -0.17330383256E+01  0.16828954193E+01 -0.18229475990E+01  0.30263339274E+01  0.51100000000E-03 0. -1.
        -11    1    3    3    0    0 -0.37305038696E+02  0.12384679093E+01 -0.12357403799E+01  0.37346040880E+02  0.51100000000E-03 0.  1.
        -12    1    3    3    0    0 -0.38400096002E+01 -0.55138338884E+01 -0.31357369386E+01  0.74149095764E+01  0.00000000000E+00 0.  1.
</event>
<event>
 7    1  0.4083500E-009  0.4778727E+02  0.7816164E-02  0.1312668E+00
        -11   -1    0    0    0    0  0.00000000000E+00  0.00000000000E+00  0.45593999997E+02  0.45594000000E+02  0.51100000000E-03 0. -1.
         11   -1    0    0    0    0 -0.00000000000E+00 -0.00000000000E+00 -0.45593999997E+02  0.45594000000E+02  0.51100000000E-03 0.  1.
    9900012    2    1    2    0    0 -0.14875553028E+02  0.32456744920E+02  0.24675918374E+02  0.47787270556E+02  0.19999997771E+02 0.  0.
        -12    1    1    2    0    0  0.14875553028E+02 -0.32456744920E+02 -0.24675918374E+02  0.43400729444E+02  0.00000000000E+00 0.  1.
         11    1    3    3    0    0 -0.12243352408E+02  0.29124064287E+02  0.22701844104E+02  0.38903528436E+02  0.51100000000E-03 0. -1.
        -11    1    3    3    0    0 -0.49407958046E+00  0.52794434511E+01  0.26296256149E+01  0.59187472426E+01  0.51100000000E-03 0.  1.
        -12    1    3    3    0    0 -0.21381210399E+01 -0.19467628182E+01 -0.65555134542E+00  0.29649948766E+01  0.00000000000E+00 0.  1.
</event>
<event>
 7    1  0.4083500E-009  0.4778728E+02  0.7816164E-02  0.1312668E+00
        -11   -1    0    0    0    0  0.00000000000E+00  0.00000000000E+00  0.45593999997E+02  0.45594000000E+02  0.51100000000E-03 0. -1.
         11   -1    0    0    0    0 -0.00000000000E+00 -0.00000000000E+00 -0.45593999997E+02  0.45594000000E+02  0.51100000000E-03 0.  1.
    9900012    2    1    2    0    0 -0.27928877011E+02 -0.11314271102E+02  0.31234397282E+02  0.47787280245E+02  0.20000041950E+02 0.  0.
        -12    1    1    2    0    0  0.27928877011E+02  0.11314271102E+02 -0.31234397282E+02  0.43400719755E+02  0.00000000000E+00 0.  1.
         11    1    3    3    0    0 -0.20396857042E+01  0.31994321931E+01  0.10611484351E+01  0.39398883731E+01  0.51100000000E-03 0. -1.
        -11    1    3    3    0    0 -0.39292080674E+01 -0.58308096533E+01  0.24862317479E+01  0.74577721751E+01  0.51100000000E-03 0.  1.
         12    1    3    3    0    0 -0.21959983240E+02 -0.86828936415E+01  0.27687017099E+02  0.36389619697E+02  0.00000000000E+00 0. -1.
</event>
<event>
 7    1  0.4083500E-009  0.4778725E+02  0.7816164E-02  0.1312668E+00
        -11   -1    0    0    0    0  0.00000000000E+00  0.00000000000E+00  0.45593999997E+02  0.45594000000E+02  0.51100000000E-03 0.  1.
         11   -1    0    0    0    0 -0.00000000000E+00 -0.00000000000E+00 -0.45593999997E+02  0.45594000000E+02  0.51100000000E-03 0. -1.
    9900012    2    1    2    0    0 -0.27837322764E+02  0.16099296752E+02 -0.29146547723E+02  0.47787249560E+02  0.19999902045E+02 0.  0.
        -12    1    1    2    0    0  0.27837322764E+02 -0.16099296752E+02  0.29146547723E+02  0.43400750440E+02  0.00000000000E+00 0.  1.
         11    1    3    3    0    0 -0.16187797360E+02  0.12403525232E+02 -0.10471227068E+02  0.22924633435E+02  0.51100000000E-03 0. -1.
        -11    1    3    3    0    0 -0.27193042816E+01  0.23049629341E+00  0.10582165507E+01  0.29270406295E+01  0.51100000000E-03 0.  1.
         12    1    3    3    0    0 -0.89302211219E+01  0.34652752258E+01 -0.19733537206E+02  0.21935575495E+02  0.00000000000E+00 0. -1.
</event>
<event>
 7    1  0.4083500E-009  0.4778727E+02  0.7816164E-02  0.1312668E+00
        -11   -1    0    0    0    0  0.00000000000E+00  0.00000000000E+00  0.45593999997E+02  0.45594000000E+02  0.51100000000E-03 0. -1.
         11   -1    0    0    0    0 -0.00000000000E+00 -0.00000000000E+00 -0.45593999997E+02  0.45594000000E+02  0.51100000000E-03 0.  1.
    9900012    2    1    2    0    0 -0.31039613540E+02  0.11945940672E+02  0.27882970885E+02  0.47787272211E+02  0.20000005318E+02 0.  0.
        -12    1    1    2    0    0  0.31039613540E+02 -0.11945940672E+02 -0.27882970885E+02  0.43400727789E+02  0.00000000000E+00 0.  1.
         11    1    3    3    0    0 -0.83617527399E+01  0.76772573633E+01  0.14938024010E+02  0.18761763006E+02  0.51100000000E-03 0. -1.
        -11    1    3    3    0    0 -0.98225744332E+01  0.68732219197E+01  0.99301495912E+01  0.15567017030E+02  0.51100000000E-03 0.  1.
        -12    1    3    3    0    0 -0.12855286367E+02 -0.26045386112E+01  0.30147972837E+01  0.13458492175E+02  0.00000000000E+00 0.  1.
</event>
<event>
 7    1  0.4083500E-009  0.4778728E+02  0.7816164E-02  0.1312668E+00
        -11   -1    0    0    0    0  0.00000000000E+00  0.00000000000E+00  0.45593999997E+02  0.45594000000E+02  0.51100000000E-03 0.  1.
         11   -1    0    0    0    0 -0.00000000000E+00 -0.00000000000E+00 -0.45593999997E+02  0.45594000000E+02  0.51100000000E-03 0. -1.
    9900012    2    1    2    0    0 -0.34443801391E+02  0.17519910564E+02 -0.19756000065E+02  0.47787282736E+02  0.20000053307E+02 0.  0.
        -12    1    1    2    0    0  0.34443801391E+02 -0.17519910564E+02  0.19756000065E+02  0.43400717264E+02  0.00000000000E+00 0.  1.
         11    1    3    3    0    0 -0.18906940512E+01  0.26181057407E+01 -0.11996359194E+01  0.34450440149E+01  0.51100000000E-03 0. -1.
        -11    1    3    3    0    0 -0.23870140112E+02  0.64325783338E+01 -0.34379945012E+01  0.24959596540E+02  0.51100000000E-03 0.  1.
        -12    1    3    3    0    0 -0.86829672279E+01  0.84692264891E+01 -0.15118369645E+02  0.19382642181E+02  0.00000000000E+00 0.  1.
</event>
<event>
 7    1  0.4083500E-009  0.4778730E+02  0.7816164E-02  0.1312668E+00
        -11   -1    0    0    0    0  0.00000000000E+00  0.00000000000E+00  0.45593999997E+02  0.45594000000E+02  0.51100000000E-03 0. -1.
         11   -1    0    0    0    0 -0.00000000000E+00 -0.00000000000E+00 -0.45593999997E+02  0.45594000000E+02  0.51100000000E-03 0.  1.
    9900012    2    1    2    0    0 -0.61244820334E+01 -0.25917212296E+02  0.34269659166E+02  0.47787300551E+02  0.20000134530E+02 0.  0.
        -12    1    1    2    0    0  0.61244820334E+01  0.25917212296E+02 -0.34269659166E+02  0.43400699449E+02  0.00000000000E+00 0.  1.
         11    1    3    3    0    0 -0.20579818213E+01 -0.13672173321E+02  0.11887224178E+02  0.18233751984E+02  0.51100000000E-03 0. -1.
        -11    1    3    3    0    0 -0.34050999179E+01 -0.35700006858E+01 -0.60906921013E+00  0.49709733364E+01  0.51100000000E-03 0.  1.
         12    1    3    3    0    0 -0.66140029426E+00 -0.86750382892E+01  0.22991504198E+02  0.24582575230E+02  0.00000000000E+00 0. -1.
</event>
<event>
 7    1  0.4217977E-009  0.4778727E+02  0.7816164E-02  0.1312668E+00
        -11   -1    0    0    0    0  0.00000000000E+00  0.00000000000E+00  0.45593999997E+02  0.45594000000E+02  0.51100000000E-03 0.  1.
         11   -1    0    0    0    0 -0.00000000000E+00 -0.00000000000E+00 -0.45593999997E+02  0.45594000000E+02  0.51100000000E-03 0. -1.
    9900012    2    1    2    0    0  0.42555639129E+02 -0.82951208126E+01  0.19575489138E+01  0.47787269030E+02  0.19999990815E+02 0.  0.
        -12    1    1    2    0    0 -0.42555639129E+02  0.82951208126E+01 -0.19575489138E+01  0.43400730970E+02  0.00000000000E+00 0.  1.
         11    1    3    3    0    0  0.29047459017E+02 -0.63903857997E+01  0.16468694700E+01  0.29787649879E+02  0.51100000000E-03 0. -1.
        -11    1    3    3    0    0  0.11175614365E+02  0.28181371294E+01 -0.28287731590E+01  0.11867527592E+02  0.51100000000E-03 0.  1.
         12    1    3    3    0    0  0.23325657477E+01 -0.47228721423E+01  0.31394526029E+01  0.61320915588E+01  0.00000000000E+00 0. -1.
</event>
<event>
 7    1  0.4083500E-009  0.4778725E+02  0.7816164E-02  0.1312668E+00
        -11   -1    0    0    0    0  0.00000000000E+00  0.00000000000E+00  0.45593999997E+02  0.45594000000E+02  0.51100000000E-03 0.  1.
         11   -1    0    0    0    0 -0.00000000000E+00 -0.00000000000E+00 -0.45593999997E+02  0.45594000000E+02  0.51100000000E-03 0. -1.
    9900012    2    1    2    0    0 -0.19908311228E+02  0.35613190355E+02 -0.14798131706E+02  0.47787252481E+02  0.19999915363E+02 0.  0.
        -12    1    1    2    0    0  0.19908311228E+02 -0.35613190355E+02  0.14798131706E+02  0.43400747519E+02  0.00000000000E+00 0.  1.
         11    1    3    3    0    0 -0.11676476016E+02  0.92641351929E+01 -0.62929649709E+01  0.16179174930E+02  0.51100000000E-03 0. -1.
        -11    1    3    3    0    0 -0.43042836429E+01  0.71937662092E+00 -0.23588112187E+01  0.49606805005E+01  0.51100000000E-03 0.  1.
         12    1    3    3    0    0 -0.39275515690E+01  0.25629678541E+02 -0.61463555161E+01  0.26647397051E+02  0.00000000000E+00 0. -1.
</event>
<event>
 7    1  0.4083500E-009  0.4778727E+02  0.7816164E-02  0.1312668E+00
        -11   -1    0    0    0    0  0.00000000000E+00  0.00000000000E+00  0.45593999997E+02  0.45594000000E+02  0.51100000000E-03 0.  1.
         11   -1    0    0    0    0 -0.00000000000E+00 -0.00000000000E+00 -0.45593999997E+02  0.45594000000E+02  0.51100000000E-03 0. -1.
    9900012    2    1    2    0    0  0.35798449154E+02  0.13431243939E+02 -0.20535238573E+02  0.47787270757E+02  0.19999998687E+02 0.  0.
        -12    1    1    2    0    0 -0.35798449154E+02 -0.13431243939E+02  0.20535238573E+02  0.43400729243E+02  0.00000000000E+00 0.  1.
         11    1    3    3    0    0  0.75521043128E+01  0.48352356341E+01 -0.68860045280E+01  0.11306230221E+02  0.51100000000E-03 0. -1.
        -11    1    3    3    0    0  0.17843618001E+02  0.92991664621E+01 -0.16100802383E+02  0.25770235503E+02  0.51100000000E-03 0.  1.
         12    1    3    3    0    0  0.10402726841E+02 -0.70315815738E+00  0.24515683382E+01  0.10710805032E+02  0.00000000000E+00 0. -1.
</event>
<event>
 7    1  0.4083500E-009  0.4778727E+02  0.7816164E-02  0.1312668E+00
        -11   -1    0    0    0    0  0.00000000000E+00  0.00000000000E+00  0.45593999997E+02  0.45594000000E+02  0.51100000000E-03 0. -1.
         11   -1    0    0    0    0 -0.00000000000E+00 -0.00000000000E+00 -0.45593999997E+02  0.45594000000E+02  0.51100000000E-03 0.  1.
    9900012    2    1    2    0    0 -0.22191086844E+02 -0.24058383963E+02 -0.28502158458E+02  0.47787271769E+02  0.20000003303E+02 0.  0.
        -12    1    1    2    0    0  0.22191086844E+02  0.24058383963E+02  0.28502158458E+02  0.43400728231E+02  0.00000000000E+00 0.  1.
         11    1    3    3    0    0 -0.29361783481E+01 -0.74019102710E+01 -0.62530355465E+01  0.10124715935E+02  0.51100000000E-03 0. -1.
        -11    1    3    3    0    0  0.19958130643E+01 -0.55378311360E+01 -0.18310714191E+01  0.61647113705E+01  0.51100000000E-03 0.  1.
         12    1    3    3    0    0 -0.21250721561E+02 -0.11118642556E+02 -0.20418051492E+02  0.31497844464E+02  0.00000000000E+00 0. -1.
</event>
<event>
 7    1  0.4083500E-009  0.4778727E+02  0.7816164E-02  0.1312668E+00
        -11   -1    0    0    0    0  0.00000000000E+00  0.00000000000E+00  0.45593999997E+02  0.45594000000E+02  0.51100000000E-03 0. -1.
         11   -1    0    0    0    0 -0.00000000000E+00 -0.00000000000E+00 -0.45593999997E+02  0.45594000000E+02  0.51100000000E-03 0.  1.
    9900012    2    1    2    0    0 -0.22805453679E+02  0.14104550455E+02  0.34126183936E+02  0.47787268542E+02  0.19999988591E+02 0.  0.
        -12    1    1    2    0    0  0.22805453679E+02 -0.14104550455E+02 -0.34126183936E+02  0.43400731458E+02  0.00000000000E+00 0.  1.
         11    1    3    3    0    0 -0.20192930954E+01 -0.12961693463E+00  0.67979249151E+01  0.70926813384E+01  0.51100000000E-03 0. -1.
        -11    1    3    3    0    0 -0.28395617259E+01  0.11543590614E+02  0.12600361824E+02  0.17323011095E+02  0.51100000000E-03 0.  1.
         12    1    3    3    0    0 -0.17946598858E+02  0.26905767755E+01  0.14727897197E+02  0.23371576108E+02  0.00000000000E+00 0. -1.
</event>
<event>
 7    1  0.4083500E-009  0.4778729E+02  0.7816164E-02  0.1312668E+00
        -11   -1    0    0    0    0  0.00000000000E+00  0.00000000000E+00  0.45593999997E+02  0.45594000000E+02  0.51100000000E-03 0.  1.
         11   -1    0    0    0    0 -0.00000000000E+00 -0.00000000000E+00 -0.45593999997E+02  0.45594000000E+02  0.51100000000E-03 0. -1.
    9900012    2    1    2    0    0  0.11096584422E+02  0.24676579210E+02 -0.33934556621E+02  0.47787287098E+02  0.20000073195E+02 0.  0.
        -12    1    1    2    0    0 -0.11096584422E+02 -0.24676579210E+02  0.33934556621E+02  0.43400712902E+02  0.00000000000E+00 0.  1.
         11    1    3    3    0    0 -0.22989308422E+01  0.11997475331E+02 -0.15943130287E+02  0.20085016827E+02  0.51100000000E-03 0. -1.
        -11    1    3    3    0    0  0.52790518982E+01  0.58052198320E+01 -0.14536561475E+02  0.16519097615E+02  0.51100000000E-03 0.  1.
        -12    1    3    3    0    0  0.81164633657E+01  0.68738840470E+01 -0.34548648595E+01  0.11183172656E+02  0.00000000000E+00 0.  1.
</event>
<event>
 7    1  0.4083500E-009  0.4778726E+02  0.7816164E-02  0.1312668E+00
        -11   -1    0    0    0    0  0.00000000000E+00  0.00000000000E+00  0.45593999997E+02  0.45594000000E+02  0.51100000000E-03 0.  1.
         11   -1    0    0    0    0 -0.00000000000E+00 -0.00000000000E+00 -0.45593999997E+02  0.45594000000E+02  0.51100000000E-03 0. -1.
    9900012    2    1    2    0    0  0.79816621247E+01  0.18803873705E+02 -0.38292715155E+02  0.47787255415E+02  0.19999928737E+02 0.  0.
        -12    1    1    2    0    0 -0.79816621247E+01 -0.18803873705E+02  0.38292715155E+02  0.43400744585E+02  0.00000000000E+00 0.  1.
         11    1    3    3    0    0  0.40861810778E+01  0.14444522685E+02 -0.12557936286E+02  0.19571481176E+02  0.51100000000E-03 0. -1.
        -11    1    3    3    0    0  0.40315778878E+01  0.23953846859E+01 -0.33950295362E+01  0.57894484946E+01  0.51100000000E-03 0.  1.
         12    1    3    3    0    0 -0.13609684087E+00  0.19639663345E+01 -0.22339749333E+02  0.22426325744E+02  0.00000000000E+00 0. -1.
</event>
<event>
 7    1  0.4083500E-009  0.4778727E+02  0.7816164E-02  0.1312668E+00
        -11   -1    0    0    0    0  0.00000000000E+00  0.00000000000E+00  0.45593999997E+02  0.45594000000E+02  0.51100000000E-03 0.  1.
         11   -1    0    0    0    0 -0.00000000000E+00 -0.00000000000E+00 -0.45593999997E+02  0.45594000000E+02  0.51100000000E-03 0. -1.
    9900012    2    1    2    0    0  0.14087059987E+02  0.31486708760E+02 -0.26339421879E+02  0.47787271521E+02  0.20000002172E+02 0.  0.
        -12    1    1    2    0    0 -0.14087059987E+02 -0.31486708760E+02  0.26339421879E+02  0.43400728479E+02  0.00000000000E+00 0.  1.
         11    1    3    3    0    0 -0.25193966693E+01  0.30174069721E+01 -0.64633746414E+01  0.75648738541E+01  0.51100000000E-03 0. -1.
        -11    1    3    3    0    0  0.78630008332E+01  0.66497685431E+01 -0.11074308798E+02  0.15122384713E+02  0.51100000000E-03 0.  1.
         12    1    3    3    0    0  0.87434558229E+01  0.21819533245E+02 -0.88017384400E+01  0.25100012954E+02  0.00000000000E+00 0. -1.
</event>
<event>
 7    1  0.4083500E-009  0.4778727E+02  0.7816164E-02  0.1312668E+00
        -11   -1    0    0    0    0  0.00000000000E+00  0.00000000000E+00  0.45593999997E+02  0.45594000000E+02  0.51100000000E-03 0. -1.
         11   -1    0    0    0    0 -0.00000000000E+00 -0.00000000000E+00 -0.45593999997E+02  0.45594000000E+02  0.51100000000E-03 0.  1.
    9900012    2    1    2    0    0 -0.33234884045E+02 -0.19334178227E+02 -0.20130951457E+02  0.47787272221E+02  0.20000005365E+02 0.  0.
        -12    1    1    2    0    0  0.33234884045E+02  0.19334178227E+02  0.20130951457E+02  0.43400727779E+02  0.00000000000E+00 0.  1.
         11    1    3    3    0    0  0.38066655606E+00 -0.20271559514E+01 -0.22961181552E+01  0.30864910695E+01  0.51100000000E-03 0. -1.
        -11    1    3    3    0    0 -0.53226902553E+01  0.88495631306E+00  0.18779825229E+01  0.57132300712E+01  0.51100000000E-03 0.  1.
         12    1    3    3    0    0 -0.28292860346E+02 -0.18191978589E+02 -0.19712815824E+02  0.38987551080E+02  0.00000000000E+00 0. -1.
</event>
<event>
 7    1  0.4083500E-009  0.4778726E+02  0.7816164E-02  0.1312668E+00
        -11   -1    0    0    0    0  0.00000000000E+00  0.00000000000E+00  0.45593999997E+02  0.45594000000E+02  0.51100000000E-03 0.  1.
         11   -1    0    0    0    0 -0.00000000000E+00 -0.00000000000E+00 -0.45593999997E+02  0.45594000000E+02  0.51100000000E-03 0. -1.
    9900012    2    1    2    0    0 -0.17986916647E+02 -0.37487595035E+02  0.12440854587E+02  0.47787264813E+02  0.19999971587E+02 0.  0.
        -12    1    1    2    0    0  0.17986916647E+02  0.37487595035E+02 -0.12440854587E+02  0.43400735187E+02  0.00000000000E+00 0.  1.
         11    1    3    3    0    0 -0.11976154146E+02 -0.14018121141E+02  0.47689074611E+01  0.19044118963E+02  0.51100000000E-03 0. -1.
        -11    1    3    3    0    0 -0.67440049284E+01 -0.23721354521E+02  0.39919825284E+01  0.24982397554E+02  0.51100000000E-03 0.  1.
        -12    1    3    3    0    0  0.73324242717E+00  0.25188062664E+00  0.36799645974E+01  0.37607482959E+01  0.00000000000E+00 0.  1.
</event>
<event>
 7    1  0.4083500E-009  0.4778727E+02  0.7816164E-02  0.1312668E+00
        -11   -1    0    0    0    0  0.00000000000E+00  0.00000000000E+00  0.45593999997E+02  0.45594000000E+02  0.51100000000E-03 0. -1.
         11   -1    0    0    0    0 -0.00000000000E+00 -0.00000000000E+00 -0.45593999997E+02  0.45594000000E+02  0.51100000000E-03 0.  1.
    9900012    2    1    2    0    0 -0.22877485540E+02  0.29893796171E+02  0.21601038155E+02  0.47787271395E+02  0.20000001596E+02 0.  0.
        -12    1    1    2    0    0  0.22877485540E+02 -0.29893796171E+02 -0.21601038155E+02  0.43400728605E+02  0.00000000000E+00 0.  1.
         11    1    3    3    0    0 -0.15431650288E+01 -0.24471504767E+00  0.39011267641E+01  0.42023843293E+01  0.51100000000E-03 0. -1.
        -11    1    3    3    0    0 -0.50914906706E+01  0.12028816746E+02 -0.70388767671E+00  0.13080946742E+02  0.51100000000E-03 0.  1.
         12    1    3    3    0    0 -0.16242829841E+02  0.18109694473E+02  0.18403799067E+02  0.30503940323E+02  0.00000000000E+00 0. -1.
</event>
<event>
 7    1  0.4083500E-009  0.4778727E+02  0.7816164E-02  0.1312668E+00
        -11   -1    0    0    0    0  0.00000000000E+00  0.00000000000E+00  0.45593999997E+02  0.45594000000E+02  0.51100000000E-03 0. -1.
         11   -1    0    0    0    0 -0.00000000000E+00 -0.00000000000E+00 -0.45593999997E+02  0.45594000000E+02  0.51100000000E-03 0.  1.
    9900012    2    1    2    0    0  0.18215573258E+02 -0.26818539952E+02  0.28854499154E+02  0.47787270563E+02  0.19999997803E+02 0.  0.
        -12    1    1    2    0    0 -0.18215573258E+02  0.26818539952E+02 -0.28854499154E+02  0.43400729437E+02  0.00000000000E+00 0.  1.
         11    1    3    3    0    0 -0.25502677934E+01 -0.44208789386E+01  0.13953720913E+01  0.52910395899E+01  0.51100000000E-03 0. -1.
        -11    1    3    3    0    0  0.20129935077E+01 -0.12934255905E+01  0.76295349744E+01  0.79959300151E+01  0.51100000000E-03 0.  1.
        -12    1    3    3    0    0  0.18752847544E+02 -0.21104235423E+02  0.19829592088E+02  0.34500300958E+02  0.00000000000E+00 0.  1.
</event>
<event>
 7    1  0.4083500E-009  0.4778728E+02  0.7816164E-02  0.1312668E+00
        -11   -1    0    0    0    0  0.00000000000E+00  0.00000000000E+00  0.45593999997E+02  0.45594000000E+02  0.51100000000E-03 0.  1.
         11   -1    0    0    0    0 -0.00000000000E+00 -0.00000000000E+00 -0.45593999997E+02  0.45594000000E+02  0.51100000000E-03 0. -1.
    9900012    2    1    2    0    0 -0.39421287212E+02 -0.12254185378E+02 -0.13394757019E+02  0.47787280417E+02  0.20000042731E+02 0.  0.
        -12    1    1    2    0    0  0.39421287212E+02  0.12254185378E+02  0.13394757019E+02  0.43400719583E+02  0.00000000000E+00 0.  1.
         11    1    3    3    0    0 -0.17550996562E+01 -0.41569367615E+01 -0.12010069297E+00  0.45138589345E+01  0.51100000000E-03 0. -1.
        -11    1    3    3    0    0 -0.28133822362E+01  0.53817527425E+00  0.27340024481E+01  0.39597376024E+01  0.51100000000E-03 0.  1.
         12    1    3    3    0    0 -0.34852805320E+02 -0.86354238910E+01 -0.16008658774E+02  0.39313683880E+02  0.00000000000E+00 0. -1.
</event>
<event>
 7    1  0.4083500E-009  0.4778727E+02  0.7816164E-02  0.1312668E+00
        -11   -1    0    0    0    0  0.00000000000E+00  0.00000000000E+00  0.45593999997E+02  0.45594000000E+02  0.51100000000E-03 0.  1.
         11   -1    0    0    0    0 -0.00000000000E+00 -0.00000000000E+00 -0.45593999997E+02  0.45594000000E+02  0.51100000000E-03 0. -1.
    9900012    2    1    2    0    0 -0.13639263424E+02  0.22236080341E+02 -0.34686465828E+02  0.47787266281E+02  0.19999978282E+02 0.  0.
        -12    1    1    2    0    0  0.13639263424E+02 -0.22236080341E+02  0.34686465828E+02  0.43400733719E+02  0.00000000000E+00 0.  1.
         11    1    3    3    0    0 -0.12896859063E+02  0.19487471032E+02 -0.33681184753E+02  0.40994056978E+02  0.51100000000E-03 0. -1.
        -11    1    3    3    0    0 -0.11683727087E+01 -0.45285532199E+00 -0.28219565564E+01  0.30876547405E+01  0.51100000000E-03 0.  1.
        -12    1    3    3    0    0  0.42596834720E+00  0.32014646310E+01  0.18166754806E+01  0.37055545628E+01  0.00000000000E+00 0.  1.
</event>
<event>
 7    1  0.4083500E-009  0.4778727E+02  0.7816164E-02  0.1312668E+00
        -11   -1    0    0    0    0  0.00000000000E+00  0.00000000000E+00  0.45593999997E+02  0.45594000000E+02  0.51100000000E-03 0.  1.
         11   -1    0    0    0    0 -0.00000000000E+00 -0.00000000000E+00 -0.45593999997E+02  0.45594000000E+02  0.51100000000E-03 0. -1.
    9900012    2    1    2    0    0 -0.13442611094E+02  0.33903325682E+02 -0.23526237822E+02  0.47787272456E+02  0.20000006435E+02 0.  0.
        -12    1    1    2    0    0  0.13442611094E+02 -0.33903325682E+02  0.23526237822E+02  0.43400727544E+02  0.00000000000E+00 0.  1.
         11    1    3    3    0    0 -0.75689638724E+00  0.27353767282E+01 -0.44394317730E+01  0.52691301668E+01  0.51100000000E-03 0. -1.
        -11    1    3    3    0    0 -0.37361530393E+01  0.28433439222E+00  0.18190961802E+01  0.41651886816E+01  0.51100000000E-03 0.  1.
        -12    1    3    3    0    0 -0.89495616680E+01  0.30883614561E+02 -0.20905902229E+02  0.38352953607E+02  0.00000000000E+00 0.  1.
</event>
<event>
 7    1  0.4083500E-009  0.4778727E+02  0.7816164E-02  0.1312668E+00
        -11   -1    0    0    0    0  0.00000000000E+00  0.00000000000E+00  0.45593999997E+02  0.45594000000E+02  0.51100000000E-03 0. -1.
         11   -1    0    0    0    0 -0.00000000000E+00 -0.00000000000E+00 -0.45593999997E+02  0.45594000000E+02  0.51100000000E-03 0.  1.
    9900012    2    1    2    0    0 -0.14586993628E+02 -0.29478048878E+02  0.28317621712E+02  0.47787269037E+02  0.19999990846E+02 0.  0.
        -12    1    1    2    0    0  0.14586993628E+02  0.29478048878E+02 -0.28317621712E+02  0.43400730963E+02  0.00000000000E+00 0.  1.
         11    1    3    3    0    0 -0.82395779967E+00  0.18029423813E+01  0.31575695601E+01  0.37282373146E+01  0.51100000000E-03 0. -1.
        -11    1    3    3    0    0 -0.17488946339E+01 -0.39674171750E+00  0.48997115261E+01  0.52175865811E+01  0.51100000000E-03 0.  1.
         12    1    3    3    0    0 -0.12014141195E+02 -0.30884249542E+02  0.20260340625E+02  0.38841445141E+02  0.00000000000E+00 0. -1.
</event>
<event>
 7    1  0.4083500E-009  0.4778724E+02  0.7816164E-02  0.1312668E+00
        -11   -1    0    0    0    0  0.00000000000E+00  0.00000000000E+00  0.45593999997E+02  0.45594000000E+02  0.51100000000E-03 0.  1.
         11   -1    0    0    0    0 -0.00000000000E+00 -0.00000000000E+00 -0.45593999997E+02  0.45594000000E+02  0.51100000000E-03 0. -1.
    9900012    2    1    2    0    0  0.23286094440E+02 -0.33273625316E+02  0.15305226035E+02  0.47787236413E+02  0.19999842100E+02 0.  0.
        -12    1    1    2    0    0 -0.23286094440E+02  0.33273625316E+02 -0.15305226035E+02  0.43400763587E+02  0.00000000000E+00 0.  1.
         11    1    3    3    0    0  0.42647660706E+01  0.46448416839E-01  0.23603770757E+01  0.48746043217E+01  0.51100000000E-03 0. -1.
        -11    1    3    3    0    0  0.85518216801E+01 -0.65141750506E+01 -0.12528993427E+01  0.10823025809E+02  0.51100000000E-03 0.  1.
         12    1    3    3    0    0  0.10469506689E+02 -0.26805898683E+02  0.14197748302E+02  0.32089606282E+02  0.00000000000E+00 0. -1.
</event>
<event>
 7    1  0.4083500E-009  0.4778727E+02  0.7816164E-02  0.1312668E+00
        -11   -1    0    0    0    0  0.00000000000E+00  0.00000000000E+00  0.45593999997E+02  0.45594000000E+02  0.51100000000E-03 0.  1.
         11   -1    0    0    0    0 -0.00000000000E+00 -0.00000000000E+00 -0.45593999997E+02  0.45594000000E+02  0.51100000000E-03 0. -1.
    9900012    2    1    2    0    0  0.23664326219E+02 -0.34205097024E+02 -0.12394927150E+02  0.47787271701E+02  0.20000002994E+02 0.  0.
        -12    1    1    2    0    0 -0.23664326219E+02  0.34205097024E+02  0.12394927150E+02  0.43400728299E+02  0.00000000000E+00 0.  1.
         11    1    3    3    0    0  0.15844370201E+02 -0.11210076654E+02 -0.68811912948E+01  0.20592733659E+02  0.51100000000E-03 0. -1.
        -11    1    3    3    0    0  0.48703045467E+01 -0.21747005520E+01 -0.27021127061E+01  0.59791807304E+01  0.51100000000E-03 0.  1.
        -12    1    3    3    0    0  0.29496514708E+01 -0.20820319818E+02 -0.28116231491E+01  0.21215357312E+02  0.00000000000E+00 0.  1.
</event>
<event>
 7    1  0.4083500E-009  0.4778727E+02  0.7816164E-02  0.1312668E+00
        -11   -1    0    0    0    0  0.00000000000E+00  0.00000000000E+00  0.45593999997E+02  0.45594000000E+02  0.51100000000E-03 0.  1.
         11   -1    0    0    0    0 -0.00000000000E+00 -0.00000000000E+00 -0.45593999997E+02  0.45594000000E+02  0.51100000000E-03 0. -1.
    9900012    2    1    2    0    0  0.19012585573E+02 -0.20853000710E+02 -0.32974189038E+02  0.47787271994E+02  0.20000004328E+02 0.  0.
        -12    1    1    2    0    0 -0.19012585573E+02  0.20853000710E+02  0.32974189038E+02  0.43400728006E+02  0.00000000000E+00 0.  1.
         11    1    3    3    0    0  0.74099920850E+01 -0.17716614824E+02 -0.17524266030E+02  0.25997813825E+02  0.51100000000E-03 0. -1.
        -11    1    3    3    0    0  0.50745461246E+00 -0.28095120812E+01 -0.11300219995E+00  0.28572080912E+01  0.51100000000E-03 0.  1.
        -12    1    3    3    0    0  0.11095138876E+02 -0.32687380506E+00 -0.15336920807E+02  0.18932250078E+02  0.00000000000E+00 0.  1.
</event>
<event>
 7    1  0.4083500E-009  0.4778727E+02  0.7816164E-02  0.1312668E+00
        -11   -1    0    0    0    0  0.00000000000E+00  0.00000000000E+00  0.45593999997E+02  0.45594000000E+02  0.51100000000E-03 0.  1.
         11   -1    0    0    0    0 -0.00000000000E+00 -0.00000000000E+00 -0.45593999997E+02  0.45594000000E+02  0.51100000000E-03 0. -1.
    9900012    2    1    2    0    0 -0.25678968378E+02  0.33282447497E+02 -0.10793164793E+02  0.47787272649E+02  0.20000007315E+02 0.  0.
        -12    1    1    2    0    0  0.25678968378E+02 -0.33282447497E+02  0.10793164793E+02  0.43400727351E+02  0.00000000000E+00 0.  1.
         11    1    3    3    0    0 -0.64089924555E+00  0.26441628596E+01 -0.39824741197E+01  0.48231161551E+01  0.51100000000E-03 0. -1.
        -11    1    3    3    0    0 -0.49969130408E+01  0.89904786692E+01  0.46856612829E+01  0.11302799147E+02  0.51100000000E-03 0.  1.
         12    1    3    3    0    0 -0.20041156092E+02  0.21647805968E+02 -0.11496351956E+02  0.31661357347E+02  0.00000000000E+00 0. -1.
</event>
<event>
 7    1  0.4083500E-009  0.4778727E+02  0.7816164E-02  0.1312668E+00
        -11   -1    0    0    0    0  0.00000000000E+00  0.00000000000E+00  0.45593999997E+02  0.45594000000E+02  0.51100000000E-03 0.  1.
         11   -1    0    0    0    0 -0.00000000000E+00 -0.00000000000E+00 -0.45593999997E+02  0.45594000000E+02  0.51100000000E-03 0. -1.
    9900012    2    1    2    0    0  0.27093248623E+02 -0.11461349356E+02 -0.31909507531E+02  0.47787270503E+02  0.19999997531E+02 0.  0.
        -12    1    1    2    0    0 -0.27093248623E+02  0.11461349356E+02  0.31909507531E+02  0.43400729497E+02  0.00000000000E+00 0.  1.
         11    1    3    3    0    0  0.14726032566E+02 -0.86437129881E+01 -0.12207648450E+02  0.20990390427E+02  0.51100000000E-03 0. -1.
        -11    1    3    3    0    0  0.14724593416E+02 -0.43202334176E+01 -0.16166006964E+02  0.22289411151E+02  0.51100000000E-03 0.  1.
        -12    1    3    3    0    0 -0.23573773592E+01  0.15025970498E+01 -0.35358521175E+01  0.45074689244E+01  0.00000000000E+00 0.  1.
</event>
<event>
 7    1  0.4083500E-009  0.4778727E+02  0.7816164E-02  0.1312668E+00
        -11   -1    0    0    0    0  0.00000000000E+00  0.00000000000E+00  0.45593999997E+02  0.45594000000E+02  0.51100000000E-03 0.  1.
         11   -1    0    0    0    0 -0.00000000000E+00 -0.00000000000E+00 -0.45593999997E+02  0.45594000000E+02  0.51100000000E-03 0. -1.
    9900012    2    1    2    0    0 -0.71221594347E+01 -0.13916683449E+02 -0.40487333098E+02  0.47787269884E+02  0.19999994707E+02 0.  0.
        -12    1    1    2    0    0  0.71221594347E+01  0.13916683449E+02  0.40487333098E+02  0.43400730116E+02  0.00000000000E+00 0.  1.
         11    1    3    3    0    0 -0.35519399932E+01  0.24544989765E+01 -0.44328068771E+01  0.61879415004E+01  0.51100000000E-03 0. -1.
        -11    1    3    3    0    0 -0.81339736092E+00 -0.31165683336E+01 -0.14690974716E+00  0.32243132881E+01  0.51100000000E-03 0.  1.
        -12    1    3    3    0    0 -0.27568220806E+01 -0.13254614092E+02 -0.35907616474E+02  0.38375015095E+02  0.00000000000E+00 0.  1.
</event>
<event>
 7    1  0.4083500E-009  0.4778727E+02  0.7816164E-02  0.1312668E+00
        -11   -1    0    0    0    0  0.00000000000E+00  0.00000000000E+00  0.45593999997E+02  0.45594000000E+02  0.51100000000E-03 0.  1.
         11   -1    0    0    0    0 -0.00000000000E+00 -0.00000000000E+00 -0.45593999997E+02  0.45594000000E+02  0.51100000000E-03 0. -1.
    9900012    2    1    2    0    0 -0.39108538858E+02 -0.53202106520E+01 -0.18051056207E+02  0.47787273242E+02  0.20000010018E+02 0.  0.
        -12    1    1    2    0    0  0.39108538858E+02  0.53202106520E+01  0.18051056207E+02  0.43400726758E+02  0.00000000000E+00 0.  1.
         11    1    3    3    0    0 -0.27979785011E+02 -0.55404881693E+01 -0.46786993101E+01  0.28904248925E+02  0.51100000000E-03 0.  1.
        -11    1    3    3    0    0 -0.92901806090E+01 -0.21292855150E+01 -0.69323730837E+01  0.11785546631E+02  0.51100000000E-03 0. -1.
        -12    1    3    3    0    0 -0.18385732377E+01  0.23495630323E+01 -0.64399838131E+01  0.70974776862E+01  0.00000000000E+00 0.  1.
</event>
<event>
 7    1  0.4083500E-009  0.4778731E+02  0.7816164E-02  0.1312668E+00
        -11   -1    0    0    0    0  0.00000000000E+00  0.00000000000E+00  0.45593999997E+02  0.45594000000E+02  0.51100000000E-03 0. -1.
         11   -1    0    0    0    0 -0.00000000000E+00 -0.00000000000E+00 -0.45593999997E+02  0.45594000000E+02  0.51100000000E-03 0.  1.
    9900012    2    1    2    0    0 -0.50305109794E+01 -0.42605601073E+02  0.65633091782E+01  0.47787305179E+02  0.20000155635E+02 0.  0.
        -12    1    1    2    0    0  0.50305109794E+01  0.42605601073E+02 -0.65633091782E+01  0.43400694821E+02  0.00000000000E+00 0.  1.
         11    1    3    3    0    0  0.87071299255E+00 -0.11180398453E+02  0.19831229972E+01  0.11388249547E+02  0.51100000000E-03 0. -1.
        -11    1    3    3    0    0 -0.15302451947E+01 -0.31096706224E+02  0.17541551472E+01  0.31183711275E+02  0.51100000000E-03 0.  1.
        -12    1    3    3    0    0 -0.43709787773E+01 -0.32849639633E+00  0.28260310337E+01  0.52153443565E+01  0.00000000000E+00 0.  1.
</event>
<event>
 7    1  0.4083500E-009  0.4778728E+02  0.7816164E-02  0.1312668E+00
        -11   -1    0    0    0    0  0.00000000000E+00  0.00000000000E+00  0.45593999997E+02  0.45594000000E+02  0.51100000000E-03 0. -1.
         11   -1    0    0    0    0 -0.00000000000E+00 -0.00000000000E+00 -0.45593999997E+02  0.45594000000E+02  0.51100000000E-03 0.  1.
    9900012    2    1    2    0    0  0.56472139662E+01  0.39495850904E+02 -0.17082428201E+02  0.47787278607E+02  0.20000034481E+02 0.  0.
        -12    1    1    2    0    0 -0.56472139662E+01 -0.39495850904E+02  0.17082428201E+02  0.43400721393E+02  0.00000000000E+00 0.  1.
         11    1    3    3    0    0 -0.15404709315E+01  0.10743137203E+02  0.15379055271E+01  0.10961441571E+02  0.51100000000E-03 0. -1.
        -11    1    3    3    0    0  0.24442236798E+01  0.21818069491E+02 -0.81898311680E+01  0.23432364808E+02  0.51100000000E-03 0.  1.
        -12    1    3    3    0    0  0.47434612179E+01  0.69346442106E+01 -0.10430502560E+02  0.13393472228E+02  0.00000000000E+00 0.  1.
</event>
<event>
 7    1  0.4083500E-009  0.4778728E+02  0.7816164E-02  0.1312668E+00
        -11   -1    0    0    0    0  0.00000000000E+00  0.00000000000E+00  0.45593999997E+02  0.45594000000E+02  0.51100000000E-03 0. -1.
         11   -1    0    0    0    0 -0.00000000000E+00 -0.00000000000E+00 -0.45593999997E+02  0.45594000000E+02  0.51100000000E-03 0.  1.
    9900012    2    1    2    0    0 -0.41879495458E+02 -0.10966925082E+02 -0.30751788124E+01  0.47787282145E+02  0.20000050614E+02 0.  0.
        -12    1    1    2    0    0  0.41879495458E+02  0.10966925082E+02  0.30751788124E+01  0.43400717855E+02  0.00000000000E+00 0.  1.
         11    1    3    3    0    0 -0.26572458739E+02 -0.62850012316E+01 -0.20715051569E+01  0.27384081832E+02  0.51100000000E-03 0. -1.
        -11    1    3    3    0    0 -0.12582623569E+02 -0.58033146008E+01  0.41519829597E+01  0.14465124921E+02  0.51100000000E-03 0.  1.
        -12    1    3    3    0    0 -0.27244131504E+01  0.11213907506E+01 -0.51556566153E+01  0.59380753923E+01  0.00000000000E+00 0.  1.
</event>
<event>
 7    1  0.4083500E-009  0.4778727E+02  0.7816164E-02  0.1312668E+00
        -11   -1    0    0    0    0  0.00000000000E+00  0.00000000000E+00  0.45593999997E+02  0.45594000000E+02  0.51100000000E-03 0. -1.
         11   -1    0    0    0    0 -0.00000000000E+00 -0.00000000000E+00 -0.45593999997E+02  0.45594000000E+02  0.51100000000E-03 0.  1.
    9900012    2    1    2    0    0 -0.24928594267E+02  0.34878392043E+02 -0.67591341867E+01  0.47787274906E+02  0.20000017609E+02 0.  0.
        -12    1    1    2    0    0  0.24928594267E+02 -0.34878392043E+02  0.67591341867E+01  0.43400725094E+02  0.00000000000E+00 0.  1.
         11    1    3    3    0    0 -0.32372841071E+01  0.11757301559E+02  0.51940319089E+01  0.13254890270E+02  0.51100000000E-03 0. -1.
        -11    1    3    3    0    0 -0.17949752269E-01  0.68491994734E+00 -0.14723624004E+01  0.16239731608E+01  0.51100000000E-03 0.  1.
         12    1    3    3    0    0 -0.21673360408E+02  0.22436170537E+02 -0.10480803695E+02  0.32908411476E+02  0.00000000000E+00 0. -1.
</event>
<event>
 7    1  0.4083500E-009  0.4778727E+02  0.7816164E-02  0.1312668E+00
        -11   -1    0    0    0    0  0.00000000000E+00  0.00000000000E+00  0.45593999997E+02  0.45594000000E+02  0.51100000000E-03 0.  1.
         11   -1    0    0    0    0 -0.00000000000E+00 -0.00000000000E+00 -0.45593999997E+02  0.45594000000E+02  0.51100000000E-03 0. -1.
    9900012    2    1    2    0    0 -0.18480282419E+02 -0.34061369101E+01 -0.39121611094E+02  0.47787273491E+02  0.20000011154E+02 0.  0.
        -12    1    1    2    0    0  0.18480282419E+02  0.34061369101E+01  0.39121611094E+02  0.43400726509E+02  0.00000000000E+00 0.  1.
         11    1    3    3    0    0 -0.38205548028E+01  0.31151422031E+01 -0.13724467971E+02  0.14582927391E+02  0.51100000000E-03 0. -1.
        -11    1    3    3    0    0 -0.10274288686E+02  0.30704738105E+01 -0.11050050483E+02  0.15397806122E+02  0.51100000000E-03 0.  1.
         12    1    3    3    0    0 -0.43854389299E+01 -0.95917529237E+01 -0.14347092640E+02  0.17806539978E+02  0.00000000000E+00 0. -1.
</event>
<event>
 7    1  0.4083500E-009  0.4778727E+02  0.7816164E-02  0.1312668E+00
        -11   -1    0    0    0    0  0.00000000000E+00  0.00000000000E+00  0.45593999997E+02  0.45594000000E+02  0.51100000000E-03 0.  1.
         11   -1    0    0    0    0 -0.00000000000E+00 -0.00000000000E+00 -0.45593999997E+02  0.45594000000E+02  0.51100000000E-03 0. -1.
    9900012    2    1    2    0    0 -0.13108354649E+02 -0.25095273016E+02 -0.32894100844E+02  0.47787267752E+02  0.19999984990E+02 0.  0.
        -12    1    1    2    0    0  0.13108354649E+02  0.25095273016E+02  0.32894100844E+02  0.43400732248E+02  0.00000000000E+00 0.  1.
         11    1    3    3    0    0  0.80688066502E+00 -0.21169992109E+01  0.97029097828E+00  0.24645906172E+01  0.51100000000E-03 0. -1.
        -11    1    3    3    0    0 -0.62493387209E+01 -0.15443497921E+02 -0.10738990363E+02  0.19821245590E+02  0.51100000000E-03 0.  1.
         12    1    3    3    0    0 -0.76658965930E+01 -0.75347758840E+01 -0.23125401459E+02  0.25501431545E+02  0.00000000000E+00 0. -1.
</event>
<event>
 7    1  0.4083500E-009  0.4778727E+02  0.7816164E-02  0.1312668E+00
        -11   -1    0    0    0    0  0.00000000000E+00  0.00000000000E+00  0.45593999997E+02  0.45594000000E+02  0.51100000000E-03 0.  1.
         11   -1    0    0    0    0 -0.00000000000E+00 -0.00000000000E+00 -0.45593999997E+02  0.45594000000E+02  0.51100000000E-03 0. -1.
    9900012    2    1    2    0    0 -0.41873805570E+02  0.97607091319E+01  0.59106791059E+01  0.47787272320E+02  0.20000005817E+02 0.  0.
        -12    1    1    2    0    0  0.41873805570E+02 -0.97607091319E+01 -0.59106791059E+01  0.43400727680E+02  0.00000000000E+00 0.  1.
         11    1    3    3    0    0 -0.50942712072E+01  0.17194010143E+01 -0.45247581746E+01  0.70271883267E+01  0.51100000000E-03 0. -1.
        -11    1    3    3    0    0 -0.10708438315E+02 -0.29417289509E+01  0.26129388060E+01  0.11408412240E+02  0.51100000000E-03 0.  1.
         12    1    3    3    0    0 -0.26071096047E+02  0.10983037068E+02  0.78224984745E+01  0.29351671754E+02  0.00000000000E+00 0. -1.
</event>
<event>
 7    1  0.4083500E-009  0.4778727E+02  0.7816164E-02  0.1312668E+00
        -11   -1    0    0    0    0  0.00000000000E+00  0.00000000000E+00  0.45593999997E+02  0.45594000000E+02  0.51100000000E-03 0. -1.
         11   -1    0    0    0    0 -0.00000000000E+00 -0.00000000000E+00 -0.45593999997E+02  0.45594000000E+02  0.51100000000E-03 0.  1.
    9900012    2    1    2    0    0  0.11870661438E+02 -0.33746743833E+02  0.24573728417E+02  0.47787269008E+02  0.19999990716E+02 0.  0.
        -12    1    1    2    0    0 -0.11870661438E+02  0.33746743833E+02 -0.24573728417E+02  0.43400730992E+02  0.00000000000E+00 0.  1.
         11    1    3    3    0    0  0.52783973536E+01 -0.76864736624E+01  0.16619120108E+02  0.19056193466E+02  0.51100000000E-03 0. -1.
        -11    1    3    3    0    0  0.14951215852E+01 -0.93564303117E+01  0.58621457174E+01  0.11141944597E+02  0.51100000000E-03 0.  1.
        -12    1    3    3    0    0  0.50971424989E+01 -0.16703839859E+02  0.20924625908E+01  0.17589130945E+02  0.00000000000E+00 0.  1.
</event>
<event>
 7    1  0.4083500E-009  0.4778728E+02  0.7816164E-02  0.1312668E+00
        -11   -1    0    0    0    0  0.00000000000E+00  0.00000000000E+00  0.45593999997E+02  0.45594000000E+02  0.51100000000E-03 0. -1.
         11   -1    0    0    0    0 -0.00000000000E+00 -0.00000000000E+00 -0.45593999997E+02  0.45594000000E+02  0.51100000000E-03 0.  1.
    9900012    2    1    2    0    0 -0.42420551580E+02 -0.86400913524E+01  0.30770477372E+01  0.47787278834E+02  0.20000035517E+02 0.  0.
        -12    1    1    2    0    0  0.42420551580E+02  0.86400913524E+01 -0.30770477372E+01  0.43400721166E+02  0.00000000000E+00 0.  1.
         11    1    3    3    0    0 -0.27992716560E+02 -0.15273010254E+01  0.18482863185E+01  0.28095212963E+02  0.51100000000E-03 0.  1.
        -11    1    3    3    0    0 -0.10796930680E+02 -0.13619757774E+01  0.49321555501E+01  0.11948006058E+02  0.51100000000E-03 0. -1.
        -12    1    3    3    0    0 -0.36309043401E+01 -0.57508145496E+01 -0.37033941314E+01  0.77440598141E+01  0.00000000000E+00 0.  1.
</event>
<event>
 7    1  0.4083500E-009  0.4778728E+02  0.7816164E-02  0.1312668E+00
        -11   -1    0    0    0    0  0.00000000000E+00  0.00000000000E+00  0.45593999997E+02  0.45594000000E+02  0.51100000000E-03 0. -1.
         11   -1    0    0    0    0 -0.00000000000E+00 -0.00000000000E+00 -0.45593999997E+02  0.45594000000E+02  0.51100000000E-03 0.  1.
    9900012    2    1    2    0    0 -0.41140453187E+01  0.42668550805E+02  0.67890975267E+01  0.47787280629E+02  0.20000043701E+02 0.  0.
        -12    1    1    2    0    0  0.41140453187E+01 -0.42668550805E+02 -0.67890975267E+01  0.43400719371E+02  0.00000000000E+00 0.  1.
         11    1    3    3    0    0 -0.15747229975E+01  0.13827707966E+02  0.31260753728E+00  0.13920595671E+02  0.51100000000E-03 0. -1.
        -11    1    3    3    0    0  0.65814880820E+01  0.10827416246E+02  0.27305482426E-01  0.12670819776E+02  0.51100000000E-03 0.  1.
        -12    1    3    3    0    0 -0.91208104031E+01  0.18013426592E+02  0.64491845070E+01  0.21195865182E+02  0.00000000000E+00 0.  1.
</event>
<event>
 7    1  0.4083500E-009  0.4778727E+02  0.7816164E-02  0.1312668E+00
        -11   -1    0    0    0    0  0.00000000000E+00  0.00000000000E+00  0.45593999997E+02  0.45594000000E+02  0.51100000000E-03 0.  1.
         11   -1    0    0    0    0 -0.00000000000E+00 -0.00000000000E+00 -0.45593999997E+02  0.45594000000E+02  0.51100000000E-03 0. -1.
    9900012    2    1    2    0    0 -0.33828753169E+02 -0.14057868245E+02 -0.23272623678E+02  0.47787271741E+02  0.20000003176E+02 0.  0.
        -12    1    1    2    0    0  0.33828753169E+02  0.14057868245E+02  0.23272623678E+02  0.43400728259E+02  0.00000000000E+00 0.  1.
         11    1    3    3    0    0 -0.11322664425E+02 -0.65008866302E+01 -0.15266582661E+02  0.20088125922E+02  0.51100000000E-03 0. -1.
        -11    1    3    3    0    0 -0.17756442848E+02 -0.15029660282E+01 -0.89594730514E+01  0.19945483878E+02  0.51100000000E-03 0.  1.
        -12    1    3    3    0    0 -0.47496458955E+01 -0.60540155863E+01  0.95343203373E+00  0.77536619410E+01  0.00000000000E+00 0.  1.
</event>
<event>
 7    1  0.4083500E-009  0.4778727E+02  0.7816164E-02  0.1312668E+00
        -11   -1    0    0    0    0  0.00000000000E+00  0.00000000000E+00  0.45593999997E+02  0.45594000000E+02  0.51100000000E-03 0.  1.
         11   -1    0    0    0    0 -0.00000000000E+00 -0.00000000000E+00 -0.45593999997E+02  0.45594000000E+02  0.51100000000E-03 0. -1.
    9900012    2    1    2    0    0  0.30968919631E+01  0.39071371340E+02 -0.18640290899E+02  0.47787271400E+02  0.20000001622E+02 0.  0.
        -12    1    1    2    0    0 -0.30968919631E+01 -0.39071371340E+02  0.18640290899E+02  0.43400728600E+02  0.00000000000E+00 0.  1.
         11    1    3    3    0    0  0.87828246582E+01  0.19030363440E+02 -0.15330599313E+02  0.25967672541E+02  0.51100000000E-03 0. -1.
        -11    1    3    3    0    0 -0.48874181849E+00  0.15294365701E+01  0.12784723016E+01  0.20524464607E+01  0.51100000000E-03 0.  1.
         12    1    3    3    0    0 -0.51971908765E+01  0.18511571330E+02 -0.45881638880E+01  0.19767152399E+02  0.00000000000E+00 0. -1.
</event>
<event>
 7    1  0.4083500E-009  0.4778727E+02  0.7816164E-02  0.1312668E+00
        -11   -1    0    0    0    0  0.00000000000E+00  0.00000000000E+00  0.45593999997E+02  0.45594000000E+02  0.51100000000E-03 0. -1.
         11   -1    0    0    0    0 -0.00000000000E+00 -0.00000000000E+00 -0.45593999997E+02  0.45594000000E+02  0.51100000000E-03 0.  1.
    9900012    2    1    2    0    0  0.19392869595E+02  0.36338114604E+02  0.13677774502E+02  0.47787268677E+02  0.19999989204E+02 0.  0.
        -12    1    1    2    0    0 -0.19392869595E+02 -0.36338114604E+02 -0.13677774502E+02  0.43400731323E+02  0.00000000000E+00 0.  1.
         11    1    3    3    0    0  0.38019409551E+01  0.20679488083E+02  0.11858896189E+02  0.24139788762E+02  0.51100000000E-03 0.  1.
        -11    1    3    3    0    0  0.63623214412E+01  0.12092629447E+02  0.57897165351E+00  0.13676477232E+02  0.51100000000E-03 0. -1.
        -12    1    3    3    0    0  0.92286071986E+01  0.35659970736E+01  0.12399066603E+01  0.99710026819E+01  0.00000000000E+00 0.  1.
</event>
<event>
 7    1  0.4083500E-009  0.4778727E+02  0.7816164E-02  0.1312668E+00
        -11   -1    0    0    0    0  0.00000000000E+00  0.00000000000E+00  0.45593999997E+02  0.45594000000E+02  0.51100000000E-03 0.  1.
         11   -1    0    0    0    0 -0.00000000000E+00 -0.00000000000E+00 -0.45593999997E+02  0.45594000000E+02  0.51100000000E-03 0. -1.
    9900012    2    1    2    0    0 -0.28162394459E+02 -0.23838530202E+02 -0.22852293439E+02  0.47787270752E+02  0.19999998666E+02 0.  0.
        -12    1    1    2    0    0  0.28162394459E+02  0.23838530202E+02  0.22852293439E+02  0.43400729248E+02  0.00000000000E+00 0.  1.
         11    1    3    3    0    0 -0.10368551306E+01 -0.88449017072E+00 -0.48808081766E+01  0.50675122241E+01  0.51100000000E-03 0. -1.
        -11    1    3    3    0    0  0.19369715276E+01 -0.18347569085E+01 -0.23087368277E+01  0.35282371821E+01  0.51100000000E-03 0.  1.
         12    1    3    3    0    0 -0.29062510856E+02 -0.21119283123E+02 -0.15662748435E+02  0.39191521346E+02  0.00000000000E+00 0. -1.
</event>
<event>
 7    1  0.4083500E-009  0.4778727E+02  0.7816164E-02  0.1312668E+00
        -11   -1    0    0    0    0  0.00000000000E+00  0.00000000000E+00  0.45593999997E+02  0.45594000000E+02  0.51100000000E-03 0. -1.
         11   -1    0    0    0    0 -0.00000000000E+00 -0.00000000000E+00 -0.45593999997E+02  0.45594000000E+02  0.51100000000E-03 0.  1.
    9900012    2    1    2    0    0 -0.18432758540E+02 -0.26695327523E+02  0.28830824617E+02  0.47787267898E+02  0.19999985652E+02 0.  0.
        -12    1    1    2    0    0  0.18432758540E+02  0.26695327523E+02 -0.28830824617E+02  0.43400732102E+02  0.00000000000E+00 0.  1.
         11    1    3    3    0    0 -0.48028798273E+01  0.90810750718E+00  0.63600183023E+01  0.80213556801E+01  0.51100000000E-03 0. -1.
        -11    1    3    3    0    0  0.55533096983E+00 -0.96323954089E+00 -0.10287499984E+01  0.15147771188E+01  0.51100000000E-03 0.  1.
        -12    1    3    3    0    0 -0.14185209683E+02 -0.26640195489E+02  0.23499556313E+02  0.38251135099E+02  0.00000000000E+00 0.  1.
</event>
<event>
 7    1  0.4083500E-009  0.4778726E+02  0.7816164E-02  0.1312668E+00
        -11   -1    0    0    0    0  0.00000000000E+00  0.00000000000E+00  0.45593999997E+02  0.45594000000E+02  0.51100000000E-03 0.  1.
         11   -1    0    0    0    0 -0.00000000000E+00 -0.00000000000E+00 -0.45593999997E+02  0.45594000000E+02  0.51100000000E-03 0. -1.
    9900012    2    1    2    0    0 -0.95990631516E+01  0.33538017333E+02 -0.25820219565E+02  0.47787258550E+02  0.19999943035E+02 0.  0.
        -12    1    1    2    0    0  0.95990631516E+01 -0.33538017333E+02  0.25820219565E+02  0.43400741450E+02  0.00000000000E+00 0.  1.
         11    1    3    3    0    0 -0.37066677659E+01  0.78749410121E+00  0.44642415547E+00  0.38156031861E+01  0.51100000000E-03 0. -1.
        -11    1    3    3    0    0  0.35347575184E+01  0.85551102272E+01 -0.78460569221E+01  0.12134456362E+02  0.51100000000E-03 0.  1.
         12    1    3    3    0    0 -0.94271529041E+01  0.24195413004E+02 -0.18420586798E+02  0.31837199002E+02  0.00000000000E+00 0. -1.
</event>
<event>
 7    1  0.4083500E-009  0.4778729E+02  0.7816164E-02  0.1312668E+00
        -11   -1    0    0    0    0  0.00000000000E+00  0.00000000000E+00  0.45593999997E+02  0.45594000000E+02  0.51100000000E-03 0.  1.
         11   -1    0    0    0    0 -0.00000000000E+00 -0.00000000000E+00 -0.45593999997E+02  0.45594000000E+02  0.51100000000E-03 0. -1.
    9900012    2    1    2    0    0  0.89732425123E+01  0.18494392148E+02 -0.38223818355E+02  0.47787286737E+02  0.20000071550E+02 0.  0.
        -12    1    1    2    0    0 -0.89732425123E+01 -0.18494392148E+02  0.38223818355E+02  0.43400713263E+02  0.00000000000E+00 0.  1.
         11    1    3    3    0    0 -0.29999501901E+01  0.40946231972E+01 -0.14266643522E+01  0.52726664701E+01  0.51100000000E-03 0. -1.
        -11    1    3    3    0    0  0.44968851506E+01  0.57832012646E+01 -0.53762524268E+01  0.90868852388E+01  0.51100000000E-03 0.  1.
         12    1    3    3    0    0  0.74763075517E+01  0.86165676862E+01 -0.31420901576E+02  0.33427735028E+02  0.00000000000E+00 0. -1.
</event>
<event>
 7    1  0.4083500E-009  0.4778728E+02  0.7816164E-02  0.1312668E+00
        -11   -1    0    0    0    0  0.00000000000E+00  0.00000000000E+00  0.45593999997E+02  0.45594000000E+02  0.51100000000E-03 0.  1.
         11   -1    0    0    0    0 -0.00000000000E+00 -0.00000000000E+00 -0.45593999997E+02  0.45594000000E+02  0.51100000000E-03 0. -1.
    9900012    2    1    2    0    0 -0.34227730374E+02  0.12763405823E+02 -0.23434605696E+02  0.47787276517E+02  0.20000024950E+02 0.  0.
        -12    1    1    2    0    0  0.34227730374E+02 -0.12763405823E+02  0.23434605696E+02  0.43400723483E+02  0.00000000000E+00 0.  1.
         11    1    3    3    0    0 -0.22510062920E+02  0.72884217159E+01 -0.20803764452E+02  0.31505882616E+02  0.51100000000E-03 0. -1.
        -11    1    3    3    0    0 -0.11258769567E+02  0.18501324949E+01 -0.43912606401E+01  0.12225630973E+02  0.51100000000E-03 0.  1.
         12    1    3    3    0    0 -0.45889788639E+00  0.36248516121E+01  0.17604193955E+01  0.40557629280E+01  0.00000000000E+00 0. -1.
</event>
<event>
 7    1  0.4083500E-009  0.4778727E+02  0.7816164E-02  0.1312668E+00
        -11   -1    0    0    0    0  0.00000000000E+00  0.00000000000E+00  0.45593999997E+02  0.45594000000E+02  0.51100000000E-03 0.  1.
         11   -1    0    0    0    0 -0.00000000000E+00 -0.00000000000E+00 -0.45593999997E+02  0.45594000000E+02  0.51100000000E-03 0. -1.
    9900012    2    1    2    0    0  0.36036174548E+02  0.43972418052E+01 -0.23784067007E+02  0.47787268958E+02  0.19999990487E+02 0.  0.
        -12    1    1    2    0    0 -0.36036174548E+02 -0.43972418052E+01  0.23784067007E+02  0.43400731042E+02  0.00000000000E+00 0.  1.
         11    1    3    3    0    0  0.71492579392E+00 -0.49055967545E+00  0.93946500065E+00  0.12784218531E+01  0.51100000000E-03 0.  1.
        -11    1    3    3    0    0  0.28749657313E+02 -0.32060280925E+01 -0.19081678246E+02  0.34654463734E+02  0.51100000000E-03 0. -1.
         12    1    3    3    0    0  0.65715914410E+01  0.80938295732E+01 -0.56418537623E+01  0.11854383371E+02  0.00000000000E+00 0. -1.
</event>
<event>
 7    1  0.4083500E-009  0.4778727E+02  0.7816164E-02  0.1312668E+00
        -11   -1    0    0    0    0  0.00000000000E+00  0.00000000000E+00  0.45593999997E+02  0.45594000000E+02  0.51100000000E-03 0. -1.
         11   -1    0    0    0    0 -0.00000000000E+00 -0.00000000000E+00 -0.45593999997E+02  0.45594000000E+02  0.51100000000E-03 0.  1.
    9900012    2    1    2    0    0 -0.10095255007E+02  0.21941734116E+02  0.36059255337E+02  0.47787265385E+02  0.19999974194E+02 0.  0.
        -12    1    1    2    0    0  0.10095255007E+02 -0.21941734116E+02 -0.36059255337E+02  0.43400734615E+02  0.00000000000E+00 0.  1.
         11    1    3    3    0    0  0.15869123085E+01  0.30852297002E+01  0.10282721616E+00  0.34709518400E+01  0.51100000000E-03 0. -1.
        -11    1    3    3    0    0 -0.66701908774E+00  0.91577920087E+01  0.22901959285E+02  0.24674071579E+02  0.51100000000E-03 0.  1.
        -12    1    3    3    0    0 -0.11015148228E+02  0.96987124074E+01  0.13054468836E+02  0.19642241966E+02  0.00000000000E+00 0.  1.
</event>
<event>
 7    1  0.4083500E-009  0.4778727E+02  0.7816164E-02  0.1312668E+00
        -11   -1    0    0    0    0  0.00000000000E+00  0.00000000000E+00  0.45593999997E+02  0.45594000000E+02  0.51100000000E-03 0.  1.
         11   -1    0    0    0    0 -0.00000000000E+00 -0.00000000000E+00 -0.45593999997E+02  0.45594000000E+02  0.51100000000E-03 0. -1.
    9900012    2    1    2    0    0  0.22153864466E+01 -0.36926578765E+02 -0.22696757462E+02  0.47787274710E+02  0.20000016715E+02 0.  0.
        -12    1    1    2    0    0 -0.22153864466E+01  0.36926578765E+02  0.22696757462E+02  0.43400725290E+02  0.00000000000E+00 0.  1.
         11    1    3    3    0    0  0.27954312193E+01 -0.72218675922E+01 -0.14398535023E+01  0.78767369887E+01  0.51100000000E-03 0. -1.
        -11    1    3    3    0    0 -0.37475161057E+01 -0.13796667642E+02 -0.15402823060E+01  0.14379304045E+02  0.51100000000E-03 0.  1.
         12    1    3    3    0    0  0.31674713330E+01 -0.15908043531E+02 -0.19716621653E+02  0.25531233677E+02  0.00000000000E+00 0. -1.
</event>
<event>
 7    1  0.4083500E-009  0.4778727E+02  0.7816164E-02  0.1312668E+00
        -11   -1    0    0    0    0  0.00000000000E+00  0.00000000000E+00  0.45593999997E+02  0.45594000000E+02  0.51100000000E-03 0.  1.
         11   -1    0    0    0    0 -0.00000000000E+00 -0.00000000000E+00 -0.45593999997E+02  0.45594000000E+02  0.51100000000E-03 0. -1.
    9900012    2    1    2    0    0 -0.34387748067E+02  0.22791826317E+02 -0.13477336754E+02  0.47787272242E+02  0.20000005459E+02 0.  0.
        -12    1    1    2    0    0  0.34387748067E+02 -0.22791826317E+02  0.13477336754E+02  0.43400727758E+02  0.00000000000E+00 0.  1.
         11    1    3    3    0    0 -0.88993220498E+01  0.10734353904E+02 -0.49995059088E+01  0.14812810209E+02  0.51100000000E-03 0. -1.
        -11    1    3    3    0    0 -0.12068905181E+02  0.77263756752E+01  0.31794738652E+01  0.14678705926E+02  0.51100000000E-03 0.  1.
        -12    1    3    3    0    0 -0.13419520836E+02  0.43310967373E+01 -0.11657304710E+02  0.18295756107E+02  0.00000000000E+00 0.  1.
</event>
<event>
 7    1  0.4083500E-009  0.4778727E+02  0.7816164E-02  0.1312668E+00
        -11   -1    0    0    0    0  0.00000000000E+00  0.00000000000E+00  0.45593999997E+02  0.45594000000E+02  0.51100000000E-03 0. -1.
         11   -1    0    0    0    0 -0.00000000000E+00 -0.00000000000E+00 -0.45593999997E+02  0.45594000000E+02  0.51100000000E-03 0.  1.
    9900012    2    1    2    0    0 -0.70631774611E+01  0.16351575542E+02  0.39577279156E+02  0.47787268163E+02  0.19999986864E+02 0.  0.
        -12    1    1    2    0    0  0.70631774611E+01 -0.16351575542E+02 -0.39577279156E+02  0.43400731837E+02  0.00000000000E+00 0.  1.
         11    1    3    3    0    0 -0.21115200728E+01  0.65382501583E+00  0.74551436702E+00  0.23327657623E+01  0.51100000000E-03 0. -1.
        -11    1    3    3    0    0 -0.35998590254E+01 -0.23554928082E+01  0.28074451287E+01  0.51370302495E+01  0.51100000000E-03 0.  1.
         12    1    3    3    0    0 -0.13517983629E+01  0.18053243335E+02  0.36024319660E+02  0.40317472152E+02  0.00000000000E+00 0. -1.
</event>
<event>
 7    1  0.4083500E-009  0.4778725E+02  0.7816164E-02  0.1312668E+00
        -11   -1    0    0    0    0  0.00000000000E+00  0.00000000000E+00  0.45593999997E+02  0.45594000000E+02  0.51100000000E-03 0.  1.
         11   -1    0    0    0    0 -0.00000000000E+00 -0.00000000000E+00 -0.45593999997E+02  0.45594000000E+02  0.51100000000E-03 0. -1.
    9900012    2    1    2    0    0  0.16919548491E+02 -0.21108019400E+02 -0.33938262927E+02  0.47787247765E+02  0.19999893858E+02 0.  0.
        -12    1    1    2    0    0 -0.16919548491E+02  0.21108019400E+02  0.33938262927E+02  0.43400752235E+02  0.00000000000E+00 0.  1.
         11    1    3    3    0    0 -0.11768853672E+01  0.96542445960E+00 -0.44448726359E+00  0.15857719708E+01  0.51100000000E-03 0.  1.
        -11    1    3    3    0    0  0.18528368797E+02 -0.17824458365E+02 -0.21651135134E+02  0.33612251027E+02  0.51100000000E-03 0. -1.
         12    1    3    3    0    0 -0.43193493835E+00 -0.42489854943E+01 -0.11842640529E+02  0.12589224767E+02  0.00000000000E+00 0. -1.
</event>
<event>
 7    1  0.4083500E-009  0.4778727E+02  0.7816164E-02  0.1312668E+00
        -11   -1    0    0    0    0  0.00000000000E+00  0.00000000000E+00  0.45593999997E+02  0.45594000000E+02  0.51100000000E-03 0.  1.
         11   -1    0    0    0    0 -0.00000000000E+00 -0.00000000000E+00 -0.45593999997E+02  0.45594000000E+02  0.51100000000E-03 0. -1.
    9900012    2    1    2    0    0  0.32405946633E+02  0.17535997313E+02 -0.22933958334E+02  0.47787273925E+02  0.20000013133E+02 0.  0.
        -12    1    1    2    0    0 -0.32405946633E+02 -0.17535997313E+02  0.22933958334E+02  0.43400726075E+02  0.00000000000E+00 0.  1.
         11    1    3    3    0    0  0.12785061532E+02  0.67362263793E+01 -0.75965175141E+01  0.16326102499E+02  0.51100000000E-03 0. -1.
        -11    1    3    3    0    0  0.19890757105E+02  0.13916159550E+02 -0.14252943741E+02  0.28150455066E+02  0.51100000000E-03 0.  1.
        -12    1    3    3    0    0 -0.26987200419E+00 -0.31163886158E+01 -0.10844970790E+01  0.33107163603E+01  0.00000000000E+00 0.  1.
</event>
<event>
 7    1  0.4083500E-009  0.4778727E+02  0.7816164E-02  0.1312668E+00
        -11   -1    0    0    0    0  0.00000000000E+00  0.00000000000E+00  0.45593999997E+02  0.45594000000E+02  0.51100000000E-03 0.  1.
         11   -1    0    0    0    0 -0.00000000000E+00 -0.00000000000E+00 -0.45593999997E+02  0.45594000000E+02  0.51100000000E-03 0. -1.
    9900012    2    1    2    0    0  0.32047379514E+02 -0.59717098876E+01 -0.28651830684E+02  0.47787271271E+02  0.20000001032E+02 0.  0.
        -12    1    1    2    0    0 -0.32047379514E+02  0.59717098876E+01  0.28651830684E+02  0.43400728729E+02  0.00000000000E+00 0.  1.
         11    1    3    3    0    0  0.36901219048E+01  0.40937421092E+01 -0.34433236361E+01  0.64986307829E+01  0.51100000000E-03 0. -1.
        -11    1    3    3    0    0  0.13973572188E+02 -0.72800726008E+00 -0.17713950285E+02  0.22573762408E+02  0.51100000000E-03 0.  1.
        -12    1    3    3    0    0  0.14383685421E+02 -0.93374447367E+01 -0.74945567626E+01  0.18714878080E+02  0.00000000000E+00 0.  1.
</event>
<event>
 7    1  0.4083500E-009  0.4778727E+02  0.7816164E-02  0.1312668E+00
        -11   -1    0    0    0    0  0.00000000000E+00  0.00000000000E+00  0.45593999997E+02  0.45594000000E+02  0.51100000000E-03 0. -1.
         11   -1    0    0    0    0 -0.00000000000E+00 -0.00000000000E+00 -0.45593999997E+02  0.45594000000E+02  0.51100000000E-03 0.  1.
    9900012    2    1    2    0    0 -0.11907321537E+02  0.28019151358E+02  0.30931631569E+02  0.47787274424E+02  0.20000015408E+02 0.  0.
        -12    1    1    2    0    0  0.11907321537E+02 -0.28019151358E+02 -0.30931631569E+02  0.43400725576E+02  0.00000000000E+00 0.  1.
         11    1    3    3    0    0 -0.89347485033E+01  0.51033304977E+01  0.55864645439E+01  0.11708215037E+02  0.51100000000E-03 0. -1.
        -11    1    3    3    0    0 -0.16588523975E+01 -0.65663372728E+00  0.34303236338E+01  0.38665332822E+01  0.51100000000E-03 0.  1.
         12    1    3    3    0    0 -0.13137206368E+01  0.23572454588E+02  0.21914843391E+02  0.32212526105E+02  0.00000000000E+00 0. -1.
</event>
<event>
 7    1  0.4083500E-009  0.4778727E+02  0.7816164E-02  0.1312668E+00
        -11   -1    0    0    0    0  0.00000000000E+00  0.00000000000E+00  0.45593999997E+02  0.45594000000E+02  0.51100000000E-03 0.  1.
         11   -1    0    0    0    0 -0.00000000000E+00 -0.00000000000E+00 -0.45593999997E+02  0.45594000000E+02  0.51100000000E-03 0. -1.
    9900012    2    1    2    0    0  0.20919032051E+02  0.17142467823E+02 -0.33943377560E+02  0.47787274370E+02  0.20000015161E+02 0.  0.
        -12    1    1    2    0    0 -0.20919032051E+02 -0.17142467823E+02  0.33943377560E+02  0.43400725630E+02  0.00000000000E+00 0.  1.
         11    1    3    3    0    0  0.13502695689E+02  0.15033349118E+02 -0.22155256326E+02  0.29986326212E+02  0.51100000000E-03 0. -1.
        -11    1    3    3    0    0  0.47977092311E+00  0.43548420035E+01 -0.89727171254E+01  0.99852131619E+01  0.51100000000E-03 0.  1.
        -12    1    3    3    0    0  0.69365654390E+01 -0.22457232983E+01 -0.28154041088E+01  0.78157349954E+01  0.00000000000E+00 0.  1.
</event>
<event>
 7    1  0.4083500E-009  0.4778727E+02  0.7816164E-02  0.1312668E+00
        -11   -1    0    0    0    0  0.00000000000E+00  0.00000000000E+00  0.45593999997E+02  0.45594000000E+02  0.51100000000E-03 0.  1.
         11   -1    0    0    0    0 -0.00000000000E+00 -0.00000000000E+00 -0.45593999997E+02  0.45594000000E+02  0.51100000000E-03 0. -1.
    9900012    2    1    2    0    0  0.18990377645E+02 -0.11696530169E+02 -0.37231436902E+02  0.47787272415E+02  0.20000006251E+02 0.  0.
        -12    1    1    2    0    0 -0.18990377645E+02  0.11696530169E+02  0.37231436902E+02  0.43400727585E+02  0.00000000000E+00 0.  1.
         11    1    3    3    0    0  0.12706592351E+02 -0.98701578921E+01 -0.31279671973E+02  0.35175209807E+02  0.51100000000E-03 0. -1.
        -11    1    3    3    0    0  0.58823753690E+01 -0.62081525624E+00 -0.81516444174E+01  0.10071596623E+02  0.51100000000E-03 0.  1.
        -12    1    3    3    0    0  0.40140992522E+00 -0.12055570211E+01  0.21998794886E+01  0.25404659855E+01  0.00000000000E+00 0.  1.
</event>
<event>
 7    1  0.4083500E-009  0.4778727E+02  0.7816164E-02  0.1312668E+00
        -11   -1    0    0    0    0  0.00000000000E+00  0.00000000000E+00  0.45593999997E+02  0.45594000000E+02  0.51100000000E-03 0.  1.
         11   -1    0    0    0    0 -0.00000000000E+00 -0.00000000000E+00 -0.45593999997E+02  0.45594000000E+02  0.51100000000E-03 0. -1.
    9900012    2    1    2    0    0 -0.13680318140E+02  0.14588741141E+02 -0.38518061280E+02  0.47787268241E+02  0.19999987217E+02 0.  0.
        -12    1    1    2    0    0  0.13680318140E+02 -0.14588741141E+02  0.38518061280E+02  0.43400731759E+02  0.00000000000E+00 0.  1.
         11    1    3    3    0    0 -0.11297000253E+01  0.17168059631E+00  0.10912322419E+01  0.15800267216E+01  0.51100000000E-03 0. -1.
        -11    1    3    3    0    0  0.27388227044E+01  0.79707575117E-01 -0.60281661316E+01  0.66216531376E+01  0.51100000000E-03 0.  1.
         12    1    3    3    0    0 -0.15289440819E+02  0.14337352970E+02 -0.33581127390E+02  0.39585588382E+02  0.00000000000E+00 0. -1.
</event>
<event>
 7    1  0.4083500E-009  0.4778727E+02  0.7816164E-02  0.1312668E+00
        -11   -1    0    0    0    0  0.00000000000E+00  0.00000000000E+00  0.45593999997E+02  0.45594000000E+02  0.51100000000E-03 0.  1.
         11   -1    0    0    0    0 -0.00000000000E+00 -0.00000000000E+00 -0.45593999997E+02  0.45594000000E+02  0.51100000000E-03 0. -1.
    9900012    2    1    2    0    0 -0.33282854625E+02 -0.19157374072E+02 -0.20220536208E+02  0.47787268694E+02  0.19999989285E+02 0.  0.
        -12    1    1    2    0    0  0.33282854625E+02  0.19157374072E+02  0.20220536208E+02  0.43400731306E+02  0.00000000000E+00 0.  1.
         11    1    3    3    0    0 -0.19808699869E+02 -0.10874894234E+02 -0.14672496745E+02  0.26943089580E+02  0.51100000000E-03 0. -1.
        -11    1    3    3    0    0 -0.11100327770E+02 -0.86758484475E+01 -0.89398307931E+01  0.16685568548E+02  0.51100000000E-03 0.  1.
        -12    1    3    3    0    0 -0.23738269852E+01  0.39336860989E+00  0.33917913298E+01  0.41586105666E+01  0.00000000000E+00 0.  1.
</event>
<event>
 7    1  0.4083500E-009  0.4778726E+02  0.7816164E-02  0.1312668E+00
        -11   -1    0    0    0    0  0.00000000000E+00  0.00000000000E+00  0.45593999997E+02  0.45594000000E+02  0.51100000000E-03 0.  1.
         11   -1    0    0    0    0 -0.00000000000E+00 -0.00000000000E+00 -0.45593999997E+02  0.45594000000E+02  0.51100000000E-03 0. -1.
    9900012    2    1    2    0    0 -0.50050209969E+01 -0.32273514283E+02 -0.28583104456E+02  0.47787264757E+02  0.19999971331E+02 0.  0.
        -12    1    1    2    0    0  0.50050209969E+01  0.32273514283E+02  0.28583104456E+02  0.43400735243E+02  0.00000000000E+00 0.  1.
         11    1    3    3    0    0 -0.28746534539E+01 -0.76419783057E+00 -0.23283756394E+01  0.37774282499E+01  0.51100000000E-03 0.  1.
        -11    1    3    3    0    0 -0.49486647105E+01 -0.17524000837E+02 -0.58765376568E+01  0.19134094775E+02  0.51100000000E-03 0. -1.
         12    1    3    3    0    0  0.28182971675E+01 -0.13985315615E+02 -0.20378191160E+02  0.24875741732E+02  0.00000000000E+00 0. -1.
</event>
<event>
 7    1  0.4083500E-009  0.4778727E+02  0.7816164E-02  0.1312668E+00
        -11   -1    0    0    0    0  0.00000000000E+00  0.00000000000E+00  0.45593999997E+02  0.45594000000E+02  0.51100000000E-03 0.  1.
         11   -1    0    0    0    0 -0.00000000000E+00 -0.00000000000E+00 -0.45593999997E+02  0.45594000000E+02  0.51100000000E-03 0. -1.
    9900012    2    1    2    0    0  0.19820162851E+02  0.74166544859E+01 -0.37891655570E+02  0.47787272114E+02  0.20000004877E+02 0.  0.
        -12    1    1    2    0    0 -0.19820162851E+02 -0.74166544859E+01  0.37891655570E+02  0.43400727886E+02  0.00000000000E+00 0.  1.
         11    1    3    3    0    0 -0.52352357059E+00  0.32140810067E+01 -0.63604908273E+01  0.71456446505E+01  0.51100000000E-03 0. -1.
        -11    1    3    3    0    0  0.12303902441E+01  0.29299837047E+01 -0.15019036865E+02  0.15351551494E+02  0.51100000000E-03 0.  1.
        -12    1    3    3    0    0  0.19113296177E+02  0.12725897746E+01 -0.16512127877E+02  0.25290075969E+02  0.00000000000E+00 0.  1.
</event>
<event>
 7    1  0.4083500E-009  0.4778727E+02  0.7816164E-02  0.1312668E+00
        -11   -1    0    0    0    0  0.00000000000E+00  0.00000000000E+00  0.45593999997E+02  0.45594000000E+02  0.51100000000E-03 0.  1.
         11   -1    0    0    0    0 -0.00000000000E+00 -0.00000000000E+00 -0.45593999997E+02  0.45594000000E+02  0.51100000000E-03 0. -1.
    9900012    2    1    2    0    0 -0.15740561295E+02  0.35519336533E+02 -0.19345143699E+02  0.47787272790E+02  0.20000007958E+02 0.  0.
        -12    1    1    2    0    0  0.15740561295E+02 -0.35519336533E+02  0.19345143699E+02  0.43400727210E+02  0.00000000000E+00 0.  1.
         11    1    3    3    0    0  0.69333084880E+00  0.17684554344E+02 -0.28559159234E+01  0.17927086379E+02  0.51100000000E-03 0. -1.
        -11    1    3    3    0    0 -0.62904238460E+01  0.95533673660E+01 -0.51748444577E+01  0.12554492248E+02  0.51100000000E-03 0.  1.
        -12    1    3    3    0    0 -0.10143468298E+02  0.82814148227E+01 -0.11314383318E+02  0.17305694162E+02  0.00000000000E+00 0.  1.
</event>
<event>
 7    1  0.4083500E-009  0.4778728E+02  0.7816164E-02  0.1312668E+00
        -11   -1    0    0    0    0  0.00000000000E+00  0.00000000000E+00  0.45593999997E+02  0.45594000000E+02  0.51100000000E-03 0. -1.
         11   -1    0    0    0    0 -0.00000000000E+00 -0.00000000000E+00 -0.45593999997E+02  0.45594000000E+02  0.51100000000E-03 0.  1.
    9900012    2    1    2    0    0 -0.33478501020E+02  0.27583909578E+02  0.13930702292E+01  0.47787277162E+02  0.20000027893E+02 0.  0.
        -12    1    1    2    0    0  0.33478501020E+02 -0.27583909578E+02 -0.13930702292E+01  0.43400722838E+02  0.00000000000E+00 0.  1.
         11    1    3    3    0    0 -0.30964673875E+01  0.64733295112E+01  0.54744063906E+00  0.71966517740E+01  0.51100000000E-03 0. -1.
        -11    1    3    3    0    0 -0.10874187996E+02  0.10713320190E+02 -0.74419459351E+01  0.16982513171E+02  0.51100000000E-03 0.  1.
         12    1    3    3    0    0 -0.19507845637E+02  0.10397259877E+02  0.82875755253E+01  0.23608112217E+02  0.00000000000E+00 0. -1.
</event>
<event>
 7    1  0.4083500E-009  0.4778727E+02  0.7816164E-02  0.1312668E+00
        -11   -1    0    0    0    0  0.00000000000E+00  0.00000000000E+00  0.45593999997E+02  0.45594000000E+02  0.51100000000E-03 0.  1.
         11   -1    0    0    0    0 -0.00000000000E+00 -0.00000000000E+00 -0.45593999997E+02  0.45594000000E+02  0.51100000000E-03 0. -1.
    9900012    2    1    2    0    0  0.23554551143E+02 -0.33594203873E+02 -0.14150478870E+02  0.47787268835E+02  0.19999989927E+02 0.  0.
        -12    1    1    2    0    0 -0.23554551143E+02  0.33594203873E+02  0.14150478870E+02  0.43400731165E+02  0.00000000000E+00 0.  1.
         11    1    3    3    0    0  0.47945661033E+01 -0.27159218836E+01 -0.23690778716E+00  0.55154529603E+01  0.51100000000E-03 0. -1.
        -11    1    3    3    0    0  0.21456862026E+02 -0.29928552925E+02 -0.11647691002E+02  0.38623618605E+02  0.51100000000E-03 0.  1.
        -12    1    3    3    0    0 -0.26968769868E+01 -0.94972906398E+00 -0.22658800809E+01  0.36481972696E+01  0.00000000000E+00 0.  1.
</event>
<event>
 7    1  0.4083500E-009  0.4778727E+02  0.7816164E-02  0.1312668E+00
        -11   -1    0    0    0    0  0.00000000000E+00  0.00000000000E+00  0.45593999997E+02  0.45594000000E+02  0.51100000000E-03 0. -1.
         11   -1    0    0    0    0 -0.00000000000E+00 -0.00000000000E+00 -0.45593999997E+02  0.45594000000E+02  0.51100000000E-03 0.  1.
    9900012    2    1    2    0    0 -0.22722918782E+02 -0.35911829686E+01  0.36802116966E+02  0.47787269059E+02  0.19999990946E+02 0.  0.
        -12    1    1    2    0    0  0.22722918782E+02  0.35911829686E+01 -0.36802116966E+02  0.43400730941E+02  0.00000000000E+00 0.  1.
         11    1    3    3    0    0 -0.68981402918E+00 -0.32839997330E+01  0.52496290310E+01  0.62304978024E+01  0.51100000000E-03 0. -1.
        -11    1    3    3    0    0 -0.12649466878E+02 -0.63346845918E+01  0.10112955213E+02  0.17389913874E+02  0.51100000000E-03 0.  1.
         12    1    3    3    0    0 -0.93836378756E+01  0.60275013563E+01  0.21439532722E+02  0.24166857382E+02  0.00000000000E+00 0. -1.
</event>
<event>
 7    1  0.4083500E-009  0.4778727E+02  0.7816164E-02  0.1312668E+00
        -11   -1    0    0    0    0  0.00000000000E+00  0.00000000000E+00  0.45593999997E+02  0.45594000000E+02  0.51100000000E-03 0.  1.
         11   -1    0    0    0    0 -0.00000000000E+00 -0.00000000000E+00 -0.45593999997E+02  0.45594000000E+02  0.51100000000E-03 0. -1.
    9900012    2    1    2    0    0 -0.18696473141E+02  0.33365385735E+02 -0.20513804786E+02  0.47787271205E+02  0.20000000732E+02 0.  0.
        -12    1    1    2    0    0  0.18696473141E+02 -0.33365385735E+02  0.20513804786E+02  0.43400728795E+02  0.00000000000E+00 0.  1.
         11    1    3    3    0    0 -0.54501577811E+00  0.10534493243E+01  0.15535808489E+01  0.19545872691E+01  0.51100000000E-03 0. -1.
        -11    1    3    3    0    0 -0.32691580827E+01  0.24972530122E+01  0.21478078722E+01  0.46407699893E+01  0.51100000000E-03 0.  1.
         12    1    3    3    0    0 -0.14882299281E+02  0.29814683398E+02 -0.24215193507E+02  0.41191913947E+02  0.00000000000E+00 0. -1.
</event>
<event>
 7    1  0.4083500E-009  0.4778727E+02  0.7816164E-02  0.1312668E+00
        -11   -1    0    0    0    0  0.00000000000E+00  0.00000000000E+00  0.45593999997E+02  0.45594000000E+02  0.51100000000E-03 0.  1.
         11   -1    0    0    0    0 -0.00000000000E+00 -0.00000000000E+00 -0.45593999997E+02  0.45594000000E+02  0.51100000000E-03 0. -1.
    9900012    2    1    2    0    0  0.28953863369E+02  0.26408876235E+02  0.18651225745E+02  0.47787272244E+02  0.20000005467E+02 0.  0.
        -12    1    1    2    0    0 -0.28953863369E+02 -0.26408876235E+02 -0.18651225745E+02  0.43400727756E+02  0.00000000000E+00 0.  1.
         11    1    3    3    0    0  0.11603010952E+02  0.98053757167E+01  0.15145953953E+02  0.21451694048E+02  0.51100000000E-03 0.  1.
        -11    1    3    3    0    0  0.14230858026E+02  0.73202360223E+01  0.41126404921E+01  0.16523225704E+02  0.51100000000E-03 0. -1.
        -12    1    3    3    0    0  0.31199943918E+01  0.92832644956E+01 -0.60736869993E+00  0.98123524925E+01  0.00000000000E+00 0.  1.
</event>
<event>
 7    1  0.4083500E-009  0.4778727E+02  0.7816164E-02  0.1312668E+00
        -11   -1    0    0    0    0  0.00000000000E+00  0.00000000000E+00  0.45593999997E+02  0.45594000000E+02  0.51100000000E-03 0. -1.
         11   -1    0    0    0    0 -0.00000000000E+00 -0.00000000000E+00 -0.45593999997E+02  0.45594000000E+02  0.51100000000E-03 0.  1.
    9900012    2    1    2    0    0 -0.36352916825E+02 -0.23181593747E+02 -0.49701380884E+01  0.47787272783E+02  0.20000007926E+02 0.  0.
        -12    1    1    2    0    0  0.36352916825E+02  0.23181593747E+02  0.49701380884E+01  0.43400727217E+02  0.00000000000E+00 0.  1.
         11    1    3    3    0    0 -0.16396273000E+02 -0.88151614367E+01  0.48941072164E+01  0.19248301877E+02  0.51100000000E-03 0. -1.
        -11    1    3    3    0    0 -0.17285758104E+02 -0.96597476872E+01 -0.33716205473E+01  0.20086711627E+02  0.51100000000E-03 0.  1.
        -12    1    3    3    0    0 -0.26708857215E+01 -0.47066846234E+01 -0.64926247575E+01  0.84522592792E+01  0.00000000000E+00 0.  1.
</event>
<event>
 7    1  0.4083500E-009  0.4778728E+02  0.7816164E-02  0.1312668E+00
        -11   -1    0    0    0    0  0.00000000000E+00  0.00000000000E+00  0.45593999997E+02  0.45594000000E+02  0.51100000000E-03 0. -1.
         11   -1    0    0    0    0 -0.00000000000E+00 -0.00000000000E+00 -0.45593999997E+02  0.45594000000E+02  0.51100000000E-03 0.  1.
    9900012    2    1    2    0    0 -0.99567585154E+00 -0.42407187566E+02  0.91793938254E+01  0.47787283431E+02  0.20000056476E+02 0.  0.
        -12    1    1    2    0    0  0.99567585154E+00  0.42407187566E+02 -0.91793938254E+01  0.43400716569E+02  0.00000000000E+00 0.  1.
         11    1    3    3    0    0  0.40638062193E+01 -0.28201354984E+02  0.67653218467E+01  0.29284817292E+02  0.51100000000E-03 0. -1.
        -11    1    3    3    0    0 -0.39845500637E+00 -0.13561704441E+02  0.25019754505E+01  0.13796321073E+02  0.51100000000E-03 0.  1.
        -12    1    3    3    0    0 -0.46610270644E+01 -0.64412814184E+00 -0.87903471841E-01  0.47061450656E+01  0.00000000000E+00 0.  1.
</event>
<event>
 7    1  0.4083500E-009  0.4778727E+02  0.7816164E-02  0.1312668E+00
        -11   -1    0    0    0    0  0.00000000000E+00  0.00000000000E+00  0.45593999997E+02  0.45594000000E+02  0.51100000000E-03 0.  1.
         11   -1    0    0    0    0 -0.00000000000E+00 -0.00000000000E+00 -0.45593999997E+02  0.45594000000E+02  0.51100000000E-03 0. -1.
    9900012    2    1    2    0    0 -0.69733514297E+01  0.33972028548E+02 -0.26094010641E+02  0.47787265615E+02  0.19999975245E+02 0.  0.
        -12    1    1    2    0    0  0.69733514297E+01 -0.33972028548E+02  0.26094010641E+02  0.43400734385E+02  0.00000000000E+00 0.  1.
         11    1    3    3    0    0  0.24991602819E+00  0.23577925388E+02 -0.23055941782E+02  0.32978136323E+02  0.51100000000E-03 0. -1.
        -11    1    3    3    0    0 -0.33984044761E+01  0.32253430910E+01 -0.45651017721E+01  0.65415705674E+01  0.51100000000E-03 0.  1.
         12    1    3    3    0    0 -0.38248629818E+01  0.71687600682E+01  0.15270329126E+01  0.82675587244E+01  0.00000000000E+00 0. -1.
</event>
<event>
 7    1  0.4083500E-009  0.4778728E+02  0.7816164E-02  0.1312668E+00
        -11   -1    0    0    0    0  0.00000000000E+00  0.00000000000E+00  0.45593999997E+02  0.45594000000E+02  0.51100000000E-03 0.  1.
         11   -1    0    0    0    0 -0.00000000000E+00 -0.00000000000E+00 -0.45593999997E+02  0.45594000000E+02  0.51100000000E-03 0. -1.
    9900012    2    1    2    0    0  0.30067905887E+02 -0.22728252755E+02 -0.21516749104E+02  0.47787275010E+02  0.20000018080E+02 0.  0.
        -12    1    1    2    0    0 -0.30067905887E+02  0.22728252755E+02  0.21516749104E+02  0.43400724990E+02  0.00000000000E+00 0.  1.
         11    1    3    3    0    0  0.21117189375E+02 -0.14618846823E+02 -0.24068792153E+02  0.35198765966E+02  0.51100000000E-03 0. -1.
        -11    1    3    3    0    0  0.50287695577E+00 -0.40425408079E+00  0.78931698621E+00  0.10194744530E+01  0.51100000000E-03 0.  1.
         12    1    3    3    0    0  0.84478395555E+01 -0.77051518505E+01  0.17627260629E+01  0.11569034591E+02  0.00000000000E+00 0. -1.
</event>
<event>
 7    1  0.4083500E-009  0.4778727E+02  0.7816164E-02  0.1312668E+00
        -11   -1    0    0    0    0  0.00000000000E+00  0.00000000000E+00  0.45593999997E+02  0.45594000000E+02  0.51100000000E-03 0.  1.
         11   -1    0    0    0    0 -0.00000000000E+00 -0.00000000000E+00 -0.45593999997E+02  0.45594000000E+02  0.51100000000E-03 0. -1.
    9900012    2    1    2    0    0  0.25717924320E+02 -0.27594644025E+02 -0.21465023788E+02  0.47787271245E+02  0.20000000916E+02 0.  0.
        -12    1    1    2    0    0 -0.25717924320E+02  0.27594644025E+02  0.21465023788E+02  0.43400728755E+02  0.00000000000E+00 0.  1.
         11    1    3    3    0    0  0.12001509212E+02 -0.13188622814E+02 -0.19335004145E+02  0.26302440584E+02  0.51100000000E-03 0. -1.
        -11    1    3    3    0    0  0.85930908432E+01 -0.10988424983E+02 -0.48278176634E+01  0.14761250539E+02  0.51100000000E-03 0.  1.
         12    1    3    3    0    0  0.51233242653E+01 -0.34175962279E+01  0.26977980200E+01  0.67235801223E+01  0.00000000000E+00 0. -1.
</event>
<event>
 7    1  0.4083500E-009  0.4778727E+02  0.7816164E-02  0.1312668E+00
        -11   -1    0    0    0    0  0.00000000000E+00  0.00000000000E+00  0.45593999997E+02  0.45594000000E+02  0.51100000000E-03 0. -1.
         11   -1    0    0    0    0 -0.00000000000E+00 -0.00000000000E+00 -0.45593999997E+02  0.45594000000E+02  0.51100000000E-03 0.  1.
    9900012    2    1    2    0    0 -0.49684967584E+00  0.24375893486E+02  0.35905325140E+02  0.47787269404E+02  0.19999992522E+02 0.  0.
        -12    1    1    2    0    0  0.49684967584E+00 -0.24375893486E+02 -0.35905325140E+02  0.43400730596E+02  0.00000000000E+00 0.  1.
         11    1    3    3    0    0 -0.37015150749E+01  0.48947639777E+01  0.97327184844E+01  0.11505900121E+02  0.51100000000E-03 0. -1.
        -11    1    3    3    0    0  0.52471016075E+01  0.74132064812E+01  0.21694804280E+01  0.93377915591E+01  0.51100000000E-03 0.  1.
        -12    1    3    3    0    0 -0.20424362084E+01  0.12067923027E+02  0.24003126228E+02  0.26943577724E+02  0.00000000000E+00 0.  1.
</event>
<event>
 7    1  0.4083500E-009  0.4778727E+02  0.7816164E-02  0.1312668E+00
        -11   -1    0    0    0    0  0.00000000000E+00  0.00000000000E+00  0.45593999997E+02  0.45594000000E+02  0.51100000000E-03 0. -1.
         11   -1    0    0    0    0 -0.00000000000E+00 -0.00000000000E+00 -0.45593999997E+02  0.45594000000E+02  0.51100000000E-03 0.  1.
    9900012    2    1    2    0    0  0.45805244927E+01 -0.40789520601E+02 -0.14101672190E+02  0.47787270121E+02  0.19999995788E+02 0.  0.
        -12    1    1    2    0    0 -0.45805244927E+01  0.40789520601E+02  0.14101672190E+02  0.43400729879E+02  0.00000000000E+00 0.  1.
         11    1    3    3    0    0 -0.19990845765E+01 -0.23940992918E+02 -0.93120829489E+01  0.25765914891E+02  0.51100000000E-03 0. -1.
        -11    1    3    3    0    0  0.49237218798E+01 -0.17882692894E+02 -0.20553689662E+01  0.18661679564E+02  0.51100000000E-03 0.  1.
        -12    1    3    3    0    0  0.16558871895E+01  0.10341652114E+01 -0.27342202747E+01  0.33596756658E+01  0.00000000000E+00 0.  1.
</event>
<event>
 7    1  0.4083500E-009  0.4778733E+02  0.7816164E-02  0.1312667E+00
        -11   -1    0    0    0    0  0.00000000000E+00  0.00000000000E+00  0.45593999997E+02  0.45594000000E+02  0.51100000000E-03 0.  1.
         11   -1    0    0    0    0 -0.00000000000E+00 -0.00000000000E+00 -0.45593999997E+02  0.45594000000E+02  0.51100000000E-03 0. -1.
    9900012    2    1    2    0    0 -0.63768731518E+01 -0.42596840087E+02 -0.53350211976E+01  0.47787334708E+02  0.20000290265E+02 0.  0.
        -12    1    1    2    0    0  0.63768731518E+01  0.42596840087E+02  0.53350211976E+01  0.43400665292E+02  0.00000000000E+00 0.  1.
         11    1    3    3    0    0 -0.74190490125E-01 -0.22132545552E+02 -0.10193394069E+01  0.22156130753E+02  0.51100000000E-03 0. -1.
        -11    1    3    3    0    0 -0.59768510314E+00 -0.39229011961E+01  0.45321398920E+01  0.60238420911E+01  0.51100000000E-03 0.  1.
         12    1    3    3    0    0 -0.57049975585E+01 -0.16541393339E+02 -0.88478216827E+01  0.19607361864E+02  0.00000000000E+00 0. -1.
</event>
<event>
 7    1  0.4083500E-009  0.4778727E+02  0.7816164E-02  0.1312668E+00
        -11   -1    0    0    0    0  0.00000000000E+00  0.00000000000E+00  0.45593999997E+02  0.45594000000E+02  0.51100000000E-03 0. -1.
         11   -1    0    0    0    0 -0.00000000000E+00 -0.00000000000E+00 -0.45593999997E+02  0.45594000000E+02  0.51100000000E-03 0.  1.
    9900012    2    1    2    0    0 -0.15696410057E+02  0.40341551190E+02 -0.31313434593E+01  0.47787270134E+02  0.19999995847E+02 0.  0.
        -12    1    1    2    0    0  0.15696410057E+02 -0.40341551190E+02  0.31313434593E+01  0.43400729866E+02  0.00000000000E+00 0.  1.
         11    1    3    3    0    0 -0.33863820964E+01 -0.30681487627E+00  0.16337960176E+01  0.37724009277E+01  0.51100000000E-03 0. -1.
        -11    1    3    3    0    0 -0.10476929092E+02  0.16617058058E+02 -0.26284817251E+01  0.19819222440E+02  0.51100000000E-03 0.  1.
         12    1    3    3    0    0 -0.18330988680E+01  0.24031308009E+02 -0.21366577518E+01  0.24195646766E+02  0.00000000000E+00 0. -1.
</event>
<event>
 7    1  0.4083500E-009  0.4778725E+02  0.7816164E-02  0.1312668E+00
        -11   -1    0    0    0    0  0.00000000000E+00  0.00000000000E+00  0.45593999997E+02  0.45594000000E+02  0.51100000000E-03 0. -1.
         11   -1    0    0    0    0 -0.00000000000E+00 -0.00000000000E+00 -0.45593999997E+02  0.45594000000E+02  0.51100000000E-03 0.  1.
    9900012    2    1    2    0    0 -0.36288719595E+01  0.33271164553E+02  0.27631246631E+02  0.47787252393E+02  0.19999914962E+02 0.  0.
        -12    1    1    2    0    0  0.36288719595E+01 -0.33271164553E+02 -0.27631246631E+02  0.43400747607E+02  0.00000000000E+00 0.  1.
         11    1    3    3    0    0 -0.99996564331E+00 -0.42316341078E-01  0.28136128804E+01  0.29863254448E+01  0.51100000000E-03 0.  1.
        -11    1    3    3    0    0 -0.64992587480E+01  0.32670287600E+02  0.22982423247E+02  0.40469492642E+02  0.51100000000E-03 0. -1.
         12    1    3    3    0    0  0.38703524319E+01  0.64319329474E+00  0.18352105036E+01  0.43314343068E+01  0.00000000000E+00 0. -1.
</event>
<event>
 7    1  0.4851050E-009  0.4778729E+02  0.7816164E-02  0.1312668E+00
        -11   -1    0    0    0    0  0.00000000000E+00  0.00000000000E+00  0.45593999997E+02  0.45594000000E+02  0.51100000000E-03 0.  1.
         11   -1    0    0    0    0 -0.00000000000E+00 -0.00000000000E+00 -0.45593999997E+02  0.45594000000E+02  0.51100000000E-03 0. -1.
    9900012    2    1    2    0    0  0.42513549030E+02 -0.64755116742E+01  0.58555691369E+01  0.47787288110E+02  0.20000077810E+02 0.  0.
        -12    1    1    2    0    0 -0.42513549030E+02  0.64755116742E+01 -0.58555691369E+01  0.43400711890E+02  0.00000000000E+00 0.  1.
         11    1    3    3    0    0  0.98969832465E+01 -0.77579149756E+01  0.20359009950E+01  0.12738933051E+02  0.51100000000E-03 0. -1.
        -11    1    3    3    0    0  0.18796810537E+01  0.18168782888E+01 -0.25521159778E+01  0.36534290475E+01  0.51100000000E-03 0.  1.
         12    1    3    3    0    0  0.30736884730E+02 -0.53447498738E+00  0.63717841198E+01  0.31394926012E+02  0.00000000000E+00 0. -1.
</event>
<event>
 7    1  0.4083500E-009  0.4778727E+02  0.7816164E-02  0.1312668E+00
        -11   -1    0    0    0    0  0.00000000000E+00  0.00000000000E+00  0.45593999997E+02  0.45594000000E+02  0.51100000000E-03 0.  1.
         11   -1    0    0    0    0 -0.00000000000E+00 -0.00000000000E+00 -0.45593999997E+02  0.45594000000E+02  0.51100000000E-03 0. -1.
    9900012    2    1    2    0    0 -0.37053593321E+02 -0.69703118647E+01  0.21495799940E+02  0.47787269125E+02  0.19999991247E+02 0.  0.
        -12    1    1    2    0    0  0.37053593321E+02  0.69703118647E+01 -0.21495799940E+02  0.43400730875E+02  0.00000000000E+00 0.  1.
         11    1    3    3    0    0 -0.32784564975E+02 -0.18911277300E+01  0.17400441640E+02  0.37164222502E+02  0.51100000000E-03 0. -1.
        -11    1    3    3    0    0 -0.47101308571E+01 -0.10078395675E+00  0.27171357790E+01  0.54385951494E+01  0.51100000000E-03 0.  1.
        -12    1    3    3    0    0  0.44110251127E+00 -0.49784001780E+01  0.13782225209E+01  0.51844514729E+01  0.00000000000E+00 0.  1.
</event>
<event>
 7    1  0.4083500E-009  0.4778727E+02  0.7816164E-02  0.1312668E+00
        -11   -1    0    0    0    0  0.00000000000E+00  0.00000000000E+00  0.45593999997E+02  0.45594000000E+02  0.51100000000E-03 0. -1.
         11   -1    0    0    0    0 -0.00000000000E+00 -0.00000000000E+00 -0.45593999997E+02  0.45594000000E+02  0.51100000000E-03 0.  1.
    9900012    2    1    2    0    0  0.18011622589E+02  0.38430915220E+02 -0.90702488511E+01  0.47787271813E+02  0.20000003504E+02 0.  0.
        -12    1    1    2    0    0 -0.18011622589E+02 -0.38430915220E+02  0.90702488511E+01  0.43400728187E+02  0.00000000000E+00 0.  1.
         11    1    3    3    0    0  0.14754989094E+02  0.16986644324E+02 -0.48219212927E+01  0.23011012881E+02  0.51100000000E-03 0. -1.
        -11    1    3    3    0    0  0.73562647710E+01  0.15735892876E+02 -0.33586397511E+01  0.17692185202E+02  0.51100000000E-03 0.  1.
        -12    1    3    3    0    0 -0.40996312764E+01  0.57083780193E+01 -0.88968780730E+00  0.70840737298E+01  0.00000000000E+00 0.  1.
</event>
<event>
 7    1  0.4083500E-009  0.4778726E+02  0.7816164E-02  0.1312668E+00
        -11   -1    0    0    0    0  0.00000000000E+00  0.00000000000E+00  0.45593999997E+02  0.45594000000E+02  0.51100000000E-03 0.  1.
         11   -1    0    0    0    0 -0.00000000000E+00 -0.00000000000E+00 -0.45593999997E+02  0.45594000000E+02  0.51100000000E-03 0. -1.
    9900012    2    1    2    0    0  0.23239178636E+02  0.32316183570E+02 -0.17298228463E+02  0.47787264382E+02  0.19999969625E+02 0.  0.
        -12    1    1    2    0    0 -0.23239178636E+02 -0.32316183570E+02  0.17298228463E+02  0.43400735618E+02  0.00000000000E+00 0.  1.
         11    1    3    3    0    0  0.18535573565E+02  0.14443204459E+02 -0.36878456441E+01  0.23786001097E+02  0.51100000000E-03 0. -1.
        -11    1    3    3    0    0  0.15187131316E+01  0.11560275505E+01 -0.40615845894E+01  0.44876897076E+01  0.51100000000E-03 0.  1.
         12    1    3    3    0    0  0.31848919390E+01  0.16716951560E+02 -0.95487982297E+01  0.19513573578E+02  0.00000000000E+00 0. -1.
</event>
<event>
 7    1  0.4083500E-009  0.4778727E+02  0.7816164E-02  0.1312668E+00
        -11   -1    0    0    0    0  0.00000000000E+00  0.00000000000E+00  0.45593999997E+02  0.45594000000E+02  0.51100000000E-03 0.  1.
         11   -1    0    0    0    0 -0.00000000000E+00 -0.00000000000E+00 -0.45593999997E+02  0.45594000000E+02  0.51100000000E-03 0. -1.
    9900012    2    1    2    0    0  0.27941974855E+02  0.14596613980E+01 -0.33177382717E+02  0.47787270811E+02  0.19999998935E+02 0.  0.
        -12    1    1    2    0    0 -0.27941974855E+02 -0.14596613980E+01  0.33177382717E+02  0.43400729189E+02  0.00000000000E+00 0.  1.
         11    1    3    3    0    0  0.12735129702E+01 -0.22293994988E+01 -0.28147453402E+00  0.25828831923E+01  0.51100000000E-03 0. -1.
        -11    1    3    3    0    0  0.99359783921E+01 -0.13745302466E+00 -0.24201568172E+01  0.10227400414E+02  0.51100000000E-03 0.  1.
         12    1    3    3    0    0  0.16732483493E+02  0.38265139215E+01 -0.30475751365E+02  0.34976987205E+02  0.00000000000E+00 0. -1.
</event>
<event>
 7    1  0.4083500E-009  0.4778727E+02  0.7816164E-02  0.1312668E+00
        -11   -1    0    0    0    0  0.00000000000E+00  0.00000000000E+00  0.45593999997E+02  0.45594000000E+02  0.51100000000E-03 0.  1.
         11   -1    0    0    0    0 -0.00000000000E+00 -0.00000000000E+00 -0.45593999997E+02  0.45594000000E+02  0.51100000000E-03 0. -1.
    9900012    2    1    2    0    0 -0.14269151620E+00 -0.41051243844E+02 -0.14085388928E+02  0.47787272319E+02  0.20000005810E+02 0.  0.
        -12    1    1    2    0    0  0.14269151620E+00  0.41051243844E+02  0.14085388928E+02  0.43400727681E+02  0.00000000000E+00 0.  1.
         11    1    3    3    0    0  0.11417467660E+01 -0.10891007596E+02 -0.45654260569E+01  0.11864263461E+02  0.51100000000E-03 0. -1.
        -11    1    3    3    0    0 -0.56830012709E+01 -0.25967897611E+02 -0.25931178389E+01  0.26708659086E+02  0.51100000000E-03 0.  1.
        -12    1    3    3    0    0  0.43985629887E+01 -0.41923386370E+01 -0.69268450323E+01  0.92143497717E+01  0.00000000000E+00 0.  1.
</event>
<event>
 7    1  0.4083500E-009  0.4778727E+02  0.7816164E-02  0.1312668E+00
        -11   -1    0    0    0    0  0.00000000000E+00  0.00000000000E+00  0.45593999997E+02  0.45594000000E+02  0.51100000000E-03 0. -1.
         11   -1    0    0    0    0 -0.00000000000E+00 -0.00000000000E+00 -0.45593999997E+02  0.45594000000E+02  0.51100000000E-03 0.  1.
    9900012    2    1    2    0    0  0.25998396904E+02 -0.25051924418E+02  0.24085425355E+02  0.47787271053E+02  0.20000000038E+02 0.  0.
        -12    1    1    2    0    0 -0.25998396904E+02  0.25051924418E+02 -0.24085425355E+02  0.43400728947E+02  0.00000000000E+00 0.  1.
         11    1    3    3    0    0  0.38305962485E+01 -0.10468081768E+02  0.62120205130E+01  0.12761011035E+02  0.51100000000E-03 0. -1.
        -11    1    3    3    0    0  0.36674081039E+01 -0.80986651034E+01  0.11238548231E+02  0.14329801996E+02  0.51100000000E-03 0.  1.
        -12    1    3    3    0    0  0.18500392551E+02 -0.64851775465E+01  0.66348566109E+01  0.20696458021E+02  0.00000000000E+00 0.  1.
</event>
<event>
 7    1  0.4083500E-009  0.4778727E+02  0.7816164E-02  0.1312668E+00
        -11   -1    0    0    0    0  0.00000000000E+00  0.00000000000E+00  0.45593999997E+02  0.45594000000E+02  0.51100000000E-03 0.  1.
         11   -1    0    0    0    0 -0.00000000000E+00 -0.00000000000E+00 -0.45593999997E+02  0.45594000000E+02  0.51100000000E-03 0. -1.
    9900012    2    1    2    0    0  0.10410059388E+02  0.63146140217E+01 -0.41657887762E+02  0.47787270749E+02  0.19999998653E+02 0.  0.
        -12    1    1    2    0    0 -0.10410059388E+02 -0.63146140217E+01  0.41657887762E+02  0.43400729251E+02  0.00000000000E+00 0.  1.
         11    1    3    3    0    0  0.63530473639E+01  0.29242208750E+01 -0.25318043343E+02  0.26266244450E+02  0.51100000000E-03 0. -1.
        -11    1    3    3    0    0  0.86234333096E+01  0.78611064060E+00 -0.11322078954E+02  0.14253808056E+02  0.51100000000E-03 0.  1.
        -12    1    3    3    0    0 -0.45664212859E+01  0.26042825060E+01 -0.50177654648E+01  0.72672182430E+01  0.00000000000E+00 0.  1.
</event>
<event>
 7    1  0.4083500E-009  0.4778726E+02  0.7816164E-02  0.1312668E+00
        -11   -1    0    0    0    0  0.00000000000E+00  0.00000000000E+00  0.45593999997E+02  0.45594000000E+02  0.51100000000E-03 0.  1.
         11   -1    0    0    0    0 -0.00000000000E+00 -0.00000000000E+00 -0.45593999997E+02  0.45594000000E+02  0.51100000000E-03 0. -1.
    9900012    2    1    2    0    0 -0.77063782720E+01  0.23957527997E+02 -0.35359192065E+02  0.47787264093E+02  0.19999968306E+02 0.  0.
        -12    1    1    2    0    0  0.77063782720E+01 -0.23957527997E+02  0.35359192065E+02  0.43400735907E+02  0.00000000000E+00 0.  1.
         11    1    3    3    0    0  0.18330226393E+00  0.17574133408E+01 -0.33077629814E+00  0.17976413966E+01  0.51100000000E-03 0.  1.
        -11    1    3    3    0    0  0.16720587999E+01  0.12498891707E+02 -0.27896284411E+02  0.30614061454E+02  0.51100000000E-03 0. -1.
         12    1    3    3    0    0 -0.95617393358E+01  0.97012229492E+01 -0.71321313560E+01  0.15375561242E+02  0.00000000000E+00 0. -1.
</event>
<event>
 7    1  0.4083500E-009  0.4778727E+02  0.7816164E-02  0.1312668E+00
        -11   -1    0    0    0    0  0.00000000000E+00  0.00000000000E+00  0.45593999997E+02  0.45594000000E+02  0.51100000000E-03 0. -1.
         11   -1    0    0    0    0 -0.00000000000E+00 -0.00000000000E+00 -0.45593999997E+02  0.45594000000E+02  0.51100000000E-03 0.  1.
    9900012    2    1    2    0    0 -0.39089115784E+02 -0.48984768982E+01  0.18211792359E+02  0.47787269250E+02  0.19999991819E+02 0.  0.
        -12    1    1    2    0    0  0.39089115784E+02  0.48984768982E+01 -0.18211792359E+02  0.43400730750E+02  0.00000000000E+00 0.  1.
         11    1    3    3    0    0 -0.24316259540E+02  0.15849303438E+01  0.88508742273E+01  0.25925478916E+02  0.51100000000E-03 0. -1.
        -11    1    3    3    0    0 -0.10331468592E+01  0.21189387110E+01 -0.10662421789E+01  0.25873087057E+01  0.51100000000E-03 0.  1.
        -12    1    3    3    0    0 -0.13739709385E+02 -0.86023459529E+01  0.10427160311E+02  0.19274481628E+02  0.00000000000E+00 0.  1.
</event>
<event>
 7    1  0.4083500E-009  0.4778730E+02  0.7816164E-02  0.1312668E+00
        -11   -1    0    0    0    0  0.00000000000E+00  0.00000000000E+00  0.45593999997E+02  0.45594000000E+02  0.51100000000E-03 0.  1.
         11   -1    0    0    0    0 -0.00000000000E+00 -0.00000000000E+00 -0.45593999997E+02  0.45594000000E+02  0.51100000000E-03 0. -1.
    9900012    2    1    2    0    0  0.36694920515E+02  0.22883165317E+02  0.36694166397E+01  0.47787296492E+02  0.20000116025E+02 0.  0.
        -12    1    1    2    0    0 -0.36694920515E+02 -0.22883165317E+02 -0.36694166397E+01  0.43400703508E+02  0.00000000000E+00 0.  1.
         11    1    3    3    0    0  0.20957975524E+02  0.35124656794E+01 -0.54288787451E+00  0.21257207736E+02  0.51100000000E-03 0.  1.
        -11    1    3    3    0    0  0.73981314533E+01  0.60165221326E+01 -0.17500355630E+01  0.96950251317E+01  0.51100000000E-03 0. -1.
        -12    1    3    3    0    0  0.83388135376E+01  0.13354177505E+02  0.59623400771E+01  0.16835063625E+02  0.00000000000E+00 0.  1.
</event>
<event>
 7    1  0.4083500E-009  0.4778727E+02  0.7816164E-02  0.1312668E+00
        -11   -1    0    0    0    0  0.00000000000E+00  0.00000000000E+00  0.45593999997E+02  0.45594000000E+02  0.51100000000E-03 0.  1.
         11   -1    0    0    0    0 -0.00000000000E+00 -0.00000000000E+00 -0.45593999997E+02  0.45594000000E+02  0.51100000000E-03 0. -1.
    9900012    2    1    2    0    0 -0.20677772588E+02  0.68687375664E+01 -0.37534962703E+02  0.47787271204E+02  0.20000000727E+02 0.  0.
        -12    1    1    2    0    0  0.20677772588E+02 -0.68687375664E+01  0.37534962703E+02  0.43400728796E+02  0.00000000000E+00 0.  1.
         11    1    3    3    0    0 -0.14371098143E+01 -0.34433798457E+01 -0.13026394602E+02  0.13550243760E+02  0.51100000000E-03 0. -1.
        -11    1    3    3    0    0 -0.88782191128E+01  0.12106809488E+01 -0.15042890898E+02  0.17509342929E+02  0.51100000000E-03 0.  1.
        -12    1    3    3    0    0 -0.10362443661E+02  0.91014364633E+01 -0.94656772028E+01  0.16727684515E+02  0.00000000000E+00 0.  1.
</event>
<event>
 7    1  0.4083500E-009  0.4778726E+02  0.7816164E-02  0.1312668E+00
        -11   -1    0    0    0    0  0.00000000000E+00  0.00000000000E+00  0.45593999997E+02  0.45594000000E+02  0.51100000000E-03 0. -1.
         11   -1    0    0    0    0 -0.00000000000E+00 -0.00000000000E+00 -0.45593999997E+02  0.45594000000E+02  0.51100000000E-03 0.  1.
    9900012    2    1    2    0    0 -0.25657111214E+02 -0.32042892232E+01  0.34857845430E+02  0.47787260222E+02  0.19999950655E+02 0.  0.
        -12    1    1    2    0    0  0.25657111214E+02  0.32042892232E+01 -0.34857845430E+02  0.43400739778E+02  0.00000000000E+00 0.  1.
         11    1    3    3    0    0 -0.11389054857E+02 -0.21746161662E+01  0.91888316882E+01  0.14794396035E+02  0.51100000000E-03 0. -1.
        -11    1    3    3    0    0 -0.58873282932E+01 -0.53644322569E+01  0.31284521529E+01  0.85571596342E+01  0.51100000000E-03 0.  1.
         12    1    3    3    0    0 -0.83807280640E+01  0.43347591999E+01  0.22540561589E+02  0.24435704552E+02  0.00000000000E+00 0. -1.
</event>
<event>
 7    1  0.4083500E-009  0.4778727E+02  0.7816164E-02  0.1312668E+00
        -11   -1    0    0    0    0  0.00000000000E+00  0.00000000000E+00  0.45593999997E+02  0.45594000000E+02  0.51100000000E-03 0. -1.
         11   -1    0    0    0    0 -0.00000000000E+00 -0.00000000000E+00 -0.45593999997E+02  0.45594000000E+02  0.51100000000E-03 0.  1.
    9900012    2    1    2    0    0  0.40180312424E+02 -0.14622333938E+01  0.16340984011E+02  0.47787269690E+02  0.19999993823E+02 0.  0.
        -12    1    1    2    0    0 -0.40180312424E+02  0.14622333938E+01 -0.16340984011E+02  0.43400730310E+02  0.00000000000E+00 0.  1.
         11    1    3    3    0    0  0.36038150925E+02  0.27270565996E+01  0.75872912887E+01  0.36929015004E+02  0.51100000000E-03 0.  1.
        -11    1    3    3    0    0  0.29409057467E+01 -0.19671139235E+01  0.67978820974E+01  0.76635282391E+01  0.51100000000E-03 0. -1.
        -12    1    3    3    0    0  0.12012557527E+01 -0.22221760698E+01  0.19558106249E+01  0.31947264466E+01  0.00000000000E+00 0.  1.
</event>
<event>
 7    1  0.4083500E-009  0.4778726E+02  0.7816164E-02  0.1312668E+00
        -11   -1    0    0    0    0  0.00000000000E+00  0.00000000000E+00  0.45593999997E+02  0.45594000000E+02  0.51100000000E-03 0.  1.
         11   -1    0    0    0    0 -0.00000000000E+00 -0.00000000000E+00 -0.45593999997E+02  0.45594000000E+02  0.51100000000E-03 0. -1.
    9900012    2    1    2    0    0  0.17933120986E+02 -0.25570148972E+02 -0.30136264994E+02  0.47787264816E+02  0.19999971600E+02 0.  0.
        -12    1    1    2    0    0 -0.17933120986E+02  0.25570148972E+02  0.30136264994E+02  0.43400735184E+02  0.00000000000E+00 0.  1.
         11    1    3    3    0    0  0.16720075436E+01 -0.49549853232E+01 -0.29809042631E+01  0.60194085478E+01  0.51100000000E-03 0. -1.
        -11    1    3    3    0    0 -0.14008781539E+01  0.23530575777E+01 -0.19129748976E+01  0.33404809214E+01  0.51100000000E-03 0.  1.
        -12    1    3    3    0    0  0.17661991596E+02 -0.22968221226E+02 -0.25242385834E+02  0.38427375346E+02  0.00000000000E+00 0.  1.
</event>
<event>
 7    1  0.4083500E-009  0.4778727E+02  0.7816164E-02  0.1312668E+00
        -11   -1    0    0    0    0  0.00000000000E+00  0.00000000000E+00  0.45593999997E+02  0.45594000000E+02  0.51100000000E-03 0.  1.
         11   -1    0    0    0    0 -0.00000000000E+00 -0.00000000000E+00 -0.45593999997E+02  0.45594000000E+02  0.51100000000E-03 0. -1.
    9900012    2    1    2    0    0 -0.62955511803E+01  0.30036413202E+02 -0.30688811387E+02  0.47787271584E+02  0.20000002461E+02 0.  0.
        -12    1    1    2    0    0  0.62955511803E+01 -0.30036413202E+02  0.30688811387E+02  0.43400728416E+02  0.00000000000E+00 0.  1.
         11    1    3    3    0    0  0.18498090281E+01  0.47950366439E+01 -0.30825119510E+01  0.59930000872E+01  0.51100000000E-03 0. -1.
        -11    1    3    3    0    0  0.36427979673E+01  0.57364396931E+01 -0.11784250784E+01  0.68967675986E+01  0.51100000000E-03 0.  1.
         12    1    3    3    0    0 -0.11788158176E+02  0.19504936865E+02 -0.26427874358E+02  0.34897503898E+02  0.00000000000E+00 0. -1.
</event>
<event>
 7    1  0.4083500E-009  0.4778727E+02  0.7816164E-02  0.1312668E+00
        -11   -1    0    0    0    0  0.00000000000E+00  0.00000000000E+00  0.45593999997E+02  0.45594000000E+02  0.51100000000E-03 0.  1.
         11   -1    0    0    0    0 -0.00000000000E+00 -0.00000000000E+00 -0.45593999997E+02  0.45594000000E+02  0.51100000000E-03 0. -1.
    9900012    2    1    2    0    0 -0.35821918675E+02 -0.12695024889E+02 -0.20958284103E+02  0.47787272045E+02  0.20000004561E+02 0.  0.
        -12    1    1    2    0    0  0.35821918675E+02  0.12695024889E+02  0.20958284103E+02  0.43400727955E+02  0.00000000000E+00 0.  1.
         11    1    3    3    0    0 -0.39477126065E+01  0.10702862918E+01  0.19883114579E+01  0.45478929500E+01  0.51100000000E-03 0. -1.
        -11    1    3    3    0    0 -0.70597180647E+01  0.17833293122E+01 -0.57666873619E+01  0.92884103043E+01  0.51100000000E-03 0.  1.
         12    1    3    3    0    0 -0.24814488004E+02 -0.15548640493E+02 -0.17179908199E+02  0.33950968790E+02  0.00000000000E+00 0. -1.
</event>
<event>
 7    1  0.4083500E-009  0.4778726E+02  0.7816164E-02  0.1312668E+00
        -11   -1    0    0    0    0  0.00000000000E+00  0.00000000000E+00  0.45593999997E+02  0.45594000000E+02  0.51100000000E-03 0. -1.
         11   -1    0    0    0    0 -0.00000000000E+00 -0.00000000000E+00 -0.45593999997E+02  0.45594000000E+02  0.51100000000E-03 0.  1.
    9900012    2    1    2    0    0 -0.24046657276E+02  0.33136426764E+02  0.14399994323E+02  0.47787258747E+02  0.19999943931E+02 0.  0.
        -12    1    1    2    0    0  0.24046657276E+02 -0.33136426764E+02 -0.14399994323E+02  0.43400741253E+02  0.00000000000E+00 0.  1.
         11    1    3    3    0    0 -0.41799277647E+01  0.78032263332E+01  0.10817365606E+02  0.13977751473E+02  0.51100000000E-03 0. -1.
        -11    1    3    3    0    0 -0.43827471052E+00  0.23717956950E+01 -0.21015183992E+01  0.31990435107E+01  0.51100000000E-03 0.  1.
         12    1    3    3    0    0 -0.19428454801E+02  0.22961404735E+02  0.56841471156E+01  0.30610463763E+02  0.00000000000E+00 0. -1.
</event>
<event>
 7    1  0.4083500E-009  0.4778727E+02  0.7816164E-02  0.1312668E+00
        -11   -1    0    0    0    0  0.00000000000E+00  0.00000000000E+00  0.45593999997E+02  0.45594000000E+02  0.51100000000E-03 0.  1.
         11   -1    0    0    0    0 -0.00000000000E+00 -0.00000000000E+00 -0.45593999997E+02  0.45594000000E+02  0.51100000000E-03 0. -1.
    9900012    2    1    2    0    0  0.10108161712E+02 -0.11299863266E+02 -0.40666468839E+02  0.47787268084E+02  0.19999986502E+02 0.  0.
        -12    1    1    2    0    0 -0.10108161712E+02  0.11299863266E+02  0.40666468839E+02  0.43400731916E+02  0.00000000000E+00 0.  1.
         11    1    3    3    0    0  0.41121416694E+01 -0.97667501309E+01 -0.13339528751E+02  0.17036494498E+02  0.51100000000E-03 0. -1.
        -11    1    3    3    0    0 -0.17441476669E+00 -0.59167109128E+01 -0.76810191639E+01  0.96972132179E+01  0.51100000000E-03 0.  1.
        -12    1    3    3    0    0  0.61704348090E+01  0.43835977776E+01 -0.19645920924E+02  0.21053560368E+02  0.00000000000E+00 0.  1.
</event>
<event>
 7    1  0.4083500E-009  0.4778727E+02  0.7816164E-02  0.1312668E+00
        -11   -1    0    0    0    0  0.00000000000E+00  0.00000000000E+00  0.45593999997E+02  0.45594000000E+02  0.51100000000E-03 0. -1.
         11   -1    0    0    0    0 -0.00000000000E+00 -0.00000000000E+00 -0.45593999997E+02  0.45594000000E+02  0.51100000000E-03 0.  1.
    9900012    2    1    2    0    0  0.61784323729E+01 -0.25920222802E+02  0.34257733691E+02  0.47787270809E+02  0.19999998926E+02 0.  0.
        -12    1    1    2    0    0 -0.61784323729E+01  0.25920222802E+02 -0.34257733691E+02  0.43400729191E+02  0.00000000000E+00 0.  1.
         11    1    3    3    0    0  0.55676522634E+01 -0.89978297591E+01  0.25297893288E+02  0.27421580866E+02  0.51100000000E-03 0. -1.
        -11    1    3    3    0    0  0.28453828342E+01 -0.34323981128E+01  0.10932823247E+01  0.45905148710E+01  0.51100000000E-03 0.  1.
         12    1    3    3    0    0 -0.22346027247E+01 -0.13489994930E+02  0.78665580778E+01  0.15775175072E+02  0.00000000000E+00 0. -1.
</event>
<event>
 7    1  0.4083500E-009  0.4778728E+02  0.7816164E-02  0.1312668E+00
        -11   -1    0    0    0    0  0.00000000000E+00  0.00000000000E+00  0.45593999997E+02  0.45594000000E+02  0.51100000000E-03 0.  1.
         11   -1    0    0    0    0 -0.00000000000E+00 -0.00000000000E+00 -0.45593999997E+02  0.45594000000E+02  0.51100000000E-03 0. -1.
    9900012    2    1    2    0    0 -0.33755133227E+01  0.41178724567E+02  0.13286890355E+02  0.47787275323E+02  0.20000019509E+02 0.  0.
        -12    1    1    2    0    0  0.33755133227E+01 -0.41178724567E+02 -0.13286890355E+02  0.43400724677E+02  0.00000000000E+00 0.  1.
         11    1    3    3    0    0  0.47210451347E+01  0.72927612983E+01  0.19309677150E+00  0.86896444773E+01  0.51100000000E-03 0. -1.
        -11    1    3    3    0    0 -0.11517673499E+01  0.26753437175E+02  0.82057407067E+01  0.28007269584E+02  0.51100000000E-03 0.  1.
        -12    1    3    3    0    0 -0.69447911076E+01  0.71325260933E+01  0.48880528770E+01  0.11090361262E+02  0.00000000000E+00 0.  1.
</event>
<event>
 7    1  0.4083500E-009  0.4778727E+02  0.7816164E-02  0.1312668E+00
        -11   -1    0    0    0    0  0.00000000000E+00  0.00000000000E+00  0.45593999997E+02  0.45594000000E+02  0.51100000000E-03 0. -1.
         11   -1    0    0    0    0 -0.00000000000E+00 -0.00000000000E+00 -0.45593999997E+02  0.45594000000E+02  0.51100000000E-03 0.  1.
    9900012    2    1    2    0    0 -0.23236947591E+02  0.23034358370E+01  0.36583627767E+02  0.47787269930E+02  0.19999994917E+02 0.  0.
        -12    1    1    2    0    0  0.23236947591E+02 -0.23034358370E+01 -0.36583627767E+02  0.43400730070E+02  0.00000000000E+00 0.  1.
         11    1    3    3    0    0 -0.16482956644E+00 -0.11013312434E+01 -0.15325116133E+00  0.11240931782E+01  0.51100000000E-03 0. -1.
        -11    1    3    3    0    0 -0.19519075988E+02 -0.44677760489E+01  0.27493177937E+02  0.34012206391E+02  0.51100000000E-03 0.  1.
         12    1    3    3    0    0 -0.35530420369E+01  0.78725431293E+01  0.92437009919E+01  0.12650970361E+02  0.00000000000E+00 0. -1.
</event>
<event>
 7    1  0.4083500E-009  0.4778727E+02  0.7816164E-02  0.1312668E+00
        -11   -1    0    0    0    0  0.00000000000E+00  0.00000000000E+00  0.45593999997E+02  0.45594000000E+02  0.51100000000E-03 0.  1.
         11   -1    0    0    0    0 -0.00000000000E+00 -0.00000000000E+00 -0.45593999997E+02  0.45594000000E+02  0.51100000000E-03 0. -1.
    9900012    2    1    2    0    0 -0.11513513669E+02  0.26382112277E+02 -0.32481477074E+02  0.47787271918E+02  0.20000003981E+02 0.  0.
        -12    1    1    2    0    0  0.11513513669E+02 -0.26382112277E+02  0.32481477074E+02  0.43400728082E+02  0.00000000000E+00 0.  1.
         11    1    3    3    0    0 -0.55646308688E+01  0.22016491526E+02 -0.17063194589E+02  0.28404992971E+02  0.51100000000E-03 0. -1.
        -11    1    3    3    0    0  0.15207798157E+01  0.30760557838E+01 -0.20022195217E+01  0.39728797750E+01  0.51100000000E-03 0.  1.
        -12    1    3    3    0    0 -0.74696626161E+01  0.12895649666E+01 -0.13416062963E+02  0.15409399172E+02  0.00000000000E+00 0.  1.
</event>
<event>
 7    1  0.4083500E-009  0.4778727E+02  0.7816164E-02  0.1312668E+00
        -11   -1    0    0    0    0  0.00000000000E+00  0.00000000000E+00  0.45593999997E+02  0.45594000000E+02  0.51100000000E-03 0. -1.
         11   -1    0    0    0    0 -0.00000000000E+00 -0.00000000000E+00 -0.45593999997E+02  0.45594000000E+02  0.51100000000E-03 0.  1.
    9900012    2    1    2    0    0 -0.16285667144E+02 -0.39346167739E+02  0.83832724205E+01  0.47787272742E+02  0.20000007739E+02 0.  0.
        -12    1    1    2    0    0  0.16285667144E+02  0.39346167739E+02 -0.83832724205E+01  0.43400727258E+02  0.00000000000E+00 0.  1.
         11    1    3    3    0    0  0.10781799297E+01  0.11619678787E+01 -0.23057939726E-01  0.15852991017E+01  0.51100000000E-03 0. -1.
        -11    1    3    3    0    0 -0.52831587287E+01 -0.16958916481E+02 -0.17594037417E+01  0.17849709134E+02  0.51100000000E-03 0.  1.
         12    1    3    3    0    0 -0.12080688345E+02 -0.23549219137E+02  0.10165734102E+02  0.28352264507E+02  0.00000000000E+00 0. -1.
</event>
<event>
 7    1  0.4083500E-009  0.4778725E+02  0.7816164E-02  0.1312668E+00
        -11   -1    0    0    0    0  0.00000000000E+00  0.00000000000E+00  0.45593999997E+02  0.45594000000E+02  0.51100000000E-03 0.  1.
         11   -1    0    0    0    0 -0.00000000000E+00 -0.00000000000E+00 -0.45593999997E+02  0.45594000000E+02  0.51100000000E-03 0. -1.
    9900012    2    1    2    0    0  0.24073578027E+01  0.43265212923E+02  0.24395157140E+01  0.47787248189E+02  0.19999895792E+02 0.  0.
        -12    1    1    2    0    0 -0.24073578027E+01 -0.43265212923E+02 -0.24395157140E+01  0.43400751811E+02  0.00000000000E+00 0.  1.
         11    1    3    3    0    0 -0.19841863182E+01  0.13197885240E+02 -0.54107216779E+01  0.14401287424E+02  0.51100000000E-03 0.  1.
        -11    1    3    3    0    0 -0.16825386131E+01  0.13641316492E+01 -0.14520343244E+01  0.26077184052E+01  0.51100000000E-03 0. -1.
        -12    1    3    3    0    0  0.60740827340E+01  0.28703196034E+02  0.93022717163E+01  0.30778242359E+02  0.00000000000E+00 0.  1.
</event>
<event>
 7    1  0.4083500E-009  0.4778727E+02  0.7816164E-02  0.1312668E+00
        -11   -1    0    0    0    0  0.00000000000E+00  0.00000000000E+00  0.45593999997E+02  0.45594000000E+02  0.51100000000E-03 0. -1.
         11   -1    0    0    0    0 -0.00000000000E+00 -0.00000000000E+00 -0.45593999997E+02  0.45594000000E+02  0.51100000000E-03 0.  1.
    9900012    2    1    2    0    0 -0.22518255547E+02 -0.96609414468E+01  0.35822025415E+02  0.47787272733E+02  0.20000007697E+02 0.  0.
        -12    1    1    2    0    0  0.22518255547E+02  0.96609414468E+01 -0.35822025415E+02  0.43400727267E+02  0.00000000000E+00 0.  1.
         11    1    3    3    0    0 -0.65800879975E+01 -0.46580531349E+01  0.17380185777E+02  0.19158963306E+02  0.51100000000E-03 0. -1.
        -11    1    3    3    0    0 -0.18055227663E+02 -0.55389732236E+01  0.18508966573E+02  0.26443398311E+02  0.51100000000E-03 0.  1.
        -12    1    3    3    0    0  0.21170601139E+01  0.53608491171E+00 -0.67126935385E-01  0.21849111158E+01  0.00000000000E+00 0.  1.
</event>
<event>
 7    1  0.4083500E-009  0.4778727E+02  0.7816164E-02  0.1312668E+00
        -11   -1    0    0    0    0  0.00000000000E+00  0.00000000000E+00  0.45593999997E+02  0.45594000000E+02  0.51100000000E-03 0.  1.
         11   -1    0    0    0    0 -0.00000000000E+00 -0.00000000000E+00 -0.45593999997E+02  0.45594000000E+02  0.51100000000E-03 0. -1.
    9900012    2    1    2    0    0 -0.28548457429E+02 -0.13467645446E+02 -0.29786425185E+02  0.47787273961E+02  0.20000013296E+02 0.  0.
        -12    1    1    2    0    0  0.28548457429E+02  0.13467645446E+02  0.29786425185E+02  0.43400726039E+02  0.00000000000E+00 0.  1.
         11    1    3    3    0    0 -0.15888783153E+01 -0.51192769074E+01 -0.79541178628E+01  0.95916381079E+01  0.51100000000E-03 0.  1.
        -11    1    3    3    0    0 -0.21189442111E+01 -0.42368680528E+01  0.19575337547E+00  0.47412335011E+01  0.51100000000E-03 0. -1.
         12    1    3    3    0    0 -0.24840634902E+02 -0.41115004862E+01 -0.22028060698E+02  0.33454402352E+02  0.00000000000E+00 0. -1.
</event>
<event>
 7    1  0.4083500E-009  0.4778728E+02  0.7816164E-02  0.1312668E+00
        -11   -1    0    0    0    0  0.00000000000E+00  0.00000000000E+00  0.45593999997E+02  0.45594000000E+02  0.51100000000E-03 0.  1.
         11   -1    0    0    0    0 -0.00000000000E+00 -0.00000000000E+00 -0.45593999997E+02  0.45594000000E+02  0.51100000000E-03 0. -1.
    9900012    2    1    2    0    0  0.14934010539E+02 -0.18053232877E+02 -0.36533255328E+02  0.47787278428E+02  0.20000033666E+02 0.  0.
        -12    1    1    2    0    0 -0.14934010539E+02  0.18053232877E+02  0.36533255328E+02  0.43400721572E+02  0.00000000000E+00 0.  1.
         11    1    3    3    0    0  0.90873272971E+01 -0.10603670877E+02 -0.12282312941E+02  0.18597649446E+02  0.51100000000E-03 0. -1.
        -11    1    3    3    0    0  0.86446666171E+01 -0.35337968123E+01 -0.81846306786E+01  0.12417977309E+02  0.51100000000E-03 0.  1.
        -12    1    3    3    0    0 -0.27979833747E+01 -0.39157651884E+01 -0.16066311708E+02  0.16771651674E+02  0.00000000000E+00 0.  1.
</event>
<event>
 7    1  0.4083500E-009  0.4778727E+02  0.7816164E-02  0.1312668E+00
        -11   -1    0    0    0    0  0.00000000000E+00  0.00000000000E+00  0.45593999997E+02  0.45594000000E+02  0.51100000000E-03 0.  1.
         11   -1    0    0    0    0 -0.00000000000E+00 -0.00000000000E+00 -0.45593999997E+02  0.45594000000E+02  0.51100000000E-03 0. -1.
    9900012    2    1    2    0    0 -0.12084730427E+02  0.38604008676E+02 -0.15726188498E+02  0.47787271895E+02  0.20000003878E+02 0.  0.
        -12    1    1    2    0    0  0.12084730427E+02 -0.38604008676E+02  0.15726188498E+02  0.43400728105E+02  0.00000000000E+00 0.  1.
         11    1    3    3    0    0  0.15333193740E+01  0.16647255404E+02 -0.87244497731E+01  0.18857311709E+02  0.51100000000E-03 0. -1.
        -11    1    3    3    0    0 -0.65358491315E+01  0.19360600310E+02 -0.40594008153E+01  0.20833360350E+02  0.51100000000E-03 0.  1.
        -12    1    3    3    0    0 -0.70822006698E+01  0.25961529621E+01 -0.29423379092E+01  0.80965998358E+01  0.00000000000E+00 0.  1.
</event>
<event>
 7    1  0.4083500E-009  0.4778727E+02  0.7816164E-02  0.1312668E+00
        -11   -1    0    0    0    0  0.00000000000E+00  0.00000000000E+00  0.45593999997E+02  0.45594000000E+02  0.51100000000E-03 0. -1.
         11   -1    0    0    0    0 -0.00000000000E+00 -0.00000000000E+00 -0.45593999997E+02  0.45594000000E+02  0.51100000000E-03 0.  1.
    9900012    2    1    2    0    0  0.12754501489E+01 -0.43060162451E+02  0.52744117919E+01  0.47787265177E+02  0.19999973249E+02 0.  0.
        -12    1    1    2    0    0 -0.12754501489E+01  0.43060162451E+02 -0.52744117919E+01  0.43400734823E+02  0.00000000000E+00 0.  1.
         11    1    3    3    0    0  0.23460981531E+01 -0.18177842527E+02 -0.36389284275E-02  0.18328615577E+02  0.51100000000E-03 0. -1.
        -11    1    3    3    0    0  0.64274678511E+01 -0.83334029023E+01  0.39529593827E+01  0.11242056531E+02  0.51100000000E-03 0.  1.
        -12    1    3    3    0    0 -0.74981158553E+01 -0.16548917022E+02  0.13250913376E+01  0.18216593069E+02  0.00000000000E+00 0.  1.
</event>
<event>
 7    1  0.4083500E-009  0.4778727E+02  0.7816164E-02  0.1312668E+00
        -11   -1    0    0    0    0  0.00000000000E+00  0.00000000000E+00  0.45593999997E+02  0.45594000000E+02  0.51100000000E-03 0.  1.
         11   -1    0    0    0    0 -0.00000000000E+00 -0.00000000000E+00 -0.45593999997E+02  0.45594000000E+02  0.51100000000E-03 0. -1.
    9900012    2    1    2    0    0 -0.30928794267E+01  0.20704354418E+02 -0.38018245617E+02  0.47787271955E+02  0.20000004151E+02 0.  0.
        -12    1    1    2    0    0  0.30928794267E+01 -0.20704354418E+02  0.38018245617E+02  0.43400728045E+02  0.00000000000E+00 0.  1.
         11    1    3    3    0    0 -0.68537535748E+01  0.11998401594E+02 -0.16524230941E+02  0.21540329322E+02  0.51100000000E-03 0. -1.
        -11    1    3    3    0    0  0.29449863936E+00  0.73390631477E+01 -0.40060517271E+01  0.83664226547E+01  0.51100000000E-03 0.  1.
        -12    1    3    3    0    0  0.34663755087E+01  0.13668896764E+01 -0.17487962949E+02  0.17880519978E+02  0.00000000000E+00 0.  1.
</event>
<event>
 7    1  0.4083500E-009  0.4778727E+02  0.7816164E-02  0.1312668E+00
        -11   -1    0    0    0    0  0.00000000000E+00  0.00000000000E+00  0.45593999997E+02  0.45594000000E+02  0.51100000000E-03 0.  1.
         11   -1    0    0    0    0 -0.00000000000E+00 -0.00000000000E+00 -0.45593999997E+02  0.45594000000E+02  0.51100000000E-03 0. -1.
    9900012    2    1    2    0    0 -0.14659168338E+02  0.25740243629E+02 -0.31720214128E+02  0.47787270251E+02  0.19999996382E+02 0.  0.
        -12    1    1    2    0    0  0.14659168338E+02 -0.25740243629E+02  0.31720214128E+02  0.43400729749E+02  0.00000000000E+00 0.  1.
         11    1    3    3    0    0 -0.57952436891E+01  0.97148934972E+01 -0.10411619365E+02  0.15374193415E+02  0.51100000000E-03 0. -1.
        -11    1    3    3    0    0 -0.94954672922E+01  0.11840282744E+01 -0.84635764523E+01  0.12774895251E+02  0.51100000000E-03 0.  1.
        -12    1    3    3    0    0  0.63154264361E+00  0.14841321857E+02 -0.12845018311E+02  0.19638181585E+02  0.00000000000E+00 0.  1.
</event>
<event>
 7    1  0.4083500E-009  0.4778727E+02  0.7816164E-02  0.1312668E+00
        -11   -1    0    0    0    0  0.00000000000E+00  0.00000000000E+00  0.45593999997E+02  0.45594000000E+02  0.51100000000E-03 0. -1.
         11   -1    0    0    0    0 -0.00000000000E+00 -0.00000000000E+00 -0.45593999997E+02  0.45594000000E+02  0.51100000000E-03 0.  1.
    9900012    2    1    2    0    0  0.88677555357E+01 -0.71213146680E+01  0.41884043149E+02  0.47787270958E+02  0.19999999608E+02 0.  0.
        -12    1    1    2    0    0 -0.88677555357E+01  0.71213146680E+01 -0.41884043149E+02  0.43400729042E+02  0.00000000000E+00 0.  1.
         11    1    3    3    0    0  0.52591004331E+01 -0.47764209465E+01  0.27564986019E+02  0.28465782774E+02  0.51100000000E-03 0.  1.
        -11    1    3    3    0    0 -0.11568388913E+01 -0.13549270108E+01  0.14343971422E+02  0.14454190390E+02  0.51100000000E-03 0. -1.
        -12    1    3    3    0    0  0.47654939939E+01 -0.98996671078E+00 -0.24914292626E-01  0.48672977941E+01  0.00000000000E+00 0.  1.
</event>
<event>
 7    1  0.4083500E-009  0.4778728E+02  0.7816164E-02  0.1312668E+00
        -11   -1    0    0    0    0  0.00000000000E+00  0.00000000000E+00  0.45593999997E+02  0.45594000000E+02  0.51100000000E-03 0.  1.
         11   -1    0    0    0    0 -0.00000000000E+00 -0.00000000000E+00 -0.45593999997E+02  0.45594000000E+02  0.51100000000E-03 0. -1.
    9900012    2    1    2    0    0  0.94427570239E+01  0.13191864540E+02 -0.40254584286E+02  0.47787279887E+02  0.20000040317E+02 0.  0.
        -12    1    1    2    0    0 -0.94427570239E+01 -0.13191864540E+02  0.40254584286E+02  0.43400720113E+02  0.00000000000E+00 0.  1.
         11    1    3    3    0    0  0.10952244477E+02  0.59662168350E+01 -0.31021855295E+02  0.33435055086E+02  0.51100000000E-03 0. -1.
        -11    1    3    3    0    0 -0.20716011617E+01  0.34759517571E+01 -0.97207726795E+01  0.10529349160E+02  0.51100000000E-03 0.  1.
        -12    1    3    3    0    0  0.56211370885E+00  0.37496959481E+01  0.48804368797E+00  0.38228756410E+01  0.00000000000E+00 0.  1.
</event>
<event>
 7    1  0.4083500E-009  0.4778727E+02  0.7816164E-02  0.1312668E+00
        -11   -1    0    0    0    0  0.00000000000E+00  0.00000000000E+00  0.45593999997E+02  0.45594000000E+02  0.51100000000E-03 0. -1.
         11   -1    0    0    0    0 -0.00000000000E+00 -0.00000000000E+00 -0.45593999997E+02  0.45594000000E+02  0.51100000000E-03 0.  1.
    9900012    2    1    2    0    0 -0.43087603367E+02  0.25731291392E+01  0.45233928487E+01  0.47787266823E+02  0.19999980753E+02 0.  0.
        -12    1    1    2    0    0  0.43087603367E+02 -0.25731291392E+01 -0.45233928487E+01  0.43400733177E+02  0.00000000000E+00 0.  1.
         11    1    3    3    0    0 -0.11550582169E+02  0.58701618118E+01 -0.48972481105E+00  0.12965900616E+02  0.51100000000E-03 0. -1.
        -11    1    3    3    0    0 -0.14679843167E+02 -0.11405504889E+00 -0.43056595393E+01  0.15298676684E+02  0.51100000000E-03 0.  1.
        -12    1    3    3    0    0 -0.16857178031E+02 -0.31829776237E+01  0.93187771990E+01  0.19522689523E+02  0.00000000000E+00 0.  1.
</event>
<event>
 7    1  0.4083500E-009  0.4778726E+02  0.7816164E-02  0.1312668E+00
        -11   -1    0    0    0    0  0.00000000000E+00  0.00000000000E+00  0.45593999997E+02  0.45594000000E+02  0.51100000000E-03 0.  1.
         11   -1    0    0    0    0 -0.00000000000E+00 -0.00000000000E+00 -0.45593999997E+02  0.45594000000E+02  0.51100000000E-03 0. -1.
    9900012    2    1    2    0    0 -0.22919466208E+02  0.20899147301E+02 -0.30357007331E+02  0.47787260568E+02  0.19999952233E+02 0.  0.
        -12    1    1    2    0    0  0.22919466208E+02 -0.20899147301E+02  0.30357007331E+02  0.43400739432E+02  0.00000000000E+00 0.  1.
         11    1    3    3    0    0  0.27111650857E+00  0.82642564717E+01 -0.51955729304E+01  0.97655218769E+01  0.51100000000E-03 0. -1.
        -11    1    3    3    0    0 -0.38388639482E+01  0.75738072838E+01 -0.79987841538E+01  0.11665332459E+02  0.51100000000E-03 0.  1.
        -12    1    3    3    0    0 -0.19351718769E+02  0.50610835451E+01 -0.17162650247E+02  0.26356406232E+02  0.00000000000E+00 0.  1.
</event>
<event>
 7    1  0.4083500E-009  0.4778727E+02  0.7816164E-02  0.1312668E+00
        -11   -1    0    0    0    0  0.00000000000E+00  0.00000000000E+00  0.45593999997E+02  0.45594000000E+02  0.51100000000E-03 0.  1.
         11   -1    0    0    0    0 -0.00000000000E+00 -0.00000000000E+00 -0.45593999997E+02  0.45594000000E+02  0.51100000000E-03 0. -1.
    9900012    2    1    2    0    0 -0.35414078350E+01 -0.35343274958E+02 -0.24938617187E+02  0.47787270958E+02  0.19999999605E+02 0.  0.
        -12    1    1    2    0    0  0.35414078350E+01  0.35343274958E+02  0.24938617187E+02  0.43400729042E+02  0.00000000000E+00 0.  1.
         11    1    3    3    0    0  0.45489065281E+01 -0.24263688723E+02 -0.15245157512E+02  0.29014375211E+02  0.51100000000E-03 0. -1.
        -11    1    3    3    0    0  0.86186210361E+00 -0.24051011159E+01  0.57957095069E+00  0.26197748780E+01  0.51100000000E-03 0.  1.
        -12    1    3    3    0    0 -0.89521764666E+01 -0.86744851183E+01 -0.10273030626E+02  0.16153120869E+02  0.00000000000E+00 0.  1.
</event>
<event>
 7    1  0.4083500E-009  0.4778727E+02  0.7816164E-02  0.1312668E+00
        -11   -1    0    0    0    0  0.00000000000E+00  0.00000000000E+00  0.45593999997E+02  0.45594000000E+02  0.51100000000E-03 0.  1.
         11   -1    0    0    0    0 -0.00000000000E+00 -0.00000000000E+00 -0.45593999997E+02  0.45594000000E+02  0.51100000000E-03 0. -1.
    9900012    2    1    2    0    0  0.34833793787E+02  0.77015888177E+01 -0.24716705231E+02  0.47787272156E+02  0.20000005066E+02 0.  0.
        -12    1    1    2    0    0 -0.34833793787E+02 -0.77015888177E+01  0.24716705231E+02  0.43400727844E+02  0.00000000000E+00 0.  1.
         11    1    3    3    0    0  0.78994098191E+01  0.67728399525E+00 -0.59391226082E+01  0.99061883042E+01  0.51100000000E-03 0. -1.
        -11    1    3    3    0    0  0.10193006279E+02  0.23939226700E+01  0.21451052000E+01  0.10687830431E+02  0.51100000000E-03 0.  1.
        -12    1    3    3    0    0  0.16741377689E+02  0.46303821524E+01 -0.20922687823E+02  0.27193253420E+02  0.00000000000E+00 0.  1.
</event>
<event>
 7    1  0.4083500E-009  0.4778728E+02  0.7816164E-02  0.1312668E+00
        -11   -1    0    0    0    0  0.00000000000E+00  0.00000000000E+00  0.45593999997E+02  0.45594000000E+02  0.51100000000E-03 0. -1.
         11   -1    0    0    0    0 -0.00000000000E+00 -0.00000000000E+00 -0.45593999997E+02  0.45594000000E+02  0.51100000000E-03 0.  1.
    9900012    2    1    2    0    0 -0.60975099585E+01 -0.16258357176E+02  0.39775733860E+02  0.47787276390E+02  0.20000024372E+02 0.  0.
        -12    1    1    2    0    0  0.60975099585E+01  0.16258357176E+02 -0.39775733860E+02  0.43400723610E+02  0.00000000000E+00 0.  1.
         11    1    3    3    0    0  0.25847437269E+01 -0.64332022308E+01  0.10512214488E+02  0.12592602780E+02  0.51100000000E-03 0. -1.
        -11    1    3    3    0    0  0.39261235780E+01 -0.85747496995E+00  0.49542546396E+01  0.63792122530E+01  0.51100000000E-03 0.  1.
         12    1    3    3    0    0 -0.12608377263E+02 -0.89676799751E+01  0.24309264732E+02  0.28815461356E+02  0.00000000000E+00 0. -1.
</event>
<event>
 7    1  0.4083500E-009  0.4778728E+02  0.7816164E-02  0.1312668E+00
        -11   -1    0    0    0    0  0.00000000000E+00  0.00000000000E+00  0.45593999997E+02  0.45594000000E+02  0.51100000000E-03 0.  1.
         11   -1    0    0    0    0 -0.00000000000E+00 -0.00000000000E+00 -0.45593999997E+02  0.45594000000E+02  0.51100000000E-03 0. -1.
    9900012    2    1    2    0    0  0.29040570398E+02 -0.31721110004E+02  0.58342778187E+01  0.47787281727E+02  0.20000048707E+02 0.  0.
        -12    1    1    2    0    0 -0.29040570398E+02  0.31721110004E+02 -0.58342778187E+01  0.43400718273E+02  0.00000000000E+00 0.  1.
         11    1    3    3    0    0  0.37421337036E+01 -0.46654006060E+00 -0.87005601573E+00  0.38701707992E+01  0.51100000000E-03 0. -1.
        -11    1    3    3    0    0  0.13595316189E+02 -0.59574418019E+01 -0.13475399544E+01  0.14904348335E+02  0.51100000000E-03 0.  1.
         12    1    3    3    0    0  0.11703120506E+02 -0.25297128141E+02  0.80518737888E+01  0.29012762593E+02  0.00000000000E+00 0. -1.
</event>
<event>
 7    1  0.4083500E-009  0.4778727E+02  0.7816164E-02  0.1312668E+00
        -11   -1    0    0    0    0  0.00000000000E+00  0.00000000000E+00  0.45593999997E+02  0.45594000000E+02  0.51100000000E-03 0.  1.
         11   -1    0    0    0    0 -0.00000000000E+00 -0.00000000000E+00 -0.45593999997E+02  0.45594000000E+02  0.51100000000E-03 0. -1.
    9900012    2    1    2    0    0 -0.24128715281E+02 -0.32655288437E+02  0.15331688573E+02  0.47787269148E+02  0.19999991354E+02 0.  0.
        -12    1    1    2    0    0  0.24128715281E+02  0.32655288437E+02 -0.15331688573E+02  0.43400730852E+02  0.00000000000E+00 0.  1.
         11    1    3    3    0    0 -0.65539100767E+01 -0.11428753655E+02  0.10912764756E+02  0.17107266944E+02  0.51100000000E-03 0. -1.
        -11    1    3    3    0    0 -0.57870518100E+00 -0.91753622605E+01  0.34593457112E+01  0.98228939376E+01  0.51100000000E-03 0.  1.
        -12    1    3    3    0    0 -0.16996100023E+02 -0.12051172521E+02  0.95957810581E+00  0.20857108267E+02  0.00000000000E+00 0.  1.
</event>
<event>
 7    1  0.4083500E-009  0.4778727E+02  0.7816164E-02  0.1312668E+00
        -11   -1    0    0    0    0  0.00000000000E+00  0.00000000000E+00  0.45593999997E+02  0.45594000000E+02  0.51100000000E-03 0.  1.
         11   -1    0    0    0    0 -0.00000000000E+00 -0.00000000000E+00 -0.45593999997E+02  0.45594000000E+02  0.51100000000E-03 0. -1.
    9900012    2    1    2    0    0  0.35594110195E+02 -0.14188700522E+01 -0.24792531069E+02  0.47787268789E+02  0.19999989719E+02 0.  0.
        -12    1    1    2    0    0 -0.35594110195E+02  0.14188700522E+01  0.24792531069E+02  0.43400731211E+02  0.00000000000E+00 0.  1.
         11    1    3    3    0    0  0.12619069144E+02  0.18156870757E+00 -0.11095684477E+02  0.16804406789E+02  0.51100000000E-03 0. -1.
        -11    1    3    3    0    0  0.12655671715E+02  0.47293023271E+01 -0.11680167849E+01  0.13560847707E+02  0.51100000000E-03 0.  1.
        -12    1    3    3    0    0  0.10319369337E+02 -0.63297410868E+01 -0.12528829806E+02  0.17422014294E+02  0.00000000000E+00 0.  1.
</event>
<event>
 7    1  0.4083500E-009  0.4778727E+02  0.7816164E-02  0.1312668E+00
        -11   -1    0    0    0    0  0.00000000000E+00  0.00000000000E+00  0.45593999997E+02  0.45594000000E+02  0.51100000000E-03 0.  1.
         11   -1    0    0    0    0 -0.00000000000E+00 -0.00000000000E+00 -0.45593999997E+02  0.45594000000E+02  0.51100000000E-03 0. -1.
    9900012    2    1    2    0    0 -0.49193194394E+01  0.30000610861E+02 -0.30973970664E+02  0.47787271729E+02  0.20000003122E+02 0.  0.
        -12    1    1    2    0    0  0.49193194394E+01 -0.30000610861E+02  0.30973970664E+02  0.43400728271E+02  0.00000000000E+00 0.  1.
         11    1    3    3    0    0 -0.50739119088E+01  0.17519474181E+02 -0.13520568210E+02  0.22704235786E+02  0.51100000000E-03 0. -1.
        -11    1    3    3    0    0 -0.35760000899E+01  0.91209380154E+01 -0.37521889385E+01  0.10490863121E+02  0.51100000000E-03 0.  1.
         12    1    3    3    0    0  0.37305925593E+01  0.33601986646E+01 -0.13701213515E+02  0.14592172823E+02  0.00000000000E+00 0. -1.
</event>
<event>
 7    1  0.4083500E-009  0.4778729E+02  0.7816164E-02  0.1312668E+00
        -11   -1    0    0    0    0  0.00000000000E+00  0.00000000000E+00  0.45593999997E+02  0.45594000000E+02  0.51100000000E-03 0. -1.
         11   -1    0    0    0    0 -0.00000000000E+00 -0.00000000000E+00 -0.45593999997E+02  0.45594000000E+02  0.51100000000E-03 0.  1.
    9900012    2    1    2    0    0 -0.59426453460E+01 -0.42756036536E+02 -0.44975869829E+01  0.47787285920E+02  0.20000067825E+02 0.  0.
        -12    1    1    2    0    0  0.59426453460E+01  0.42756036536E+02  0.44975869829E+01  0.43400714080E+02  0.00000000000E+00 0.  1.
         11    1    3    3    0    0 -0.17130084666E+01 -0.26443716309E+02  0.63943367659E+01  0.27259715207E+02  0.51100000000E-03 0. -1.
        -11    1    3    3    0    0 -0.12651299048E+01 -0.70401247820E+00 -0.45072308804E+00  0.15163570848E+01  0.51100000000E-03 0.  1.
        -12    1    3    3    0    0 -0.29645069746E+01 -0.15608307749E+02 -0.10441200661E+02  0.19011213628E+02  0.00000000000E+00 0.  1.
</event>
<event>
 7    1  0.4083500E-009  0.4778727E+02  0.7816164E-02  0.1312668E+00
        -11   -1    0    0    0    0  0.00000000000E+00  0.00000000000E+00  0.45593999997E+02  0.45594000000E+02  0.51100000000E-03 0. -1.
         11   -1    0    0    0    0 -0.00000000000E+00 -0.00000000000E+00 -0.45593999997E+02  0.45594000000E+02  0.51100000000E-03 0.  1.
    9900012    2    1    2    0    0  0.25343456643E+02  0.34364432235E+02 -0.77728984259E+01  0.47787274806E+02  0.20000017150E+02 0.  0.
        -12    1    1    2    0    0 -0.25343456643E+02 -0.34364432235E+02  0.77728984259E+01  0.43400725194E+02  0.00000000000E+00 0.  1.
         11    1    3    3    0    0  0.14469974345E+02  0.12699321804E+02 -0.62940481412E+00  0.19262634361E+02  0.51100000000E-03 0. -1.
        -11    1    3    3    0    0  0.55228177820E+01  0.71006112272E+01  0.35603675727E+01  0.96745239452E+01  0.51100000000E-03 0.  1.
        -12    1    3    3    0    0  0.53506645154E+01  0.14564499203E+02 -0.10703861184E+02  0.18850116500E+02  0.00000000000E+00 0.  1.
</event>
<event>
 7    1  0.4083500E-009  0.4778727E+02  0.7816164E-02  0.1312668E+00
        -11   -1    0    0    0    0  0.00000000000E+00  0.00000000000E+00  0.45593999997E+02  0.45594000000E+02  0.51100000000E-03 0.  1.
         11   -1    0    0    0    0 -0.00000000000E+00 -0.00000000000E+00 -0.45593999997E+02  0.45594000000E+02  0.51100000000E-03 0. -1.
    9900012    2    1    2    0    0 -0.26680334642E+02 -0.45695835362E+01 -0.33924946767E+02  0.47787270013E+02  0.19999995296E+02 0.  0.
        -12    1    1    2    0    0  0.26680334642E+02  0.45695835362E+01  0.33924946767E+02  0.43400729987E+02  0.00000000000E+00 0.  1.
         11    1    3    3    0    0 -0.66165342959E+01 -0.28112432302E+01 -0.31107707223E+01  0.78331672609E+01  0.51100000000E-03 0. -1.
        -11    1    3    3    0    0 -0.17224986097E+02 -0.20491106544E-02 -0.12360663899E+02  0.21201088711E+02  0.51100000000E-03 0.  1.
        -12    1    3    3    0    0 -0.28388142489E+01 -0.17562911953E+01 -0.18453512146E+02  0.18753014041E+02  0.00000000000E+00 0.  1.
</event>
<event>
 7    1  0.4083500E-009  0.4778728E+02  0.7816164E-02  0.1312668E+00
        -11   -1    0    0    0    0  0.00000000000E+00  0.00000000000E+00  0.45593999997E+02  0.45594000000E+02  0.51100000000E-03 0.  1.
         11   -1    0    0    0    0 -0.00000000000E+00 -0.00000000000E+00 -0.45593999997E+02  0.45594000000E+02  0.51100000000E-03 0. -1.
    9900012    2    1    2    0    0 -0.11152397967E+02  0.78684579844E+01 -0.41198716781E+02  0.47787275630E+02  0.20000020907E+02 0.  0.
        -12    1    1    2    0    0  0.11152397967E+02 -0.78684579844E+01  0.41198716781E+02  0.43400724370E+02  0.00000000000E+00 0.  1.
         11    1    3    3    0    0 -0.66215736744E+00  0.78233186417E+00 -0.15862590022E+02  0.15895667900E+02  0.51100000000E-03 0. -1.
        -11    1    3    3    0    0  0.88434856943E+00  0.68824205832E+01 -0.14972999685E+02  0.16502742357E+02  0.51100000000E-03 0.  1.
         12    1    3    3    0    0 -0.11374589169E+02  0.20370553704E+00 -0.10363127073E+02  0.15388865373E+02  0.00000000000E+00 0. -1.
</event>
<event>
 7    1  0.4083500E-009  0.4778726E+02  0.7816164E-02  0.1312668E+00
        -11   -1    0    0    0    0  0.00000000000E+00  0.00000000000E+00  0.45593999997E+02  0.45594000000E+02  0.51100000000E-03 0. -1.
         11   -1    0    0    0    0 -0.00000000000E+00 -0.00000000000E+00 -0.45593999997E+02  0.45594000000E+02  0.51100000000E-03 0.  1.
    9900012    2    1    2    0    0 -0.18780678456E+02  0.39076267894E+02 -0.19888014733E+01  0.47787263519E+02  0.19999965687E+02 0.  0.
        -12    1    1    2    0    0  0.18780678456E+02 -0.39076267894E+02  0.19888014733E+01  0.43400736481E+02  0.00000000000E+00 0.  1.
         11    1    3    3    0    0 -0.12668799938E+02  0.32281477058E+02 -0.93739250234E+01  0.35923011059E+02  0.51100000000E-03 0.  1.
        -11    1    3    3    0    0 -0.14417406153E-01  0.18171539978E+00  0.51308342404E+00  0.54450271741E+00  0.51100000000E-03 0. -1.
        -12    1    3    3    0    0 -0.60974611118E+01  0.66130754367E+01  0.68720401260E+01  0.11319749743E+02  0.00000000000E+00 0.  1.
</event>
<event>
 7    1  0.4083500E-009  0.4778721E+02  0.7816164E-02  0.1312668E+00
        -11   -1    0    0    0    0  0.00000000000E+00  0.00000000000E+00  0.45593999997E+02  0.45594000000E+02  0.51100000000E-03 0.  1.
         11   -1    0    0    0    0 -0.00000000000E+00 -0.00000000000E+00 -0.45593999997E+02  0.45594000000E+02  0.51100000000E-03 0. -1.
    9900012    2    1    2    0    0  0.16796204413E+02  0.14427885484E+02 -0.37327628104E+02  0.47787214499E+02  0.19999742186E+02 0.  0.
        -12    1    1    2    0    0 -0.16796204413E+02 -0.14427885484E+02  0.37327628104E+02  0.43400785501E+02  0.00000000000E+00 0.  1.
         11    1    3    3    0    0  0.82601652824E+01  0.97182834520E+01 -0.21816824308E+02  0.25271509391E+02  0.51100000000E-03 0. -1.
        -11    1    3    3    0    0  0.94169896695E+01  0.83431521288E+01 -0.12052715972E+02  0.17422854084E+02  0.51100000000E-03 0.  1.
        -12    1    3    3    0    0 -0.88095053881E+00 -0.36335500965E+01 -0.34580878243E+01  0.50928510243E+01  0.00000000000E+00 0.  1.
</event>
<event>
 7    1  0.4083500E-009  0.4778727E+02  0.7816164E-02  0.1312668E+00
        -11   -1    0    0    0    0  0.00000000000E+00  0.00000000000E+00  0.45593999997E+02  0.45594000000E+02  0.51100000000E-03 0. -1.
         11   -1    0    0    0    0 -0.00000000000E+00 -0.00000000000E+00 -0.45593999997E+02  0.45594000000E+02  0.51100000000E-03 0.  1.
    9900012    2    1    2    0    0 -0.14984573820E+02  0.15684121579E+02  0.37591149341E+02  0.47787266930E+02  0.19999981239E+02 0.  0.
        -12    1    1    2    0    0  0.14984573820E+02 -0.15684121579E+02 -0.37591149341E+02  0.43400733070E+02  0.00000000000E+00 0.  1.
         11    1    3    3    0    0 -0.12719436293E+02  0.90486574321E+01  0.20041434866E+02  0.25403176429E+02  0.51100000000E-03 0. -1.
        -11    1    3    3    0    0 -0.23114303704E+01  0.79733881389E+00  0.16210878507E+02  0.16394238067E+02  0.51100000000E-03 0.  1.
        -12    1    3    3    0    0  0.46292843805E-01  0.58381253329E+01  0.13388359676E+01  0.59898524337E+01  0.00000000000E+00 0.  1.
</event>
<event>
 7    1  0.4083500E-009  0.4778727E+02  0.7816164E-02  0.1312668E+00
        -11   -1    0    0    0    0  0.00000000000E+00  0.00000000000E+00  0.45593999997E+02  0.45594000000E+02  0.51100000000E-03 0. -1.
         11   -1    0    0    0    0 -0.00000000000E+00 -0.00000000000E+00 -0.45593999997E+02  0.45594000000E+02  0.51100000000E-03 0.  1.
    9900012    2    1    2    0    0 -0.22460955177E+02 -0.23681318325E+02  0.28606363545E+02  0.47787269818E+02  0.19999994408E+02 0.  0.
        -12    1    1    2    0    0  0.22460955177E+02  0.23681318325E+02 -0.28606363545E+02  0.43400730182E+02  0.00000000000E+00 0.  1.
         11    1    3    3    0    0  0.24709871483E+00 -0.92677146894E+00 -0.77731602138E+00  0.12345783040E+01  0.51100000000E-03 0. -1.
        -11    1    3    3    0    0 -0.76878571964E+01  0.12521242638E+01  0.63075694699E+01  0.10022793838E+02  0.51100000000E-03 0.  1.
         12    1    3    3    0    0 -0.15020196695E+02 -0.24006671120E+02  0.23076110096E+02  0.36529897676E+02  0.00000000000E+00 0. -1.
</event>
<event>
 7    1  0.4083500E-009  0.4778727E+02  0.7816164E-02  0.1312668E+00
        -11   -1    0    0    0    0  0.00000000000E+00  0.00000000000E+00  0.45593999997E+02  0.45594000000E+02  0.51100000000E-03 0.  1.
         11   -1    0    0    0    0 -0.00000000000E+00 -0.00000000000E+00 -0.45593999997E+02  0.45594000000E+02  0.51100000000E-03 0. -1.
    9900012    2    1    2    0    0 -0.29717051900E+02  0.21851551796E+02 -0.22869850406E+02  0.47787267897E+02  0.19999985648E+02 0.  0.
        -12    1    1    2    0    0  0.29717051900E+02 -0.21851551796E+02  0.22869850406E+02  0.43400732103E+02  0.00000000000E+00 0.  1.
         11    1    3    3    0    0 -0.11364184788E+01  0.59313655071E+01 -0.10173964999E+02  0.11831403459E+02  0.51100000000E-03 0. -1.
        -11    1    3    3    0    0 -0.13172309069E+02  0.81390175265E+01 -0.10133358674E+02  0.18505088240E+02  0.51100000000E-03 0.  1.
        -12    1    3    3    0    0 -0.15408324352E+02  0.77811687624E+01 -0.25625267332E+01  0.17450776198E+02  0.00000000000E+00 0.  1.
</event>
<event>
 7    1  0.4083500E-009  0.4778727E+02  0.7816164E-02  0.1312668E+00
        -11   -1    0    0    0    0  0.00000000000E+00  0.00000000000E+00  0.45593999997E+02  0.45594000000E+02  0.51100000000E-03 0.  1.
         11   -1    0    0    0    0 -0.00000000000E+00 -0.00000000000E+00 -0.45593999997E+02  0.45594000000E+02  0.51100000000E-03 0. -1.
    9900012    2    1    2    0    0 -0.35128020823E+01  0.38949814437E+02 -0.18820085072E+02  0.47787269301E+02  0.19999992049E+02 0.  0.
        -12    1    1    2    0    0  0.35128020823E+01 -0.38949814437E+02  0.18820085072E+02  0.43400730699E+02  0.00000000000E+00 0.  1.
         11    1    3    3    0    0  0.69235619404E+01  0.17618843442E+02 -0.80567740183E+01  0.20573550058E+02  0.51100000000E-03 0. -1.
        -11    1    3    3    0    0 -0.18237789455E+01  0.47221739737E+01  0.93588460814E+00  0.51479099585E+01  0.51100000000E-03 0.  1.
        -12    1    3    3    0    0 -0.86125850772E+01  0.16608797021E+02 -0.11699195662E+02  0.22065809284E+02  0.00000000000E+00 0.  1.
</event>
<event>
 7    1  0.4083500E-009  0.4778727E+02  0.7816164E-02  0.1312668E+00
        -11   -1    0    0    0    0  0.00000000000E+00  0.00000000000E+00  0.45593999997E+02  0.45594000000E+02  0.51100000000E-03 0.  1.
         11   -1    0    0    0    0 -0.00000000000E+00 -0.00000000000E+00 -0.45593999997E+02  0.45594000000E+02  0.51100000000E-03 0. -1.
    9900012    2    1    2    0    0 -0.10541692065E+02  0.37124323864E+01 -0.41937024575E+02  0.47787268946E+02  0.19999990432E+02 0.  0.
        -12    1    1    2    0    0  0.10541692065E+02 -0.37124323864E+01  0.41937024575E+02  0.43400731054E+02  0.00000000000E+00 0.  1.
         11    1    3    3    0    0 -0.23967973221E+01 -0.52508931828E+01 -0.17610804154E+02  0.18532591287E+02  0.51100000000E-03 0. -1.
        -11    1    3    3    0    0  0.16760636787E+01  0.50009838712E+00 -0.69156056058E-01  0.17504487062E+01  0.51100000000E-03 0.  1.
         12    1    3    3    0    0 -0.98209584214E+01  0.84632271821E+01 -0.24257064365E+02  0.27504228952E+02  0.00000000000E+00 0. -1.
</event>
<event>
 7    1  0.4083500E-009  0.4778726E+02  0.7816164E-02  0.1312668E+00
        -11   -1    0    0    0    0  0.00000000000E+00  0.00000000000E+00  0.45593999997E+02  0.45594000000E+02  0.51100000000E-03 0.  1.
         11   -1    0    0    0    0 -0.00000000000E+00 -0.00000000000E+00 -0.45593999997E+02  0.45594000000E+02  0.51100000000E-03 0. -1.
    9900012    2    1    2    0    0  0.26506826867E+02 -0.34278924128E+02  0.24428183315E+01  0.47787264161E+02  0.19999968617E+02 0.  0.
        -12    1    1    2    0    0 -0.26506826867E+02  0.34278924128E+02 -0.24428183315E+01  0.43400735839E+02  0.00000000000E+00 0.  1.
         11    1    3    3    0    0 -0.30105242527E+00 -0.55664469679E+00  0.13197151883E+01  0.14636031978E+01  0.51100000000E-03 0. -1.
        -11    1    3    3    0    0  0.15802234865E+02 -0.21690736294E+02  0.88789684016E+01  0.28267202689E+02  0.51100000000E-03 0.  1.
         12    1    3    3    0    0  0.11005644428E+02 -0.12031543137E+02 -0.77558652583E+01  0.18056458275E+02  0.00000000000E+00 0. -1.
</event>
<event>
 7    1  0.4083500E-009  0.4778727E+02  0.7816164E-02  0.1312668E+00
        -11   -1    0    0    0    0  0.00000000000E+00  0.00000000000E+00  0.45593999997E+02  0.45594000000E+02  0.51100000000E-03 0. -1.
         11   -1    0    0    0    0 -0.00000000000E+00 -0.00000000000E+00 -0.45593999997E+02  0.45594000000E+02  0.51100000000E-03 0.  1.
    9900012    2    1    2    0    0  0.19617475381E+01  0.41385164135E+02  0.12924514040E+02  0.47787270432E+02  0.19999997208E+02 0.  0.
        -12    1    1    2    0    0 -0.19617475381E+01 -0.41385164135E+02 -0.12924514040E+02  0.43400729568E+02  0.00000000000E+00 0.  1.
         11    1    3    3    0    0  0.52512590646E+01  0.30633865786E+02  0.11897441903E+02  0.33280002687E+02  0.51100000000E-03 0. -1.
        -11    1    3    3    0    0  0.28638511192E+01  0.61454259589E+01  0.66558153165E+00  0.68125547694E+01  0.51100000000E-03 0.  1.
        -12    1    3    3    0    0 -0.61533626457E+01  0.46058723895E+01  0.36149060554E+00  0.76947129755E+01  0.00000000000E+00 0.  1.
</event>
<event>
 7    1  0.4083500E-009  0.4778729E+02  0.7816164E-02  0.1312668E+00
        -11   -1    0    0    0    0  0.00000000000E+00  0.00000000000E+00  0.45593999997E+02  0.45594000000E+02  0.51100000000E-03 0. -1.
         11   -1    0    0    0    0 -0.00000000000E+00 -0.00000000000E+00 -0.45593999997E+02  0.45594000000E+02  0.51100000000E-03 0.  1.
    9900012    2    1    2    0    0  0.40431272232E+02  0.84733859720E+01  0.13309213447E+02  0.47787294860E+02  0.20000108582E+02 0.  0.
        -12    1    1    2    0    0 -0.40431272232E+02 -0.84733859720E+01 -0.13309213447E+02  0.43400705140E+02  0.00000000000E+00 0.  1.
         11    1    3    3    0    0  0.23488977441E+02  0.26216966093E+01  0.60341963679E+01  0.24392967848E+02  0.51100000000E-03 0. -1.
        -11    1    3    3    0    0  0.15725780033E+02  0.70890770441E+01  0.14434590572E+01  0.17310076409E+02  0.51100000000E-03 0.  1.
         12    1    3    3    0    0  0.12165147574E+01 -0.12373876813E+01  0.58315580222E+01  0.60842506026E+01  0.00000000000E+00 0. -1.
</event>
<event>
 7    1  0.4083500E-009  0.4778727E+02  0.7816164E-02  0.1312668E+00
        -11   -1    0    0    0    0  0.00000000000E+00  0.00000000000E+00  0.45593999997E+02  0.45594000000E+02  0.51100000000E-03 0.  1.
         11   -1    0    0    0    0 -0.00000000000E+00 -0.00000000000E+00 -0.45593999997E+02  0.45594000000E+02  0.51100000000E-03 0. -1.
    9900012    2    1    2    0    0 -0.15471700873E+02  0.40305876319E+02 -0.44368928423E+01  0.47787271760E+02  0.20000003260E+02 0.  0.
        -12    1    1    2    0    0  0.15471700873E+02 -0.40305876319E+02  0.44368928423E+01  0.43400728240E+02  0.00000000000E+00 0.  1.
         11    1    3    3    0    0 -0.60566899607E+00  0.10935866410E+01 -0.18954968655E+01  0.22706112178E+01  0.51100000000E-03 0. -1.
        -11    1    3    3    0    0 -0.18455577050E+02  0.34434947869E+02 -0.42559095908E+01  0.39299958343E+02  0.51100000000E-03 0.  1.
        -12    1    3    3    0    0  0.35895451730E+01  0.47773418080E+01  0.17145136141E+01  0.62167021991E+01  0.00000000000E+00 0.  1.
</event>
<event>
 7    1  0.6203310E-009  0.4778727E+02  0.7816164E-02  0.1312668E+00
        -11   -1    0    0    0    0  0.00000000000E+00  0.00000000000E+00  0.45593999997E+02  0.45594000000E+02  0.51100000000E-03 0.  1.
         11   -1    0    0    0    0 -0.00000000000E+00 -0.00000000000E+00 -0.45593999997E+02  0.45594000000E+02  0.51100000000E-03 0. -1.
    9900012    2    1    2    0    0  0.41982599288E+02  0.10117006069E+02  0.43278890911E+01  0.47787273292E+02  0.20000010250E+02 0.  0.
        -12    1    1    2    0    0 -0.41982599288E+02 -0.10117006069E+02 -0.43278890911E+01  0.43400726708E+02  0.00000000000E+00 0.  1.
         11    1    3    3    0    0  0.20762851301E+02  0.23149431851E+01  0.85132417466E+01  0.22559482295E+02  0.51100000000E-03 0. -1.
        -11    1    3    3    0    0  0.17239635923E+01  0.41511460666E+01  0.12431999774E+01  0.46636477761E+01  0.51100000000E-03 0.  1.
         12    1    3    3    0    0  0.19495784394E+02  0.36509168172E+01 -0.54285526329E+01  0.20564143222E+02  0.00000000000E+00 0. -1.
</event>
<event>
 7    1  0.4083500E-009  0.4778727E+02  0.7816164E-02  0.1312668E+00
        -11   -1    0    0    0    0  0.00000000000E+00  0.00000000000E+00  0.45593999997E+02  0.45594000000E+02  0.51100000000E-03 0.  1.
         11   -1    0    0    0    0 -0.00000000000E+00 -0.00000000000E+00 -0.45593999997E+02  0.45594000000E+02  0.51100000000E-03 0. -1.
    9900012    2    1    2    0    0 -0.51474817053E+01  0.42812725620E+02  0.49190649977E+01  0.47787271396E+02  0.20000001604E+02 0.  0.
        -12    1    1    2    0    0  0.51474817053E+01 -0.42812725620E+02 -0.49190649977E+01  0.43400728604E+02  0.00000000000E+00 0.  1.
         11    1    3    3    0    0 -0.82509735557E+00  0.68264083330E+01 -0.11173644447E+01  0.69662859501E+01  0.51100000000E-03 0. -1.
        -11    1    3    3    0    0 -0.57885925320E+01  0.26699829457E+01 -0.16778288399E+01  0.65917920408E+01  0.51100000000E-03 0.  1.
         12    1    3    3    0    0  0.14662081823E+01  0.33316334341E+02  0.77142582823E+01  0.34229193405E+02  0.00000000000E+00 0. -1.
</event>
<event>
 7    1  0.4083500E-009  0.4778727E+02  0.7816164E-02  0.1312668E+00
        -11   -1    0    0    0    0  0.00000000000E+00  0.00000000000E+00  0.45593999997E+02  0.45594000000E+02  0.51100000000E-03 0. -1.
         11   -1    0    0    0    0 -0.00000000000E+00 -0.00000000000E+00 -0.45593999997E+02  0.45594000000E+02  0.51100000000E-03 0.  1.
    9900012    2    1    2    0    0 -0.10308828529E+02  0.36382985998E+02  0.21298588497E+02  0.47787268581E+02  0.19999988766E+02 0.  0.
        -12    1    1    2    0    0  0.10308828529E+02 -0.36382985998E+02 -0.21298588497E+02  0.43400731419E+02  0.00000000000E+00 0.  1.
         11    1    3    3    0    0 -0.13176262058E+02  0.14931566937E+02  0.62790312760E+01  0.20880416831E+02  0.51100000000E-03 0. -1.
        -11    1    3    3    0    0  0.21069648354E+01  0.35438679324E+01  0.12612432454E+01  0.43115003798E+01  0.51100000000E-03 0.  1.
         12    1    3    3    0    0  0.76046869363E+00  0.17907551128E+02  0.13758313976E+02  0.22595351369E+02  0.00000000000E+00 0. -1.
</event>
<event>
 7    1  0.4083500E-009  0.4778727E+02  0.7816164E-02  0.1312668E+00
        -11   -1    0    0    0    0  0.00000000000E+00  0.00000000000E+00  0.45593999997E+02  0.45594000000E+02  0.51100000000E-03 0.  1.
         11   -1    0    0    0    0 -0.00000000000E+00 -0.00000000000E+00 -0.45593999997E+02  0.45594000000E+02  0.51100000000E-03 0. -1.
    9900012    2    1    2    0    0 -0.45022886261E+01  0.22728456499E+02 -0.36698362811E+02  0.47787272233E+02  0.20000005420E+02 0.  0.
        -12    1    1    2    0    0  0.45022886261E+01 -0.22728456499E+02  0.36698362811E+02  0.43400727767E+02  0.00000000000E+00 0.  1.
         11    1    3    3    0    0  0.48644591973E+00  0.97518117831E+01 -0.46777366563E+01  0.10826619194E+02  0.51100000000E-03 0. -1.
        -11    1    3    3    0    0  0.91717907078E+00 -0.18481509567E+01 -0.16088089750E+01  0.26163229896E+01  0.51100000000E-03 0.  1.
         12    1    3    3    0    0 -0.59059136166E+01  0.14824795672E+02 -0.30411817180E+02  0.34344330049E+02  0.00000000000E+00 0. -1.
</event>
<event>
 7    1  0.4083500E-009  0.4778731E+02  0.7816164E-02  0.1312668E+00
        -11   -1    0    0    0    0  0.00000000000E+00  0.00000000000E+00  0.45593999997E+02  0.45594000000E+02  0.51100000000E-03 0.  1.
         11   -1    0    0    0    0 -0.00000000000E+00 -0.00000000000E+00 -0.45593999997E+02  0.45594000000E+02  0.51100000000E-03 0. -1.
    9900012    2    1    2    0    0 -0.50669976560E+00  0.10638653928E+02 -0.42073528513E+02  0.47787314480E+02  0.20000198040E+02 0.  0.
        -12    1    1    2    0    0  0.50669976560E+00 -0.10638653928E+02  0.42073528513E+02  0.43400685520E+02  0.00000000000E+00 0.  1.
         11    1    3    3    0    0 -0.65484736614E+00 -0.14003915452E+01 -0.41769535939E+01  0.44538593534E+01  0.51100000000E-03 0. -1.
        -11    1    3    3    0    0  0.23927411856E+01 -0.40709844487E+01 -0.76286088134E+01  0.89718335613E+01  0.51100000000E-03 0.  1.
         12    1    3    3    0    0 -0.22445935851E+01  0.16110029921E+02 -0.30267966106E+02  0.34361621565E+02  0.00000000000E+00 0. -1.
</event>
<event>
 7    1  0.4083500E-009  0.4778727E+02  0.7816164E-02  0.1312668E+00
        -11   -1    0    0    0    0  0.00000000000E+00  0.00000000000E+00  0.45593999997E+02  0.45594000000E+02  0.51100000000E-03 0.  1.
         11   -1    0    0    0    0 -0.00000000000E+00 -0.00000000000E+00 -0.45593999997E+02  0.45594000000E+02  0.51100000000E-03 0. -1.
    9900012    2    1    2    0    0 -0.30490692049E+02 -0.20290253276E+02 -0.23286190493E+02  0.47787270198E+02  0.19999996142E+02 0.  0.
        -12    1    1    2    0    0  0.30490692049E+02  0.20290253276E+02  0.23286190493E+02  0.43400729802E+02  0.00000000000E+00 0.  1.
         11    1    3    3    0    0 -0.97974089650E+01 -0.93871069259E+00 -0.56476493988E+01  0.11347525906E+02  0.51100000000E-03 0. -1.
        -11    1    3    3    0    0 -0.39669334590E+01 -0.44274591872E+01  0.23630089954E+01  0.63970905649E+01  0.51100000000E-03 0.  1.
        -12    1    3    3    0    0 -0.16726349625E+02 -0.14924083396E+02 -0.20001550090E+02  0.30042653727E+02  0.00000000000E+00 0.  1.
</event>
<event>
 7    1  0.4083500E-009  0.4778727E+02  0.7816164E-02  0.1312668E+00
        -11   -1    0    0    0    0  0.00000000000E+00  0.00000000000E+00  0.45593999997E+02  0.45594000000E+02  0.51100000000E-03 0. -1.
         11   -1    0    0    0    0 -0.00000000000E+00 -0.00000000000E+00 -0.45593999997E+02  0.45594000000E+02  0.51100000000E-03 0.  1.
    9900012    2    1    2    0    0  0.64607381230E+01  0.23292752559E+02  0.36046213720E+02  0.47787274402E+02  0.20000015310E+02 0.  0.
        -12    1    1    2    0    0 -0.64607381230E+01 -0.23292752559E+02 -0.36046213720E+02  0.43400725598E+02  0.00000000000E+00 0.  1.
         11    1    3    3    0    0 -0.24177554297E+00  0.13830995395E+02  0.21202786686E+02  0.25316260635E+02  0.51100000000E-03 0. -1.
        -11    1    3    3    0    0  0.62621379736E+01  0.72634796028E+01  0.16898181181E+02  0.19429900551E+02  0.51100000000E-03 0.  1.
        -12    1    3    3    0    0  0.44037569231E+00  0.21982775613E+01 -0.20547541473E+01  0.30411132160E+01  0.00000000000E+00 0.  1.
</event>
<event>
 7    1  0.4083500E-009  0.4778727E+02  0.7816164E-02  0.1312668E+00
        -11   -1    0    0    0    0  0.00000000000E+00  0.00000000000E+00  0.45593999997E+02  0.45594000000E+02  0.51100000000E-03 0. -1.
         11   -1    0    0    0    0 -0.00000000000E+00 -0.00000000000E+00 -0.45593999997E+02  0.45594000000E+02  0.51100000000E-03 0.  1.
    9900012    2    1    2    0    0  0.13675528479E+02 -0.50812787481E+01  0.40875224646E+02  0.47787268868E+02  0.19999990078E+02 0.  0.
        -12    1    1    2    0    0 -0.13675528479E+02  0.50812787481E+01 -0.40875224646E+02  0.43400731132E+02  0.00000000000E+00 0.  1.
         11    1    3    3    0    0 -0.12691818667E+01 -0.25993908478E+01  0.56725182545E+01  0.63675049273E+01  0.51100000000E-03 0. -1.
        -11    1    3    3    0    0  0.46542698144E+01 -0.85673275923E+01  0.17996870189E+02  0.20468235548E+02  0.51100000000E-03 0.  1.
        -12    1    3    3    0    0  0.10290440531E+02  0.60854396919E+01  0.17205836203E+02  0.20951528393E+02  0.00000000000E+00 0.  1.
</event>
<event>
 7    1  0.4083500E-009  0.4778727E+02  0.7816164E-02  0.1312668E+00
        -11   -1    0    0    0    0  0.00000000000E+00  0.00000000000E+00  0.45593999997E+02  0.45594000000E+02  0.51100000000E-03 0.  1.
         11   -1    0    0    0    0 -0.00000000000E+00 -0.00000000000E+00 -0.45593999997E+02  0.45594000000E+02  0.51100000000E-03 0. -1.
    9900012    2    1    2    0    0  0.62021480814E+01 -0.14191473516E+02 -0.40543298333E+02  0.47787267275E+02  0.19999982813E+02 0.  0.
        -12    1    1    2    0    0 -0.62021480814E+01  0.14191473516E+02  0.40543298333E+02  0.43400732725E+02  0.00000000000E+00 0.  1.
         11    1    3    3    0    0  0.60313505236E+01 -0.70094819066E+01 -0.10883256228E+02  0.14281291683E+02  0.51100000000E-03 0.  1.
        -11    1    3    3    0    0 -0.36546507670E+01 -0.49071128497E+01 -0.28148132543E+02  0.28805443837E+02  0.51100000000E-03 0. -1.
         12    1    3    3    0    0  0.38254483248E+01 -0.22748787600E+01 -0.15119095623E+01  0.47005317553E+01  0.00000000000E+00 0. -1.
</event>
<event>
 7    1  0.4083500E-009  0.4778731E+02  0.7816164E-02  0.1312668E+00
        -11   -1    0    0    0    0  0.00000000000E+00  0.00000000000E+00  0.45593999997E+02  0.45594000000E+02  0.51100000000E-03 0.  1.
         11   -1    0    0    0    0 -0.00000000000E+00 -0.00000000000E+00 -0.45593999997E+02  0.45594000000E+02  0.51100000000E-03 0. -1.
    9900012    2    1    2    0    0  0.64091020494E+01 -0.55872856550E+01 -0.42559670126E+02  0.47787310244E+02  0.20000178727E+02 0.  0.
        -12    1    1    2    0    0 -0.64091020494E+01  0.55872856550E+01  0.42559670126E+02  0.43400689756E+02  0.00000000000E+00 0.  1.
         11    1    3    3    0    0  0.46413132809E+00 -0.10802683898E+01 -0.53217058772E+01  0.54500414116E+01  0.51100000000E-03 0. -1.
        -11    1    3    3    0    0  0.24385477827E+01 -0.47718182278E+01 -0.44565452115E+00  0.53773016190E+01  0.51100000000E-03 0.  1.
        -12    1    3    3    0    0  0.35064229385E+01  0.26480096262E+00 -0.36792309727E+02  0.36959967214E+02  0.00000000000E+00 0.  1.
</event>
<event>
 7    1  0.4083500E-009  0.4778722E+02  0.7816164E-02  0.1312668E+00
        -11   -1    0    0    0    0  0.00000000000E+00  0.00000000000E+00  0.45593999997E+02  0.45594000000E+02  0.51100000000E-03 0.  1.
         11   -1    0    0    0    0 -0.00000000000E+00 -0.00000000000E+00 -0.45593999997E+02  0.45594000000E+02  0.51100000000E-03 0. -1.
    9900012    2    1    2    0    0 -0.29325047154E+02 -0.21342094564E+02 -0.23836608131E+02  0.47787224913E+02  0.19999789667E+02 0.  0.
        -12    1    1    2    0    0  0.29325047154E+02  0.21342094564E+02  0.23836608131E+02  0.43400775087E+02  0.00000000000E+00 0.  1.
         11    1    3    3    0    0 -0.65944811226E+01  0.11851913782E+01 -0.38690386506E+00  0.67113005253E+01  0.51100000000E-03 0. -1.
        -11    1    3    3    0    0 -0.12083023914E+01 -0.45331471090E+01 -0.29450125268E+00  0.47006540641E+01  0.51100000000E-03 0.  1.
        -12    1    3    3    0    0 -0.21522263640E+02 -0.17994138833E+02 -0.23155203013E+02  0.36375270324E+02  0.00000000000E+00 0.  1.
</event>
<event>
 7    1  0.4083500E-009  0.4778727E+02  0.7816164E-02  0.1312668E+00
        -11   -1    0    0    0    0  0.00000000000E+00  0.00000000000E+00  0.45593999997E+02  0.45594000000E+02  0.51100000000E-03 0.  1.
         11   -1    0    0    0    0 -0.00000000000E+00 -0.00000000000E+00 -0.45593999997E+02  0.45594000000E+02  0.51100000000E-03 0. -1.
    9900012    2    1    2    0    0 -0.30593717922E+02 -0.21715090117E+02 -0.21819777824E+02  0.47787269369E+02  0.19999992360E+02 0.  0.
        -12    1    1    2    0    0  0.30593717922E+02  0.21715090117E+02  0.21819777824E+02  0.43400730631E+02  0.00000000000E+00 0.  1.
         11    1    3    3    0    0 -0.14538823879E+02 -0.39796438528E+01 -0.12228785345E+02  0.19410259046E+02  0.51100000000E-03 0. -1.
        -11    1    3    3    0    0 -0.25910153144E+01  0.64554193742E+00  0.14715203473E+01  0.30488452152E+01  0.51100000000E-03 0.  1.
        -12    1    3    3    0    0 -0.13463878728E+02 -0.18380988201E+02 -0.11062512826E+02  0.25328165107E+02  0.00000000000E+00 0.  1.
</event>
<event>
 7    1  0.4605134E-009  0.4778727E+02  0.7816164E-02  0.1312668E+00
        -11   -1    0    0    0    0  0.00000000000E+00  0.00000000000E+00  0.45593999997E+02  0.45594000000E+02  0.51100000000E-03 0. -1.
         11   -1    0    0    0    0 -0.00000000000E+00 -0.00000000000E+00 -0.45593999997E+02  0.45594000000E+02  0.51100000000E-03 0.  1.
    9900012    2    1    2    0    0  0.39760777200E+02  0.15663468644E+02  0.75736089292E+01  0.47787271829E+02  0.20000003578E+02 0.  0.
        -12    1    1    2    0    0 -0.39760777200E+02 -0.15663468644E+02 -0.75736089292E+01  0.43400728171E+02  0.00000000000E+00 0.  1.
         11    1    3    3    0    0  0.52398215374E+00 -0.90800597693E+00 -0.24812806316E+01  0.26936566198E+01  0.51100000000E-03 0. -1.
        -11    1    3    3    0    0  0.62048019113E+01  0.70024592719E+01  0.39972468085E+01  0.10174083984E+02  0.51100000000E-03 0.  1.
         12    1    3    3    0    0  0.33031993135E+02  0.95690153492E+01  0.60576427522E+01  0.34919531225E+02  0.00000000000E+00 0. -1.
</event>
<event>
 7    1  0.4083500E-009  0.4778727E+02  0.7816164E-02  0.1312668E+00
        -11   -1    0    0    0    0  0.00000000000E+00  0.00000000000E+00  0.45593999997E+02  0.45594000000E+02  0.51100000000E-03 0.  1.
         11   -1    0    0    0    0 -0.00000000000E+00 -0.00000000000E+00 -0.45593999997E+02  0.45594000000E+02  0.51100000000E-03 0. -1.
    9900012    2    1    2    0    0  0.41762439548E+02 -0.99293255299E+00 -0.11770139461E+02  0.47787268958E+02  0.19999990486E+02 0.  0.
        -12    1    1    2    0    0 -0.41762439548E+02  0.99293255299E+00  0.11770139461E+02  0.43400731042E+02  0.00000000000E+00 0.  1.
         11    1    3    3    0    0  0.23206577491E+01 -0.31122320256E+01  0.26942153987E+01  0.47254880642E+01  0.51100000000E-03 0. -1.
        -11    1    3    3    0    0  0.11027369096E+02 -0.34684992798E+01 -0.32565383044E+01  0.12009929160E+02  0.51100000000E-03 0.  1.
        -12    1    3    3    0    0  0.28414412703E+02  0.55877987524E+01 -0.11207816556E+02  0.31051851734E+02  0.00000000000E+00 0.  1.
</event>
<event>
 7    1  0.4083500E-009  0.4778727E+02  0.7816164E-02  0.1312668E+00
        -11   -1    0    0    0    0  0.00000000000E+00  0.00000000000E+00  0.45593999997E+02  0.45594000000E+02  0.51100000000E-03 0. -1.
         11   -1    0    0    0    0 -0.00000000000E+00 -0.00000000000E+00 -0.45593999997E+02  0.45594000000E+02  0.51100000000E-03 0.  1.
    9900012    2    1    2    0    0  0.27582759644E+02  0.10276967556E+02  0.31893550008E+02  0.47787271621E+02  0.20000002629E+02 0.  0.
        -12    1    1    2    0    0 -0.27582759644E+02 -0.10276967556E+02 -0.31893550008E+02  0.43400728379E+02  0.00000000000E+00 0.  1.
         11    1    3    3    0    0  0.19223200398E+02  0.77067047770E+01  0.15397425857E+02  0.25807081496E+02  0.51100000000E-03 0. -1.
        -11    1    3    3    0    0  0.91640270492E+01  0.54994658736E+01  0.15411543588E+02  0.18754711213E+02  0.51100000000E-03 0.  1.
        -12    1    3    3    0    0 -0.80446780304E+00 -0.29292030947E+01  0.10845805627E+01  0.32254789122E+01  0.00000000000E+00 0.  1.
</event>
<event>
 7    1  0.4083500E-009  0.4778729E+02  0.7816164E-02  0.1312668E+00
        -11   -1    0    0    0    0  0.00000000000E+00  0.00000000000E+00  0.45593999997E+02  0.45594000000E+02  0.51100000000E-03 0.  1.
         11   -1    0    0    0    0 -0.00000000000E+00 -0.00000000000E+00 -0.45593999997E+02  0.45594000000E+02  0.51100000000E-03 0. -1.
    9900012    2    1    2    0    0  0.46158003939E+01  0.38189055463E+02 -0.20097569385E+02  0.47787287268E+02  0.20000073970E+02 0.  0.
        -12    1    1    2    0    0 -0.46158003939E+01 -0.38189055463E+02  0.20097569385E+02  0.43400712732E+02  0.00000000000E+00 0.  1.
         11    1    3    3    0    0  0.65587596437E+01  0.93580571508E+01 -0.13106967464E+02  0.17389167837E+02  0.51100000000E-03 0. -1.
        -11    1    3    3    0    0 -0.22184048261E+01  0.50469258950E+01 -0.30116434951E+01  0.62819406051E+01  0.51100000000E-03 0.  1.
         12    1    3    3    0    0  0.27544557638E+00  0.23784072417E+02 -0.39789584265E+01  0.24116178826E+02  0.00000000000E+00 0. -1.
</event>
<event>
 7    1  0.4083500E-009  0.4778728E+02  0.7816164E-02  0.1312668E+00
        -11   -1    0    0    0    0  0.00000000000E+00  0.00000000000E+00  0.45593999997E+02  0.45594000000E+02  0.51100000000E-03 0. -1.
         11   -1    0    0    0    0 -0.00000000000E+00 -0.00000000000E+00 -0.45593999997E+02  0.45594000000E+02  0.51100000000E-03 0.  1.
    9900012    2    1    2    0    0 -0.16678470301E+02  0.56776960424E+01  0.39663774102E+02  0.47787279039E+02  0.20000036449E+02 0.  0.
        -12    1    1    2    0    0  0.16678470301E+02 -0.56776960424E+01 -0.39663774102E+02  0.43400720961E+02  0.00000000000E+00 0.  1.
         11    1    3    3    0    0 -0.96303983399E+01 -0.95947618073E+00  0.71111008321E+01  0.12009701163E+02  0.51100000000E-03 0. -1.
        -11    1    3    3    0    0  0.21373193584E+00 -0.27561569546E+01  0.87793401328E+01  0.92042868234E+01  0.51100000000E-03 0.  1.
         12    1    3    3    0    0 -0.72618038969E+01  0.93933291778E+01  0.23773333137E+02  0.26573291052E+02  0.00000000000E+00 0. -1.
</event>
<event>
 7    1  0.4083500E-009  0.4778727E+02  0.7816164E-02  0.1312668E+00
        -11   -1    0    0    0    0  0.00000000000E+00  0.00000000000E+00  0.45593999997E+02  0.45594000000E+02  0.51100000000E-03 0.  1.
         11   -1    0    0    0    0 -0.00000000000E+00 -0.00000000000E+00 -0.45593999997E+02  0.45594000000E+02  0.51100000000E-03 0. -1.
    9900012    2    1    2    0    0  0.23257053687E+02 -0.34223929404E+02 -0.13094092162E+02  0.47787272592E+02  0.20000007054E+02 0.  0.
        -12    1    1    2    0    0 -0.23257053687E+02  0.34223929404E+02  0.13094092162E+02  0.43400727408E+02  0.00000000000E+00 0.  1.
         11    1    3    3    0    0  0.47191219159E+01 -0.13272473686E+02  0.10710733721E+01  0.14127132328E+02  0.51100000000E-03 0. -1.
        -11    1    3    3    0    0  0.28264238985E+01  0.81503601318E+00  0.63016209089E+00  0.30083318099E+01  0.51100000000E-03 0.  1.
        -12    1    3    3    0    0  0.15711507872E+02 -0.21766491732E+02 -0.14795327625E+02  0.30651808453E+02  0.00000000000E+00 0.  1.
</event>
<event>
 7    1  0.4083500E-009  0.4778727E+02  0.7816164E-02  0.1312668E+00
        -11   -1    0    0    0    0  0.00000000000E+00  0.00000000000E+00  0.45593999997E+02  0.45594000000E+02  0.51100000000E-03 0.  1.
         11   -1    0    0    0    0 -0.00000000000E+00 -0.00000000000E+00 -0.45593999997E+02  0.45594000000E+02  0.51100000000E-03 0. -1.
    9900012    2    1    2    0    0 -0.15265723807E+02  0.30810676125E+00 -0.40626171345E+02  0.47787273609E+02  0.20000011693E+02 0.  0.
        -12    1    1    2    0    0  0.15265723807E+02 -0.30810676125E+00  0.40626171345E+02  0.43400726391E+02  0.00000000000E+00 0.  1.
         11    1    3    3    0    0 -0.28489742176E+01  0.97405407215E+00 -0.65501917777E+01  0.72090531981E+01  0.51100000000E-03 0. -1.
        -11    1    3    3    0    0 -0.31827782879E+01 -0.74257326140E+01 -0.54389817859E+01  0.97393072450E+01  0.51100000000E-03 0.  1.
        -12    1    3    3    0    0 -0.92339713019E+01  0.67597853031E+01 -0.28636997781E+02  0.30838913166E+02  0.00000000000E+00 0.  1.
</event>
<event>
 7    1  0.4083500E-009  0.4778727E+02  0.7816164E-02  0.1312668E+00
        -11   -1    0    0    0    0  0.00000000000E+00  0.00000000000E+00  0.45593999997E+02  0.45594000000E+02  0.51100000000E-03 0.  1.
         11   -1    0    0    0    0 -0.00000000000E+00 -0.00000000000E+00 -0.45593999997E+02  0.45594000000E+02  0.51100000000E-03 0. -1.
    9900012    2    1    2    0    0  0.36819377752E+02  0.36045020085E+01 -0.22692823135E+02  0.47787271496E+02  0.20000002060E+02 0.  0.
        -12    1    1    2    0    0 -0.36819377752E+02 -0.36045020085E+01  0.22692823135E+02  0.43400728504E+02  0.00000000000E+00 0.  1.
         11    1    3    3    0    0  0.15370648387E+02 -0.11030313608E+01 -0.18742145418E+02  0.24263996480E+02  0.51100000000E-03 0. -1.
        -11    1    3    3    0    0 -0.49947395542E+00  0.35910811696E+00 -0.66940143342E+00  0.90913772993E+00  0.51100000000E-03 0.  1.
         12    1    3    3    0    0  0.21948203320E+02  0.43484252524E+01 -0.32812762839E+01  0.22614137287E+02  0.00000000000E+00 0. -1.
</event>
<event>
 7    1  0.4083500E-009  0.4778727E+02  0.7816164E-02  0.1312668E+00
        -11   -1    0    0    0    0  0.00000000000E+00  0.00000000000E+00  0.45593999997E+02  0.45594000000E+02  0.51100000000E-03 0. -1.
         11   -1    0    0    0    0 -0.00000000000E+00 -0.00000000000E+00 -0.45593999997E+02  0.45594000000E+02  0.51100000000E-03 0.  1.
    9900012    2    1    2    0    0 -0.45319992219E+00  0.33929349362E+02  0.27059514264E+02  0.47787269010E+02  0.19999990725E+02 0.  0.
        -12    1    1    2    0    0  0.45319992219E+00 -0.33929349362E+02 -0.27059514264E+02  0.43400730990E+02  0.00000000000E+00 0.  1.
         11    1    3    3    0    0  0.18868415754E+01  0.79682604471E+00  0.36458973550E+01  0.41818262351E+01  0.51100000000E-03 0. -1.
        -11    1    3    3    0    0 -0.83540170180E+01  0.13442814469E+02  0.13272034276E+02  0.20655404989E+02  0.51100000000E-03 0.  1.
        -12    1    3    3    0    0  0.60139755204E+01  0.19689708848E+02  0.10141582633E+02  0.22950037786E+02  0.00000000000E+00 0.  1.
</event>
<event>
 7    1  0.4083500E-009  0.4778726E+02  0.7816164E-02  0.1312668E+00
        -11   -1    0    0    0    0  0.00000000000E+00  0.00000000000E+00  0.45593999997E+02  0.45594000000E+02  0.51100000000E-03 0.  1.
         11   -1    0    0    0    0 -0.00000000000E+00 -0.00000000000E+00 -0.45593999997E+02  0.45594000000E+02  0.51100000000E-03 0. -1.
    9900012    2    1    2    0    0 -0.80441831695E+01 -0.90347103515E+01 -0.41680801112E+02  0.47787262042E+02  0.19999958954E+02 0.  0.
        -12    1    1    2    0    0  0.80441831695E+01  0.90347103515E+01  0.41680801112E+02  0.43400737958E+02  0.00000000000E+00 0.  1.
         11    1    3    3    0    0 -0.84203680195E+01 -0.46546331943E+00 -0.11134424184E+02  0.13967628856E+02  0.51100000000E-03 0. -1.
        -11    1    3    3    0    0 -0.35145715670E+01 -0.38630921830E+01 -0.39956285792E+01  0.65757693480E+01  0.51100000000E-03 0.  1.
         12    1    3    3    0    0  0.38907564170E+01 -0.47061548490E+01 -0.26550748349E+02  0.27243863838E+02  0.00000000000E+00 0. -1.
</event>
<event>
 7    1  0.4083500E-009  0.4778728E+02  0.7816164E-02  0.1312668E+00
        -11   -1    0    0    0    0  0.00000000000E+00  0.00000000000E+00  0.45593999997E+02  0.45594000000E+02  0.51100000000E-03 0. -1.
         11   -1    0    0    0    0 -0.00000000000E+00 -0.00000000000E+00 -0.45593999997E+02  0.45594000000E+02  0.51100000000E-03 0.  1.
    9900012    2    1    2    0    0 -0.45435417979E+01 -0.27511351178E+01  0.43074466394E+02  0.47787283743E+02  0.20000057896E+02 0.  0.
        -12    1    1    2    0    0  0.45435417979E+01  0.27511351178E+01 -0.43074466394E+02  0.43400716257E+02  0.00000000000E+00 0.  1.
         11    1    3    3    0    0  0.11414822740E+01  0.63620000251E+01  0.29517033249E+02  0.30216440529E+02  0.51100000000E-03 0. -1.
        -11    1    3    3    0    0 -0.20511517092E+00 -0.26297535866E+01  0.25355919736E+01  0.36588117030E+01  0.51100000000E-03 0.  1.
         12    1    3    3    0    0 -0.54799089010E+01 -0.64833815562E+01  0.11021841171E+02  0.13912031511E+02  0.00000000000E+00 0. -1.
</event>
<event>
 7    1  0.4083500E-009  0.4778725E+02  0.7816164E-02  0.1312668E+00
        -11   -1    0    0    0    0  0.00000000000E+00  0.00000000000E+00  0.45593999997E+02  0.45594000000E+02  0.51100000000E-03 0.  1.
         11   -1    0    0    0    0 -0.00000000000E+00 -0.00000000000E+00 -0.45593999997E+02  0.45594000000E+02  0.51100000000E-03 0. -1.
    9900012    2    1    2    0    0 -0.24033905992E+02 -0.39696099077E+01 -0.35919897474E+02  0.47787245691E+02  0.19999884403E+02 0.  0.
        -12    1    1    2    0    0  0.24033905992E+02  0.39696099077E+01  0.35919897474E+02  0.43400754309E+02  0.00000000000E+00 0.  1.
         11    1    3    3    0    0 -0.37504862221E-01 -0.44028526571E+01 -0.80668413657E+01  0.91902365592E+01  0.51100000000E-03 0. -1.
        -11    1    3    3    0    0 -0.46603303222E+01  0.21937561637E+01 -0.67342704285E+00  0.51946846932E+01  0.51100000000E-03 0.  1.
         12    1    3    3    0    0 -0.19336070807E+02 -0.17605134143E+01 -0.27179629066E+02  0.33402324438E+02  0.00000000000E+00 0. -1.
</event>
<event>
 7    1  0.4083500E-009  0.4778727E+02  0.7816164E-02  0.1312668E+00
        -11   -1    0    0    0    0  0.00000000000E+00  0.00000000000E+00  0.45593999997E+02  0.45594000000E+02  0.51100000000E-03 0. -1.
         11   -1    0    0    0    0 -0.00000000000E+00 -0.00000000000E+00 -0.45593999997E+02  0.45594000000E+02  0.51100000000E-03 0.  1.
    9900012    2    1    2    0    0 -0.14780260856E+01 -0.42001018480E+02  0.10832965796E+02  0.47787271177E+02  0.20000000605E+02 0.  0.
        -12    1    1    2    0    0  0.14780260856E+01  0.42001018480E+02 -0.10832965796E+02  0.43400728823E+02  0.00000000000E+00 0.  1.
         11    1    3    3    0    0 -0.16733217376E+01 -0.31792792848E+02  0.13418040849E+02  0.34548885701E+02  0.51100000000E-03 0. -1.
        -11    1    3    3    0    0 -0.36165661492E+01 -0.67695542017E+01 -0.48057644974E+00  0.76900824955E+01  0.51100000000E-03 0.  1.
        -12    1    3    3    0    0  0.38118618012E+01 -0.34386714303E+01 -0.21044986035E+01  0.55483029810E+01  0.00000000000E+00 0.  1.
</event>
<event>
 7    1  0.4083500E-009  0.4778727E+02  0.7816164E-02  0.1312668E+00
        -11   -1    0    0    0    0  0.00000000000E+00  0.00000000000E+00  0.45593999997E+02  0.45594000000E+02  0.51100000000E-03 0.  1.
         11   -1    0    0    0    0 -0.00000000000E+00 -0.00000000000E+00 -0.45593999997E+02  0.45594000000E+02  0.51100000000E-03 0. -1.
    9900012    2    1    2    0    0  0.15953675032E+02  0.93374160246E+01 -0.39267241624E+02  0.47787270170E+02  0.19999996012E+02 0.  0.
        -12    1    1    2    0    0 -0.15953675032E+02 -0.93374160246E+01  0.39267241624E+02  0.43400729830E+02  0.00000000000E+00 0.  1.
         11    1    3    3    0    0  0.65862536614E+01  0.41710713304E+01 -0.31399869992E+01  0.84045280624E+01  0.51100000000E-03 0. -1.
        -11    1    3    3    0    0 -0.14946713569E+01 -0.19464980707E+01 -0.35714474646E+01  0.43333744885E+01  0.51100000000E-03 0.  1.
         12    1    3    3    0    0  0.10862092727E+02  0.71128427649E+01 -0.32555807160E+02  0.35049367619E+02  0.00000000000E+00 0. -1.
</event>
<event>
 7    1  0.4083500E-009  0.4778727E+02  0.7816164E-02  0.1312668E+00
        -11   -1    0    0    0    0  0.00000000000E+00  0.00000000000E+00  0.45593999997E+02  0.45594000000E+02  0.51100000000E-03 0. -1.
         11   -1    0    0    0    0 -0.00000000000E+00 -0.00000000000E+00 -0.45593999997E+02  0.45594000000E+02  0.51100000000E-03 0.  1.
    9900012    2    1    2    0    0  0.36760537523E+02 -0.17228478301E+02  0.15344899261E+02  0.47787268245E+02  0.19999987237E+02 0.  0.
        -12    1    1    2    0    0 -0.36760537523E+02  0.17228478301E+02 -0.15344899261E+02  0.43400731755E+02  0.00000000000E+00 0.  1.
         11    1    3    3    0    0  0.25087993241E-01 -0.17079032474E+01  0.53596451305E+01  0.56252430255E+01  0.51100000000E-03 0. -1.
        -11    1    3    3    0    0  0.12196073914E+02 -0.34914806469E+01  0.74591032901E+01  0.14716415262E+02  0.51100000000E-03 0.  1.
        -12    1    3    3    0    0  0.24539375616E+02 -0.12029094407E+02  0.25261508400E+01  0.27445609957E+02  0.00000000000E+00 0.  1.
</event>
<event>
 7    1  0.4083500E-009  0.4778727E+02  0.7816164E-02  0.1312668E+00
        -11   -1    0    0    0    0  0.00000000000E+00  0.00000000000E+00  0.45593999997E+02  0.45594000000E+02  0.51100000000E-03 0. -1.
         11   -1    0    0    0    0 -0.00000000000E+00 -0.00000000000E+00 -0.45593999997E+02  0.45594000000E+02  0.51100000000E-03 0.  1.
    9900012    2    1    2    0    0 -0.14442917810E+02 -0.26037826319E+02  0.31576212352E+02  0.47787268892E+02  0.19999990184E+02 0.  0.
        -12    1    1    2    0    0  0.14442917810E+02  0.26037826319E+02 -0.31576212352E+02  0.43400731108E+02  0.00000000000E+00 0.  1.
         11    1    3    3    0    0  0.56964703599E+00  0.42518581191E+00  0.20670055402E+01  0.21858162971E+01  0.51100000000E-03 0. -1.
        -11    1    3    3    0    0 -0.65767160299E+01 -0.10522246272E+01  0.14476775247E+01  0.68158741831E+01  0.51100000000E-03 0.  1.
         12    1    3    3    0    0 -0.84358488163E+01 -0.25410787503E+02  0.28061529287E+02  0.38785578411E+02  0.00000000000E+00 0. -1.
</event>
<event>
 7    1  0.4083500E-009  0.4778727E+02  0.7816164E-02  0.1312668E+00
        -11   -1    0    0    0    0  0.00000000000E+00  0.00000000000E+00  0.45593999997E+02  0.45594000000E+02  0.51100000000E-03 0.  1.
         11   -1    0    0    0    0 -0.00000000000E+00 -0.00000000000E+00 -0.45593999997E+02  0.45594000000E+02  0.51100000000E-03 0. -1.
    9900012    2    1    2    0    0 -0.30008248932E+02  0.43907269434E+01 -0.31045932089E+02  0.47787269749E+02  0.19999994093E+02 0.  0.
        -12    1    1    2    0    0  0.30008248932E+02 -0.43907269434E+01  0.31045932089E+02  0.43400730251E+02  0.00000000000E+00 0.  1.
         11    1    3    3    0    0 -0.11894350898E+02  0.98446801426E-01 -0.14051283685E+02  0.18409884533E+02  0.51100000000E-03 0. -1.
        -11    1    3    3    0    0  0.41389573738E-01 -0.38517321546E+01 -0.43074964022E+01  0.57785879939E+01  0.51100000000E-03 0.  1.
        -12    1    3    3    0    0 -0.18155287607E+02  0.81440122966E+01 -0.12687152002E+02  0.23598797222E+02  0.00000000000E+00 0.  1.
</event>
<event>
 7    1  0.4083500E-009  0.4778728E+02  0.7816164E-02  0.1312668E+00
        -11   -1    0    0    0    0  0.00000000000E+00  0.00000000000E+00  0.45593999997E+02  0.45594000000E+02  0.51100000000E-03 0.  1.
         11   -1    0    0    0    0 -0.00000000000E+00 -0.00000000000E+00 -0.45593999997E+02  0.45594000000E+02  0.51100000000E-03 0. -1.
    9900012    2    1    2    0    0  0.27000162628E+02  0.28854111235E+02 -0.17945851690E+02  0.47787284453E+02  0.20000061135E+02 0.  0.
        -12    1    1    2    0    0 -0.27000162628E+02 -0.28854111235E+02  0.17945851690E+02  0.43400715547E+02  0.00000000000E+00 0.  1.
         11    1    3    3    0    0  0.55147306873E+01  0.36679164764E+01 -0.59826219728E+01  0.89251124230E+01  0.51100000000E-03 0. -1.
        -11    1    3    3    0    0  0.62627974119E+01 -0.10224847703E+01 -0.19451580252E+00  0.63486961800E+01  0.51100000000E-03 0.  1.
         12    1    3    3    0    0  0.15222634529E+02  0.26208679529E+02 -0.11768713914E+02  0.32513475850E+02  0.00000000000E+00 0. -1.
</event>
<event>
 7    1  0.4083500E-009  0.4778727E+02  0.7816164E-02  0.1312668E+00
        -11   -1    0    0    0    0  0.00000000000E+00  0.00000000000E+00  0.45593999997E+02  0.45594000000E+02  0.51100000000E-03 0.  1.
         11   -1    0    0    0    0 -0.00000000000E+00 -0.00000000000E+00 -0.45593999997E+02  0.45594000000E+02  0.51100000000E-03 0. -1.
    9900012    2    1    2    0    0 -0.94652500446E+00  0.24291839525E+01 -0.43322353850E+02  0.47787272041E+02  0.20000004544E+02 0.  0.
        -12    1    1    2    0    0  0.94652500446E+00 -0.24291839525E+01  0.43322353850E+02  0.43400727959E+02  0.00000000000E+00 0.  1.
         11    1    3    3    0    0  0.15488132148E+01 -0.14951161213E+01  0.43514544019E+00  0.21962573633E+01  0.51100000000E-03 0. -1.
        -11    1    3    3    0    0  0.37119583909E+01  0.13702758552E+01 -0.56551048307E+01  0.69019201620E+01  0.51100000000E-03 0.  1.
         12    1    3    3    0    0 -0.62072966102E+01  0.25540242185E+01 -0.38102394459E+02  0.38689094516E+02  0.00000000000E+00 0. -1.
</event>
<event>
 7    1  0.4083500E-009  0.4778728E+02  0.7816164E-02  0.1312668E+00
        -11   -1    0    0    0    0  0.00000000000E+00  0.00000000000E+00  0.45593999997E+02  0.45594000000E+02  0.51100000000E-03 0.  1.
         11   -1    0    0    0    0 -0.00000000000E+00 -0.00000000000E+00 -0.45593999997E+02  0.45594000000E+02  0.51100000000E-03 0. -1.
    9900012    2    1    2    0    0 -0.41424294146E+01  0.41139065925E+01 -0.43006260809E+02  0.47787280908E+02  0.20000044973E+02 0.  0.
        -12    1    1    2    0    0  0.41424294146E+01 -0.41139065925E+01  0.43006260809E+02  0.43400719092E+02  0.00000000000E+00 0.  1.
         11    1    3    3    0    0 -0.30727823610E+01  0.37083826841E+01 -0.35817974020E+02  0.36140301005E+02  0.51100000000E-03 0. -1.
        -11    1    3    3    0    0  0.11177197194E+01  0.12500739276E+01 -0.86980453370E+01  0.88582151216E+01  0.51100000000E-03 0.  1.
        -12    1    3    3    0    0 -0.21873667731E+01 -0.84455001919E+00  0.15097585480E+01  0.27887647818E+01  0.00000000000E+00 0.  1.
</event>
<event>
 7    1  0.4083500E-009  0.4778727E+02  0.7816164E-02  0.1312668E+00
        -11   -1    0    0    0    0  0.00000000000E+00  0.00000000000E+00  0.45593999997E+02  0.45594000000E+02  0.51100000000E-03 0. -1.
         11   -1    0    0    0    0 -0.00000000000E+00 -0.00000000000E+00 -0.45593999997E+02  0.45594000000E+02  0.51100000000E-03 0.  1.
    9900012    2    1    2    0    0 -0.42136426670E+02  0.50594630867E+01  0.90855148240E+01  0.47787271908E+02  0.20000003939E+02 0.  0.
        -12    1    1    2    0    0  0.42136426670E+02 -0.50594630867E+01 -0.90855148240E+01  0.43400728092E+02  0.00000000000E+00 0.  1.
         11    1    3    3    0    0 -0.91115478454E+01  0.57890617373E+01 -0.67378750483E+00  0.10816077376E+02  0.51100000000E-03 0. -1.
        -11    1    3    3    0    0 -0.97307541714E+01 -0.23522447599E+01 -0.28830308058E+01  0.10417893215E+02  0.51100000000E-03 0.  1.
        -12    1    3    3    0    0 -0.23294124653E+02  0.16226461093E+01  0.12642333135E+02  0.26553301317E+02  0.00000000000E+00 0.  1.
</event>
<event>
 7    1  0.4083500E-009  0.4778727E+02  0.7816164E-02  0.1312668E+00
        -11   -1    0    0    0    0  0.00000000000E+00  0.00000000000E+00  0.45593999997E+02  0.45594000000E+02  0.51100000000E-03 0.  1.
         11   -1    0    0    0    0 -0.00000000000E+00 -0.00000000000E+00 -0.45593999997E+02  0.45594000000E+02  0.51100000000E-03 0. -1.
    9900012    2    1    2    0    0 -0.17200004101E+01 -0.24399489458E+02 -0.35851495397E+02  0.47787271787E+02  0.20000003387E+02 0.  0.
        -12    1    1    2    0    0  0.17200004101E+01  0.24399489458E+02  0.35851495397E+02  0.43400728213E+02  0.00000000000E+00 0.  1.
         11    1    3    3    0    0  0.17149024342E+01 -0.12348167806E+02 -0.63273260815E+01  0.13980457580E+02  0.51100000000E-03 0. -1.
        -11    1    3    3    0    0 -0.16572217750E+01 -0.22619750176E+01 -0.16652628059E+00  0.28090294151E+01  0.51100000000E-03 0.  1.
         12    1    3    3    0    0 -0.17776810692E+01 -0.97893466341E+01 -0.29357643035E+02  0.30997784793E+02  0.00000000000E+00 0. -1.
</event>
<event>
 7    1  0.4083500E-009  0.4778727E+02  0.7816164E-02  0.1312668E+00
        -11   -1    0    0    0    0  0.00000000000E+00  0.00000000000E+00  0.45593999997E+02  0.45594000000E+02  0.51100000000E-03 0.  1.
         11   -1    0    0    0    0 -0.00000000000E+00 -0.00000000000E+00 -0.45593999997E+02  0.45594000000E+02  0.51100000000E-03 0. -1.
    9900012    2    1    2    0    0 -0.39457317843E+02  0.15418163571E+02 -0.94352279930E+01  0.47787271589E+02  0.20000002484E+02 0.  0.
        -12    1    1    2    0    0  0.39457317843E+02 -0.15418163571E+02  0.94352279930E+01  0.43400728411E+02  0.00000000000E+00 0.  1.
         11    1    3    3    0    0 -0.23774782909E+01  0.29304054462E+01 -0.45968808882E+01  0.59473517858E+01  0.51100000000E-03 0. -1.
        -11    1    3    3    0    0 -0.17749418636E+02  0.13330883702E+02 -0.20760739644E+01  0.22294941255E+02  0.51100000000E-03 0.  1.
         12    1    3    3    0    0 -0.19330420917E+02 -0.84312557764E+00 -0.27622731404E+01  0.19544978548E+02  0.00000000000E+00 0. -1.
</event>
<event>
 7    1  0.4083500E-009  0.4778727E+02  0.7816164E-02  0.1312668E+00
        -11   -1    0    0    0    0  0.00000000000E+00  0.00000000000E+00  0.45593999997E+02  0.45594000000E+02  0.51100000000E-03 0.  1.
         11   -1    0    0    0    0 -0.00000000000E+00 -0.00000000000E+00 -0.45593999997E+02  0.45594000000E+02  0.51100000000E-03 0. -1.
    9900012    2    1    2    0    0  0.21889910719E+01 -0.32567867774E+02 -0.28603588409E+02  0.47787274624E+02  0.20000016323E+02 0.  0.
        -12    1    1    2    0    0 -0.21889910719E+01  0.32567867774E+02  0.28603588409E+02  0.43400725376E+02  0.00000000000E+00 0.  1.
         11    1    3    3    0    0 -0.68625273099E+01 -0.16606184421E+02 -0.15418900515E+02  0.23677038147E+02  0.51100000000E-03 0. -1.
        -11    1    3    3    0    0  0.12401588620E+01 -0.43500837327E+01  0.48252108519E+00  0.45490712616E+01  0.51100000000E-03 0.  1.
        -12    1    3    3    0    0  0.78113595198E+01 -0.11611599621E+02 -0.13667208980E+02  0.19561165216E+02  0.00000000000E+00 0.  1.
</event>
<event>
 7    1  0.4083500E-009  0.4778727E+02  0.7816164E-02  0.1312668E+00
        -11   -1    0    0    0    0  0.00000000000E+00  0.00000000000E+00  0.45593999997E+02  0.45594000000E+02  0.51100000000E-03 0. -1.
         11   -1    0    0    0    0 -0.00000000000E+00 -0.00000000000E+00 -0.45593999997E+02  0.45594000000E+02  0.51100000000E-03 0.  1.
    9900012    2    1    2    0    0 -0.79745225385E+01 -0.11188890604E+02  0.41168424175E+02  0.47787269226E+02  0.19999991708E+02 0.  0.
        -12    1    1    2    0    0  0.79745225385E+01  0.11188890604E+02 -0.41168424175E+02  0.43400730774E+02  0.00000000000E+00 0.  1.
         11    1    3    3    0    0 -0.66074677644E+00 -0.21436962046E+01 -0.56098476471E+00  0.23122983993E+01  0.51100000000E-03 0.  1.
        -11    1    3    3    0    0 -0.87927398085E+00 -0.91205796185E+01  0.12229183540E+02  0.15281067555E+02  0.51100000000E-03 0. -1.
         12    1    3    3    0    0 -0.64345017812E+01  0.75385219583E-01  0.29500225400E+02  0.30193903272E+02  0.00000000000E+00 0. -1.
</event>
<event>
 7    1  0.4083500E-009  0.4778727E+02  0.7816164E-02  0.1312668E+00
        -11   -1    0    0    0    0  0.00000000000E+00  0.00000000000E+00  0.45593999997E+02  0.45594000000E+02  0.51100000000E-03 0. -1.
         11   -1    0    0    0    0 -0.00000000000E+00 -0.00000000000E+00 -0.45593999997E+02  0.45594000000E+02  0.51100000000E-03 0.  1.
    9900012    2    1    2    0    0  0.32347566427E+02  0.20724400380E+02  0.20193000364E+02  0.47787273180E+02  0.20000009735E+02 0.  0.
        -12    1    1    2    0    0 -0.32347566427E+02 -0.20724400380E+02 -0.20193000364E+02  0.43400726820E+02  0.00000000000E+00 0.  1.
         11    1    3    3    0    0 -0.47268615054E+00  0.16785170276E+01 -0.49182130042E+00  0.18118333427E+01  0.51100000000E-03 0. -1.
        -11    1    3    3    0    0  0.10904438153E+01  0.70313799846E+01  0.31092174455E+01  0.77650888975E+01  0.51100000000E-03 0.  1.
         12    1    3    3    0    0  0.31729808762E+02  0.12014503368E+02  0.17575604219E+02  0.38210350939E+02  0.00000000000E+00 0. -1.
</event>
<event>
 7    1  0.4083500E-009  0.4778727E+02  0.7816164E-02  0.1312668E+00
        -11   -1    0    0    0    0  0.00000000000E+00  0.00000000000E+00  0.45593999997E+02  0.45594000000E+02  0.51100000000E-03 0. -1.
         11   -1    0    0    0    0 -0.00000000000E+00 -0.00000000000E+00 -0.45593999997E+02  0.45594000000E+02  0.51100000000E-03 0.  1.
    9900012    2    1    2    0    0  0.25188649582E+02 -0.55046565038E+01  0.34912087503E+02  0.47787272301E+02  0.20000005730E+02 0.  0.
        -12    1    1    2    0    0 -0.25188649582E+02  0.55046565038E+01 -0.34912087503E+02  0.43400727699E+02  0.00000000000E+00 0.  1.
         11    1    3    3    0    0  0.88374613390E+01 -0.18991706251E+01  0.15518551520E+02  0.17959204145E+02  0.51100000000E-03 0. -1.
        -11    1    3    3    0    0  0.96856138804E+00  0.27617582220E+01  0.10606974516E+02  0.11003332599E+02  0.51100000000E-03 0.  1.
        -12    1    3    3    0    0  0.15382626855E+02 -0.63672441007E+01  0.87865614669E+01  0.18824735557E+02  0.00000000000E+00 0.  1.
</event>
<event>
 7    1  0.4083500E-009  0.4778726E+02  0.7816164E-02  0.1312668E+00
        -11   -1    0    0    0    0  0.00000000000E+00  0.00000000000E+00  0.45593999997E+02  0.45594000000E+02  0.51100000000E-03 0. -1.
         11   -1    0    0    0    0 -0.00000000000E+00 -0.00000000000E+00 -0.45593999997E+02  0.45594000000E+02  0.51100000000E-03 0.  1.
    9900012    2    1    2    0    0  0.17711931269E+01 -0.26190032956E+02  0.34562542874E+02  0.47787258978E+02  0.19999944984E+02 0.  0.
        -12    1    1    2    0    0 -0.17711931269E+01  0.26190032956E+02 -0.34562542874E+02  0.43400741022E+02  0.00000000000E+00 0.  1.
         11    1    3    3    0    0  0.22531034325E+00 -0.21803215119E+02  0.16555931672E+02  0.27377542404E+02  0.51100000000E-03 0.  1.
        -11    1    3    3    0    0 -0.61409502324E+00 -0.64495034225E+01  0.13860398903E+02  0.15299799512E+02  0.51100000000E-03 0. -1.
        -12    1    3    3    0    0  0.21599778069E+01  0.20626855857E+01  0.41462122989E+01  0.51099170619E+01  0.00000000000E+00 0.  1.
</event>
<event>
 7    1  0.4083500E-009  0.4778729E+02  0.7816164E-02  0.1312668E+00
        -11   -1    0    0    0    0  0.00000000000E+00  0.00000000000E+00  0.45593999997E+02  0.45594000000E+02  0.51100000000E-03 0. -1.
         11   -1    0    0    0    0 -0.00000000000E+00 -0.00000000000E+00 -0.45593999997E+02  0.45594000000E+02  0.51100000000E-03 0.  1.
    9900012    2    1    2    0    0  0.28515633718E+02 -0.25324854904E+02  0.20715509047E+02  0.47787286212E+02  0.20000069154E+02 0.  0.
        -12    1    1    2    0    0 -0.28515633718E+02  0.25324854904E+02 -0.20715509047E+02  0.43400713788E+02  0.00000000000E+00 0.  1.
         11    1    3    3    0    0  0.16386432447E+02 -0.16450197114E+02  0.81054929420E+01  0.24593152899E+02  0.51100000000E-03 0. -1.
        -11    1    3    3    0    0  0.87116896973E+01 -0.10018628986E+02  0.14034200885E+02  0.19319038767E+02  0.51100000000E-03 0.  1.
         12    1    3    3    0    0  0.34175115735E+01  0.11439711958E+01 -0.14241847799E+01  0.38750945459E+01  0.00000000000E+00 0. -1.
</event>
<event>
 7    1  0.4083500E-009  0.4778727E+02  0.7816164E-02  0.1312668E+00
        -11   -1    0    0    0    0  0.00000000000E+00  0.00000000000E+00  0.45593999997E+02  0.45594000000E+02  0.51100000000E-03 0.  1.
         11   -1    0    0    0    0 -0.00000000000E+00 -0.00000000000E+00 -0.45593999997E+02  0.45594000000E+02  0.51100000000E-03 0. -1.
    9900012    2    1    2    0    0 -0.14220157145E+02 -0.48615342272E+01 -0.40715795980E+02  0.47787269285E+02  0.19999991978E+02 0.  0.
        -12    1    1    2    0    0  0.14220157145E+02  0.48615342272E+01  0.40715795980E+02  0.43400730715E+02  0.00000000000E+00 0.  1.
         11    1    3    3    0    0 -0.15932173774E+02 -0.47689237924E+01 -0.31942734409E+02  0.36012707161E+02  0.51100000000E-03 0. -1.
        -11    1    3    3    0    0 -0.14141414549E+01 -0.26580278450E+01 -0.13041776900E+01  0.32811259939E+01  0.51100000000E-03 0.  1.
        -12    1    3    3    0    0  0.31261580843E+01  0.25654174102E+01 -0.74688838818E+01  0.84934361301E+01  0.00000000000E+00 0.  1.
</event>
<event>
 7    1  0.4083500E-009  0.4778727E+02  0.7816164E-02  0.1312668E+00
        -11   -1    0    0    0    0  0.00000000000E+00  0.00000000000E+00  0.45593999997E+02  0.45594000000E+02  0.51100000000E-03 0.  1.
         11   -1    0    0    0    0 -0.00000000000E+00 -0.00000000000E+00 -0.45593999997E+02  0.45594000000E+02  0.51100000000E-03 0. -1.
    9900012    2    1    2    0    0 -0.26859596129E+01 -0.38872649741E+02 -0.19113501272E+02  0.47787271805E+02  0.20000003468E+02 0.  0.
        -12    1    1    2    0    0  0.26859596129E+01  0.38872649741E+02  0.19113501272E+02  0.43400728195E+02  0.00000000000E+00 0.  1.
         11    1    3    3    0    0 -0.32203648173E+01 -0.83434517234E+01 -0.54531621901E+01  0.10474775146E+02  0.51100000000E-03 0. -1.
        -11    1    3    3    0    0  0.10173717591E+00 -0.46014532498E+01  0.38685050740E+01  0.60124083554E+01  0.51100000000E-03 0.  1.
         12    1    3    3    0    0  0.43266802854E+00 -0.25927744768E+02 -0.17528844156E+02  0.31300088304E+02  0.00000000000E+00 0. -1.
</event>
<event>
 7    1  0.4083500E-009  0.4778727E+02  0.7816164E-02  0.1312668E+00
        -11   -1    0    0    0    0  0.00000000000E+00  0.00000000000E+00  0.45593999997E+02  0.45594000000E+02  0.51100000000E-03 0. -1.
         11   -1    0    0    0    0 -0.00000000000E+00 -0.00000000000E+00 -0.45593999997E+02  0.45594000000E+02  0.51100000000E-03 0.  1.
    9900012    2    1    2    0    0  0.34513498081E+02  0.21172838412E+02  0.15625382144E+02  0.47787271856E+02  0.20000003702E+02 0.  0.
        -12    1    1    2    0    0 -0.34513498081E+02 -0.21172838412E+02 -0.15625382144E+02  0.43400728144E+02  0.00000000000E+00 0.  1.
         11    1    3    3    0    0  0.27893844206E+01  0.20013731752E+01 -0.27865570120E+01  0.44216580910E+01  0.51100000000E-03 0.  1.
        -11    1    3    3    0    0  0.16913303008E+02  0.51078553324E+01  0.33358878310E+01  0.17979937503E+02  0.51100000000E-03 0. -1.
        -12    1    3    3    0    0  0.14810810653E+02  0.14063609904E+02  0.15076051325E+02  0.25385676263E+02  0.00000000000E+00 0.  1.
</event>
<event>
 7    1  0.4083500E-009  0.4778728E+02  0.7816164E-02  0.1312668E+00
        -11   -1    0    0    0    0  0.00000000000E+00  0.00000000000E+00  0.45593999997E+02  0.45594000000E+02  0.51100000000E-03 0.  1.
         11   -1    0    0    0    0 -0.00000000000E+00 -0.00000000000E+00 -0.45593999997E+02  0.45594000000E+02  0.51100000000E-03 0. -1.
    9900012    2    1    2    0    0  0.22383791386E+02  0.26394021069E+02  0.26190540205E+02  0.47787275799E+02  0.20000021676E+02 0.  0.
        -12    1    1    2    0    0 -0.22383791386E+02 -0.26394021069E+02 -0.26190540205E+02  0.43400724201E+02  0.00000000000E+00 0.  1.
         11    1    3    3    0    0 -0.59257887240E+00  0.36341234673E+01 -0.14247182746E+01  0.39481420338E+01  0.51100000000E-03 0. -1.
        -11    1    3    3    0    0  0.20550115399E+01  0.61725087627E+01  0.97246787998E+01  0.11700098926E+02  0.51100000000E-03 0.  1.
         12    1    3    3    0    0  0.20921358718E+02  0.16587388838E+02  0.17890579680E+02  0.32139034839E+02  0.00000000000E+00 0. -1.
</event>
<event>
 7    1  0.4083500E-009  0.4778726E+02  0.7816164E-02  0.1312668E+00
        -11   -1    0    0    0    0  0.00000000000E+00  0.00000000000E+00  0.45593999997E+02  0.45594000000E+02  0.51100000000E-03 0.  1.
         11   -1    0    0    0    0 -0.00000000000E+00 -0.00000000000E+00 -0.45593999997E+02  0.45594000000E+02  0.51100000000E-03 0. -1.
    9900012    2    1    2    0    0  0.13553982558E+02 -0.32732202336E+02 -0.25070229541E+02  0.47787263576E+02  0.19999965948E+02 0.  0.
        -12    1    1    2    0    0 -0.13553982558E+02  0.32732202336E+02  0.25070229541E+02  0.43400736424E+02  0.00000000000E+00 0.  1.
         11    1    3    3    0    0  0.67479322490E+01 -0.16770236043E+02 -0.57213564059E+01  0.18960731156E+02  0.51100000000E-03 0. -1.
        -11    1    3    3    0    0  0.34549680563E+01 -0.45922159162E+01  0.43534101336E+00  0.57632259499E+01  0.51100000000E-03 0.  1.
         12    1    3    3    0    0  0.33510822531E+01 -0.11369750376E+02 -0.19784214148E+02  0.23063306470E+02  0.00000000000E+00 0. -1.
</event>
<event>
 7    1  0.4083500E-009  0.4778727E+02  0.7816164E-02  0.1312668E+00
        -11   -1    0    0    0    0  0.00000000000E+00  0.00000000000E+00  0.45593999997E+02  0.45594000000E+02  0.51100000000E-03 0.  1.
         11   -1    0    0    0    0 -0.00000000000E+00 -0.00000000000E+00 -0.45593999997E+02  0.45594000000E+02  0.51100000000E-03 0. -1.
    9900012    2    1    2    0    0  0.20020392211E+02  0.12010309770E+02 -0.36586333211E+02  0.47787269328E+02  0.19999992172E+02 0.  0.
        -12    1    1    2    0    0 -0.20020392211E+02 -0.12010309770E+02  0.36586333211E+02  0.43400730672E+02  0.00000000000E+00 0.  1.
         11    1    3    3    0    0  0.31163767762E+00 -0.32985886848E+01 -0.64436613190E+01  0.72455901629E+01  0.51100000000E-03 0. -1.
        -11    1    3    3    0    0  0.35195538973E+01  0.25239716277E+01 -0.40556041283E+00  0.43499622898E+01  0.51100000000E-03 0.  1.
        -12    1    3    3    0    0  0.16189200636E+02  0.12784926827E+02 -0.29737111479E+02  0.36191716875E+02  0.00000000000E+00 0.  1.
</event>
<event>
 7    1  0.4083500E-009  0.4778727E+02  0.7816164E-02  0.1312668E+00
        -11   -1    0    0    0    0  0.00000000000E+00  0.00000000000E+00  0.45593999997E+02  0.45594000000E+02  0.51100000000E-03 0. -1.
         11   -1    0    0    0    0 -0.00000000000E+00 -0.00000000000E+00 -0.45593999997E+02  0.45594000000E+02  0.51100000000E-03 0.  1.
    9900012    2    1    2    0    0  0.19846002668E+02 -0.38581502846E+02 -0.11077996610E+01  0.47787269547E+02  0.19999993174E+02 0.  0.
        -12    1    1    2    0    0 -0.19846002668E+02  0.38581502846E+02  0.11077996610E+01  0.43400730453E+02  0.00000000000E+00 0.  1.
         11    1    3    3    0    0  0.12377652670E+02 -0.24815699150E+02  0.56384119736E+00  0.27737035297E+02  0.51100000000E-03 0. -1.
        -11    1    3    3    0    0  0.10528732921E+02 -0.11120130468E+02 -0.33408594907E+01  0.15673954859E+02  0.51100000000E-03 0.  1.
         12    1    3    3    0    0 -0.30603829229E+01 -0.26456732288E+01  0.16692186323E+01  0.43762793913E+01  0.00000000000E+00 0. -1.
</event>
<event>
 7    1  0.4083500E-009  0.4778727E+02  0.7816164E-02  0.1312668E+00
        -11   -1    0    0    0    0  0.00000000000E+00  0.00000000000E+00  0.45593999997E+02  0.45594000000E+02  0.51100000000E-03 0. -1.
         11   -1    0    0    0    0 -0.00000000000E+00 -0.00000000000E+00 -0.45593999997E+02  0.45594000000E+02  0.51100000000E-03 0.  1.
    9900012    2    1    2    0    0 -0.19857487754E+02  0.37547316369E+02 -0.89164187805E+01  0.47787270625E+02  0.19999998087E+02 0.  0.
        -12    1    1    2    0    0  0.19857487754E+02 -0.37547316369E+02  0.89164187805E+01  0.43400729375E+02  0.00000000000E+00 0.  1.
         11    1    3    3    0    0 -0.57035044072E+01  0.20076370468E+02 -0.91625374692E+01  0.22793479480E+02  0.51100000000E-03 0. -1.
        -11    1    3    3    0    0 -0.37816634859E+01  0.10363938976E+01 -0.34366012672E+01  0.52139543115E+01  0.51100000000E-03 0.  1.
         12    1    3    3    0    0 -0.10372319861E+02  0.16434552004E+02  0.36827199560E+01  0.19779836833E+02  0.00000000000E+00 0. -1.
</event>
<event>
 7    1  0.4083500E-009  0.4778727E+02  0.7816164E-02  0.1312668E+00
        -11   -1    0    0    0    0  0.00000000000E+00  0.00000000000E+00  0.45593999997E+02  0.45594000000E+02  0.51100000000E-03 0.  1.
         11   -1    0    0    0    0 -0.00000000000E+00 -0.00000000000E+00 -0.45593999997E+02  0.45594000000E+02  0.51100000000E-03 0. -1.
    9900012    2    1    2    0    0  0.25712699959E+02  0.13410953614E+02 -0.32289733475E+02  0.47787268395E+02  0.19999987919E+02 0.  0.
        -12    1    1    2    0    0 -0.25712699959E+02 -0.13410953614E+02  0.32289733475E+02  0.43400731605E+02  0.00000000000E+00 0.  1.
         11    1    3    3    0    0  0.10371523577E+02  0.13738612833E+02 -0.17307620825E+02  0.24410483869E+02  0.51100000000E-03 0. -1.
        -11    1    3    3    0    0  0.73437331190E+01  0.35741382235E+01 -0.10810839684E+02  0.13549137799E+02  0.51100000000E-03 0.  1.
        -12    1    3    3    0    0  0.79974432630E+01 -0.39017974417E+01 -0.41712729657E+01  0.98276467262E+01  0.00000000000E+00 0.  1.
</event>
<event>
 7    1  0.4083500E-009  0.4778727E+02  0.7816164E-02  0.1312668E+00
        -11   -1    0    0    0    0  0.00000000000E+00  0.00000000000E+00  0.45593999997E+02  0.45594000000E+02  0.51100000000E-03 0.  1.
         11   -1    0    0    0    0 -0.00000000000E+00 -0.00000000000E+00 -0.45593999997E+02  0.45594000000E+02  0.51100000000E-03 0. -1.
    9900012    2    1    2    0    0  0.67604730852E+01  0.23676104558E+02 -0.35740188686E+02  0.47787274076E+02  0.20000013824E+02 0.  0.
        -12    1    1    2    0    0 -0.67604730852E+01 -0.23676104558E+02  0.35740188686E+02  0.43400725924E+02  0.00000000000E+00 0.  1.
         11    1    3    3    0    0  0.67285618608E+01  0.14817250191E+02 -0.28736619769E+02  0.33024502479E+02  0.51100000000E-03 0. -1.
        -11    1    3    3    0    0  0.32048772878E+01 -0.31051693490E+00 -0.24419555939E+01  0.40411392676E+01  0.51100000000E-03 0.  1.
        -12    1    3    3    0    0 -0.31729660633E+01  0.91693713021E+01 -0.45616133230E+01  0.10721632330E+02  0.00000000000E+00 0.  1.
</event>
<event>
 7    1  0.4083500E-009  0.4778727E+02  0.7816164E-02  0.1312668E+00
        -11   -1    0    0    0    0  0.00000000000E+00  0.00000000000E+00  0.45593999997E+02  0.45594000000E+02  0.51100000000E-03 0.  1.
         11   -1    0    0    0    0 -0.00000000000E+00 -0.00000000000E+00 -0.45593999997E+02  0.45594000000E+02  0.51100000000E-03 0. -1.
    9900012    2    1    2    0    0  0.26836301441E+02 -0.76542985342E+01 -0.33239252420E+02  0.47787271175E+02  0.20000000596E+02 0.  0.
        -12    1    1    2    0    0 -0.26836301441E+02  0.76542985342E+01  0.33239252420E+02  0.43400728825E+02  0.00000000000E+00 0.  1.
         11    1    3    3    0    0  0.12483266469E+01  0.33953974827E+01 -0.86389284703E+00  0.37193217924E+01  0.51100000000E-03 0. -1.
        -11    1    3    3    0    0  0.19151461145E+02 -0.27356091871E+01 -0.22004467279E+02  0.29299464195E+02  0.51100000000E-03 0.  1.
        -12    1    3    3    0    0  0.64365136490E+01 -0.83140868298E+01 -0.10370892294E+02  0.14768485188E+02  0.00000000000E+00 0.  1.
</event>
<event>
 7    1  0.4083500E-009  0.4778728E+02  0.7816164E-02  0.1312668E+00
        -11   -1    0    0    0    0  0.00000000000E+00  0.00000000000E+00  0.45593999997E+02  0.45594000000E+02  0.51100000000E-03 0.  1.
         11   -1    0    0    0    0 -0.00000000000E+00 -0.00000000000E+00 -0.45593999997E+02  0.45594000000E+02  0.51100000000E-03 0. -1.
    9900012    2    1    2    0    0 -0.17140415470E+02 -0.77088878147E+01 -0.39120352110E+02  0.47787277160E+02  0.20000027883E+02 0.  0.
        -12    1    1    2    0    0  0.17140415470E+02  0.77088878147E+01  0.39120352110E+02  0.43400722840E+02  0.00000000000E+00 0.  1.
         11    1    3    3    0    0 -0.14518592652E+02 -0.83415704218E+01 -0.24367409891E+02  0.29565892423E+02  0.51100000000E-03 0. -1.
        -11    1    3    3    0    0 -0.37406776234E+01 -0.17762346183E+01 -0.10617377673E+01  0.42749229056E+01  0.51100000000E-03 0.  1.
         12    1    3    3    0    0  0.11188548059E+01  0.24089172254E+01 -0.13691204452E+02  0.13946461832E+02  0.00000000000E+00 0. -1.
</event>
<event>
 7    1  0.4083500E-009  0.4778727E+02  0.7816164E-02  0.1312668E+00
        -11   -1    0    0    0    0  0.00000000000E+00  0.00000000000E+00  0.45593999997E+02  0.45594000000E+02  0.51100000000E-03 0.  1.
         11   -1    0    0    0    0 -0.00000000000E+00 -0.00000000000E+00 -0.45593999997E+02  0.45594000000E+02  0.51100000000E-03 0. -1.
    9900012    2    1    2    0    0  0.29873731786E+02  0.10822482559E+02 -0.29564460308E+02  0.47787270826E+02  0.19999999002E+02 0.  0.
        -12    1    1    2    0    0 -0.29873731786E+02 -0.10822482559E+02  0.29564460308E+02  0.43400729174E+02  0.00000000000E+00 0.  1.
         11    1    3    3    0    0  0.14007835558E+01  0.71859724288E+01 -0.21408931336E+01  0.76278318013E+01  0.51100000000E-03 0. -1.
        -11    1    3    3    0    0  0.24341820696E+01 -0.80499022925E+00 -0.87631589028E+00  0.27094614627E+01  0.51100000000E-03 0.  1.
         12    1    3    3    0    0  0.26038766161E+02  0.44415003597E+01 -0.26547251284E+02  0.37449977562E+02  0.00000000000E+00 0. -1.
</event>
<event>
 7    1  0.4083500E-009  0.4778727E+02  0.7816164E-02  0.1312668E+00
        -11   -1    0    0    0    0  0.00000000000E+00  0.00000000000E+00  0.45593999997E+02  0.45594000000E+02  0.51100000000E-03 0.  1.
         11   -1    0    0    0    0 -0.00000000000E+00 -0.00000000000E+00 -0.45593999997E+02  0.45594000000E+02  0.51100000000E-03 0. -1.
    9900012    2    1    2    0    0  0.27359399163E+02 -0.13107176481E+02 -0.31036889104E+02  0.47787270938E+02  0.19999999516E+02 0.  0.
        -12    1    1    2    0    0 -0.27359399163E+02  0.13107176481E+02  0.31036889104E+02  0.43400729062E+02  0.00000000000E+00 0.  1.
         11    1    3    3    0    0  0.30513392206E+01  0.19404390380E+01 -0.75236304976E+01  0.83475140506E+01  0.51100000000E-03 0. -1.
        -11    1    3    3    0    0  0.62175543522E+01 -0.31533919585E+01  0.64305705587E+00  0.70010988856E+01  0.51100000000E-03 0.  1.
         12    1    3    3    0    0  0.18090505590E+02 -0.11894223561E+02 -0.24156315662E+02  0.32438658002E+02  0.00000000000E+00 0. -1.
</event>
<event>
 7    1  0.4083500E-009  0.4778733E+02  0.7816164E-02  0.1312667E+00
        -11   -1    0    0    0    0  0.00000000000E+00  0.00000000000E+00  0.45593999997E+02  0.45594000000E+02  0.51100000000E-03 0.  1.
         11   -1    0    0    0    0 -0.00000000000E+00 -0.00000000000E+00 -0.45593999997E+02  0.45594000000E+02  0.51100000000E-03 0. -1.
    9900012    2    1    2    0    0 -0.39598290541E+02  0.14050725216E+02 -0.10870624052E+02  0.47787332261E+02  0.20000279109E+02 0.  0.
        -12    1    1    2    0    0  0.39598290541E+02 -0.14050725216E+02  0.10870624052E+02  0.43400667739E+02  0.00000000000E+00 0.  1.
         11    1    3    3    0    0 -0.15408772507E+02  0.41635620716E+01 -0.21908826705E+01  0.16111036169E+02  0.51100000000E-03 0. -1.
        -11    1    3    3    0    0 -0.13884712416E+02  0.89297116763E+01  0.22072454267E+01  0.16655237078E+02  0.51100000000E-03 0.  1.
        -12    1    3    3    0    0 -0.10304805618E+02  0.95745146862E+00 -0.10886986808E+02  0.15021059014E+02  0.00000000000E+00 0.  1.
</event>
<event>
 7    1  0.4083500E-009  0.4778727E+02  0.7816164E-02  0.1312668E+00
        -11   -1    0    0    0    0  0.00000000000E+00  0.00000000000E+00  0.45593999997E+02  0.45594000000E+02  0.51100000000E-03 0.  1.
         11   -1    0    0    0    0 -0.00000000000E+00 -0.00000000000E+00 -0.45593999997E+02  0.45594000000E+02  0.51100000000E-03 0. -1.
    9900012    2    1    2    0    0 -0.53032235864E+01 -0.10702829198E+02 -0.41724675095E+02  0.47787271377E+02  0.20000001514E+02 0.  0.
        -12    1    1    2    0    0  0.53032235864E+01  0.10702829198E+02  0.41724675095E+02  0.43400728623E+02  0.00000000000E+00 0.  1.
         11    1    3    3    0    0 -0.43113367991E+01 -0.13074145571E+02 -0.23920230587E+02  0.27598882931E+02  0.51100000000E-03 0. -1.
        -11    1    3    3    0    0 -0.31977634165E+01  0.19454527958E+01 -0.17529904485E+02  0.17925067056E+02  0.51100000000E-03 0.  1.
        -12    1    3    3    0    0  0.22058766292E+01  0.42586357774E+00 -0.27454002320E+00  0.22633213900E+01  0.00000000000E+00 0.  1.
</event>
<event>
 7    1  0.4083500E-009  0.4778727E+02  0.7816164E-02  0.1312668E+00
        -11   -1    0    0    0    0  0.00000000000E+00  0.00000000000E+00  0.45593999997E+02  0.45594000000E+02  0.51100000000E-03 0.  1.
         11   -1    0    0    0    0 -0.00000000000E+00 -0.00000000000E+00 -0.45593999997E+02  0.45594000000E+02  0.51100000000E-03 0. -1.
    9900012    2    1    2    0    0 -0.50015090349E+01 -0.61005790070E+01 -0.42677758104E+02  0.47787271969E+02  0.20000004217E+02 0.  0.
        -12    1    1    2    0    0  0.50015090349E+01  0.61005790070E+01  0.42677758104E+02  0.43400728031E+02  0.00000000000E+00 0.  1.
         11    1    3    3    0    0 -0.80304772873E+01 -0.85084459623E+01 -0.20883628641E+02  0.23937588927E+02  0.51100000000E-03 0. -1.
        -11    1    3    3    0    0  0.31022287101E-01  0.82306801861E+00  0.71247530594E+00  0.10890475969E+01  0.51100000000E-03 0.  1.
         12    1    3    3    0    0  0.29979459652E+01  0.15847989367E+01 -0.22506604769E+02  0.22760635446E+02  0.00000000000E+00 0. -1.
</event>
<event>
 7    1  0.4083500E-009  0.4778727E+02  0.7816164E-02  0.1312668E+00
        -11   -1    0    0    0    0  0.00000000000E+00  0.00000000000E+00  0.45593999997E+02  0.45594000000E+02  0.51100000000E-03 0. -1.
         11   -1    0    0    0    0 -0.00000000000E+00 -0.00000000000E+00 -0.45593999997E+02  0.45594000000E+02  0.51100000000E-03 0.  1.
    9900012    2    1    2    0    0 -0.73596028100E+01  0.25839987861E+02  0.34084517743E+02  0.47787273324E+02  0.20000010396E+02 0.  0.
        -12    1    1    2    0    0  0.73596028100E+01 -0.25839987861E+02 -0.34084517743E+02  0.43400726676E+02  0.00000000000E+00 0.  1.
         11    1    3    3    0    0 -0.10555740901E+02  0.10162605980E+02  0.83985292633E+01  0.16888976296E+02  0.51100000000E-03 0.  1.
        -11    1    3    3    0    0 -0.11297658962E+01  0.76129849831E+01  0.87907815868E+01  0.11683824395E+02  0.51100000000E-03 0. -1.
        -12    1    3    3    0    0  0.43259039868E+01  0.80643968985E+01  0.16895206893E+02  0.19214472634E+02  0.00000000000E+00 0.  1.
</event>
<event>
 7    1  0.4083500E-009  0.4778728E+02  0.7816164E-02  0.1312668E+00
        -11   -1    0    0    0    0  0.00000000000E+00  0.00000000000E+00  0.45593999997E+02  0.45594000000E+02  0.51100000000E-03 0. -1.
         11   -1    0    0    0    0 -0.00000000000E+00 -0.00000000000E+00 -0.45593999997E+02  0.45594000000E+02  0.51100000000E-03 0.  1.
    9900012    2    1    2    0    0 -0.80383261855E+01  0.32006708694E+02  0.28188273847E+02  0.47787275677E+02  0.20000021120E+02 0.  0.
        -12    1    1    2    0    0  0.80383261855E+01 -0.32006708694E+02 -0.28188273847E+02  0.43400724323E+02  0.00000000000E+00 0.  1.
         11    1    3    3    0    0 -0.66838218093E+01  0.16654647195E+02  0.18150932319E+02  0.25524636951E+02  0.51100000000E-03 0. -1.
        -11    1    3    3    0    0 -0.67797898858E+01  0.60056721247E+01  0.48791779388E+01  0.10287858192E+02  0.51100000000E-03 0.  1.
        -12    1    3    3    0    0  0.54252855096E+01  0.93463893751E+01  0.51581635889E+01  0.11974780533E+02  0.00000000000E+00 0.  1.
</event>
<event>
 7    1  0.4083500E-009  0.4778727E+02  0.7816164E-02  0.1312668E+00
        -11   -1    0    0    0    0  0.00000000000E+00  0.00000000000E+00  0.45593999997E+02  0.45594000000E+02  0.51100000000E-03 0. -1.
         11   -1    0    0    0    0 -0.00000000000E+00 -0.00000000000E+00 -0.45593999997E+02  0.45594000000E+02  0.51100000000E-03 0.  1.
    9900012    2    1    2    0    0  0.35467700372E+02 -0.67866720011E+01 -0.24075020575E+02  0.47787270718E+02  0.19999998510E+02 0.  0.
        -12    1    1    2    0    0 -0.35467700372E+02  0.67866720011E+01  0.24075020575E+02  0.43400729282E+02  0.00000000000E+00 0.  1.
         11    1    3    3    0    0  0.83500335247E+01 -0.24814956250E+01 -0.13966475390E+00  0.87120828110E+01  0.51100000000E-03 0. -1.
        -11    1    3    3    0    0  0.42710157272E+01 -0.66509284998E+01 -0.66732813260E+01  0.10344520732E+02  0.51100000000E-03 0.  1.
        -12    1    3    3    0    0  0.22846651120E+02  0.23457521238E+01 -0.17262074495E+02  0.28730667175E+02  0.00000000000E+00 0.  1.
</event>
<event>
 7    1  0.4083500E-009  0.4778730E+02  0.7816164E-02  0.1312668E+00
        -11   -1    0    0    0    0  0.00000000000E+00  0.00000000000E+00  0.45593999997E+02  0.45594000000E+02  0.51100000000E-03 0.  1.
         11   -1    0    0    0    0 -0.00000000000E+00 -0.00000000000E+00 -0.45593999997E+02  0.45594000000E+02  0.51100000000E-03 0. -1.
    9900012    2    1    2    0    0 -0.16639648766E+02  0.22529528618E+02 -0.33153624853E+02  0.47787304018E+02  0.20000150340E+02 0.  0.
        -12    1    1    2    0    0  0.16639648766E+02 -0.22529528618E+02  0.33153624853E+02  0.43400695982E+02  0.00000000000E+00 0.  1.
         11    1    3    3    0    0 -0.10860438803E+02  0.91251394533E+01 -0.16438670406E+02  0.21712834592E+02  0.51100000000E-03 0.  1.
        -11    1    3    3    0    0 -0.66676189459E+01  0.29525409520E+01 -0.13075643005E+02  0.14971542364E+02  0.51100000000E-03 0. -1.
         12    1    3    3    0    0  0.88840898280E+00  0.10451848213E+02 -0.36393114416E+01  0.11102927063E+02  0.00000000000E+00 0. -1.
</event>
<event>
 7    1  0.4083500E-009  0.4778728E+02  0.7816164E-02  0.1312668E+00
        -11   -1    0    0    0    0  0.00000000000E+00  0.00000000000E+00  0.45593999997E+02  0.45594000000E+02  0.51100000000E-03 0.  1.
         11   -1    0    0    0    0 -0.00000000000E+00 -0.00000000000E+00 -0.45593999997E+02  0.45594000000E+02  0.51100000000E-03 0. -1.
    9900012    2    1    2    0    0  0.91540074030E+01  0.26270501662E+02 -0.33311976559E+02  0.47787275451E+02  0.20000020091E+02 0.  0.
        -12    1    1    2    0    0 -0.91540074030E+01 -0.26270501662E+02  0.33311976559E+02  0.43400724549E+02  0.00000000000E+00 0.  1.
         11    1    3    3    0    0 -0.43221047885E+00  0.27282479578E+01 -0.39917854706E+00  0.27909651719E+01  0.51100000000E-03 0. -1.
        -11    1    3    3    0    0  0.15415831119E+01  0.16699687030E+02 -0.94114080696E+01  0.19230980929E+02  0.51100000000E-03 0.  1.
         12    1    3    3    0    0  0.80446347700E+01  0.68425666742E+01 -0.23501389942E+02  0.25765329350E+02  0.00000000000E+00 0. -1.
</event>
<event>
 7    1  0.4083500E-009  0.4778727E+02  0.7816164E-02  0.1312668E+00
        -11   -1    0    0    0    0  0.00000000000E+00  0.00000000000E+00  0.45593999997E+02  0.45594000000E+02  0.51100000000E-03 0.  1.
         11   -1    0    0    0    0 -0.00000000000E+00 -0.00000000000E+00 -0.45593999997E+02  0.45594000000E+02  0.51100000000E-03 0. -1.
    9900012    2    1    2    0    0  0.51818943214E+01 -0.17145032200E+02 -0.39532507217E+02  0.47787270919E+02  0.19999999430E+02 0.  0.
        -12    1    1    2    0    0 -0.51818943214E+01  0.17145032200E+02  0.39532507217E+02  0.43400729081E+02  0.00000000000E+00 0.  1.
         11    1    3    3    0    0 -0.45539336610E+01  0.16585406097E+01 -0.63183913338E+01  0.79631110787E+01  0.51100000000E-03 0. -1.
        -11    1    3    3    0    0  0.58234874081E-01 -0.15290282056E+01 -0.58546417286E+01  0.60512931333E+01  0.51100000000E-03 0.  1.
        -12    1    3    3    0    0  0.96775931083E+01 -0.17274544604E+02 -0.27359474154E+02  0.33772866707E+02  0.00000000000E+00 0.  1.
</event>
<event>
 7    1  0.4083500E-009  0.4778727E+02  0.7816164E-02  0.1312668E+00
        -11   -1    0    0    0    0  0.00000000000E+00  0.00000000000E+00  0.45593999997E+02  0.45594000000E+02  0.51100000000E-03 0.  1.
         11   -1    0    0    0    0 -0.00000000000E+00 -0.00000000000E+00 -0.45593999997E+02  0.45594000000E+02  0.51100000000E-03 0. -1.
    9900012    2    1    2    0    0  0.19991366454E+02 -0.31298908107E+02 -0.22457671759E+02  0.47787269566E+02  0.19999993258E+02 0.  0.
        -12    1    1    2    0    0 -0.19991366454E+02  0.31298908107E+02  0.22457671759E+02  0.43400730434E+02  0.00000000000E+00 0.  1.
         11    1    3    3    0    0  0.63921166687E+01 -0.53950115275E+01 -0.10312525515E+02  0.13278308915E+02  0.51100000000E-03 0. -1.
        -11    1    3    3    0    0  0.84648064215E+01 -0.42534594683E+01 -0.66947983303E+01  0.11600223711E+02  0.51100000000E-03 0.  1.
        -12    1    3    3    0    0  0.51344433640E+01 -0.21650437111E+02 -0.54503479132E+01  0.22908736939E+02  0.00000000000E+00 0.  1.
</event>
<event>
 7    1  0.4083500E-009  0.4778727E+02  0.7816164E-02  0.1312668E+00
        -11   -1    0    0    0    0  0.00000000000E+00  0.00000000000E+00  0.45593999997E+02  0.45594000000E+02  0.51100000000E-03 0. -1.
         11   -1    0    0    0    0 -0.00000000000E+00 -0.00000000000E+00 -0.45593999997E+02  0.45594000000E+02  0.51100000000E-03 0.  1.
    9900012    2    1    2    0    0  0.42948150949E+02  0.61848957391E+01  0.90931339791E+00  0.47787268945E+02  0.19999990429E+02 0.  0.
        -12    1    1    2    0    0 -0.42948150949E+02 -0.61848957391E+01 -0.90931339791E+00  0.43400731055E+02  0.00000000000E+00 0.  1.
         11    1    3    3    0    0  0.22936146858E+01  0.21258729618E+01 -0.40193524915E+01  0.50926612777E+01  0.51100000000E-03 0. -1.
        -11    1    3    3    0    0  0.13985612970E+02  0.16634266430E+01 -0.37004604932E+01  0.14562203352E+02  0.51100000000E-03 0.  1.
         12    1    3    3    0    0  0.26668923293E+02  0.23955961343E+01  0.86291263827E+01  0.28132404316E+02  0.00000000000E+00 0. -1.
</event>
<event>
 7    1  0.4083500E-009  0.4778727E+02  0.7816164E-02  0.1312668E+00
        -11   -1    0    0    0    0  0.00000000000E+00  0.00000000000E+00  0.45593999997E+02  0.45594000000E+02  0.51100000000E-03 0. -1.
         11   -1    0    0    0    0 -0.00000000000E+00 -0.00000000000E+00 -0.45593999997E+02  0.45594000000E+02  0.51100000000E-03 0.  1.
    9900012    2    1    2    0    0 -0.26464309934E+02  0.90711442657E+01  0.33180988633E+02  0.47787269992E+02  0.19999995200E+02 0.  0.
        -12    1    1    2    0    0  0.26464309934E+02 -0.90711442657E+01 -0.33180988633E+02  0.43400730008E+02  0.00000000000E+00 0.  1.
         11    1    3    3    0    0 -0.10878759895E+02  0.37696388164E+01  0.16407093254E+02  0.20043709810E+02  0.51100000000E-03 0. -1.
        -11    1    3    3    0    0 -0.36448274484E+01  0.65010023030E+00  0.14197678131E+02  0.14672472935E+02  0.51100000000E-03 0.  1.
        -12    1    3    3    0    0 -0.11940722591E+02  0.46514052189E+01  0.25762172481E+01  0.13071087247E+02  0.00000000000E+00 0.  1.
</event>
<event>
 7    1  0.4083500E-009  0.4778727E+02  0.7816164E-02  0.1312668E+00
        -11   -1    0    0    0    0  0.00000000000E+00  0.00000000000E+00  0.45593999997E+02  0.45594000000E+02  0.51100000000E-03 0.  1.
         11   -1    0    0    0    0 -0.00000000000E+00 -0.00000000000E+00 -0.45593999997E+02  0.45594000000E+02  0.51100000000E-03 0. -1.
    9900012    2    1    2    0    0  0.64685507205E+01  0.23794586925E+02 -0.35715528281E+02  0.47787268718E+02  0.19999989393E+02 0.  0.
        -12    1    1    2    0    0 -0.64685507205E+01 -0.23794586925E+02  0.35715528281E+02  0.43400731282E+02  0.00000000000E+00 0.  1.
         11    1    3    3    0    0 -0.41901246272E+01  0.81987008409E+01 -0.10771369334E+02  0.14170329476E+02  0.51100000000E-03 0. -1.
        -11    1    3    3    0    0  0.42649908910E+01  0.86247753412E+01 -0.21492120845E+02  0.23547572182E+02  0.51100000000E-03 0.  1.
        -12    1    3    3    0    0  0.63936844567E+01  0.69711107434E+01 -0.34520381024E+01  0.10069367060E+02  0.00000000000E+00 0.  1.
</event>
<event>
 7    1  0.4083500E-009  0.4778727E+02  0.7816164E-02  0.1312668E+00
        -11   -1    0    0    0    0  0.00000000000E+00  0.00000000000E+00  0.45593999997E+02  0.45594000000E+02  0.51100000000E-03 0.  1.
         11   -1    0    0    0    0 -0.00000000000E+00 -0.00000000000E+00 -0.45593999997E+02  0.45594000000E+02  0.51100000000E-03 0. -1.
    9900012    2    1    2    0    0  0.28659525569E+02  0.11024359463E+02 -0.30671137366E+02  0.47787267579E+02  0.19999984198E+02 0.  0.
        -12    1    1    2    0    0 -0.28659525569E+02 -0.11024359463E+02  0.30671137366E+02  0.43400732421E+02  0.00000000000E+00 0.  1.
         11    1    3    3    0    0  0.16882970973E+02  0.72768658273E+01 -0.11963679936E+02  0.21934382212E+02  0.51100000000E-03 0. -1.
        -11    1    3    3    0    0  0.86965230348E+01  0.80475199156E+01 -0.16003749313E+02  0.19912611130E+02  0.51100000000E-03 0.  1.
         12    1    3    3    0    0  0.30800315610E+01 -0.43000262799E+01 -0.27037081162E+01  0.59402742363E+01  0.00000000000E+00 0. -1.
</event>
<event>
 7    1  0.4083500E-009  0.4778727E+02  0.7816164E-02  0.1312668E+00
        -11   -1    0    0    0    0  0.00000000000E+00  0.00000000000E+00  0.45593999997E+02  0.45594000000E+02  0.51100000000E-03 0.  1.
         11   -1    0    0    0    0 -0.00000000000E+00 -0.00000000000E+00 -0.45593999997E+02  0.45594000000E+02  0.51100000000E-03 0. -1.
    9900012    2    1    2    0    0  0.88876403797E+01  0.29422878216E+02 -0.30641923134E+02  0.47787269967E+02  0.19999995086E+02 0.  0.
        -12    1    1    2    0    0 -0.88876403797E+01 -0.29422878216E+02  0.30641923134E+02  0.43400730033E+02  0.00000000000E+00 0.  1.
         11    1    3    3    0    0  0.48911410859E+01  0.11634860348E+02 -0.17724885288E+02  0.21759246200E+02  0.51100000000E-03 0. -1.
        -11    1    3    3    0    0 -0.33837234636E+01  0.55054696069E+01 -0.91676683290E+01  0.11216323949E+02  0.51100000000E-03 0.  1.
        -12    1    3    3    0    0  0.73802227574E+01  0.12282548261E+02 -0.37493695177E+01  0.14811699818E+02  0.00000000000E+00 0.  1.
</event>
<event>
 7    1  0.4083500E-009  0.4778727E+02  0.7816164E-02  0.1312668E+00
        -11   -1    0    0    0    0  0.00000000000E+00  0.00000000000E+00  0.45593999997E+02  0.45594000000E+02  0.51100000000E-03 0.  1.
         11   -1    0    0    0    0 -0.00000000000E+00 -0.00000000000E+00 -0.45593999997E+02  0.45594000000E+02  0.51100000000E-03 0. -1.
    9900012    2    1    2    0    0  0.23080679605E+02 -0.35644540584E+02  0.89650794316E+01  0.47787266208E+02  0.19999977950E+02 0.  0.
        -12    1    1    2    0    0 -0.23080679605E+02  0.35644540584E+02 -0.89650794316E+01  0.43400733792E+02  0.00000000000E+00 0.  1.
         11    1    3    3    0    0  0.45534740960E+01 -0.13497992354E+02 -0.56083501535E+01  0.15309589009E+02  0.51100000000E-03 0. -1.
        -11    1    3    3    0    0  0.98511818001E+01 -0.98443532461E+01  0.61139393892E+01  0.15209777408E+02  0.51100000000E-03 0.  1.
        -12    1    3    3    0    0  0.86760237086E+01 -0.12302194984E+02  0.84594901958E+01  0.17267899791E+02  0.00000000000E+00 0.  1.
</event>
<event>
 7    1  0.4083500E-009  0.4778727E+02  0.7816164E-02  0.1312668E+00
        -11   -1    0    0    0    0  0.00000000000E+00  0.00000000000E+00  0.45593999997E+02  0.45594000000E+02  0.51100000000E-03 0. -1.
         11   -1    0    0    0    0 -0.00000000000E+00 -0.00000000000E+00 -0.45593999997E+02  0.45594000000E+02  0.51100000000E-03 0.  1.
    9900012    2    1    2    0    0  0.37841583474E+02 -0.19470962036E+02 -0.85158355260E+01  0.47787271237E+02  0.20000000880E+02 0.  0.
        -12    1    1    2    0    0 -0.37841583474E+02  0.19470962036E+02  0.85158355260E+01  0.43400728763E+02  0.00000000000E+00 0.  1.
         11    1    3    3    0    0  0.10480658890E+02 -0.86425188587E+01  0.20517129265E+01  0.13738517722E+02  0.51100000000E-03 0. -1.
        -11    1    3    3    0    0  0.22095741177E+02 -0.13919064475E+02 -0.98120898146E+01  0.27896939631E+02  0.51100000000E-03 0.  1.
        -12    1    3    3    0    0  0.52651834068E+01  0.30906212975E+01 -0.75545863803E+00  0.61518138842E+01  0.00000000000E+00 0.  1.
</event>
<event>
 7    1  0.4083500E-009  0.4778727E+02  0.7816164E-02  0.1312668E+00
        -11   -1    0    0    0    0  0.00000000000E+00  0.00000000000E+00  0.45593999997E+02  0.45594000000E+02  0.51100000000E-03 0.  1.
         11   -1    0    0    0    0 -0.00000000000E+00 -0.00000000000E+00 -0.45593999997E+02  0.45594000000E+02  0.51100000000E-03 0. -1.
    9900012    2    1    2    0    0  0.18575443744E+02  0.34189682443E+02 -0.19226076668E+02  0.47787268210E+02  0.19999987079E+02 0.  0.
        -12    1    1    2    0    0 -0.18575443744E+02 -0.34189682443E+02  0.19226076668E+02  0.43400731790E+02  0.00000000000E+00 0.  1.
         11    1    3    3    0    0  0.11348911047E+02  0.18516111120E+02 -0.13461937178E+02  0.25551279925E+02  0.51100000000E-03 0. -1.
        -11    1    3    3    0    0 -0.15487365812E+00  0.12302048809E+02 -0.36102281587E-01  0.12303076623E+02  0.51100000000E-03 0.  1.
        -12    1    3    3    0    0  0.73814063547E+01  0.33715225137E+01 -0.57280372083E+01  0.99329116624E+01  0.00000000000E+00 0.  1.
</event>
<event>
 7    1  0.4083500E-009  0.4778727E+02  0.7816164E-02  0.1312668E+00
        -11   -1    0    0    0    0  0.00000000000E+00  0.00000000000E+00  0.45593999997E+02  0.45594000000E+02  0.51100000000E-03 0. -1.
         11   -1    0    0    0    0 -0.00000000000E+00 -0.00000000000E+00 -0.45593999997E+02  0.45594000000E+02  0.51100000000E-03 0.  1.
    9900012    2    1    2    0    0  0.36178997198E+02 -0.83286683212E+01  0.22479694011E+02  0.47787271929E+02  0.20000004035E+02 0.  0.
        -12    1    1    2    0    0 -0.36178997198E+02  0.83286683212E+01 -0.22479694011E+02  0.43400728071E+02  0.00000000000E+00 0.  1.
         11    1    3    3    0    0  0.16115896373E+02 -0.26330615818E+01  0.10065590421E+02  0.19182576469E+02  0.51100000000E-03 0. -1.
        -11    1    3    3    0    0  0.12593136105E+02  0.18315772863E+01  0.61520704039E+00  0.12740495762E+02  0.51100000000E-03 0.  1.
        -12    1    3    3    0    0  0.74699647201E+01 -0.75271840256E+01  0.11798896550E+02  0.15864199698E+02  0.00000000000E+00 0.  1.
</event>
<event>
 7    1  0.4083500E-009  0.4778727E+02  0.7816164E-02  0.1312668E+00
        -11   -1    0    0    0    0  0.00000000000E+00  0.00000000000E+00  0.45593999997E+02  0.45594000000E+02  0.51100000000E-03 0.  1.
         11   -1    0    0    0    0 -0.00000000000E+00 -0.00000000000E+00 -0.45593999997E+02  0.45594000000E+02  0.51100000000E-03 0. -1.
    9900012    2    1    2    0    0 -0.26888256962E+02 -0.25740757156E+02 -0.22317223708E+02  0.47787269414E+02  0.19999992564E+02 0.  0.
        -12    1    1    2    0    0  0.26888256962E+02  0.25740757156E+02  0.22317223708E+02  0.43400730586E+02  0.00000000000E+00 0.  1.
         11    1    3    3    0    0 -0.71018472463E+01  0.85143181550E+00 -0.17308064218E+01  0.73591345671E+01  0.51100000000E-03 0. -1.
        -11    1    3    3    0    0 -0.92040022091E+01 -0.86820717226E+01 -0.13373225641E+02  0.18410192567E+02  0.51100000000E-03 0.  1.
        -12    1    3    3    0    0 -0.10582407507E+02 -0.17910117249E+02 -0.72131916455E+01  0.22017942279E+02  0.00000000000E+00 0.  1.
</event>
<event>
 7    1  0.4083500E-009  0.4778727E+02  0.7816164E-02  0.1312668E+00
        -11   -1    0    0    0    0  0.00000000000E+00  0.00000000000E+00  0.45593999997E+02  0.45594000000E+02  0.51100000000E-03 0.  1.
         11   -1    0    0    0    0 -0.00000000000E+00 -0.00000000000E+00 -0.45593999997E+02  0.45594000000E+02  0.51100000000E-03 0. -1.
    9900012    2    1    2    0    0 -0.38532697216E+02  0.14886323133E+02 -0.13313595531E+02  0.47787271929E+02  0.20000004032E+02 0.  0.
        -12    1    1    2    0    0  0.38532697216E+02 -0.14886323133E+02  0.13313595531E+02  0.43400728071E+02  0.00000000000E+00 0.  1.
         11    1    3    3    0    0 -0.15443882538E+02  0.68290106407E+01 -0.77649849289E+01  0.18586120773E+02  0.51100000000E-03 0. -1.
        -11    1    3    3    0    0 -0.24523474393E+01  0.65421196214E+01 -0.48356155679E+01  0.84968532579E+01  0.51100000000E-03 0.  1.
        -12    1    3    3    0    0 -0.20636467239E+02  0.15151928705E+01 -0.71299503392E+00  0.20704297898E+02  0.00000000000E+00 0.  1.
</event>
<event>
 7    1  0.4083500E-009  0.4778726E+02  0.7816164E-02  0.1312668E+00
        -11   -1    0    0    0    0  0.00000000000E+00  0.00000000000E+00  0.45593999997E+02  0.45594000000E+02  0.51100000000E-03 0.  1.
         11   -1    0    0    0    0 -0.00000000000E+00 -0.00000000000E+00 -0.45593999997E+02  0.45594000000E+02  0.51100000000E-03 0. -1.
    9900012    2    1    2    0    0  0.84574040969E+01 -0.33294721393E+02 -0.26524669615E+02  0.47787259743E+02  0.19999948470E+02 0.  0.
        -12    1    1    2    0    0 -0.84574040969E+01  0.33294721393E+02  0.26524669615E+02  0.43400740257E+02  0.00000000000E+00 0.  1.
         11    1    3    3    0    0  0.83059129401E+01 -0.26024945086E+02 -0.24455634295E+02  0.36665569756E+02  0.51100000000E-03 0. -1.
        -11    1    3    3    0    0 -0.30798499272E+01 -0.28769017624E+01 -0.35060517251E+01  0.54821928354E+01  0.51100000000E-03 0.  1.
        -12    1    3    3    0    0  0.32313410840E+01 -0.43928745454E+01  0.14370164052E+01  0.56394971515E+01  0.00000000000E+00 0.  1.
</event>
<event>
 7    1  0.4083500E-009  0.4778725E+02  0.7816164E-02  0.1312668E+00
        -11   -1    0    0    0    0  0.00000000000E+00  0.00000000000E+00  0.45593999997E+02  0.45594000000E+02  0.51100000000E-03 0. -1.
         11   -1    0    0    0    0 -0.00000000000E+00 -0.00000000000E+00 -0.45593999997E+02  0.45594000000E+02  0.51100000000E-03 0.  1.
    9900012    2    1    2    0    0 -0.90853005523E+01  0.20014821396E+01  0.42391933949E+02  0.47787254836E+02  0.19999926098E+02 0.  0.
        -12    1    1    2    0    0  0.90853005523E+01 -0.20014821396E+01 -0.42391933949E+02  0.43400745164E+02  0.00000000000E+00 0.  1.
         11    1    3    3    0    0 -0.48178371063E+01 -0.68603664584E+01  0.19154460320E+02  0.20908599493E+02  0.51100000000E-03 0. -1.
        -11    1    3    3    0    0 -0.42350354837E+01 -0.21867838213E+00  0.95959486024E+01  0.10491214211E+02  0.51100000000E-03 0.  1.
        -12    1    3    3    0    0 -0.32427962266E-01  0.90805269801E+01  0.13641525026E+02  0.16387441132E+02  0.00000000000E+00 0.  1.
</event>
<event>
 7    1  0.4083500E-009  0.4778729E+02  0.7816164E-02  0.1312668E+00
        -11   -1    0    0    0    0  0.00000000000E+00  0.00000000000E+00  0.45593999997E+02  0.45594000000E+02  0.51100000000E-03 0. -1.
         11   -1    0    0    0    0 -0.00000000000E+00 -0.00000000000E+00 -0.45593999997E+02  0.45594000000E+02  0.51100000000E-03 0.  1.
    9900012    2    1    2    0    0  0.23614916556E+02 -0.63010618625E+01  0.35864388382E+02  0.47787285507E+02  0.20000065939E+02 0.  0.
        -12    1    1    2    0    0 -0.23614916556E+02  0.63010618625E+01 -0.35864388382E+02  0.43400714493E+02  0.00000000000E+00 0.  1.
         11    1    3    3    0    0  0.96015224354E+01 -0.30361715096E+01  0.54711567003E+01  0.11460415630E+02  0.51100000000E-03 0. -1.
        -11    1    3    3    0    0  0.59903004224E+01  0.39593810305E+01  0.50462876662E+01  0.87764125225E+01  0.51100000000E-03 0.  1.
         12    1    3    3    0    0  0.80230936981E+01 -0.72242713834E+01  0.25346944015E+02  0.27550457354E+02  0.00000000000E+00 0. -1.
</event>
<event>
 7    1  0.4083500E-009  0.4778726E+02  0.7816164E-02  0.1312668E+00
        -11   -1    0    0    0    0  0.00000000000E+00  0.00000000000E+00  0.45593999997E+02  0.45594000000E+02  0.51100000000E-03 0. -1.
         11   -1    0    0    0    0 -0.00000000000E+00 -0.00000000000E+00 -0.45593999997E+02  0.45594000000E+02  0.51100000000E-03 0.  1.
    9900012    2    1    2    0    0  0.11318468862E+02  0.39226257877E+02  0.14724707688E+02  0.47787261977E+02  0.19999958658E+02 0.  0.
        -12    1    1    2    0    0 -0.11318468862E+02 -0.39226257877E+02 -0.14724707688E+02  0.43400738023E+02  0.00000000000E+00 0.  1.
         11    1    3    3    0    0 -0.21355009060E+01  0.58373442999E+01  0.17669012204E+01  0.64619573489E+01  0.51100000000E-03 0. -1.
        -11    1    3    3    0    0  0.50866172231E+01  0.12369339169E+02 -0.29154393030E+01  0.13688462764E+02  0.51100000000E-03 0.  1.
         12    1    3    3    0    0  0.83673525447E+01  0.21019574409E+02  0.15873245771E+02  0.27636841864E+02  0.00000000000E+00 0. -1.
</event>
<event>
 7    1  0.4083500E-009  0.4778730E+02  0.7816164E-02  0.1312668E+00
        -11   -1    0    0    0    0  0.00000000000E+00  0.00000000000E+00  0.45593999997E+02  0.45594000000E+02  0.51100000000E-03 0.  1.
         11   -1    0    0    0    0 -0.00000000000E+00 -0.00000000000E+00 -0.45593999997E+02  0.45594000000E+02  0.51100000000E-03 0. -1.
    9900012    2    1    2    0    0 -0.16876523225E+02  0.19721872525E+02 -0.34782917390E+02  0.47787301454E+02  0.20000138651E+02 0.  0.
        -12    1    1    2    0    0  0.16876523225E+02 -0.19721872525E+02  0.34782917390E+02  0.43400698546E+02  0.00000000000E+00 0.  1.
         11    1    3    3    0    0 -0.13515145232E+02  0.10143742640E+02 -0.21591055460E+02  0.27417664772E+02  0.51100000000E-03 0. -1.
        -11    1    3    3    0    0 -0.33940801430E+01 -0.19349868268E+01 -0.23744111739E+01  0.45718467517E+01  0.51100000000E-03 0.  1.
        -12    1    3    3    0    0  0.32702149303E-01  0.11513116712E+02 -0.10817450756E+02  0.15797789931E+02  0.00000000000E+00 0.  1.
</event>
<event>
 7    1  0.4083500E-009  0.4778727E+02  0.7816164E-02  0.1312668E+00
        -11   -1    0    0    0    0  0.00000000000E+00  0.00000000000E+00  0.45593999997E+02  0.45594000000E+02  0.51100000000E-03 0.  1.
         11   -1    0    0    0    0 -0.00000000000E+00 -0.00000000000E+00 -0.45593999997E+02  0.45594000000E+02  0.51100000000E-03 0. -1.
    9900012    2    1    2    0    0  0.15439259441E+02 -0.19001064558E+02 -0.35835905625E+02  0.47787270532E+02  0.19999997662E+02 0.  0.
        -12    1    1    2    0    0 -0.15439259441E+02  0.19001064558E+02  0.35835905625E+02  0.43400729468E+02  0.00000000000E+00 0.  1.
         11    1    3    3    0    0  0.11068868150E+02 -0.21893606655E+02 -0.33454216347E+02  0.41485352188E+02  0.51100000000E-03 0. -1.
        -11    1    3    3    0    0 -0.14674251754E-01  0.27928932997E+00  0.40033644687E+00  0.48835171271E+00  0.51100000000E-03 0.  1.
         12    1    3    3    0    0  0.43850655431E+01  0.26132527670E+01 -0.27820257249E+01  0.58135666312E+01  0.00000000000E+00 0. -1.
</event>
<event>
 7    1  0.4083500E-009  0.4778727E+02  0.7816164E-02  0.1312668E+00
        -11   -1    0    0    0    0  0.00000000000E+00  0.00000000000E+00  0.45593999997E+02  0.45594000000E+02  0.51100000000E-03 0.  1.
         11   -1    0    0    0    0 -0.00000000000E+00 -0.00000000000E+00 -0.45593999997E+02  0.45594000000E+02  0.51100000000E-03 0. -1.
    9900012    2    1    2    0    0 -0.11031791102E+02 -0.41885686701E+02 -0.27408248781E+01  0.47787270901E+02  0.19999999345E+02 0.  0.
        -12    1    1    2    0    0  0.11031791102E+02  0.41885686701E+02  0.27408248781E+01  0.43400729099E+02  0.00000000000E+00 0.  1.
         11    1    3    3    0    0 -0.21643453487E+01 -0.46878929873E+01  0.28076672913E+01  0.58773912009E+01  0.51100000000E-03 0. -1.
        -11    1    3    3    0    0 -0.54988817781E+01 -0.54824530422E+01 -0.63123008462E+01  0.10007004267E+02  0.51100000000E-03 0.  1.
         12    1    3    3    0    0 -0.33685639751E+01 -0.31715340672E+02  0.76380867680E+00  0.31902875433E+02  0.00000000000E+00 0. -1.
</event>
<event>
 7    1  0.4083500E-009  0.4778727E+02  0.7816164E-02  0.1312668E+00
        -11   -1    0    0    0    0  0.00000000000E+00  0.00000000000E+00  0.45593999997E+02  0.45594000000E+02  0.51100000000E-03 0.  1.
         11   -1    0    0    0    0 -0.00000000000E+00 -0.00000000000E+00 -0.45593999997E+02  0.45594000000E+02  0.51100000000E-03 0. -1.
    9900012    2    1    2    0    0 -0.40272717087E+02 -0.12534261375E+01 -0.16129488208E+02  0.47787271797E+02  0.20000003432E+02 0.  0.
        -12    1    1    2    0    0  0.40272717087E+02  0.12534261375E+01  0.16129488208E+02  0.43400728203E+02  0.00000000000E+00 0.  1.
         11    1    3    3    0    0 -0.15244617475E+02  0.26070962943E+00  0.66390608784E+00  0.15261294278E+02  0.51100000000E-03 0. -1.
        -11    1    3    3    0    0 -0.87357224651E+01 -0.40093422296E+01 -0.94146223925E+00  0.96578477680E+01  0.51100000000E-03 0.  1.
        -12    1    3    3    0    0 -0.16292377147E+02  0.24952064627E+01 -0.15851932057E+02  0.22868129751E+02  0.00000000000E+00 0.  1.
</event>
<event>
 7    1  0.4083500E-009  0.4778726E+02  0.7816164E-02  0.1312668E+00
        -11   -1    0    0    0    0  0.00000000000E+00  0.00000000000E+00  0.45593999997E+02  0.45594000000E+02  0.51100000000E-03 0.  1.
         11   -1    0    0    0    0 -0.00000000000E+00 -0.00000000000E+00 -0.45593999997E+02  0.45594000000E+02  0.51100000000E-03 0. -1.
    9900012    2    1    2    0    0  0.48323872415E+01  0.16913443159E+02 -0.39676284024E+02  0.47787262220E+02  0.19999959764E+02 0.  0.
        -12    1    1    2    0    0 -0.48323872415E+01 -0.16913443159E+02  0.39676284024E+02  0.43400737780E+02  0.00000000000E+00 0.  1.
         11    1    3    3    0    0  0.65005528178E+01  0.53037222557E+00 -0.76836043329E+01  0.10078504722E+02  0.51100000000E-03 0. -1.
        -11    1    3    3    0    0  0.47633965161E+01  0.61624332442E+01 -0.10775547318E+02  0.13295786931E+02  0.51100000000E-03 0.  1.
        -12    1    3    3    0    0 -0.64315620924E+01  0.10220637689E+02 -0.21217132373E+02  0.24412970566E+02  0.00000000000E+00 0.  1.
</event>
<event>
 7    1  0.4083500E-009  0.4778727E+02  0.7816164E-02  0.1312668E+00
        -11   -1    0    0    0    0  0.00000000000E+00  0.00000000000E+00  0.45593999997E+02  0.45594000000E+02  0.51100000000E-03 0.  1.
         11   -1    0    0    0    0 -0.00000000000E+00 -0.00000000000E+00 -0.45593999997E+02  0.45594000000E+02  0.51100000000E-03 0. -1.
    9900012    2    1    2    0    0 -0.17870591992E+02 -0.36118133236E+02  0.16116624671E+02  0.47787271926E+02  0.20000004018E+02 0.  0.
        -12    1    1    2    0    0  0.17870591992E+02  0.36118133236E+02 -0.16116624671E+02  0.43400728074E+02  0.00000000000E+00 0.  1.
         11    1    3    3    0    0 -0.59176195398E+01 -0.15489231080E+02  0.53679840440E+01  0.17428417984E+02  0.51100000000E-03 0. -1.
        -11    1    3    3    0    0  0.14123257877E+01 -0.12566946004E+02  0.33308395057E+01  0.13077357840E+02  0.51100000000E-03 0.  1.
         12    1    3    3    0    0 -0.13365298240E+02 -0.80619561521E+01  0.74178011216E+01  0.17281496102E+02  0.00000000000E+00 0. -1.
</event>
<event>
 7    1  0.4083500E-009  0.4778727E+02  0.7816164E-02  0.1312668E+00
        -11   -1    0    0    0    0  0.00000000000E+00  0.00000000000E+00  0.45593999997E+02  0.45594000000E+02  0.51100000000E-03 0.  1.
         11   -1    0    0    0    0 -0.00000000000E+00 -0.00000000000E+00 -0.45593999997E+02  0.45594000000E+02  0.51100000000E-03 0. -1.
    9900012    2    1    2    0    0 -0.28436666927E+02 -0.20471132898E+02 -0.25610781733E+02  0.47787269027E+02  0.19999990801E+02 0.  0.
        -12    1    1    2    0    0  0.28436666927E+02  0.20471132898E+02  0.25610781733E+02  0.43400730973E+02  0.00000000000E+00 0.  1.
         11    1    3    3    0    0 -0.11020561476E+02 -0.27520823100E+01 -0.71475004557E+01  0.13420636919E+02  0.51100000000E-03 0. -1.
        -11    1    3    3    0    0 -0.70432561583E+00 -0.72654649893E+00  0.24550110826E+01  0.26553764451E+01  0.51100000000E-03 0.  1.
         12    1    3    3    0    0 -0.16711779835E+02 -0.16992504089E+02 -0.20918292360E+02  0.31711255663E+02  0.00000000000E+00 0. -1.
</event>
<event>
 7    1  0.5210635E-009  0.4778727E+02  0.7816164E-02  0.1312668E+00
        -11   -1    0    0    0    0  0.00000000000E+00  0.00000000000E+00  0.45593999997E+02  0.45594000000E+02  0.51100000000E-03 0. -1.
         11   -1    0    0    0    0 -0.00000000000E+00 -0.00000000000E+00 -0.45593999997E+02  0.45594000000E+02  0.51100000000E-03 0.  1.
    9900012    2    1    2    0    0  0.64591210997E+01  0.40669861136E+02  0.13706391478E+02  0.47787273997E+02  0.20000013462E+02 0.  0.
        -12    1    1    2    0    0 -0.64591210997E+01 -0.40669861136E+02 -0.13706391478E+02  0.43400726003E+02  0.00000000000E+00 0.  1.
         11    1    3    3    0    0 -0.10445987827E+00  0.94651884032E+01 -0.99378441133E+00  0.95177891914E+01  0.51100000000E-03 0.  1.
        -11    1    3    3    0    0  0.24743380792E+01 -0.10037363885E+01  0.22689741610E+01  0.35040090857E+01  0.51100000000E-03 0. -1.
         12    1    3    3    0    0  0.40892428987E+01  0.32208409122E+02  0.12431201728E+02  0.34765475720E+02  0.00000000000E+00 0. -1.
</event>
<event>
 7    1  0.4083500E-009  0.4778727E+02  0.7816164E-02  0.1312668E+00
        -11   -1    0    0    0    0  0.00000000000E+00  0.00000000000E+00  0.45593999997E+02  0.45594000000E+02  0.51100000000E-03 0.  1.
         11   -1    0    0    0    0 -0.00000000000E+00 -0.00000000000E+00 -0.45593999997E+02  0.45594000000E+02  0.51100000000E-03 0. -1.
    9900012    2    1    2    0    0 -0.43278962138E+02 -0.30652030585E+01 -0.10767007126E+01  0.47787270537E+02  0.19999997686E+02 0.  0.
        -12    1    1    2    0    0  0.43278962138E+02  0.30652030585E+01  0.10767007126E+01  0.43400729463E+02  0.00000000000E+00 0.  1.
         11    1    3    3    0    0 -0.62533174080E+01  0.31597860982E+01  0.10672646557E+01  0.70871207763E+01  0.51100000000E-03 0. -1.
        -11    1    3    3    0    0 -0.49497794572E+01  0.37621681129E+01 -0.33918108801E+01  0.70822741328E+01  0.51100000000E-03 0.  1.
        -12    1    3    3    0    0 -0.32075865272E+02 -0.99871572695E+01  0.12478455117E+01  0.33617875628E+02  0.00000000000E+00 0.  1.
</event>
<event>
 7    1  0.4083500E-009  0.4778727E+02  0.7816164E-02  0.1312668E+00
        -11   -1    0    0    0    0  0.00000000000E+00  0.00000000000E+00  0.45593999997E+02  0.45594000000E+02  0.51100000000E-03 0. -1.
         11   -1    0    0    0    0 -0.00000000000E+00 -0.00000000000E+00 -0.45593999997E+02  0.45594000000E+02  0.51100000000E-03 0.  1.
    9900012    2    1    2    0    0  0.23841726189E+02 -0.34113755131E+02  0.12306376942E+02  0.47787272929E+02  0.20000008594E+02 0.  0.
        -12    1    1    2    0    0 -0.23841726189E+02  0.34113755131E+02 -0.12306376942E+02  0.43400727071E+02  0.00000000000E+00 0.  1.
         11    1    3    3    0    0  0.10509367699E+02 -0.19883176014E+02  0.40120404899E+01  0.22844779863E+02  0.51100000000E-03 0. -1.
        -11    1    3    3    0    0  0.85373672941E+01 -0.13139972876E+02  0.44035171692E+00  0.15676078508E+02  0.51100000000E-03 0.  1.
         12    1    3    3    0    0  0.47949911963E+01 -0.10906062408E+01  0.78539847347E+01  0.92664145578E+01  0.00000000000E+00 0. -1.
</event>
<event>
 7    1  0.4083500E-009  0.4778727E+02  0.7816164E-02  0.1312668E+00
        -11   -1    0    0    0    0  0.00000000000E+00  0.00000000000E+00  0.45593999997E+02  0.45594000000E+02  0.51100000000E-03 0.  1.
         11   -1    0    0    0    0 -0.00000000000E+00 -0.00000000000E+00 -0.45593999997E+02  0.45594000000E+02  0.51100000000E-03 0. -1.
    9900012    2    1    2    0    0 -0.17795609404E+01 -0.90608054409E+01 -0.42407050491E+02  0.47787274618E+02  0.20000016292E+02 0.  0.
        -12    1    1    2    0    0  0.17795609404E+01  0.90608054409E+01  0.42407050491E+02  0.43400725382E+02  0.00000000000E+00 0.  1.
         11    1    3    3    0    0 -0.34507407240E+01  0.30412365072E+01 -0.43347782095E+01  0.63203665577E+01  0.51100000000E-03 0. -1.
        -11    1    3    3    0    0 -0.46093637195E+01 -0.59594692372E+01 -0.15178212986E+02  0.16945195696E+02  0.51100000000E-03 0.  1.
         12    1    3    3    0    0  0.62805435032E+01 -0.61425727109E+01 -0.22894059296E+02  0.24521712364E+02  0.00000000000E+00 0. -1.
</event>
<event>
 7    1  0.4083500E-009  0.4778727E+02  0.7816164E-02  0.1312668E+00
        -11   -1    0    0    0    0  0.00000000000E+00  0.00000000000E+00  0.45593999997E+02  0.45594000000E+02  0.51100000000E-03 0.  1.
         11   -1    0    0    0    0 -0.00000000000E+00 -0.00000000000E+00 -0.45593999997E+02  0.45594000000E+02  0.51100000000E-03 0. -1.
    9900012    2    1    2    0    0 -0.33914943997E+02 -0.26437340357E+02 -0.58708492282E+01  0.47787271180E+02  0.20000000616E+02 0.  0.
        -12    1    1    2    0    0  0.33914943997E+02  0.26437340357E+02  0.58708492282E+01  0.43400728820E+02  0.00000000000E+00 0.  1.
         11    1    3    3    0    0 -0.52909203300E+01  0.13572750131E+01 -0.24204162378E+01  0.59744831095E+01  0.51100000000E-03 0.  1.
        -11    1    3    3    0    0 -0.16260156531E+02 -0.11466834235E+02 -0.68681641839E+01  0.21048816055E+02  0.51100000000E-03 0. -1.
        -12    1    3    3    0    0 -0.12363867136E+02 -0.16327781135E+02  0.34177311934E+01  0.20763972015E+02  0.00000000000E+00 0.  1.
</event>
<event>
 7    1  0.4083500E-009  0.4778727E+02  0.7816164E-02  0.1312668E+00
        -11   -1    0    0    0    0  0.00000000000E+00  0.00000000000E+00  0.45593999997E+02  0.45594000000E+02  0.51100000000E-03 0. -1.
         11   -1    0    0    0    0 -0.00000000000E+00 -0.00000000000E+00 -0.45593999997E+02  0.45594000000E+02  0.51100000000E-03 0.  1.
    9900012    2    1    2    0    0 -0.37779533933E+02  0.20788765100E+02 -0.49150228553E+01  0.47787269727E+02  0.19999993991E+02 0.  0.
        -12    1    1    2    0    0  0.37779533933E+02 -0.20788765100E+02  0.49150228553E+01  0.43400730273E+02  0.00000000000E+00 0.  1.
         11    1    3    3    0    0 -0.11917723798E+02  0.75512590556E+00 -0.27781375017E+01  0.12260522171E+02  0.51100000000E-03 0. -1.
        -11    1    3    3    0    0  0.61111607271E+00  0.16362872472E+01 -0.27792018804E+01  0.32825085168E+01  0.51100000000E-03 0.  1.
         12    1    3    3    0    0 -0.26472926208E+02  0.18397351947E+02  0.64231652683E+00  0.32244239039E+02  0.00000000000E+00 0. -1.
</event>
<event>
 7    1  0.4083500E-009  0.4778727E+02  0.7816164E-02  0.1312668E+00
        -11   -1    0    0    0    0  0.00000000000E+00  0.00000000000E+00  0.45593999997E+02  0.45594000000E+02  0.51100000000E-03 0.  1.
         11   -1    0    0    0    0 -0.00000000000E+00 -0.00000000000E+00 -0.45593999997E+02  0.45594000000E+02  0.51100000000E-03 0. -1.
    9900012    2    1    2    0    0 -0.41180257084E+01 -0.66632582683E+01 -0.42688011646E+02  0.47787268614E+02  0.19999988920E+02 0.  0.
        -12    1    1    2    0    0  0.41180257084E+01  0.66632582683E+01  0.42688011646E+02  0.43400731386E+02  0.00000000000E+00 0.  1.
         11    1    3    3    0    0  0.38218163505E+01  0.48732504064E+00 -0.52499700835E+01  0.65119852619E+01  0.51100000000E-03 0. -1.
        -11    1    3    3    0    0 -0.13349404960E+01 -0.87913427612E+01 -0.11956670870E+02  0.14900729923E+02  0.51100000000E-03 0.  1.
         12    1    3    3    0    0 -0.66049015629E+01  0.16407594523E+01 -0.25481370692E+02  0.26374553429E+02  0.00000000000E+00 0. -1.
</event>
<event>
 7    1  0.4083500E-009  0.4778727E+02  0.7816164E-02  0.1312668E+00
        -11   -1    0    0    0    0  0.00000000000E+00  0.00000000000E+00  0.45593999997E+02  0.45594000000E+02  0.51100000000E-03 0.  1.
         11   -1    0    0    0    0 -0.00000000000E+00 -0.00000000000E+00 -0.45593999997E+02  0.45594000000E+02  0.51100000000E-03 0. -1.
    9900012    2    1    2    0    0 -0.17659714247E+02 -0.24053183222E+02 -0.31515114390E+02  0.47787267686E+02  0.19999984688E+02 0.  0.
        -12    1    1    2    0    0  0.17659714247E+02  0.24053183222E+02  0.31515114390E+02  0.43400732314E+02  0.00000000000E+00 0.  1.
         11    1    3    3    0    0 -0.12122196813E+02 -0.13727938363E+02 -0.75609165020E+01  0.19813414796E+02  0.51100000000E-03 0.  1.
        -11    1    3    3    0    0 -0.43409981104E+01 -0.70451934618E+01 -0.75488365776E+01  0.11201069121E+02  0.51100000000E-03 0. -1.
        -12    1    3    3    0    0 -0.11965193239E+01 -0.32800513970E+01 -0.16405361310E+02  0.16772783769E+02  0.00000000000E+00 0.  1.
</event>
<event>
 7    1  0.4083500E-009  0.4778727E+02  0.7816164E-02  0.1312668E+00
        -11   -1    0    0    0    0  0.00000000000E+00  0.00000000000E+00  0.45593999997E+02  0.45594000000E+02  0.51100000000E-03 0. -1.
         11   -1    0    0    0    0 -0.00000000000E+00 -0.00000000000E+00 -0.45593999997E+02  0.45594000000E+02  0.51100000000E-03 0.  1.
    9900012    2    1    2    0    0 -0.19307855988E+02  0.37377415555E+02  0.10665782409E+02  0.47787269467E+02  0.19999992807E+02 0.  0.
        -12    1    1    2    0    0  0.19307855988E+02 -0.37377415555E+02 -0.10665782409E+02  0.43400730533E+02  0.00000000000E+00 0.  1.
         11    1    3    3    0    0 -0.13485124543E+02  0.15142166249E+02  0.10405279144E+02  0.22790428188E+02  0.51100000000E-03 0. -1.
        -11    1    3    3    0    0 -0.83906569248E+00  0.34944884903E+01  0.38594740815E+01  0.52736155995E+01  0.51100000000E-03 0.  1.
        -12    1    3    3    0    0 -0.49836657528E+01  0.18740760815E+02 -0.35989708164E+01  0.19723225680E+02  0.00000000000E+00 0.  1.
</event>
<event>
 7    1  0.4083500E-009  0.4778727E+02  0.7816164E-02  0.1312668E+00
        -11   -1    0    0    0    0  0.00000000000E+00  0.00000000000E+00  0.45593999997E+02  0.45594000000E+02  0.51100000000E-03 0.  1.
         11   -1    0    0    0    0 -0.00000000000E+00 -0.00000000000E+00 -0.45593999997E+02  0.45594000000E+02  0.51100000000E-03 0. -1.
    9900012    2    1    2    0    0 -0.12396480394E+02  0.35641081401E+02 -0.21439772183E+02  0.47787271425E+02  0.20000001734E+02 0.  0.
        -12    1    1    2    0    0  0.12396480394E+02 -0.35641081401E+02  0.21439772183E+02  0.43400728575E+02  0.00000000000E+00 0.  1.
         11    1    3    3    0    0 -0.70599592716E+01  0.69577735588E+01 -0.15731493850E+00  0.99135455849E+01  0.51100000000E-03 0.  1.
        -11    1    3    3    0    0  0.32208509112E+01  0.43896043844E+01 -0.24718473758E+01  0.59793425185E+01  0.51100000000E-03 0. -1.
         12    1    3    3    0    0 -0.85573720337E+01  0.24293703458E+02 -0.18810609868E+02  0.31894383321E+02  0.00000000000E+00 0. -1.
</event>
<event>
 7    1  0.4083500E-009  0.4778727E+02  0.7816164E-02  0.1312668E+00
        -11   -1    0    0    0    0  0.00000000000E+00  0.00000000000E+00  0.45593999997E+02  0.45594000000E+02  0.51100000000E-03 0.  1.
         11   -1    0    0    0    0 -0.00000000000E+00 -0.00000000000E+00 -0.45593999997E+02  0.45594000000E+02  0.51100000000E-03 0. -1.
    9900012    2    1    2    0    0  0.10641432774E+02 -0.40789079516E+02  0.10326382323E+02  0.47787271076E+02  0.20000000145E+02 0.  0.
        -12    1    1    2    0    0 -0.10641432774E+02  0.40789079516E+02 -0.10326382323E+02  0.43400728924E+02  0.00000000000E+00 0.  1.
         11    1    3    3    0    0  0.18874113035E+01 -0.82806805510E+01 -0.27023071867E+01  0.89126009788E+01  0.51100000000E-03 0. -1.
        -11    1    3    3    0    0 -0.32109423934E+01 -0.13560528148E+02  0.26788578615E+01  0.14190643199E+02  0.51100000000E-03 0.  1.
         12    1    3    3    0    0  0.11964963864E+02 -0.18947870817E+02  0.10349831648E+02  0.24684026898E+02  0.00000000000E+00 0. -1.
</event>
<event>
 7    1  0.4083500E-009  0.4778727E+02  0.7816164E-02  0.1312668E+00
        -11   -1    0    0    0    0  0.00000000000E+00  0.00000000000E+00  0.45593999997E+02  0.45594000000E+02  0.51100000000E-03 0.  1.
         11   -1    0    0    0    0 -0.00000000000E+00 -0.00000000000E+00 -0.45593999997E+02  0.45594000000E+02  0.51100000000E-03 0. -1.
    9900012    2    1    2    0    0  0.21289807176E+02 -0.12796848710E+02 -0.35589436470E+02  0.47787271725E+02  0.20000003105E+02 0.  0.
        -12    1    1    2    0    0 -0.21289807176E+02  0.12796848710E+02  0.35589436470E+02  0.43400728275E+02  0.00000000000E+00 0.  1.
         11    1    3    3    0    0  0.87764144445E+01 -0.68151580598E+01 -0.19163973864E+02  0.22152420283E+02  0.51100000000E-03 0. -1.
        -11    1    3    3    0    0  0.11466181153E+02 -0.10520069847E+01 -0.17031874620E+02  0.20558812764E+02  0.51100000000E-03 0.  1.
        -12    1    3    3    0    0  0.10472115786E+01 -0.49296836657E+01  0.60641201377E+00  0.50760386784E+01  0.00000000000E+00 0.  1.
</event>
<event>
 7    1  0.4083500E-009  0.4778727E+02  0.7816164E-02  0.1312668E+00
        -11   -1    0    0    0    0  0.00000000000E+00  0.00000000000E+00  0.45593999997E+02  0.45594000000E+02  0.51100000000E-03 0. -1.
         11   -1    0    0    0    0 -0.00000000000E+00 -0.00000000000E+00 -0.45593999997E+02  0.45594000000E+02  0.51100000000E-03 0.  1.
    9900012    2    1    2    0    0  0.85453910443E+00  0.26074259324E+02  0.34684661766E+02  0.47787274221E+02  0.20000014482E+02 0.  0.
        -12    1    1    2    0    0 -0.85453910443E+00 -0.26074259324E+02 -0.34684661766E+02  0.43400725779E+02  0.00000000000E+00 0.  1.
         11    1    3    3    0    0  0.77977305801E+01  0.17753293956E+02  0.18969413517E+02  0.27126052015E+02  0.51100000000E-03 0.  1.
        -11    1    3    3    0    0 -0.42071475459E+00  0.38660470525E+01  0.10497712165E+02  0.11194877475E+02  0.51100000000E-03 0. -1.
        -12    1    3    3    0    0 -0.65224767211E+01  0.44549183150E+01  0.52175360832E+01  0.94663447302E+01  0.00000000000E+00 0.  1.
</event>
<event>
 7    1  0.4083500E-009  0.4778727E+02  0.7816164E-02  0.1312668E+00
        -11   -1    0    0    0    0  0.00000000000E+00  0.00000000000E+00  0.45593999997E+02  0.45594000000E+02  0.51100000000E-03 0.  1.
         11   -1    0    0    0    0 -0.00000000000E+00 -0.00000000000E+00 -0.45593999997E+02  0.45594000000E+02  0.51100000000E-03 0. -1.
    9900012    2    1    2    0    0 -0.20070849930E+02  0.20128040874E+01 -0.38428281397E+02  0.47787271799E+02  0.20000003442E+02 0.  0.
        -12    1    1    2    0    0  0.20070849930E+02 -0.20128040874E+01  0.38428281397E+02  0.43400728201E+02  0.00000000000E+00 0.  1.
         11    1    3    3    0    0 -0.17123934643E+01 -0.36759428747E+01 -0.95009977992E+01  0.10330237501E+02  0.51100000000E-03 0. -1.
        -11    1    3    3    0    0 -0.63117422734E+01  0.90971323669E+00 -0.72322665365E+00  0.64178443229E+01  0.51100000000E-03 0.  1.
         12    1    3    3    0    0 -0.12046714192E+02  0.47790337253E+01 -0.28204056945E+02  0.31039189975E+02  0.00000000000E+00 0. -1.
</event>
<event>
 7    1  0.4083500E-009  0.4778727E+02  0.7816164E-02  0.1312668E+00
        -11   -1    0    0    0    0  0.00000000000E+00  0.00000000000E+00  0.45593999997E+02  0.45594000000E+02  0.51100000000E-03 0.  1.
         11   -1    0    0    0    0 -0.00000000000E+00 -0.00000000000E+00 -0.45593999997E+02  0.45594000000E+02  0.51100000000E-03 0. -1.
    9900012    2    1    2    0    0 -0.16134682901E+02 -0.39929625752E+01 -0.40091789566E+02  0.47787270363E+02  0.19999996894E+02 0.  0.
        -12    1    1    2    0    0  0.16134682901E+02  0.39929625752E+01  0.40091789566E+02  0.43400729637E+02  0.00000000000E+00 0.  1.
         11    1    3    3    0    0 -0.58316255143E+01 -0.67778609890E+01 -0.12175255476E+02  0.15105763863E+02  0.51100000000E-03 0. -1.
        -11    1    3    3    0    0 -0.10388857787E+00 -0.44246499213E+01 -0.87290378877E+01  0.97869516433E+01  0.51100000000E-03 0.  1.
         12    1    3    3    0    0 -0.10199168808E+02  0.72095483350E+01 -0.19187496202E+02  0.22894554856E+02  0.00000000000E+00 0. -1.
</event>
<event>
 7    1  0.4083500E-009  0.4778727E+02  0.7816164E-02  0.1312668E+00
        -11   -1    0    0    0    0  0.00000000000E+00  0.00000000000E+00  0.45593999997E+02  0.45594000000E+02  0.51100000000E-03 0.  1.
         11   -1    0    0    0    0 -0.00000000000E+00 -0.00000000000E+00 -0.45593999997E+02  0.45594000000E+02  0.51100000000E-03 0. -1.
    9900012    2    1    2    0    0 -0.29461182127E+02  0.10186454957E+02 -0.30197657320E+02  0.47787267004E+02  0.19999981579E+02 0.  0.
        -12    1    1    2    0    0  0.29461182127E+02 -0.10186454957E+02  0.30197657320E+02  0.43400732996E+02  0.00000000000E+00 0.  1.
         11    1    3    3    0    0 -0.81356701056E+01  0.47367787721E+01 -0.11134900277E+02  0.14581227851E+02  0.51100000000E-03 0. -1.
        -11    1    3    3    0    0 -0.26357251061E+01 -0.43243391859E+01 -0.77895999342E+01  0.92911153058E+01  0.51100000000E-03 0.  1.
        -12    1    3    3    0    0 -0.18689786916E+02  0.97740153706E+01 -0.11273157110E+02  0.23914923848E+02  0.00000000000E+00 0.  1.
</event>
<event>
 7    1  0.4083500E-009  0.4778727E+02  0.7816164E-02  0.1312668E+00
        -11   -1    0    0    0    0  0.00000000000E+00  0.00000000000E+00  0.45593999997E+02  0.45594000000E+02  0.51100000000E-03 0.  1.
         11   -1    0    0    0    0 -0.00000000000E+00 -0.00000000000E+00 -0.45593999997E+02  0.45594000000E+02  0.51100000000E-03 0. -1.
    9900012    2    1    2    0    0  0.10988479547E+01 -0.37928489204E+02 -0.21067641152E+02  0.47787271160E+02  0.20000000526E+02 0.  0.
        -12    1    1    2    0    0 -0.10988479547E+01  0.37928489204E+02  0.21067641152E+02  0.43400728840E+02  0.00000000000E+00 0.  1.
         11    1    3    3    0    0 -0.37359655748E+01 -0.11024208089E+02 -0.89061676645E+01  0.14656412436E+02  0.51100000000E-03 0. -1.
        -11    1    3    3    0    0 -0.33950237557E+01 -0.23389050889E+01  0.74053105839E+00  0.41886811559E+01  0.51100000000E-03 0.  1.
         12    1    3    3    0    0  0.82298372853E+01 -0.24565376026E+02 -0.12902004546E+02  0.28942177568E+02  0.00000000000E+00 0. -1.
</event>
<event>
 7    1  0.4083500E-009  0.4778729E+02  0.7816164E-02  0.1312668E+00
        -11   -1    0    0    0    0  0.00000000000E+00  0.00000000000E+00  0.45593999997E+02  0.45594000000E+02  0.51100000000E-03 0. -1.
         11   -1    0    0    0    0 -0.00000000000E+00 -0.00000000000E+00 -0.45593999997E+02  0.45594000000E+02  0.51100000000E-03 0.  1.
    9900012    2    1    2    0    0 -0.30376067009E+02  0.29721308782E+02  0.88068301006E+01  0.47787286883E+02  0.20000072215E+02 0.  0.
        -12    1    1    2    0    0  0.30376067009E+02 -0.29721308782E+02 -0.88068301006E+01  0.43400713117E+02  0.00000000000E+00 0.  1.
         11    1    3    3    0    0 -0.43703433789E+01  0.43901806381E+01 -0.45541090685E+01  0.76885302206E+01  0.51100000000E-03 0. -1.
        -11    1    3    3    0    0  0.21991154117E+00  0.18061144910E+01 -0.97339008410E+00  0.20634677505E+01  0.51100000000E-03 0.  1.
         12    1    3    3    0    0 -0.26225635171E+02  0.23525013653E+02  0.14334329253E+02  0.38035288912E+02  0.00000000000E+00 0. -1.
</event>
<event>
 7    1  0.4083500E-009  0.4778727E+02  0.7816164E-02  0.1312668E+00
        -11   -1    0    0    0    0  0.00000000000E+00  0.00000000000E+00  0.45593999997E+02  0.45594000000E+02  0.51100000000E-03 0.  1.
         11   -1    0    0    0    0 -0.00000000000E+00 -0.00000000000E+00 -0.45593999997E+02  0.45594000000E+02  0.51100000000E-03 0. -1.
    9900012    2    1    2    0    0  0.28446454869E+02 -0.23487616742E+02 -0.22863820625E+02  0.47787271568E+02  0.20000002388E+02 0.  0.
        -12    1    1    2    0    0 -0.28446454869E+02  0.23487616742E+02  0.22863820625E+02  0.43400728432E+02  0.00000000000E+00 0.  1.
         11    1    3    3    0    0  0.21172778451E+01  0.90677190374E+00  0.17534970194E+01  0.28947975433E+01  0.51100000000E-03 0.  1.
        -11    1    3    3    0    0  0.25681919964E+02 -0.21967947070E+02 -0.25383735237E+02  0.42266839560E+02  0.51100000000E-03 0. -1.
         12    1    3    3    0    0  0.64725705956E+00 -0.24264415755E+01  0.76641759172E+00  0.26256344653E+01  0.00000000000E+00 0. -1.
</event>
<event>
 7    1  0.4083500E-009  0.4778727E+02  0.7816164E-02  0.1312668E+00
        -11   -1    0    0    0    0  0.00000000000E+00  0.00000000000E+00  0.45593999997E+02  0.45594000000E+02  0.51100000000E-03 0.  1.
         11   -1    0    0    0    0 -0.00000000000E+00 -0.00000000000E+00 -0.45593999997E+02  0.45594000000E+02  0.51100000000E-03 0. -1.
    9900012    2    1    2    0    0  0.82118622020E+01 -0.49140803257E+01 -0.42332496181E+02  0.47787273057E+02  0.20000009177E+02 0.  0.
        -12    1    1    2    0    0 -0.82118622020E+01  0.49140803257E+01  0.42332496181E+02  0.43400726943E+02  0.00000000000E+00 0.  1.
         11    1    3    3    0    0 -0.12601528612E+01  0.64565416261E+01 -0.95863877924E+01  0.11626424479E+02  0.51100000000E-03 0. -1.
        -11    1    3    3    0    0  0.20232236552E+00  0.31329794870E+00 -0.43061784763E+00  0.56966826844E+00  0.51100000000E-03 0.  1.
         12    1    3    3    0    0  0.92696926977E+01 -0.11683919901E+02 -0.32315490541E+02  0.35591180310E+02  0.00000000000E+00 0. -1.
</event>
<event>
 7    1  0.4083500E-009  0.4778728E+02  0.7816164E-02  0.1312668E+00
        -11   -1    0    0    0    0  0.00000000000E+00  0.00000000000E+00  0.45593999997E+02  0.45594000000E+02  0.51100000000E-03 0.  1.
         11   -1    0    0    0    0 -0.00000000000E+00 -0.00000000000E+00 -0.45593999997E+02  0.45594000000E+02  0.51100000000E-03 0. -1.
    9900012    2    1    2    0    0  0.38958390237E+02  0.10886274998E+02  0.15727547403E+02  0.47787275346E+02  0.20000019612E+02 0.  0.
        -12    1    1    2    0    0 -0.38958390237E+02 -0.10886274998E+02 -0.15727547403E+02  0.43400724654E+02  0.00000000000E+00 0.  1.
         11    1    3    3    0    0  0.14748177526E+02  0.19396255043E+01  0.33381573358E+01  0.15245136343E+02  0.51100000000E-03 0. -1.
        -11    1    3    3    0    0  0.13986474878E+02 -0.40656681332E+00  0.12383848709E+02  0.18685461867E+02  0.51100000000E-03 0.  1.
         12    1    3    3    0    0  0.10223737833E+02  0.93532163067E+01  0.55413582850E-02  0.13856677137E+02  0.00000000000E+00 0. -1.
</event>
<event>
 7    1  0.4083500E-009  0.4778727E+02  0.7816164E-02  0.1312668E+00
        -11   -1    0    0    0    0  0.00000000000E+00  0.00000000000E+00  0.45593999997E+02  0.45594000000E+02  0.51100000000E-03 0.  1.
         11   -1    0    0    0    0 -0.00000000000E+00 -0.00000000000E+00 -0.45593999997E+02  0.45594000000E+02  0.51100000000E-03 0. -1.
    9900012    2    1    2    0    0 -0.69511206103E+01 -0.17066223446E+02 -0.39294390073E+02  0.47787272452E+02  0.20000006417E+02 0.  0.
        -12    1    1    2    0    0  0.69511206103E+01  0.17066223446E+02  0.39294390073E+02  0.43400727548E+02  0.00000000000E+00 0.  1.
         11    1    3    3    0    0 -0.61525122148E+01 -0.70060987880E+01 -0.96161293105E+01  0.13394355899E+02  0.51100000000E-03 0. -1.
        -11    1    3    3    0    0  0.84033643914E+00 -0.35654743006E+00  0.14681494057E+01  0.17288014170E+01  0.51100000000E-03 0.  1.
         12    1    3    3    0    0 -0.16389448347E+01 -0.97035772283E+01 -0.31146410169E+02  0.32664115136E+02  0.00000000000E+00 0. -1.
</event>
<event>
 7    1  0.4083500E-009  0.4778727E+02  0.7816164E-02  0.1312668E+00
        -11   -1    0    0    0    0  0.00000000000E+00  0.00000000000E+00  0.45593999997E+02  0.45594000000E+02  0.51100000000E-03 0.  1.
         11   -1    0    0    0    0 -0.00000000000E+00 -0.00000000000E+00 -0.45593999997E+02  0.45594000000E+02  0.51100000000E-03 0. -1.
    9900012    2    1    2    0    0  0.39931476331E+01  0.13180690118E+02 -0.41157592949E+02  0.47787271004E+02  0.19999999818E+02 0.  0.
        -12    1    1    2    0    0 -0.39931476331E+01 -0.13180690118E+02  0.41157592949E+02  0.43400728996E+02  0.00000000000E+00 0.  1.
         11    1    3    3    0    0 -0.23269144681E+01 -0.21157449786E+01  0.22851054003E+00  0.31532721234E+01  0.51100000000E-03 0. -1.
        -11    1    3    3    0    0  0.17078322936E+01  0.25500481155E+01 -0.59754833644E+01  0.67175768126E+01  0.51100000000E-03 0.  1.
         12    1    3    3    0    0  0.46122298076E+01  0.12746386981E+02 -0.35410620124E+02  0.37916422068E+02  0.00000000000E+00 0. -1.
</event>
<event>
 7    1  0.4083500E-009  0.4778727E+02  0.7816164E-02  0.1312668E+00
        -11   -1    0    0    0    0  0.00000000000E+00  0.00000000000E+00  0.45593999997E+02  0.45594000000E+02  0.51100000000E-03 0.  1.
         11   -1    0    0    0    0 -0.00000000000E+00 -0.00000000000E+00 -0.45593999997E+02  0.45594000000E+02  0.51100000000E-03 0. -1.
    9900012    2    1    2    0    0 -0.32271022846E+02  0.27548204057E+02 -0.91269195333E+01  0.47787272789E+02  0.20000007953E+02 0.  0.
        -12    1    1    2    0    0  0.32271022846E+02 -0.27548204057E+02  0.91269195333E+01  0.43400727211E+02  0.00000000000E+00 0.  1.
         11    1    3    3    0    0 -0.60084772251E+01 -0.12688206142E+01 -0.32626216758E+01  0.69538769600E+01  0.51100000000E-03 0. -1.
        -11    1    3    3    0    0 -0.45937865514E+00 -0.79426106591E+00  0.49972481728E+00  0.10447988054E+01  0.51100000000E-03 0.  1.
         12    1    3    3    0    0 -0.25803166966E+02  0.29611285737E+02 -0.63640226748E+01  0.39788597023E+02  0.00000000000E+00 0. -1.
</event>
<event>
 7    1  0.4083500E-009  0.4778727E+02  0.7816164E-02  0.1312668E+00
        -11   -1    0    0    0    0  0.00000000000E+00  0.00000000000E+00  0.45593999997E+02  0.45594000000E+02  0.51100000000E-03 0.  1.
         11   -1    0    0    0    0 -0.00000000000E+00 -0.00000000000E+00 -0.45593999997E+02  0.45594000000E+02  0.51100000000E-03 0. -1.
    9900012    2    1    2    0    0 -0.15692254000E+02 -0.37574564285E+02 -0.15017605328E+02  0.47787272050E+02  0.20000004587E+02 0.  0.
        -12    1    1    2    0    0  0.15692254000E+02  0.37574564285E+02  0.15017605328E+02  0.43400727950E+02  0.00000000000E+00 0.  1.
         11    1    3    3    0    0 -0.68021485014E+01 -0.13852367196E+02  0.19357442742E+01  0.15553276418E+02  0.51100000000E-03 0. -1.
        -11    1    3    3    0    0 -0.47788060788E+01 -0.20789372604E+01 -0.18782110914E+01  0.55395527650E+01  0.51100000000E-03 0.  1.
         12    1    3    3    0    0 -0.41112994197E+01 -0.21643259828E+02 -0.15075138511E+02  0.26694442868E+02  0.00000000000E+00 0. -1.
</event>
<event>
 7    1  0.4083500E-009  0.4778728E+02  0.7816164E-02  0.1312668E+00
        -11   -1    0    0    0    0  0.00000000000E+00  0.00000000000E+00  0.45593999997E+02  0.45594000000E+02  0.51100000000E-03 0.  1.
         11   -1    0    0    0    0 -0.00000000000E+00 -0.00000000000E+00 -0.45593999997E+02  0.45594000000E+02  0.51100000000E-03 0. -1.
    9900012    2    1    2    0    0  0.11449250464E+02 -0.41658978984E+02 -0.41312171499E+01  0.47787276258E+02  0.20000023770E+02 0.  0.
        -12    1    1    2    0    0 -0.11449250464E+02  0.41658978984E+02  0.41312171499E+01  0.43400723742E+02  0.00000000000E+00 0.  1.
         11    1    3    3    0    0  0.57043510307E+00 -0.90920829668E+01 -0.68490361212E+01  0.11397397288E+02  0.51100000000E-03 0. -1.
        -11    1    3    3    0    0  0.40200261774E+01 -0.80622515196E+01 -0.43157130784E+01  0.99892887469E+01  0.51100000000E-03 0.  1.
         12    1    3    3    0    0  0.68587891833E+01 -0.24504644498E+02  0.70335320498E+01  0.26400590223E+02  0.00000000000E+00 0. -1.
</event>
<event>
 7    1  0.4083500E-009  0.4778727E+02  0.7816164E-02  0.1312668E+00
        -11   -1    0    0    0    0  0.00000000000E+00  0.00000000000E+00  0.45593999997E+02  0.45594000000E+02  0.51100000000E-03 0.  1.
         11   -1    0    0    0    0 -0.00000000000E+00 -0.00000000000E+00 -0.45593999997E+02  0.45594000000E+02  0.51100000000E-03 0. -1.
    9900012    2    1    2    0    0  0.14847024723E+02  0.39924539960E+02 -0.83198769392E+01  0.47787269747E+02  0.19999994086E+02 0.  0.
        -12    1    1    2    0    0 -0.14847024723E+02 -0.39924539960E+02  0.83198769392E+01  0.43400730253E+02  0.00000000000E+00 0.  1.
         11    1    3    3    0    0  0.54715483624E+01  0.37358182325E+01 -0.42211551305E+01  0.78557195880E+01  0.51100000000E-03 0. -1.
        -11    1    3    3    0    0 -0.19342826108E+00  0.12323913258E+01 -0.34660022885E+01  0.36836632578E+01  0.51100000000E-03 0.  1.
         12    1    3    3    0    0  0.95689046215E+01  0.34956330402E+02 -0.63271952020E+00  0.36247886902E+02  0.00000000000E+00 0. -1.
</event>
<event>
 7    1  0.4083500E-009  0.4778728E+02  0.7816164E-02  0.1312668E+00
        -11   -1    0    0    0    0  0.00000000000E+00  0.00000000000E+00  0.45593999997E+02  0.45594000000E+02  0.51100000000E-03 0.  1.
         11   -1    0    0    0    0 -0.00000000000E+00 -0.00000000000E+00 -0.45593999997E+02  0.45594000000E+02  0.51100000000E-03 0. -1.
    9900012    2    1    2    0    0  0.41910567495E+02  0.84948319389E+01  0.74138443381E+01  0.47787275060E+02  0.20000018311E+02 0.  0.
        -12    1    1    2    0    0 -0.41910567495E+02 -0.84948319389E+01 -0.74138443381E+01  0.43400724940E+02  0.00000000000E+00 0.  1.
         11    1    3    3    0    0  0.17954110798E+02  0.53376451720E-01 -0.30310597395E+00  0.17956748511E+02  0.51100000000E-03 0. -1.
        -11    1    3    3    0    0  0.18216532070E+02  0.31193510074E+00  0.19364229922E+01  0.18321819736E+02  0.51100000000E-03 0.  1.
        -12    1    3    3    0    0  0.57399246272E+01  0.81295203864E+01  0.57805273198E+01  0.11508706814E+02  0.00000000000E+00 0.  1.
</event>
<event>
 7    1  0.4083500E-009  0.4778727E+02  0.7816164E-02  0.1312668E+00
        -11   -1    0    0    0    0  0.00000000000E+00  0.00000000000E+00  0.45593999997E+02  0.45594000000E+02  0.51100000000E-03 0. -1.
         11   -1    0    0    0    0 -0.00000000000E+00 -0.00000000000E+00 -0.45593999997E+02  0.45594000000E+02  0.51100000000E-03 0.  1.
    9900012    2    1    2    0    0  0.31667793712E+02 -0.25317275066E+02  0.15485788153E+02  0.47787271779E+02  0.20000003351E+02 0.  0.
        -12    1    1    2    0    0 -0.31667793712E+02  0.25317275066E+02 -0.15485788153E+02  0.43400728221E+02  0.00000000000E+00 0.  1.
         11    1    3    3    0    0  0.59097339466E+01 -0.38066867702E+01  0.45152339500E+01  0.83548283867E+01  0.51100000000E-03 0. -1.
        -11    1    3    3    0    0  0.19012872459E+02 -0.21269756972E+02  0.25526145493E+01  0.28642760378E+02  0.51100000000E-03 0.  1.
        -12    1    3    3    0    0  0.67451873067E+01 -0.24083132333E+00  0.84179396540E+01  0.10789683014E+02  0.00000000000E+00 0.  1.
</event>
<event>
 7    1  0.4083500E-009  0.4778727E+02  0.7816164E-02  0.1312668E+00
        -11   -1    0    0    0    0  0.00000000000E+00  0.00000000000E+00  0.45593999997E+02  0.45594000000E+02  0.51100000000E-03 0. -1.
         11   -1    0    0    0    0 -0.00000000000E+00 -0.00000000000E+00 -0.45593999997E+02  0.45594000000E+02  0.51100000000E-03 0.  1.
    9900012    2    1    2    0    0  0.42549304403E+02  0.81820580886E+01  0.24967670510E+01  0.47787271602E+02  0.20000002543E+02 0.  0.
        -12    1    1    2    0    0 -0.42549304403E+02 -0.81820580886E+01 -0.24967670510E+01  0.43400728398E+02  0.00000000000E+00 0.  1.
         11    1    3    3    0    0  0.23679274087E+02 -0.10112131399E+01  0.52500067050E+01  0.24275360841E+02  0.51100000000E-03 0. -1.
        -11    1    3    3    0    0  0.91128939982E+01  0.82907672362E+01  0.22278059650E+01  0.12519775480E+02  0.51100000000E-03 0.  1.
        -12    1    3    3    0    0  0.97571363177E+01  0.90250399226E+00 -0.49810456190E+01  0.10992135281E+02  0.00000000000E+00 0.  1.
</event>
<event>
 7    1  0.4083500E-009  0.4778727E+02  0.7816164E-02  0.1312668E+00
        -11   -1    0    0    0    0  0.00000000000E+00  0.00000000000E+00  0.45593999997E+02  0.45594000000E+02  0.51100000000E-03 0.  1.
         11   -1    0    0    0    0 -0.00000000000E+00 -0.00000000000E+00 -0.45593999997E+02  0.45594000000E+02  0.51100000000E-03 0. -1.
    9900012    2    1    2    0    0  0.14078872857E+02  0.29793985996E+02 -0.28244060897E+02  0.47787271453E+02  0.20000001864E+02 0.  0.
        -12    1    1    2    0    0 -0.14078872857E+02 -0.29793985996E+02  0.28244060897E+02  0.43400728547E+02  0.00000000000E+00 0.  1.
         11    1    3    3    0    0  0.13966175472E+02  0.15197845260E+02 -0.17346297361E+02  0.26961502003E+02  0.51100000000E-03 0. -1.
        -11    1    3    3    0    0  0.42535504110E+01  0.50017597251E+01 -0.71919691220E+01  0.97383115353E+01  0.51100000000E-03 0.  1.
        -12    1    3    3    0    0 -0.41408530267E+01  0.95943810108E+01 -0.37057944140E+01  0.11087457915E+02  0.00000000000E+00 0.  1.
</event>
<event>
 7    1  0.4083500E-009  0.4778727E+02  0.7816164E-02  0.1312668E+00
        -11   -1    0    0    0    0  0.00000000000E+00  0.00000000000E+00  0.45593999997E+02  0.45594000000E+02  0.51100000000E-03 0. -1.
         11   -1    0    0    0    0 -0.00000000000E+00 -0.00000000000E+00 -0.45593999997E+02  0.45594000000E+02  0.51100000000E-03 0.  1.
    9900012    2    1    2    0    0  0.26364028644E+01  0.34100400454E+02  0.26717701308E+02  0.47787268504E+02  0.19999988417E+02 0.  0.
        -12    1    1    2    0    0 -0.26364028644E+01 -0.34100400454E+02 -0.26717701308E+02  0.43400731496E+02  0.00000000000E+00 0.  1.
         11    1    3    3    0    0 -0.10922846198E+01 -0.30627593329E+00 -0.42147600800E+00  0.12101788811E+01  0.51100000000E-03 0. -1.
        -11    1    3    3    0    0  0.91958491238E+01  0.14473444898E+02  0.11291292364E+02  0.20531379199E+02  0.51100000000E-03 0.  1.
         12    1    3    3    0    0 -0.54671616396E+01  0.19933231489E+02  0.15847884953E+02  0.26045710424E+02  0.00000000000E+00 0. -1.
</event>
<event>
 7    1  0.4083500E-009  0.4778727E+02  0.7816164E-02  0.1312668E+00
        -11   -1    0    0    0    0  0.00000000000E+00  0.00000000000E+00  0.45593999997E+02  0.45594000000E+02  0.51100000000E-03 0.  1.
         11   -1    0    0    0    0 -0.00000000000E+00 -0.00000000000E+00 -0.45593999997E+02  0.45594000000E+02  0.51100000000E-03 0. -1.
    9900012    2    1    2    0    0 -0.44798476068E+01 -0.43167830019E+02 -0.30442406129E+00  0.47787271237E+02  0.20000000879E+02 0.  0.
        -12    1    1    2    0    0  0.44798476068E+01  0.43167830019E+02  0.30442406129E+00  0.43400728763E+02  0.00000000000E+00 0.  1.
         11    1    3    3    0    0 -0.39119594114E+01 -0.90109259467E+01 -0.91416912699E+00  0.98658967310E+01  0.51100000000E-03 0. -1.
        -11    1    3    3    0    0 -0.46374284367E+01 -0.18502598825E+02  0.72914335732E+01  0.20420991885E+02  0.51100000000E-03 0.  1.
         12    1    3    3    0    0  0.40695402413E+01 -0.15654305248E+02 -0.66816885075E+01  0.17500382621E+02  0.00000000000E+00 0. -1.
</event>
<event>
 7    1  0.4083500E-009  0.4778728E+02  0.7816164E-02  0.1312668E+00
        -11   -1    0    0    0    0  0.00000000000E+00  0.00000000000E+00  0.45593999997E+02  0.45594000000E+02  0.51100000000E-03 0. -1.
         11   -1    0    0    0    0 -0.00000000000E+00 -0.00000000000E+00 -0.45593999997E+02  0.45594000000E+02  0.51100000000E-03 0.  1.
    9900012    2    1    2    0    0  0.38852864840E+02 -0.17905658700E+02  0.73119846836E+01  0.47787276045E+02  0.20000022801E+02 0.  0.
        -12    1    1    2    0    0 -0.38852864840E+02  0.17905658700E+02 -0.73119846836E+01  0.43400723955E+02  0.00000000000E+00 0.  1.
         11    1    3    3    0    0  0.11747157736E+02 -0.39283112098E+01  0.74099850579E+01  0.14433822178E+02  0.51100000000E-03 0. -1.
        -11    1    3    3    0    0  0.53405397397E+01  0.21766545042E+01  0.21516342958E+01  0.61553813810E+01  0.51100000000E-03 0.  1.
         12    1    3    3    0    0  0.21765167364E+02 -0.16154001995E+02 -0.22496346702E+01  0.27198072487E+02  0.00000000000E+00 0. -1.
</event>
<event>
 7    1  0.4083500E-009  0.4778727E+02  0.7816164E-02  0.1312668E+00
        -11   -1    0    0    0    0  0.00000000000E+00  0.00000000000E+00  0.45593999997E+02  0.45594000000E+02  0.51100000000E-03 0.  1.
         11   -1    0    0    0    0 -0.00000000000E+00 -0.00000000000E+00 -0.45593999997E+02  0.45594000000E+02  0.51100000000E-03 0. -1.
    9900012    2    1    2    0    0 -0.32189679290E+02 -0.16398238184E+02 -0.24052983804E+02  0.47787266156E+02  0.19999977711E+02 0.  0.
        -12    1    1    2    0    0  0.32189679290E+02  0.16398238184E+02  0.24052983804E+02  0.43400733844E+02  0.00000000000E+00 0.  1.
         11    1    3    3    0    0 -0.15939044182E+02  0.59836070232E+00 -0.14180330144E+02  0.21342280296E+02  0.51100000000E-03 0. -1.
        -11    1    3    3    0    0 -0.64871608713E+01 -0.77705057247E+01 -0.63527362752E+00  0.10142366007E+02  0.51100000000E-03 0.  1.
        -12    1    3    3    0    0 -0.97634742367E+01 -0.92260931617E+01 -0.92373800319E+01  0.16302619852E+02  0.00000000000E+00 0.  1.
</event>
<event>
 7    1  0.4083500E-009  0.4778727E+02  0.7816164E-02  0.1312668E+00
        -11   -1    0    0    0    0  0.00000000000E+00  0.00000000000E+00  0.45593999997E+02  0.45594000000E+02  0.51100000000E-03 0.  1.
         11   -1    0    0    0    0 -0.00000000000E+00 -0.00000000000E+00 -0.45593999997E+02  0.45594000000E+02  0.51100000000E-03 0. -1.
    9900012    2    1    2    0    0  0.23087515626E+02 -0.32042046100E+02 -0.17997148025E+02  0.47787269210E+02  0.19999991636E+02 0.  0.
        -12    1    1    2    0    0 -0.23087515626E+02  0.32042046100E+02  0.17997148025E+02  0.43400730790E+02  0.00000000000E+00 0.  1.
         11    1    3    3    0    0  0.67137502298E+01 -0.15327923401E+02 -0.10004420098E+02  0.19496361191E+02  0.51100000000E-03 0. -1.
        -11    1    3    3    0    0  0.79134161200E+00  0.12806243837E+01 -0.38439621304E+01  0.41282278862E+01  0.51100000000E-03 0.  1.
         12    1    3    3    0    0  0.15582423784E+02 -0.17994747083E+02 -0.41487657972E+01  0.24162680133E+02  0.00000000000E+00 0. -1.
</event>
<event>
 7    1  0.4083500E-009  0.4778726E+02  0.7816164E-02  0.1312668E+00
        -11   -1    0    0    0    0  0.00000000000E+00  0.00000000000E+00  0.45593999997E+02  0.45594000000E+02  0.51100000000E-03 0. -1.
         11   -1    0    0    0    0 -0.00000000000E+00 -0.00000000000E+00 -0.45593999997E+02  0.45594000000E+02  0.51100000000E-03 0.  1.
    9900012    2    1    2    0    0 -0.18121845165E+02  0.39435839652E+02 -0.19272386995E+00  0.47787264249E+02  0.19999969017E+02 0.  0.
        -12    1    1    2    0    0  0.18121845165E+02 -0.39435839652E+02  0.19272386995E+00  0.43400735751E+02  0.00000000000E+00 0.  1.
         11    1    3    3    0    0 -0.92850954432E+01  0.16814996663E+02 -0.52844312702E+01  0.19921905639E+02  0.51100000000E-03 0. -1.
        -11    1    3    3    0    0 -0.10317421671E+02  0.13182033859E+02 -0.58879413479E+00  0.16749981654E+02  0.51100000000E-03 0.  1.
        -12    1    3    3    0    0  0.14806719489E+01  0.94388091290E+01  0.56805015350E+01  0.11115376956E+02  0.00000000000E+00 0.  1.
</event>
<event>
 7    1  0.4083500E-009  0.4778727E+02  0.7816164E-02  0.1312668E+00
        -11   -1    0    0    0    0  0.00000000000E+00  0.00000000000E+00  0.45593999997E+02  0.45594000000E+02  0.51100000000E-03 0.  1.
         11   -1    0    0    0    0 -0.00000000000E+00 -0.00000000000E+00 -0.45593999997E+02  0.45594000000E+02  0.51100000000E-03 0. -1.
    9900012    2    1    2    0    0 -0.36887710547E+02  0.16369706900E+02 -0.15967242853E+02  0.47787270309E+02  0.19999996647E+02 0.  0.
        -12    1    1    2    0    0  0.36887710547E+02 -0.16369706900E+02  0.15967242853E+02  0.43400729691E+02  0.00000000000E+00 0.  1.
         11    1    3    3    0    0 -0.10137007387E+02  0.79897275568E+01 -0.12338596739E+01  0.12965996882E+02  0.51100000000E-03 0. -1.
        -11    1    3    3    0    0 -0.24657928936E+01  0.10034202646E+01  0.28845745702E+01  0.39252716509E+01  0.51100000000E-03 0.  1.
        -12    1    3    3    0    0 -0.24284910266E+02  0.73765590789E+01 -0.17617957749E+02  0.30896001776E+02  0.00000000000E+00 0.  1.
</event>
<event>
 7    1  0.4083500E-009  0.4778727E+02  0.7816164E-02  0.1312668E+00
        -11   -1    0    0    0    0  0.00000000000E+00  0.00000000000E+00  0.45593999997E+02  0.45594000000E+02  0.51100000000E-03 0.  1.
         11   -1    0    0    0    0 -0.00000000000E+00 -0.00000000000E+00 -0.45593999997E+02  0.45594000000E+02  0.51100000000E-03 0. -1.
    9900012    2    1    2    0    0 -0.12203337889E+02 -0.34005084035E+02 -0.24049036740E+02  0.47787270006E+02  0.19999995265E+02 0.  0.
        -12    1    1    2    0    0  0.12203337889E+02  0.34005084035E+02  0.24049036740E+02  0.43400729994E+02  0.00000000000E+00 0.  1.
         11    1    3    3    0    0 -0.18796406173E+01 -0.10683779381E+01 -0.26062248854E+01  0.33862794751E+01  0.51100000000E-03 0. -1.
        -11    1    3    3    0    0 -0.54069904027E+01 -0.12279912508E+02  0.10625752682E+01  0.13459601141E+02  0.51100000000E-03 0.  1.
        -12    1    3    3    0    0 -0.49167068695E+01 -0.20656793589E+02 -0.22505387122E+02  0.30941389390E+02  0.00000000000E+00 0.  1.
</event>
<event>
 7    1  0.4083500E-009  0.4778727E+02  0.7816164E-02  0.1312668E+00
        -11   -1    0    0    0    0  0.00000000000E+00  0.00000000000E+00  0.45593999997E+02  0.45594000000E+02  0.51100000000E-03 0.  1.
         11   -1    0    0    0    0 -0.00000000000E+00 -0.00000000000E+00 -0.45593999997E+02  0.45594000000E+02  0.51100000000E-03 0. -1.
    9900012    2    1    2    0    0  0.11923282686E+02 -0.45825924735E+01 -0.41478406545E+02  0.47787273816E+02  0.20000012637E+02 0.  0.
        -12    1    1    2    0    0 -0.11923282686E+02  0.45825924735E+01  0.41478406545E+02  0.43400726184E+02  0.00000000000E+00 0.  1.
         11    1    3    3    0    0 -0.14544465006E+01 -0.26267633068E+00  0.67957372517E+00  0.16267249881E+01  0.51100000000E-03 0. -1.
        -11    1    3    3    0    0  0.22209496881E+01  0.39968058687E+01 -0.14422284662E+02  0.15129751148E+02  0.51100000000E-03 0.  1.
         12    1    3    3    0    0  0.11156779498E+02 -0.83167220115E+01 -0.27735695608E+02  0.31030797680E+02  0.00000000000E+00 0. -1.
</event>
<event>
 7    1  0.4083500E-009  0.4778727E+02  0.7816164E-02  0.1312668E+00
        -11   -1    0    0    0    0  0.00000000000E+00  0.00000000000E+00  0.45593999997E+02  0.45594000000E+02  0.51100000000E-03 0. -1.
         11   -1    0    0    0    0 -0.00000000000E+00 -0.00000000000E+00 -0.45593999997E+02  0.45594000000E+02  0.51100000000E-03 0.  1.
    9900012    2    1    2    0    0  0.26562847773E+01 -0.31181597870E+02  0.30071171573E+02  0.47787271269E+02  0.20000001026E+02 0.  0.
        -12    1    1    2    0    0 -0.26562847773E+01  0.31181597870E+02 -0.30071171573E+02  0.43400728731E+02  0.00000000000E+00 0.  1.
         11    1    3    3    0    0  0.10213880465E+01 -0.15928560745E+02  0.23266036172E+02  0.28214725240E+02  0.51100000000E-03 0. -1.
        -11    1    3    3    0    0 -0.30203347708E+00 -0.14035508598E+02  0.87732653686E+01  0.16554664337E+02  0.51100000000E-03 0.  1.
         12    1    3    3    0    0  0.19369302079E+01 -0.12175285272E+01 -0.19681299669E+01  0.30178816927E+01  0.00000000000E+00 0. -1.
</event>
<event>
 7    1  0.4083500E-009  0.4778727E+02  0.7816164E-02  0.1312668E+00
        -11   -1    0    0    0    0  0.00000000000E+00  0.00000000000E+00  0.45593999997E+02  0.45594000000E+02  0.51100000000E-03 0. -1.
         11   -1    0    0    0    0 -0.00000000000E+00 -0.00000000000E+00 -0.45593999997E+02  0.45594000000E+02  0.51100000000E-03 0.  1.
    9900012    2    1    2    0    0 -0.35602329968E+02  0.21607944003E+02  0.12214498116E+02  0.47787272962E+02  0.20000008743E+02 0.  0.
        -12    1    1    2    0    0  0.35602329968E+02 -0.21607944003E+02 -0.12214498116E+02  0.43400727038E+02  0.00000000000E+00 0.  1.
         11    1    3    3    0    0 -0.10705415615E+02  0.87496355768E+01 -0.30709823628E+00  0.13829546479E+02  0.51100000000E-03 0. -1.
        -11    1    3    3    0    0  0.40808034516E+00  0.31328584504E+00 -0.20939607663E+01  0.21562350384E+01  0.51100000000E-03 0.  1.
         12    1    3    3    0    0 -0.25304994698E+02  0.12545022582E+02  0.14615557119E+02  0.31801491445E+02  0.00000000000E+00 0. -1.
</event>
<event>
 7    1  0.4083500E-009  0.4778727E+02  0.7816164E-02  0.1312668E+00
        -11   -1    0    0    0    0  0.00000000000E+00  0.00000000000E+00  0.45593999997E+02  0.45594000000E+02  0.51100000000E-03 0.  1.
         11   -1    0    0    0    0 -0.00000000000E+00 -0.00000000000E+00 -0.45593999997E+02  0.45594000000E+02  0.51100000000E-03 0. -1.
    9900012    2    1    2    0    0 -0.40282830957E+02 -0.15509864283E+02 -0.45122825191E+01  0.47787273583E+02  0.20000011574E+02 0.  0.
        -12    1    1    2    0    0  0.40282830957E+02  0.15509864283E+02  0.45122825191E+01  0.43400726417E+02  0.00000000000E+00 0.  1.
         11    1    3    3    0    0 -0.16603871341E+02 -0.39143012033E+01  0.26045429550E+01  0.17256707150E+02  0.51100000000E-03 0. -1.
        -11    1    3    3    0    0 -0.17345291034E+02 -0.14228228246E+02 -0.32845335717E+01  0.22673547608E+02  0.51100000000E-03 0.  1.
         12    1    3    3    0    0 -0.63336685827E+01  0.26326651663E+01 -0.38322919024E+01  0.78570188251E+01  0.00000000000E+00 0. -1.
</event>
<event>
 7    1  0.4083500E-009  0.4778728E+02  0.7816164E-02  0.1312668E+00
        -11   -1    0    0    0    0  0.00000000000E+00  0.00000000000E+00  0.45593999997E+02  0.45594000000E+02  0.51100000000E-03 0.  1.
         11   -1    0    0    0    0 -0.00000000000E+00 -0.00000000000E+00 -0.45593999997E+02  0.45594000000E+02  0.51100000000E-03 0. -1.
    9900012    2    1    2    0    0 -0.16901437432E+02  0.12145261511E+02 -0.38084864516E+02  0.47787275701E+02  0.20000021231E+02 0.  0.
        -12    1    1    2    0    0  0.16901437432E+02 -0.12145261511E+02  0.38084864516E+02  0.43400724299E+02  0.00000000000E+00 0.  1.
         11    1    3    3    0    0 -0.52505761322E+01  0.27652913072E+01 -0.27667011199E+01  0.65475202239E+01  0.51100000000E-03 0. -1.
        -11    1    3    3    0    0 -0.74139609259E+01  0.66956864157E+00 -0.39851751191E+01  0.84437408634E+01  0.51100000000E-03 0.  1.
        -12    1    3    3    0    0 -0.42369003743E+01  0.87104015620E+01 -0.31332988277E+02  0.32796014614E+02  0.00000000000E+00 0.  1.
</event>
<event>
 7    1  0.4083500E-009  0.4778728E+02  0.7816164E-02  0.1312668E+00
        -11   -1    0    0    0    0  0.00000000000E+00  0.00000000000E+00  0.45593999997E+02  0.45594000000E+02  0.51100000000E-03 0.  1.
         11   -1    0    0    0    0 -0.00000000000E+00 -0.00000000000E+00 -0.45593999997E+02  0.45594000000E+02  0.51100000000E-03 0. -1.
    9900012    2    1    2    0    0 -0.10775028674E+02 -0.26390011179E+02 -0.32727491830E+02  0.47787278181E+02  0.20000032538E+02 0.  0.
        -12    1    1    2    0    0  0.10775028674E+02  0.26390011179E+02  0.32727491830E+02  0.43400721819E+02  0.00000000000E+00 0.  1.
         11    1    3    3    0    0 -0.57823587961E+01 -0.99467771283E+01 -0.36491005235E+01  0.12070210577E+02  0.51100000000E-03 0. -1.
        -11    1    3    3    0    0 -0.30397738710E+01  0.45349218570E+00 -0.17756142585E+01  0.35494628615E+01  0.51100000000E-03 0.  1.
         12    1    3    3    0    0 -0.19528960066E+01 -0.16896726236E+02 -0.27302777048E+02  0.32167604742E+02  0.00000000000E+00 0. -1.
</event>
<event>
 7    1  0.4083500E-009  0.4778727E+02  0.7816164E-02  0.1312668E+00
        -11   -1    0    0    0    0  0.00000000000E+00  0.00000000000E+00  0.45593999997E+02  0.45594000000E+02  0.51100000000E-03 0. -1.
         11   -1    0    0    0    0 -0.00000000000E+00 -0.00000000000E+00 -0.45593999997E+02  0.45594000000E+02  0.51100000000E-03 0.  1.
    9900012    2    1    2    0    0  0.26673821207E+02 -0.33227425108E+02  0.82503802974E+01  0.47787270834E+02  0.19999999041E+02 0.  0.
        -12    1    1    2    0    0 -0.26673821207E+02  0.33227425108E+02 -0.82503802974E+01  0.43400729166E+02  0.00000000000E+00 0.  1.
         11    1    3    3    0    0  0.93854318370E+01 -0.15049019661E+02  0.60474905981E+01  0.18738502243E+02  0.51100000000E-03 0. -1.
        -11    1    3    3    0    0  0.16452310310E+02 -0.91539024910E+01  0.51489560367E+01  0.19518816405E+02  0.51100000000E-03 0.  1.
        -12    1    3    3    0    0  0.83607906052E+00 -0.90245029559E+01 -0.29460663375E+01  0.95299521856E+01  0.00000000000E+00 0.  1.
</event>
<event>
 7    1  0.4083500E-009  0.4778727E+02  0.7816164E-02  0.1312668E+00
        -11   -1    0    0    0    0  0.00000000000E+00  0.00000000000E+00  0.45593999997E+02  0.45594000000E+02  0.51100000000E-03 0. -1.
         11   -1    0    0    0    0 -0.00000000000E+00 -0.00000000000E+00 -0.45593999997E+02  0.45594000000E+02  0.51100000000E-03 0.  1.
    9900012    2    1    2    0    0 -0.36302508702E+02 -0.78140978144E+01  0.22465324922E+02  0.47787273202E+02  0.20000009837E+02 0.  0.
        -12    1    1    2    0    0  0.36302508702E+02  0.78140978144E+01 -0.22465324922E+02  0.43400726798E+02  0.00000000000E+00 0.  1.
         11    1    3    3    0    0 -0.43339824384E+01 -0.19248676176E+01 -0.27399728418E-01  0.47422853276E+01  0.51100000000E-03 0.  1.
        -11    1    3    3    0    0 -0.44984132631E+01 -0.70025319419E+01  0.15071922268E+01  0.84582979465E+01  0.51100000000E-03 0. -1.
         12    1    3    3    0    0 -0.27470113001E+02  0.11133017451E+01  0.20985532424E+02  0.34586689928E+02  0.00000000000E+00 0. -1.
</event>
<event>
 7    1  0.4083500E-009  0.4778728E+02  0.7816164E-02  0.1312668E+00
        -11   -1    0    0    0    0  0.00000000000E+00  0.00000000000E+00  0.45593999997E+02  0.45594000000E+02  0.51100000000E-03 0. -1.
         11   -1    0    0    0    0 -0.00000000000E+00 -0.00000000000E+00 -0.45593999997E+02  0.45594000000E+02  0.51100000000E-03 0.  1.
    9900012    2    1    2    0    0 -0.18532593441E+02  0.39039518560E+02 -0.40102151517E+01  0.47787275874E+02  0.20000022021E+02 0.  0.
        -12    1    1    2    0    0  0.18532593441E+02 -0.39039518560E+02  0.40102151517E+01  0.43400724126E+02  0.00000000000E+00 0.  1.
         11    1    3    3    0    0 -0.75482202296E+01  0.91735964190E+01 -0.56636618737E+01  0.13160834547E+02  0.51100000000E-03 0. -1.
        -11    1    3    3    0    0 -0.81121102070E+01  0.50120878963E+01 -0.20993971757E+00  0.95378945285E+01  0.51100000000E-03 0.  1.
        -12    1    3    3    0    0 -0.28722630040E+01  0.24853834245E+02  0.18633864396E+01  0.25088546799E+02  0.00000000000E+00 0.  1.
</event>
<event>
 7    1  0.4083500E-009  0.4778727E+02  0.7816164E-02  0.1312668E+00
        -11   -1    0    0    0    0  0.00000000000E+00  0.00000000000E+00  0.45593999997E+02  0.45594000000E+02  0.51100000000E-03 0. -1.
         11   -1    0    0    0    0 -0.00000000000E+00 -0.00000000000E+00 -0.45593999997E+02  0.45594000000E+02  0.51100000000E-03 0.  1.
    9900012    2    1    2    0    0 -0.24712420288E+02 -0.17522210103E+02  0.31078799290E+02  0.47787270413E+02  0.19999997122E+02 0.  0.
        -12    1    1    2    0    0  0.24712420288E+02  0.17522210103E+02 -0.31078799290E+02  0.43400729587E+02  0.00000000000E+00 0.  1.
         11    1    3    3    0    0 -0.28319428510E+01 -0.72040340289E+01  0.51572358474E+01  0.93013487435E+01  0.51100000000E-03 0. -1.
        -11    1    3    3    0    0  0.20473563556E+01 -0.25381361877E+01  0.35095059840E+01  0.47906613183E+01  0.51100000000E-03 0.  1.
        -12    1    3    3    0    0 -0.23927833792E+02 -0.77800398864E+01  0.22412057458E+02  0.33695260351E+02  0.00000000000E+00 0.  1.
</event>
<event>
 7    1  0.4083500E-009  0.4778724E+02  0.7816164E-02  0.1312668E+00
        -11   -1    0    0    0    0  0.00000000000E+00  0.00000000000E+00  0.45593999997E+02  0.45594000000E+02  0.51100000000E-03 0.  1.
         11   -1    0    0    0    0 -0.00000000000E+00 -0.00000000000E+00 -0.45593999997E+02  0.45594000000E+02  0.51100000000E-03 0. -1.
    9900012    2    1    2    0    0 -0.36374367665E+01 -0.41311172673E+02  0.12797750167E+02  0.47787235684E+02  0.19999838777E+02 0.  0.
        -12    1    1    2    0    0  0.36374367665E+01  0.41311172673E+02 -0.12797750167E+02  0.43400764316E+02  0.00000000000E+00 0.  1.
         11    1    3    3    0    0 -0.58955490212E+01 -0.10847631601E+02  0.14531869052E+01  0.12431426389E+02  0.51100000000E-03 0. -1.
        -11    1    3    3    0    0 -0.13543053964E+01 -0.38059143355E+01  0.70338267926E+01  0.81113406195E+01  0.51100000000E-03 0.  1.
        -12    1    3    3    0    0  0.36124176511E+01 -0.26657626737E+02  0.43107364696E+01  0.27244468676E+02  0.00000000000E+00 0.  1.
</event>
<event>
 7    1  0.4083500E-009  0.4778726E+02  0.7816164E-02  0.1312668E+00
        -11   -1    0    0    0    0  0.00000000000E+00  0.00000000000E+00  0.45593999997E+02  0.45594000000E+02  0.51100000000E-03 0.  1.
         11   -1    0    0    0    0 -0.00000000000E+00 -0.00000000000E+00 -0.45593999997E+02  0.45594000000E+02  0.51100000000E-03 0. -1.
    9900012    2    1    2    0    0 -0.11507303314E+02  0.37873960921E+02  0.17798017062E+02  0.47787258569E+02  0.19999943120E+02 0.  0.
        -12    1    1    2    0    0  0.11507303314E+02 -0.37873960921E+02 -0.17798017062E+02  0.43400741431E+02  0.00000000000E+00 0.  1.
         11    1    3    3    0    0 -0.67058003049E+01  0.13778088926E+02  0.95340798541E+00  0.15352930640E+02  0.51100000000E-03 0. -1.
        -11    1    3    3    0    0  0.42976788086E+01  0.52179322021E+01  0.39989486417E+01  0.78541995205E+01  0.51100000000E-03 0.  1.
         12    1    3    3    0    0 -0.90991818178E+01  0.18877939793E+02  0.12845660435E+02  0.24580128409E+02  0.00000000000E+00 0. -1.
</event>
<event>
 7    1  0.4083500E-009  0.4778727E+02  0.7816164E-02  0.1312668E+00
        -11   -1    0    0    0    0  0.00000000000E+00  0.00000000000E+00  0.45593999997E+02  0.45594000000E+02  0.51100000000E-03 0.  1.
         11   -1    0    0    0    0 -0.00000000000E+00 -0.00000000000E+00 -0.45593999997E+02  0.45594000000E+02  0.51100000000E-03 0. -1.
    9900012    2    1    2    0    0  0.15915212807E+02  0.35362403735E+01 -0.40222186611E+02  0.47787270854E+02  0.19999999132E+02 0.  0.
        -12    1    1    2    0    0 -0.15915212807E+02 -0.35362403735E+01  0.40222186611E+02  0.43400729146E+02  0.00000000000E+00 0.  1.
         11    1    3    3    0    0  0.15930702867E+01  0.17990098946E+01 -0.13994234754E+02  0.14199046311E+02  0.51100000000E-03 0. -1.
        -11    1    3    3    0    0  0.16204066059E+02 -0.19168285928E+01 -0.23662816022E+02  0.28743257488E+02  0.51100000000E-03 0.  1.
         12    1    3    3    0    0 -0.18819235390E+01  0.36540590717E+01 -0.25651358349E+01  0.48449670543E+01  0.00000000000E+00 0. -1.
</event>
<event>
 7    1  0.4083500E-009  0.4778725E+02  0.7816164E-02  0.1312668E+00
        -11   -1    0    0    0    0  0.00000000000E+00  0.00000000000E+00  0.45593999997E+02  0.45594000000E+02  0.51100000000E-03 0.  1.
         11   -1    0    0    0    0 -0.00000000000E+00 -0.00000000000E+00 -0.45593999997E+02  0.45594000000E+02  0.51100000000E-03 0. -1.
    9900012    2    1    2    0    0  0.17990689591E+02  0.50654166197E+01 -0.39170166936E+02  0.47787247296E+02  0.19999891719E+02 0.  0.
        -12    1    1    2    0    0 -0.17990689591E+02 -0.50654166197E+01  0.39170166936E+02  0.43400752704E+02  0.00000000000E+00 0.  1.
         11    1    3    3    0    0  0.81234145280E+01  0.65401925504E+01 -0.11711836867E+02  0.15682190703E+02  0.51100000000E-03 0. -1.
        -11    1    3    3    0    0  0.14270707102E+01  0.24584074531E+01  0.26961099785E+00  0.28553438267E+01  0.51100000000E-03 0.  1.
         12    1    3    3    0    0  0.84402043528E+01 -0.39331833838E+01 -0.27727941067E+02  0.29249712766E+02  0.00000000000E+00 0. -1.
</event>
<event>
 7    1  0.4083500E-009  0.4778727E+02  0.7816164E-02  0.1312668E+00
        -11   -1    0    0    0    0  0.00000000000E+00  0.00000000000E+00  0.45593999997E+02  0.45594000000E+02  0.51100000000E-03 0. -1.
         11   -1    0    0    0    0 -0.00000000000E+00 -0.00000000000E+00 -0.45593999997E+02  0.45594000000E+02  0.51100000000E-03 0.  1.
    9900012    2    1    2    0    0 -0.30995500090E+02 -0.18400082766E+02 -0.24173107524E+02  0.47787271907E+02  0.20000003933E+02 0.  0.
        -12    1    1    2    0    0  0.30995500090E+02  0.18400082766E+02  0.24173107524E+02  0.43400728093E+02  0.00000000000E+00 0.  1.
         11    1    3    3    0    0 -0.12977106914E+02 -0.11245844759E+02 -0.86051166842E+01  0.19207351759E+02  0.51100000000E-03 0. -1.
        -11    1    3    3    0    0 -0.18816265258E+02 -0.41730912295E+01 -0.88933173750E+01  0.21226342663E+02  0.51100000000E-03 0.  1.
         12    1    3    3    0    0  0.79787208107E+00 -0.29811467771E+01 -0.66746734646E+01  0.73535774847E+01  0.00000000000E+00 0. -1.
</event>
<event>
 7    1  0.4083500E-009  0.4778727E+02  0.7816164E-02  0.1312668E+00
        -11   -1    0    0    0    0  0.00000000000E+00  0.00000000000E+00  0.45593999997E+02  0.45594000000E+02  0.51100000000E-03 0. -1.
         11   -1    0    0    0    0 -0.00000000000E+00 -0.00000000000E+00 -0.45593999997E+02  0.45594000000E+02  0.51100000000E-03 0.  1.
    9900012    2    1    2    0    0  0.29114316080E+02 -0.21585859900E+02  0.23875310783E+02  0.47787271741E+02  0.20000003176E+02 0.  0.
        -12    1    1    2    0    0 -0.29114316080E+02  0.21585859900E+02 -0.23875310783E+02  0.43400728259E+02  0.00000000000E+00 0.  1.
         11    1    3    3    0    0  0.95764074059E+01 -0.78505213901E+01  0.13036404517E+02  0.17980158728E+02  0.51100000000E-03 0. -1.
        -11    1    3    3    0    0  0.61042111345E+01 -0.12877115395E+02  0.65088800167E+01  0.15666748668E+02  0.51100000000E-03 0.  1.
         12    1    3    3    0    0  0.13433697540E+02 -0.85822311499E+00  0.43300262491E+01  0.14140364345E+02  0.00000000000E+00 0. -1.
</event>
<event>
 7    1  0.4083500E-009  0.4778727E+02  0.7816164E-02  0.1312668E+00
        -11   -1    0    0    0    0  0.00000000000E+00  0.00000000000E+00  0.45593999997E+02  0.45594000000E+02  0.51100000000E-03 0. -1.
         11   -1    0    0    0    0 -0.00000000000E+00 -0.00000000000E+00 -0.45593999997E+02  0.45594000000E+02  0.51100000000E-03 0.  1.
    9900012    2    1    2    0    0 -0.44811284332E+01 -0.11776099495E+02  0.41531505204E+02  0.47787274708E+02  0.20000016705E+02 0.  0.
        -12    1    1    2    0    0  0.44811284332E+01  0.11776099495E+02 -0.41531505204E+02  0.43400725292E+02  0.00000000000E+00 0.  1.
         11    1    3    3    0    0  0.41374432315E+01  0.27390681748E+00  0.19515505697E+02  0.19951150952E+02  0.51100000000E-03 0.  1.
        -11    1    3    3    0    0 -0.27842718545E+01 -0.39553898465E+01  0.14666348291E+02  0.15443414488E+02  0.51100000000E-03 0. -1.
        -12    1    3    3    0    0 -0.58342998102E+01 -0.80946164658E+01  0.73496512155E+01  0.12392709268E+02  0.00000000000E+00 0.  1.
</event>
<event>
 7    1  0.4083500E-009  0.4778726E+02  0.7816164E-02  0.1312668E+00
        -11   -1    0    0    0    0  0.00000000000E+00  0.00000000000E+00  0.45593999997E+02  0.45594000000E+02  0.51100000000E-03 0.  1.
         11   -1    0    0    0    0 -0.00000000000E+00 -0.00000000000E+00 -0.45593999997E+02  0.45594000000E+02  0.51100000000E-03 0. -1.
    9900012    2    1    2    0    0  0.17132276058E+02 -0.77614940698E+01 -0.39113536283E+02  0.47787258143E+02  0.19999941179E+02 0.  0.
        -12    1    1    2    0    0 -0.17132276058E+02  0.77614940698E+01  0.39113536283E+02  0.43400741857E+02  0.00000000000E+00 0.  1.
         11    1    3    3    0    0  0.13916976200E+02 -0.48431319969E+01 -0.16209686459E+02  0.21906439451E+02  0.51100000000E-03 0. -1.
        -11    1    3    3    0    0  0.24283254213E+01  0.37376756891E+01 -0.46771465717E+01  0.64608578550E+01  0.51100000000E-03 0.  1.
         12    1    3    3    0    0  0.78697443761E+00 -0.66560377621E+01 -0.18226703252E+02  0.19419960837E+02  0.00000000000E+00 0. -1.
</event>
<event>
 7    1  0.4083500E-009  0.4778727E+02  0.7816164E-02  0.1312668E+00
        -11   -1    0    0    0    0  0.00000000000E+00  0.00000000000E+00  0.45593999997E+02  0.45594000000E+02  0.51100000000E-03 0. -1.
         11   -1    0    0    0    0 -0.00000000000E+00 -0.00000000000E+00 -0.45593999997E+02  0.45594000000E+02  0.51100000000E-03 0.  1.
    9900012    2    1    2    0    0 -0.22397234081E+02 -0.36030023939E+02  0.91555869078E+01  0.47787268541E+02  0.19999988586E+02 0.  0.
        -12    1    1    2    0    0  0.22397234081E+02  0.36030023939E+02 -0.91555869078E+01  0.43400731459E+02  0.00000000000E+00 0.  1.
         11    1    3    3    0    0 -0.34106761545E+01 -0.17488903384E+02 -0.28444289691E+01  0.18043980432E+02  0.51100000000E-03 0.  1.
        -11    1    3    3    0    0 -0.16799138441E+00 -0.24475126584E+01  0.11083140021E+01  0.26920065948E+01  0.51100000000E-03 0. -1.
         12    1    3    3    0    0 -0.18818566542E+02 -0.16093607897E+02  0.10891701875E+02  0.27051281515E+02  0.00000000000E+00 0. -1.
</event>
<event>
 7    1  0.4083500E-009  0.4778727E+02  0.7816164E-02  0.1312668E+00
        -11   -1    0    0    0    0  0.00000000000E+00  0.00000000000E+00  0.45593999997E+02  0.45594000000E+02  0.51100000000E-03 0.  1.
         11   -1    0    0    0    0 -0.00000000000E+00 -0.00000000000E+00 -0.45593999997E+02  0.45594000000E+02  0.51100000000E-03 0. -1.
    9900012    2    1    2    0    0  0.43601045241E+01  0.71015131479E+01 -0.42593206365E+02  0.47787271563E+02  0.20000002363E+02 0.  0.
        -12    1    1    2    0    0 -0.43601045241E+01 -0.71015131479E+01  0.42593206365E+02  0.43400728437E+02  0.00000000000E+00 0.  1.
         11    1    3    3    0    0 -0.66327897629E+00  0.40757432539E+01 -0.17296985195E+01  0.44769944496E+01  0.51100000000E-03 0.  1.
        -11    1    3    3    0    0 -0.43707339231E+01 -0.15608054527E+00 -0.14382829036E+02  0.15033078444E+02  0.51100000000E-03 0. -1.
         12    1    3    3    0    0  0.93941174235E+01  0.31818504393E+01 -0.26480678810E+02  0.28277198670E+02  0.00000000000E+00 0. -1.
</event>
<event>
 7    1  0.4083500E-009  0.4778728E+02  0.7816164E-02  0.1312668E+00
        -11   -1    0    0    0    0  0.00000000000E+00  0.00000000000E+00  0.45593999997E+02  0.45594000000E+02  0.51100000000E-03 0.  1.
         11   -1    0    0    0    0 -0.00000000000E+00 -0.00000000000E+00 -0.45593999997E+02  0.45594000000E+02  0.51100000000E-03 0. -1.
    9900012    2    1    2    0    0  0.30428423712E+02 -0.31152931344E+01 -0.30790075920E+02  0.47787276549E+02  0.20000025098E+02 0.  0.
        -12    1    1    2    0    0 -0.30428423712E+02  0.31152931344E+01  0.30790075920E+02  0.43400723451E+02  0.00000000000E+00 0.  1.
         11    1    3    3    0    0  0.12346586284E+01 -0.12392189020E+01 -0.14443927914E+01  0.22685493631E+01  0.51100000000E-03 0. -1.
        -11    1    3    3    0    0  0.13211935051E+02  0.46522339333E+01 -0.35002632777E+01  0.14437809794E+02  0.51100000000E-03 0.  1.
         12    1    3    3    0    0  0.15981830033E+02 -0.65283081658E+01 -0.25845419851E+02  0.31080917392E+02  0.00000000000E+00 0. -1.
</event>
<event>
 7    1  0.4083500E-009  0.4778727E+02  0.7816164E-02  0.1312668E+00
        -11   -1    0    0    0    0  0.00000000000E+00  0.00000000000E+00  0.45593999997E+02  0.45594000000E+02  0.51100000000E-03 0.  1.
         11   -1    0    0    0    0 -0.00000000000E+00 -0.00000000000E+00 -0.45593999997E+02  0.45594000000E+02  0.51100000000E-03 0. -1.
    9900012    2    1    2    0    0  0.14365057984E+02 -0.41370089000E+01 -0.40744980324E+02  0.47787272412E+02  0.20000006237E+02 0.  0.
        -12    1    1    2    0    0 -0.14365057984E+02  0.41370089000E+01  0.40744980324E+02  0.43400727588E+02  0.00000000000E+00 0.  1.
         11    1    3    3    0    0  0.40814627813E+01 -0.57954910533E+01 -0.15829141358E+02  0.17343810752E+02  0.51100000000E-03 0. -1.
        -11    1    3    3    0    0  0.12890462614E+02 -0.24525704395E-03 -0.23962896708E+02  0.27210006347E+02  0.51100000000E-03 0.  1.
        -12    1    3    3    0    0 -0.26068674114E+01  0.16587274104E+01 -0.95294225718E+00  0.32334553140E+01  0.00000000000E+00 0.  1.
</event>
<event>
 7    1  0.4083500E-009  0.4778727E+02  0.7816164E-02  0.1312668E+00
        -11   -1    0    0    0    0  0.00000000000E+00  0.00000000000E+00  0.45593999997E+02  0.45594000000E+02  0.51100000000E-03 0.  1.
         11   -1    0    0    0    0 -0.00000000000E+00 -0.00000000000E+00 -0.45593999997E+02  0.45594000000E+02  0.51100000000E-03 0. -1.
    9900012    2    1    2    0    0 -0.37288475571E+02 -0.41165768659E+01 -0.21823074067E+02  0.47787272158E+02  0.20000005076E+02 0.  0.
        -12    1    1    2    0    0  0.37288475571E+02  0.41165768659E+01  0.21823074067E+02  0.43400727842E+02  0.00000000000E+00 0.  1.
         11    1    3    3    0    0  0.53363906492E-01 -0.20489679309E+01 -0.11515475549E+01  0.23509953893E+01  0.51100000000E-03 0. -1.
        -11    1    3    3    0    0 -0.21109307567E+01  0.33326972373E+01 -0.53330669822E+01  0.66335890160E+01  0.51100000000E-03 0.  1.
         12    1    3    3    0    0 -0.35230908721E+02 -0.54003061723E+01 -0.15338459530E+02  0.38802687752E+02  0.00000000000E+00 0. -1.
</event>
<event>
 7    1  0.4083500E-009  0.4778728E+02  0.7816164E-02  0.1312668E+00
        -11   -1    0    0    0    0  0.00000000000E+00  0.00000000000E+00  0.45593999997E+02  0.45594000000E+02  0.51100000000E-03 0.  1.
         11   -1    0    0    0    0 -0.00000000000E+00 -0.00000000000E+00 -0.45593999997E+02  0.45594000000E+02  0.51100000000E-03 0. -1.
    9900012    2    1    2    0    0  0.34336447956E+02  0.31134139150E+01 -0.26361663935E+02  0.47787281920E+02  0.20000049584E+02 0.  0.
        -12    1    1    2    0    0 -0.34336447956E+02 -0.31134139150E+01  0.26361663935E+02  0.43400718080E+02  0.00000000000E+00 0.  1.
         11    1    3    3    0    0  0.22642178500E+02  0.26996546960E+01 -0.92550976997E+01  0.24609209991E+02  0.51100000000E-03 0. -1.
        -11    1    3    3    0    0  0.12591079313E+02  0.27518740497E+01 -0.12609291675E+02  0.18030594163E+02  0.51100000000E-03 0.  1.
        -12    1    3    3    0    0 -0.89680985621E+00 -0.23381148307E+01 -0.44972745601E+01  0.51474777658E+01  0.00000000000E+00 0.  1.
</event>
<event>
 7    1  0.4083500E-009  0.4778727E+02  0.7816164E-02  0.1312668E+00
        -11   -1    0    0    0    0  0.00000000000E+00  0.00000000000E+00  0.45593999997E+02  0.45594000000E+02  0.51100000000E-03 0.  1.
         11   -1    0    0    0    0 -0.00000000000E+00 -0.00000000000E+00 -0.45593999997E+02  0.45594000000E+02  0.51100000000E-03 0. -1.
    9900012    2    1    2    0    0  0.37968520450E+02  0.20473742795E+02 -0.47791760227E+01  0.47787271750E+02  0.20000003215E+02 0.  0.
        -12    1    1    2    0    0 -0.37968520450E+02 -0.20473742795E+02  0.47791760227E+01  0.43400728250E+02  0.00000000000E+00 0.  1.
         11    1    3    3    0    0  0.17345665416E+02  0.10406657999E+02 -0.44455533826E+01  0.20710711832E+02  0.51100000000E-03 0. -1.
        -11    1    3    3    0    0  0.11038558415E+02 -0.13641933190E+01  0.35255609942E+01  0.11667920804E+02  0.51100000000E-03 0.  1.
         12    1    3    3    0    0  0.95842966189E+01  0.11431278115E+02 -0.38591836343E+01  0.15408639114E+02  0.00000000000E+00 0. -1.
</event>
<event>
 7    1  0.4083500E-009  0.4778727E+02  0.7816164E-02  0.1312668E+00
        -11   -1    0    0    0    0  0.00000000000E+00  0.00000000000E+00  0.45593999997E+02  0.45594000000E+02  0.51100000000E-03 0.  1.
         11   -1    0    0    0    0 -0.00000000000E+00 -0.00000000000E+00 -0.45593999997E+02  0.45594000000E+02  0.51100000000E-03 0. -1.
    9900012    2    1    2    0    0  0.22854553405E+02 -0.13782441940E+02 -0.34224797198E+02  0.47787273503E+02  0.20000011212E+02 0.  0.
        -12    1    1    2    0    0 -0.22854553405E+02  0.13782441940E+02  0.34224797198E+02  0.43400726497E+02  0.00000000000E+00 0.  1.
         11    1    3    3    0    0 -0.22667148948E+00 -0.67020037987E+01 -0.81458178877E+01  0.10550951815E+02  0.51100000000E-03 0. -1.
        -11    1    3    3    0    0  0.20809991313E+01  0.26986638231E+01 -0.36000233269E+01  0.49571677428E+01  0.51100000000E-03 0.  1.
         12    1    3    3    0    0  0.21000225763E+02 -0.97791019641E+01 -0.22478955984E+02  0.32279153946E+02  0.00000000000E+00 0. -1.
</event>
<event>
 7    1  0.4083500E-009  0.4778727E+02  0.7816164E-02  0.1312668E+00
        -11   -1    0    0    0    0  0.00000000000E+00  0.00000000000E+00  0.45593999997E+02  0.45594000000E+02  0.51100000000E-03 0.  1.
         11   -1    0    0    0    0 -0.00000000000E+00 -0.00000000000E+00 -0.45593999997E+02  0.45594000000E+02  0.51100000000E-03 0. -1.
    9900012    2    1    2    0    0 -0.35520809863E+02 -0.21605547683E+02 -0.12453756261E+02  0.47787266493E+02  0.19999979246E+02 0.  0.
        -12    1    1    2    0    0  0.35520809863E+02  0.21605547683E+02  0.12453756261E+02  0.43400733507E+02  0.00000000000E+00 0.  1.
         11    1    3    3    0    0 -0.38898714388E+01 -0.77268456340E+01 -0.53456407409E+01  0.10169125747E+02  0.51100000000E-03 0. -1.
        -11    1    3    3    0    0 -0.17248720513E+02 -0.55550432559E+01  0.27016114961E+01  0.18321451085E+02  0.51100000000E-03 0.  1.
         12    1    3    3    0    0 -0.14382217911E+02 -0.83236587926E+01 -0.98097270163E+01  0.19296689661E+02  0.00000000000E+00 0. -1.
</event>
<event>
 7    1  0.4083500E-009  0.4778727E+02  0.7816164E-02  0.1312668E+00
        -11   -1    0    0    0    0  0.00000000000E+00  0.00000000000E+00  0.45593999997E+02  0.45594000000E+02  0.51100000000E-03 0.  1.
         11   -1    0    0    0    0 -0.00000000000E+00 -0.00000000000E+00 -0.45593999997E+02  0.45594000000E+02  0.51100000000E-03 0. -1.
    9900012    2    1    2    0    0 -0.39194837026E+02 -0.17886108267E+02  0.52416925316E+01  0.47787268912E+02  0.19999990275E+02 0.  0.
        -12    1    1    2    0    0  0.39194837026E+02  0.17886108267E+02 -0.52416925316E+01  0.43400731088E+02  0.00000000000E+00 0.  1.
         11    1    3    3    0    0 -0.39647844231E-01 -0.31513853938E+01  0.80444101996E+00  0.32526800438E+01  0.51100000000E-03 0.  1.
        -11    1    3    3    0    0 -0.29418334033E+02 -0.42025112985E+01  0.52105310160E+01  0.30170334970E+02  0.51100000000E-03 0. -1.
         12    1    3    3    0    0 -0.97368551486E+01 -0.10532211574E+02 -0.77327950438E+00  0.14364253897E+02  0.00000000000E+00 0. -1.
</event>
<event>
 7    1  0.4083500E-009  0.4778727E+02  0.7816164E-02  0.1312668E+00
        -11   -1    0    0    0    0  0.00000000000E+00  0.00000000000E+00  0.45593999997E+02  0.45594000000E+02  0.51100000000E-03 0. -1.
         11   -1    0    0    0    0 -0.00000000000E+00 -0.00000000000E+00 -0.45593999997E+02  0.45594000000E+02  0.51100000000E-03 0.  1.
    9900012    2    1    2    0    0  0.23998082834E+02  0.31733077875E+02 -0.17341480722E+02  0.47787272301E+02  0.20000005730E+02 0.  0.
        -12    1    1    2    0    0 -0.23998082834E+02 -0.31733077875E+02  0.17341480722E+02  0.43400727699E+02  0.00000000000E+00 0.  1.
         11    1    3    3    0    0  0.11656542699E+02  0.14802894145E+02  0.58470101299E+00  0.18850531512E+02  0.51100000000E-03 0. -1.
        -11    1    3    3    0    0  0.29536236277E+01  0.58289811357E+01 -0.97836434375E+00  0.66074284457E+01  0.51100000000E-03 0.  1.
        -12    1    3    3    0    0  0.93879165068E+01  0.11101202595E+02 -0.16947817391E+02  0.22329312343E+02  0.00000000000E+00 0.  1.
</event>
<event>
 7    1  0.4083500E-009  0.4778730E+02  0.7816164E-02  0.1312668E+00
        -11   -1    0    0    0    0  0.00000000000E+00  0.00000000000E+00  0.45593999997E+02  0.45594000000E+02  0.51100000000E-03 0.  1.
         11   -1    0    0    0    0 -0.00000000000E+00 -0.00000000000E+00 -0.45593999997E+02  0.45594000000E+02  0.51100000000E-03 0. -1.
    9900012    2    1    2    0    0 -0.13853648707E+02  0.10818720078E+02 -0.39681892848E+02  0.47787298316E+02  0.20000124342E+02 0.  0.
        -12    1    1    2    0    0  0.13853648707E+02 -0.10818720078E+02  0.39681892848E+02  0.43400701684E+02  0.00000000000E+00 0.  1.
         11    1    3    3    0    0 -0.15255704409E+02  0.94938197232E+01 -0.31094182222E+02  0.35912634243E+02  0.51100000000E-03 0. -1.
        -11    1    3    3    0    0 -0.20946676995E+01 -0.70468882446E+00 -0.73065558051E+01  0.76334773927E+01  0.51100000000E-03 0.  1.
        -12    1    3    3    0    0  0.34967234014E+01  0.20295891795E+01 -0.12811548215E+01  0.42411866806E+01  0.00000000000E+00 0.  1.
</event>
<event>
 7    1  0.4083500E-009  0.4778727E+02  0.7816164E-02  0.1312668E+00
        -11   -1    0    0    0    0  0.00000000000E+00  0.00000000000E+00  0.45593999997E+02  0.45594000000E+02  0.51100000000E-03 0.  1.
         11   -1    0    0    0    0 -0.00000000000E+00 -0.00000000000E+00 -0.45593999997E+02  0.45594000000E+02  0.51100000000E-03 0. -1.
    9900012    2    1    2    0    0  0.27997916660E+02  0.12612788316E+02  0.30670141814E+02  0.47787269991E+02  0.19999995198E+02 0.  0.
        -12    1    1    2    0    0 -0.27997916660E+02 -0.12612788316E+02 -0.30670141814E+02  0.43400730009E+02  0.00000000000E+00 0.  1.
         11    1    3    3    0    0 -0.38034210164E+00 -0.38283895300E+00 -0.14725858570E+01  0.15683542793E+01  0.51100000000E-03 0.  1.
        -11    1    3    3    0    0  0.88927662826E+01  0.95595311601E-01  0.43280259868E+01  0.98905126168E+01  0.51100000000E-03 0. -1.
        -12    1    3    3    0    0  0.19485492479E+02  0.12900031957E+02  0.27814701684E+02  0.36328403095E+02  0.00000000000E+00 0.  1.
</event>
<event>
 7    1  0.4083500E-009  0.4778725E+02  0.7816164E-02  0.1312668E+00
        -11   -1    0    0    0    0  0.00000000000E+00  0.00000000000E+00  0.45593999997E+02  0.45594000000E+02  0.51100000000E-03 0.  1.
         11   -1    0    0    0    0 -0.00000000000E+00 -0.00000000000E+00 -0.45593999997E+02  0.45594000000E+02  0.51100000000E-03 0. -1.
    9900012    2    1    2    0    0 -0.94440587453E+01 -0.15802146390E+02 -0.39303015894E+02  0.47787249609E+02  0.19999902267E+02 0.  0.
        -12    1    1    2    0    0  0.94440587453E+01  0.15802146390E+02  0.39303015894E+02  0.43400750391E+02  0.00000000000E+00 0.  1.
         11    1    3    3    0    0 -0.92953533744E-01 -0.31844427645E+01 -0.10384639062E+02  0.10862322256E+02  0.51100000000E-03 0. -1.
        -11    1    3    3    0    0  0.23060437549E+01 -0.21631722101E+01 -0.16880488046E+02  0.17174051029E+02  0.51100000000E-03 0.  1.
         12    1    3    3    0    0 -0.11657148966E+02 -0.10454531416E+02 -0.12037888786E+02  0.19750876324E+02  0.00000000000E+00 0. -1.
</event>
<event>
 7    1  0.5851655E-009  0.4778727E+02  0.7816164E-02  0.1312668E+00
        -11   -1    0    0    0    0  0.00000000000E+00  0.00000000000E+00  0.45593999997E+02  0.45594000000E+02  0.51100000000E-03 0. -1.
         11   -1    0    0    0    0 -0.00000000000E+00 -0.00000000000E+00 -0.45593999997E+02  0.45594000000E+02  0.51100000000E-03 0.  1.
    9900012    2    1    2    0    0  0.35324566398E+02  0.25147640103E+02  0.18425419170E+01  0.47787265505E+02  0.19999974745E+02 0.  0.
        -12    1    1    2    0    0 -0.35324566398E+02 -0.25147640103E+02 -0.18425419170E+01  0.43400734495E+02  0.00000000000E+00 0.  1.
         11    1    3    3    0    0  0.18785851169E+02  0.74925933868E+01 -0.77109280221E-01  0.20225061332E+02  0.51100000000E-03 0. -1.
        -11    1    3    3    0    0  0.34603006097E+00 -0.17908167788E+01 -0.10153877861E+01  0.20875282407E+01  0.51100000000E-03 0.  1.
         12    1    3    3    0    0  0.16192685168E+02  0.19445863495E+02  0.29350389833E+01  0.25474675933E+02  0.00000000000E+00 0. -1.
</event>
<event>
 7    1  0.4083500E-009  0.4778727E+02  0.7816164E-02  0.1312668E+00
        -11   -1    0    0    0    0  0.00000000000E+00  0.00000000000E+00  0.45593999997E+02  0.45594000000E+02  0.51100000000E-03 0.  1.
         11   -1    0    0    0    0 -0.00000000000E+00 -0.00000000000E+00 -0.45593999997E+02  0.45594000000E+02  0.51100000000E-03 0. -1.
    9900012    2    1    2    0    0  0.27021351704E+02 -0.65487332661E+01 -0.33325423833E+02  0.47787271562E+02  0.20000002359E+02 0.  0.
        -12    1    1    2    0    0 -0.27021351704E+02  0.65487332661E+01  0.33325423833E+02  0.43400728438E+02  0.00000000000E+00 0.  1.
         11    1    3    3    0    0  0.24700646873E+01 -0.59638854123E+01 -0.63245167576E+01  0.90370714974E+01  0.51100000000E-03 0. -1.
        -11    1    3    3    0    0  0.13251001881E+02 -0.32348065643E+01 -0.63162621306E+01  0.15031573169E+02  0.51100000000E-03 0.  1.
        -12    1    3    3    0    0  0.11300285136E+02  0.26499587105E+01 -0.20684644945E+02  0.23718626895E+02  0.00000000000E+00 0.  1.
</event>
<event>
 7    1  0.4083500E-009  0.4778728E+02  0.7816164E-02  0.1312668E+00
        -11   -1    0    0    0    0  0.00000000000E+00  0.00000000000E+00  0.45593999997E+02  0.45594000000E+02  0.51100000000E-03 0.  1.
         11   -1    0    0    0    0 -0.00000000000E+00 -0.00000000000E+00 -0.45593999997E+02  0.45594000000E+02  0.51100000000E-03 0. -1.
    9900012    2    1    2    0    0  0.16601660109E+01 -0.17885183509E+02 -0.39509318170E+02  0.47787283847E+02  0.20000058373E+02 0.  0.
        -12    1    1    2    0    0 -0.16601660109E+01  0.17885183509E+02  0.39509318170E+02  0.43400716153E+02  0.00000000000E+00 0.  1.
         11    1    3    3    0    0  0.18604092887E+01 -0.14005181051E+02 -0.29530199178E+02  0.32735895936E+02  0.51100000000E-03 0. -1.
        -11    1    3    3    0    0 -0.47171446413E+01 -0.28975293718E+01 -0.85995777462E+01  0.10227407673E+02  0.51100000000E-03 0.  1.
        -12    1    3    3    0    0  0.45169013635E+01 -0.98247308638E+00 -0.13795412453E+01  0.48239802384E+01  0.00000000000E+00 0.  1.
</event>
<event>
 7    1  0.4083500E-009  0.4778727E+02  0.7816164E-02  0.1312668E+00
        -11   -1    0    0    0    0  0.00000000000E+00  0.00000000000E+00  0.45593999997E+02  0.45594000000E+02  0.51100000000E-03 0. -1.
         11   -1    0    0    0    0 -0.00000000000E+00 -0.00000000000E+00 -0.45593999997E+02  0.45594000000E+02  0.51100000000E-03 0.  1.
    9900012    2    1    2    0    0  0.53275336446E+01  0.21259182344E+02  0.37460489439E+02  0.47787265932E+02  0.19999976688E+02 0.  0.
        -12    1    1    2    0    0 -0.53275336446E+01 -0.21259182344E+02 -0.37460489439E+02  0.43400734068E+02  0.00000000000E+00 0.  1.
         11    1    3    3    0    0 -0.18052237118E+01  0.20873418941E+00  0.38135665722E+00  0.18568348803E+01  0.51100000000E-03 0. -1.
        -11    1    3    3    0    0  0.93879078033E+01  0.17657207674E+02  0.36755296390E+02  0.41843298254E+02  0.51100000000E-03 0.  1.
        -12    1    3    3    0    0 -0.22551504469E+01  0.33932404806E+01  0.32383639198E+00  0.40871327977E+01  0.00000000000E+00 0.  1.
</event>
<event>
 7    1  0.4083500E-009  0.4778727E+02  0.7816164E-02  0.1312668E+00
        -11   -1    0    0    0    0  0.00000000000E+00  0.00000000000E+00  0.45593999997E+02  0.45594000000E+02  0.51100000000E-03 0.  1.
         11   -1    0    0    0    0 -0.00000000000E+00 -0.00000000000E+00 -0.45593999997E+02  0.45594000000E+02  0.51100000000E-03 0. -1.
    9900012    2    1    2    0    0  0.11059159278E+02 -0.17564770029E+02 -0.38115575894E+02  0.47787271022E+02  0.19999999896E+02 0.  0.
        -12    1    1    2    0    0 -0.11059159278E+02  0.17564770029E+02  0.38115575894E+02  0.43400728978E+02  0.00000000000E+00 0.  1.
         11    1    3    3    0    0  0.18054959014E+01 -0.78526814076E+01 -0.43746059100E+01  0.91685112133E+01  0.51100000000E-03 0. -1.
        -11    1    3    3    0    0 -0.22326805477E+01  0.14417966672E+01 -0.64790490819E+01  0.70029791749E+01  0.51100000000E-03 0.  1.
         12    1    3    3    0    0  0.11486343925E+02 -0.11153885289E+02 -0.27261920902E+02  0.31615780634E+02  0.00000000000E+00 0. -1.
</event>
<event>
 7    1  0.4083500E-009  0.4778727E+02  0.7816164E-02  0.1312668E+00
        -11   -1    0    0    0    0  0.00000000000E+00  0.00000000000E+00  0.45593999997E+02  0.45594000000E+02  0.51100000000E-03 0.  1.
         11   -1    0    0    0    0 -0.00000000000E+00 -0.00000000000E+00 -0.45593999997E+02  0.45594000000E+02  0.51100000000E-03 0. -1.
    9900012    2    1    2    0    0  0.42079645472E+02 -0.91917859437E+01  0.53327139785E+01  0.47787270394E+02  0.19999997037E+02 0.  0.
        -12    1    1    2    0    0 -0.42079645472E+02  0.91917859437E+01 -0.53327139785E+01  0.43400729606E+02  0.00000000000E+00 0.  1.
         11    1    3    3    0    0 -0.16986420382E+00 -0.80624150862E+00 -0.10642818869E+01  0.13459477753E+01  0.51100000000E-03 0.  1.
        -11    1    3    3    0    0  0.25596779912E+01  0.11638209371E+01 -0.34473349304E+01  0.44486569857E+01  0.51100000000E-03 0. -1.
         12    1    3    3    0    0  0.39689831685E+02 -0.95493653722E+01  0.98443307958E+01  0.41992665634E+02  0.00000000000E+00 0. -1.
</event>
<event>
 7    1  0.4083500E-009  0.4778728E+02  0.7816164E-02  0.1312668E+00
        -11   -1    0    0    0    0  0.00000000000E+00  0.00000000000E+00  0.45593999997E+02  0.45594000000E+02  0.51100000000E-03 0. -1.
         11   -1    0    0    0    0 -0.00000000000E+00 -0.00000000000E+00 -0.45593999997E+02  0.45594000000E+02  0.51100000000E-03 0.  1.
    9900012    2    1    2    0    0  0.33515222685E+02  0.25162503059E+02  0.11278316575E+02  0.47787284146E+02  0.20000059737E+02 0.  0.
        -12    1    1    2    0    0 -0.33515222685E+02 -0.25162503059E+02 -0.11278316575E+02  0.43400715854E+02  0.00000000000E+00 0.  1.
         11    1    3    3    0    0  0.14389145460E+02  0.19550587566E+02  0.64375796900E+01  0.25114048136E+02  0.51100000000E-03 0. -1.
        -11    1    3    3    0    0  0.16006486869E+01 -0.16115433178E+01  0.28038167099E+01  0.36083980501E+01  0.51100000000E-03 0.  1.
        -12    1    3    3    0    0  0.17525428539E+02  0.72234588101E+01  0.20369201757E+01  0.19064837960E+02  0.00000000000E+00 0.  1.
</event>
<event>
 7    1  0.4083500E-009  0.4778727E+02  0.7816164E-02  0.1312668E+00
        -11   -1    0    0    0    0  0.00000000000E+00  0.00000000000E+00  0.45593999997E+02  0.45594000000E+02  0.51100000000E-03 0.  1.
         11   -1    0    0    0    0 -0.00000000000E+00 -0.00000000000E+00 -0.45593999997E+02  0.45594000000E+02  0.51100000000E-03 0. -1.
    9900012    2    1    2    0    0 -0.26555414956E+02 -0.33828362358E+02 -0.58374100203E+01  0.47787268220E+02  0.19999987121E+02 0.  0.
        -12    1    1    2    0    0  0.26555414956E+02  0.33828362358E+02  0.58374100203E+01  0.43400731780E+02  0.00000000000E+00 0.  1.
         11    1    3    3    0    0 -0.35094540798E+01 -0.39468507682E+01 -0.61131014643E+01  0.80786080916E+01  0.51100000000E-03 0. -1.
        -11    1    3    3    0    0 -0.80957161668E+01 -0.69752313583E+01  0.52507836783E+01  0.11906519317E+02  0.51100000000E-03 0.  1.
         12    1    3    3    0    0 -0.14950244710E+02 -0.22906280232E+02 -0.49750922344E+01  0.27802140811E+02  0.00000000000E+00 0. -1.
</event>
<event>
 7    1  0.4083500E-009  0.4778728E+02  0.7816164E-02  0.1312668E+00
        -11   -1    0    0    0    0  0.00000000000E+00  0.00000000000E+00  0.45593999997E+02  0.45594000000E+02  0.51100000000E-03 0.  1.
         11   -1    0    0    0    0 -0.00000000000E+00 -0.00000000000E+00 -0.45593999997E+02  0.45594000000E+02  0.51100000000E-03 0. -1.
    9900012    2    1    2    0    0 -0.18071375971E+01 -0.26107005788E+02 -0.34623422176E+02  0.47787275804E+02  0.20000021702E+02 0.  0.
        -12    1    1    2    0    0  0.18071375971E+01  0.26107005788E+02  0.34623422176E+02  0.43400724196E+02  0.00000000000E+00 0.  1.
         11    1    3    3    0    0 -0.21971346093E+01 -0.10739428532E+02 -0.20081909863E+02  0.22878938561E+02  0.51100000000E-03 0. -1.
        -11    1    3    3    0    0  0.29475812588E+01 -0.12080902621E+01 -0.89006126486E+01  0.94534979315E+01  0.51100000000E-03 0.  1.
        -12    1    3    3    0    0 -0.25575842466E+01 -0.14159486994E+02 -0.56408996645E+01  0.15454839311E+02  0.00000000000E+00 0.  1.
</event>
<event>
 7    1  0.4083500E-009  0.4778727E+02  0.7816164E-02  0.1312668E+00
        -11   -1    0    0    0    0  0.00000000000E+00  0.00000000000E+00  0.45593999997E+02  0.45594000000E+02  0.51100000000E-03 0.  1.
         11   -1    0    0    0    0 -0.00000000000E+00 -0.00000000000E+00 -0.45593999997E+02  0.45594000000E+02  0.51100000000E-03 0. -1.
    9900012    2    1    2    0    0  0.87123554223E+01 -0.35596387885E+01 -0.42367996410E+02  0.47787270915E+02  0.19999999412E+02 0.  0.
        -12    1    1    2    0    0 -0.87123554223E+01  0.35596387885E+01  0.42367996410E+02  0.43400729085E+02  0.00000000000E+00 0.  1.
         11    1    3    3    0    0 -0.16389635433E+01  0.28556178744E+01 -0.33127395641E+01  0.46706529117E+01  0.51100000000E-03 0.  1.
        -11    1    3    3    0    0  0.51918849143E+01 -0.41165533524E+01 -0.36174067143E+02  0.36775872721E+02  0.51100000000E-03 0. -1.
         12    1    3    3    0    0  0.51594340512E+01 -0.22987033105E+01 -0.28811897024E+01  0.63407452827E+01  0.00000000000E+00 0. -1.
</event>
<event>
 7    1  0.4083500E-009  0.4778727E+02  0.7816164E-02  0.1312668E+00
        -11   -1    0    0    0    0  0.00000000000E+00  0.00000000000E+00  0.45593999997E+02  0.45594000000E+02  0.51100000000E-03 0. -1.
         11   -1    0    0    0    0 -0.00000000000E+00 -0.00000000000E+00 -0.45593999997E+02  0.45594000000E+02  0.51100000000E-03 0.  1.
    9900012    2    1    2    0    0 -0.14827609962E+02 -0.40679766220E+02  0.29869099896E+01  0.47787273875E+02  0.20000012906E+02 0.  0.
        -12    1    1    2    0    0  0.14827609962E+02  0.40679766220E+02 -0.29869099896E+01  0.43400726125E+02  0.00000000000E+00 0.  1.
         11    1    3    3    0    0 -0.53163895542E+01 -0.12666721152E+02 -0.64328492244E+01  0.15168763035E+02  0.51100000000E-03 0. -1.
        -11    1    3    3    0    0  0.50203023654E+00 -0.12727815526E+02  0.19875311953E+01  0.12891842496E+02  0.51100000000E-03 0.  1.
         12    1    3    3    0    0 -0.10013250644E+02 -0.15285229542E+02  0.74322280187E+01  0.19726668344E+02  0.00000000000E+00 0. -1.
</event>
<event>
 7    1  0.4083500E-009  0.4778727E+02  0.7816164E-02  0.1312668E+00
        -11   -1    0    0    0    0  0.00000000000E+00  0.00000000000E+00  0.45593999997E+02  0.45594000000E+02  0.51100000000E-03 0.  1.
         11   -1    0    0    0    0 -0.00000000000E+00 -0.00000000000E+00 -0.45593999997E+02  0.45594000000E+02  0.51100000000E-03 0. -1.
    9900012    2    1    2    0    0  0.37177499113E+02  0.22101872791E+02  0.36005429330E+01  0.47787272695E+02  0.20000007525E+02 0.  0.
        -12    1    1    2    0    0 -0.37177499113E+02 -0.22101872791E+02 -0.36005429330E+01  0.43400727305E+02  0.00000000000E+00 0.  1.
         11    1    3    3    0    0  0.23748285400E+02  0.12031314446E+02  0.80770959362E+01  0.27820371416E+02  0.51100000000E-03 0. -1.
        -11    1    3    3    0    0  0.84434933064E+00  0.13564353325E+01  0.26402310855E+01  0.30860432675E+01  0.51100000000E-03 0.  1.
        -12    1    3    3    0    0  0.12584864383E+02  0.87141230132E+01 -0.71167840886E+01  0.16880858011E+02  0.00000000000E+00 0.  1.
</event>
<event>
 7    1  0.4083500E-009  0.4778727E+02  0.7816164E-02  0.1312668E+00
        -11   -1    0    0    0    0  0.00000000000E+00  0.00000000000E+00  0.45593999997E+02  0.45594000000E+02  0.51100000000E-03 0. -1.
         11   -1    0    0    0    0 -0.00000000000E+00 -0.00000000000E+00 -0.45593999997E+02  0.45594000000E+02  0.51100000000E-03 0.  1.
    9900012    2    1    2    0    0 -0.32177437998E+02  0.29055926194E+02  0.19972546179E+01  0.47787269717E+02  0.19999993946E+02 0.  0.
        -12    1    1    2    0    0  0.32177437998E+02 -0.29055926194E+02 -0.19972546179E+01  0.43400730283E+02  0.00000000000E+00 0.  1.
         11    1    3    3    0    0 -0.21897849281E+02  0.23040709635E+02  0.73640033008E-01  0.31786719345E+02  0.51100000000E-03 0. -1.
        -11    1    3    3    0    0 -0.21174345557E+01  0.60098890052E+01 -0.23447415643E+01  0.67897060479E+01  0.51100000000E-03 0.  1.
        -12    1    3    3    0    0 -0.81621541616E+01  0.53275540254E-02  0.42683561492E+01  0.92108443238E+01  0.00000000000E+00 0.  1.
</event>
<event>
 7    1  0.4083500E-009  0.4778727E+02  0.7816164E-02  0.1312668E+00
        -11   -1    0    0    0    0  0.00000000000E+00  0.00000000000E+00  0.45593999997E+02  0.45594000000E+02  0.51100000000E-03 0.  1.
         11   -1    0    0    0    0 -0.00000000000E+00 -0.00000000000E+00 -0.45593999997E+02  0.45594000000E+02  0.51100000000E-03 0. -1.
    9900012    2    1    2    0    0 -0.83680325446E+00 -0.41578896058E+02 -0.12414456163E+02  0.47787267760E+02  0.19999985027E+02 0.  0.
        -12    1    1    2    0    0  0.83680325446E+00  0.41578896058E+02  0.12414456163E+02  0.43400732240E+02  0.00000000000E+00 0.  1.
         11    1    3    3    0    0  0.34453004788E+01 -0.46405284756E+01  0.12922090626E+01  0.59223647680E+01  0.51100000000E-03 0. -1.
        -11    1    3    3    0    0  0.39141092886E+01 -0.65213310634E+01 -0.25204143016E+00  0.76099629109E+01  0.51100000000E-03 0.  1.
         12    1    3    3    0    0 -0.81962130219E+01 -0.30417036519E+02 -0.13454623796E+02  0.34254940082E+02  0.00000000000E+00 0. -1.
</event>
<event>
 7    1  0.4083500E-009  0.4778727E+02  0.7816164E-02  0.1312668E+00
        -11   -1    0    0    0    0  0.00000000000E+00  0.00000000000E+00  0.45593999997E+02  0.45594000000E+02  0.51100000000E-03 0. -1.
         11   -1    0    0    0    0 -0.00000000000E+00 -0.00000000000E+00 -0.45593999997E+02  0.45594000000E+02  0.51100000000E-03 0.  1.
    9900012    2    1    2    0    0  0.17877436888E+02 -0.21699970152E+02  0.33062550245E+02  0.47787266332E+02  0.19999978513E+02 0.  0.
        -12    1    1    2    0    0 -0.17877436888E+02  0.21699970152E+02 -0.33062550245E+02  0.43400733668E+02  0.00000000000E+00 0.  1.
         11    1    3    3    0    0  0.11727579546E+01 -0.45397115503E+01  0.40105459307E+01  0.61699936065E+01  0.51100000000E-03 0. -1.
        -11    1    3    3    0    0  0.26244010505E+01 -0.28315896996E+01 -0.22164022963E+01  0.44517210718E+01  0.51100000000E-03 0.  1.
         12    1    3    3    0    0  0.14080277883E+02 -0.14328668902E+02  0.31268406610E+02  0.37165551653E+02  0.00000000000E+00 0. -1.
</event>
<event>
 7    1  0.4083500E-009  0.4778727E+02  0.7816164E-02  0.1312668E+00
        -11   -1    0    0    0    0  0.00000000000E+00  0.00000000000E+00  0.45593999997E+02  0.45594000000E+02  0.51100000000E-03 0.  1.
         11   -1    0    0    0    0 -0.00000000000E+00 -0.00000000000E+00 -0.45593999997E+02  0.45594000000E+02  0.51100000000E-03 0. -1.
    9900012    2    1    2    0    0 -0.16565011734E+02 -0.24599879963E+02 -0.31687059763E+02  0.47787268850E+02  0.19999989994E+02 0.  0.
        -12    1    1    2    0    0  0.16565011734E+02  0.24599879963E+02  0.31687059763E+02  0.43400731150E+02  0.00000000000E+00 0.  1.
         11    1    3    3    0    0 -0.25129903488E+01 -0.16768166765E+01 -0.21514211225E+01  0.37088337476E+01  0.51100000000E-03 0. -1.
        -11    1    3    3    0    0 -0.39015285377E+00 -0.17705063304E+02 -0.12785516424E+02  0.21842410956E+02  0.51100000000E-03 0.  1.
        -12    1    3    3    0    0 -0.13661868531E+02 -0.52179999823E+01 -0.16750122217E+02  0.22236024147E+02  0.00000000000E+00 0.  1.
</event>
<event>
 7    1  0.4083500E-009  0.4778727E+02  0.7816164E-02  0.1312668E+00
        -11   -1    0    0    0    0  0.00000000000E+00  0.00000000000E+00  0.45593999997E+02  0.45594000000E+02  0.51100000000E-03 0.  1.
         11   -1    0    0    0    0 -0.00000000000E+00 -0.00000000000E+00 -0.45593999997E+02  0.45594000000E+02  0.51100000000E-03 0. -1.
    9900012    2    1    2    0    0  0.17613953311E+02 -0.11487905660E+02 -0.37965779560E+02  0.47787265614E+02  0.19999975240E+02 0.  0.
        -12    1    1    2    0    0 -0.17613953311E+02  0.11487905660E+02  0.37965779560E+02  0.43400734386E+02  0.00000000000E+00 0.  1.
         11    1    3    3    0    0 -0.11780617316E+01  0.53074597754E-01 -0.19614410882E-01  0.11794199179E+01  0.51100000000E-03 0. -1.
        -11    1    3    3    0    0  0.35512170208E+00 -0.62604763487E+01 -0.34960922667E+01  0.71792991952E+01  0.51100000000E-03 0.  1.
         12    1    3    3    0    0  0.18436893341E+02 -0.52805039087E+01 -0.34450072882E+02  0.39428546501E+02  0.00000000000E+00 0. -1.
</event>
<event>
 7    1  0.4083500E-009  0.4778727E+02  0.7816164E-02  0.1312668E+00
        -11   -1    0    0    0    0  0.00000000000E+00  0.00000000000E+00  0.45593999997E+02  0.45594000000E+02  0.51100000000E-03 0.  1.
         11   -1    0    0    0    0 -0.00000000000E+00 -0.00000000000E+00 -0.45593999997E+02  0.45594000000E+02  0.51100000000E-03 0. -1.
    9900012    2    1    2    0    0 -0.63433439754E+00 -0.79239031738E+01 -0.42666526393E+02  0.47787273093E+02  0.20000009339E+02 0.  0.
        -12    1    1    2    0    0  0.63433439754E+00  0.79239031738E+01  0.42666526393E+02  0.43400726907E+02  0.00000000000E+00 0.  1.
         11    1    3    3    0    0 -0.26093293881E+01 -0.54775496676E+01 -0.13526152354E+02  0.14824606166E+02  0.51100000000E-03 0. -1.
        -11    1    3    3    0    0  0.30635865207E+01 -0.81707317282E+01 -0.22473843136E+02  0.24108505655E+02  0.51100000000E-03 0.  1.
        -12    1    3    3    0    0 -0.10885915301E+01  0.57243782219E+01 -0.66665309032E+01  0.88541612720E+01  0.00000000000E+00 0.  1.
</event>
<event>
 7    1  0.4083500E-009  0.4778727E+02  0.7816164E-02  0.1312668E+00
        -11   -1    0    0    0    0  0.00000000000E+00  0.00000000000E+00  0.45593999997E+02  0.45594000000E+02  0.51100000000E-03 0.  1.
         11   -1    0    0    0    0 -0.00000000000E+00 -0.00000000000E+00 -0.45593999997E+02  0.45594000000E+02  0.51100000000E-03 0. -1.
    9900012    2    1    2    0    0 -0.29468204257E+02 -0.29980127164E+02 -0.10790742801E+02  0.47787271699E+02  0.20000002984E+02 0.  0.
        -12    1    1    2    0    0  0.29468204257E+02  0.29980127164E+02  0.10790742801E+02  0.43400728301E+02  0.00000000000E+00 0.  1.
         11    1    3    3    0    0 -0.15240889318E+02 -0.12797412636E+02 -0.65631942632E+01  0.20955524249E+02  0.51100000000E-03 0. -1.
        -11    1    3    3    0    0 -0.38180903315E+01 -0.13040286194E+01 -0.65611914631E+01  0.77024371530E+01  0.51100000000E-03 0.  1.
         12    1    3    3    0    0 -0.10409224608E+02 -0.15878685908E+02  0.23336429257E+01  0.19129310296E+02  0.00000000000E+00 0. -1.
</event>
<event>
 7    1  0.4083500E-009  0.4778727E+02  0.7816164E-02  0.1312668E+00
        -11   -1    0    0    0    0  0.00000000000E+00  0.00000000000E+00  0.45593999997E+02  0.45594000000E+02  0.51100000000E-03 0. -1.
         11   -1    0    0    0    0 -0.00000000000E+00 -0.00000000000E+00 -0.45593999997E+02  0.45594000000E+02  0.51100000000E-03 0.  1.
    9900012    2    1    2    0    0  0.39096342900E+02 -0.18136411268E+02  0.51156588572E+01  0.47787269506E+02  0.19999992985E+02 0.  0.
        -12    1    1    2    0    0 -0.39096342900E+02  0.18136411268E+02 -0.51156588572E+01  0.43400730494E+02  0.00000000000E+00 0.  1.
         11    1    3    3    0    0  0.63511726147E+01 -0.41251273187E+01  0.45469117126E+01  0.88333728191E+01  0.51100000000E-03 0. -1.
        -11    1    3    3    0    0  0.12882432320E+02 -0.89456880878E+01  0.74069316244E+01  0.17344884958E+02  0.51100000000E-03 0.  1.
        -12    1    3    3    0    0  0.19862737966E+02 -0.50655958617E+01 -0.68381844798E+01  0.21609011729E+02  0.00000000000E+00 0.  1.
</event>
<event>
 7    1  0.4083500E-009  0.4778727E+02  0.7816164E-02  0.1312668E+00
        -11   -1    0    0    0    0  0.00000000000E+00  0.00000000000E+00  0.45593999997E+02  0.45594000000E+02  0.51100000000E-03 0.  1.
         11   -1    0    0    0    0 -0.00000000000E+00 -0.00000000000E+00 -0.45593999997E+02  0.45594000000E+02  0.51100000000E-03 0. -1.
    9900012    2    1    2    0    0  0.29101771350E+02 -0.29598761900E+02  0.12673729001E+02  0.47787271798E+02  0.20000003434E+02 0.  0.
        -12    1    1    2    0    0 -0.29101771350E+02  0.29598761900E+02 -0.12673729001E+02  0.43400728202E+02  0.00000000000E+00 0.  1.
         11    1    3    3    0    0  0.14851512844E+02 -0.16586284688E+02  0.21948848586E+01  0.22371629206E+02  0.51100000000E-03 0. -1.
        -11    1    3    3    0    0  0.13957903473E+02 -0.52468535067E+01  0.43931235593E+01  0.15545162461E+02  0.51100000000E-03 0.  1.
         12    1    3    3    0    0  0.29235503270E+00 -0.77656237047E+01  0.60857205833E+01  0.98704801304E+01  0.00000000000E+00 0. -1.
</event>
<event>
 7    1  0.4083500E-009  0.4778727E+02  0.7816164E-02  0.1312668E+00
        -11   -1    0    0    0    0  0.00000000000E+00  0.00000000000E+00  0.45593999997E+02  0.45594000000E+02  0.51100000000E-03 0.  1.
         11   -1    0    0    0    0 -0.00000000000E+00 -0.00000000000E+00 -0.45593999997E+02  0.45594000000E+02  0.51100000000E-03 0. -1.
    9900012    2    1    2    0    0 -0.84198119183E+01 -0.41734181648E+02  0.84254509570E+01  0.47787269887E+02  0.19999994721E+02 0.  0.
        -12    1    1    2    0    0  0.84198119183E+01  0.41734181648E+02 -0.84254509570E+01  0.43400730113E+02  0.00000000000E+00 0.  1.
         11    1    3    3    0    0  0.11857872519E+01 -0.10386603711E+02  0.19180582133E+01  0.10628573547E+02  0.51100000000E-03 0. -1.
        -11    1    3    3    0    0  0.14526629294E+01  0.88808555609E+00 -0.13642452802E+01  0.21817632748E+01  0.51100000000E-03 0.  1.
        -12    1    3    3    0    0 -0.11058262100E+02 -0.32235663493E+02  0.78716380240E+01  0.34976933065E+02  0.00000000000E+00 0.  1.
</event>
<event>
 7    1  0.4083500E-009  0.4778727E+02  0.7816164E-02  0.1312668E+00
        -11   -1    0    0    0    0  0.00000000000E+00  0.00000000000E+00  0.45593999997E+02  0.45594000000E+02  0.51100000000E-03 0.  1.
         11   -1    0    0    0    0 -0.00000000000E+00 -0.00000000000E+00 -0.45593999997E+02  0.45594000000E+02  0.51100000000E-03 0. -1.
    9900012    2    1    2    0    0 -0.32041837004E+01 -0.30017999377E+02 -0.31181348141E+02  0.47787267844E+02  0.19999985407E+02 0.  0.
        -12    1    1    2    0    0  0.32041837004E+01  0.30017999377E+02  0.31181348141E+02  0.43400732156E+02  0.00000000000E+00 0.  1.
         11    1    3    3    0    0 -0.37071217010E+01 -0.35747594301E+00 -0.29289442524E+01  0.47380644836E+01  0.51100000000E-03 0. -1.
        -11    1    3    3    0    0  0.95181601669E+00 -0.95637594945E+00 -0.75144406236E+01  0.76346202809E+01  0.51100000000E-03 0.  1.
         12    1    3    3    0    0 -0.44887801605E+00 -0.28704147485E+02 -0.20737963265E+02  0.35414583079E+02  0.00000000000E+00 0. -1.
</event>
<event>
 7    1  0.4083500E-009  0.4778728E+02  0.7816164E-02  0.1312668E+00
        -11   -1    0    0    0    0  0.00000000000E+00  0.00000000000E+00  0.45593999997E+02  0.45594000000E+02  0.51100000000E-03 0.  1.
         11   -1    0    0    0    0 -0.00000000000E+00 -0.00000000000E+00 -0.45593999997E+02  0.45594000000E+02  0.51100000000E-03 0. -1.
    9900012    2    1    2    0    0  0.11424220072E+02  0.78997950879E+01 -0.41118155961E+02  0.47787282076E+02  0.20000050297E+02 0.  0.
        -12    1    1    2    0    0 -0.11424220072E+02 -0.78997950879E+01  0.41118155961E+02  0.43400717924E+02  0.00000000000E+00 0.  1.
         11    1    3    3    0    0  0.39923271255E+01  0.82027057686E+01 -0.23691301424E+02  0.25387020724E+02  0.51100000000E-03 0. -1.
        -11    1    3    3    0    0  0.50312077223E+01  0.56967739554E+01 -0.89685241529E+01  0.11755879822E+02  0.51100000000E-03 0.  1.
         12    1    3    3    0    0  0.24006852240E+01 -0.59996846361E+01 -0.84583303841E+01  0.10644381530E+02  0.00000000000E+00 0. -1.
</event>
<event>
 7    1  0.4083500E-009  0.4778727E+02  0.7816164E-02  0.1312668E+00
        -11   -1    0    0    0    0  0.00000000000E+00  0.00000000000E+00  0.45593999997E+02  0.45594000000E+02  0.51100000000E-03 0.  1.
         11   -1    0    0    0    0 -0.00000000000E+00 -0.00000000000E+00 -0.45593999997E+02  0.45594000000E+02  0.51100000000E-03 0. -1.
    9900012    2    1    2    0    0 -0.51089376382E-01  0.38427630699E+02 -0.20172702008E+02  0.47787270541E+02  0.19999997702E+02 0.  0.
        -12    1    1    2    0    0  0.51089376382E-01 -0.38427630699E+02  0.20172702008E+02  0.43400729459E+02  0.00000000000E+00 0.  1.
         11    1    3    3    0    0  0.70076624789E+01  0.18934437870E+02 -0.97138843400E+01  0.22404906161E+02  0.51100000000E-03 0. -1.
        -11    1    3    3    0    0 -0.20292441257E+00  0.40661496750E+01 -0.70779933609E+01  0.81653378237E+01  0.51100000000E-03 0.  1.
         12    1    3    3    0    0 -0.68558274427E+01  0.15427043155E+02 -0.33808243076E+01  0.17217026556E+02  0.00000000000E+00 0. -1.
</event>
<event>
 7    1  0.4083500E-009  0.4778727E+02  0.7816164E-02  0.1312668E+00
        -11   -1    0    0    0    0  0.00000000000E+00  0.00000000000E+00  0.45593999997E+02  0.45594000000E+02  0.51100000000E-03 0.  1.
         11   -1    0    0    0    0 -0.00000000000E+00 -0.00000000000E+00 -0.45593999997E+02  0.45594000000E+02  0.51100000000E-03 0. -1.
    9900012    2    1    2    0    0  0.15275056185E+02 -0.15260343133E+02 -0.37648611417E+02  0.47787270102E+02  0.19999995704E+02 0.  0.
        -12    1    1    2    0    0 -0.15275056185E+02  0.15260343133E+02  0.37648611417E+02  0.43400729898E+02  0.00000000000E+00 0.  1.
         11    1    3    3    0    0  0.44052515786E+01 -0.79245492363E+01 -0.18876216964E+02  0.20940780530E+02  0.51100000000E-03 0. -1.
        -11    1    3    3    0    0  0.18720385544E+01 -0.70875350448E+01 -0.15714233405E+02  0.17339977310E+02  0.51100000000E-03 0.  1.
         12    1    3    3    0    0  0.89977660523E+01 -0.24825885189E+00 -0.30581610489E+01  0.95065122622E+01  0.00000000000E+00 0. -1.
</event>
<event>
 7    1  0.4083500E-009  0.4778727E+02  0.7816164E-02  0.1312668E+00
        -11   -1    0    0    0    0  0.00000000000E+00  0.00000000000E+00  0.45593999997E+02  0.45594000000E+02  0.51100000000E-03 0.  1.
         11   -1    0    0    0    0 -0.00000000000E+00 -0.00000000000E+00 -0.45593999997E+02  0.45594000000E+02  0.51100000000E-03 0. -1.
    9900012    2    1    2    0    0 -0.39108030314E+02  0.83805023432E+01 -0.16850890394E+02  0.47787270033E+02  0.19999995388E+02 0.  0.
        -12    1    1    2    0    0  0.39108030314E+02 -0.83805023432E+01  0.16850890394E+02  0.43400729967E+02  0.00000000000E+00 0.  1.
         11    1    3    3    0    0 -0.16267770462E+02  0.27991927329E+01 -0.70033043087E+00  0.16521691764E+02  0.51100000000E-03 0. -1.
        -11    1    3    3    0    0 -0.11466412604E+02  0.22174177104E+01 -0.58158402407E+00  0.11693322861E+02  0.51100000000E-03 0.  1.
        -12    1    3    3    0    0 -0.11373847249E+02  0.33638918999E+01 -0.15568975939E+02  0.19572255408E+02  0.00000000000E+00 0.  1.
</event>
<event>
 7    1  0.4083500E-009  0.4778727E+02  0.7816164E-02  0.1312668E+00
        -11   -1    0    0    0    0  0.00000000000E+00  0.00000000000E+00  0.45593999997E+02  0.45594000000E+02  0.51100000000E-03 0. -1.
         11   -1    0    0    0    0 -0.00000000000E+00 -0.00000000000E+00 -0.45593999997E+02  0.45594000000E+02  0.51100000000E-03 0.  1.
    9900012    2    1    2    0    0  0.30118311533E+02 -0.70243950258E+01  0.30449440655E+02  0.47787271304E+02  0.20000001184E+02 0.  0.
        -12    1    1    2    0    0 -0.30118311533E+02  0.70243950258E+01 -0.30449440655E+02  0.43400728696E+02  0.00000000000E+00 0.  1.
         11    1    3    3    0    0  0.26409587632E+02 -0.18726037909E+01  0.20299564504E+02  0.33362333299E+02  0.51100000000E-03 0. -1.
        -11    1    3    3    0    0  0.37940080118E+01  0.90362816820E+00  0.23623335402E+01  0.45597873499E+01  0.51100000000E-03 0.  1.
        -12    1    3    3    0    0 -0.85284110547E-01 -0.60554194031E+01  0.77875426109E+01  0.98651506549E+01  0.00000000000E+00 0.  1.
</event>
<event>
 7    1  0.4083500E-009  0.4778727E+02  0.7816164E-02  0.1312668E+00
        -11   -1    0    0    0    0  0.00000000000E+00  0.00000000000E+00  0.45593999997E+02  0.45594000000E+02  0.51100000000E-03 0. -1.
         11   -1    0    0    0    0 -0.00000000000E+00 -0.00000000000E+00 -0.45593999997E+02  0.45594000000E+02  0.51100000000E-03 0.  1.
    9900012    2    1    2    0    0 -0.22972177428E+01 -0.43231194157E+02 -0.30675125342E+01  0.47787274307E+02  0.20000014874E+02 0.  0.
        -12    1    1    2    0    0  0.22972177428E+01  0.43231194157E+02  0.30675125342E+01  0.43400725693E+02  0.00000000000E+00 0.  1.
         11    1    3    3    0    0  0.32546207129E+01 -0.38591709104E+02 -0.37044594167E+01  0.38905469890E+02  0.51100000000E-03 0. -1.
        -11    1    3    3    0    0 -0.40559491601E+01 -0.48008089773E+01  0.22505433587E+01  0.66755850752E+01  0.51100000000E-03 0.  1.
        -12    1    3    3    0    0 -0.14958892956E+01  0.16132392465E+00 -0.16135964762E+01  0.22062193412E+01  0.00000000000E+00 0.  1.
</event>
<event>
 7    1  0.4083500E-009  0.4778728E+02  0.7816164E-02  0.1312668E+00
        -11   -1    0    0    0    0  0.00000000000E+00  0.00000000000E+00  0.45593999997E+02  0.45594000000E+02  0.51100000000E-03 0.  1.
         11   -1    0    0    0    0 -0.00000000000E+00 -0.00000000000E+00 -0.45593999997E+02  0.45594000000E+02  0.51100000000E-03 0. -1.
    9900012    2    1    2    0    0  0.13151301319E+00  0.38623081246E+02 -0.19795535595E+02  0.47787275005E+02  0.20000018057E+02 0.  0.
        -12    1    1    2    0    0 -0.13151301319E+00 -0.38623081246E+02  0.19795535595E+02  0.43400724995E+02  0.00000000000E+00 0.  1.
         11    1    3    3    0    0  0.47716020245E+01  0.15592310347E+02 -0.15436618558E+02  0.22453897671E+02  0.51100000000E-03 0. -1.
        -11    1    3    3    0    0  0.20295910589E+01  0.46799947082E+01  0.73694951753E+00  0.51540940220E+01  0.51100000000E-03 0.  1.
         12    1    3    3    0    0 -0.66696800702E+01  0.18350776191E+02 -0.50958665541E+01  0.20179283312E+02  0.00000000000E+00 0. -1.
</event>
<event>
 7    1  0.4083500E-009  0.4778727E+02  0.7816164E-02  0.1312668E+00
        -11   -1    0    0    0    0  0.00000000000E+00  0.00000000000E+00  0.45593999997E+02  0.45594000000E+02  0.51100000000E-03 0.  1.
         11   -1    0    0    0    0 -0.00000000000E+00 -0.00000000000E+00 -0.45593999997E+02  0.45594000000E+02  0.51100000000E-03 0. -1.
    9900012    2    1    2    0    0  0.21840258876E+02  0.63909114869E+01 -0.36956497237E+02  0.47787270220E+02  0.19999996240E+02 0.  0.
        -12    1    1    2    0    0 -0.21840258876E+02 -0.63909114869E+01  0.36956497237E+02  0.43400729780E+02  0.00000000000E+00 0.  1.
         11    1    3    3    0    0  0.51681475764E+00  0.21847875315E+01 -0.91597323937E+01  0.94308584888E+01  0.51100000000E-03 0. -1.
        -11    1    3    3    0    0  0.58987668842E+01 -0.47322147246E+01 -0.13622798931E+02  0.15581076918E+02  0.51100000000E-03 0.  1.
         12    1    3    3    0    0  0.15424677234E+02  0.89383386799E+01 -0.14173965912E+02  0.22775334812E+02  0.00000000000E+00 0. -1.
</event>
<event>
 7    1  0.4083500E-009  0.4778727E+02  0.7816164E-02  0.1312668E+00
        -11   -1    0    0    0    0  0.00000000000E+00  0.00000000000E+00  0.45593999997E+02  0.45594000000E+02  0.51100000000E-03 0.  1.
         11   -1    0    0    0    0 -0.00000000000E+00 -0.00000000000E+00 -0.45593999997E+02  0.45594000000E+02  0.51100000000E-03 0. -1.
    9900012    2    1    2    0    0 -0.22911439517E+02 -0.36251850937E+02 -0.66702750051E+01  0.47787270447E+02  0.19999997275E+02 0.  0.
        -12    1    1    2    0    0  0.22911439517E+02  0.36251850937E+02  0.66702750051E+01  0.43400729553E+02  0.00000000000E+00 0.  1.
         11    1    3    3    0    0 -0.16008014891E+02 -0.15789797252E+02 -0.88972547509E+00  0.22502574290E+02  0.51100000000E-03 0. -1.
        -11    1    3    3    0    0 -0.10290902897E+02 -0.15536687135E+02 -0.44958371961E+01  0.19170390761E+02  0.51100000000E-03 0.  1.
        -12    1    3    3    0    0  0.33874782710E+01 -0.49253665498E+01 -0.12847123339E+01  0.61143053953E+01  0.00000000000E+00 0.  1.
</event>
<event>
 7    1  0.4083500E-009  0.4778728E+02  0.7816164E-02  0.1312668E+00
        -11   -1    0    0    0    0  0.00000000000E+00  0.00000000000E+00  0.45593999997E+02  0.45594000000E+02  0.51100000000E-03 0.  1.
         11   -1    0    0    0    0 -0.00000000000E+00 -0.00000000000E+00 -0.45593999997E+02  0.45594000000E+02  0.51100000000E-03 0. -1.
    9900012    2    1    2    0    0  0.13293373501E+02  0.21557047716E+02 -0.35244895020E+02  0.47787277538E+02  0.20000029605E+02 0.  0.
        -12    1    1    2    0    0 -0.13293373501E+02 -0.21557047716E+02  0.35244895020E+02  0.43400722462E+02  0.00000000000E+00 0.  1.
         11    1    3    3    0    0  0.74363533800E+01  0.11397223224E+02 -0.89912036642E+01  0.16310664990E+02  0.51100000000E-03 0. -1.
        -11    1    3    3    0    0  0.12686159723E+00  0.13488057704E+01  0.13664905383E+01  0.19242316709E+01  0.51100000000E-03 0.  1.
        -12    1    3    3    0    0  0.57301585241E+01  0.88110187215E+01 -0.27620181894E+02  0.29552380877E+02  0.00000000000E+00 0.  1.
</event>
<event>
 7    1  0.4083500E-009  0.4778727E+02  0.7816164E-02  0.1312668E+00
        -11   -1    0    0    0    0  0.00000000000E+00  0.00000000000E+00  0.45593999997E+02  0.45594000000E+02  0.51100000000E-03 0. -1.
         11   -1    0    0    0    0 -0.00000000000E+00 -0.00000000000E+00 -0.45593999997E+02  0.45594000000E+02  0.51100000000E-03 0.  1.
    9900012    2    1    2    0    0 -0.32561886696E+02  0.14944605373E+02  0.24495006772E+02  0.47787273604E+02  0.20000011670E+02 0.  0.
        -12    1    1    2    0    0  0.32561886696E+02 -0.14944605373E+02 -0.24495006772E+02  0.43400726396E+02  0.00000000000E+00 0.  1.
         11    1    3    3    0    0 -0.22171144714E+02  0.96008912487E+01  0.17085419722E+02  0.29591355799E+02  0.51100000000E-03 0. -1.
        -11    1    3    3    0    0 -0.12492297572E+02  0.66259304589E+01  0.65930594057E+01  0.15602207718E+02  0.51100000000E-03 0.  1.
        -12    1    3    3    0    0  0.21015555894E+01 -0.12822163346E+01  0.81652764355E+00  0.25937100873E+01  0.00000000000E+00 0.  1.
</event>
<event>
 7    1  0.5161731E-009  0.4778727E+02  0.7816164E-02  0.1312668E+00
        -11   -1    0    0    0    0  0.00000000000E+00  0.00000000000E+00  0.45593999997E+02  0.45594000000E+02  0.51100000000E-03 0. -1.
         11   -1    0    0    0    0 -0.00000000000E+00 -0.00000000000E+00 -0.45593999997E+02  0.45594000000E+02  0.51100000000E-03 0.  1.
    9900012    2    1    2    0    0  0.21944691338E+02 -0.26418971334E+02  0.26534727735E+02  0.47787270741E+02  0.19999998617E+02 0.  0.
        -12    1    1    2    0    0 -0.21944691338E+02  0.26418971334E+02 -0.26534727735E+02  0.43400729259E+02  0.00000000000E+00 0.  1.
         11    1    3    3    0    0 -0.11724154416E+01 -0.52716696619E+00  0.17704122950E+01  0.21878809230E+01  0.51100000000E-03 0. -1.
        -11    1    3    3    0    0  0.10727353149E+02 -0.93653462218E+01  0.12401611156E+01  0.14294188165E+02  0.51100000000E-03 0.  1.
         12    1    3    3    0    0  0.12389753630E+02 -0.16526458146E+02  0.23524154324E+02  0.31305201653E+02  0.00000000000E+00 0. -1.
</event>
<event>
 7    1  0.4083500E-009  0.4778727E+02  0.7816164E-02  0.1312668E+00
        -11   -1    0    0    0    0  0.00000000000E+00  0.00000000000E+00  0.45593999997E+02  0.45594000000E+02  0.51100000000E-03 0.  1.
         11   -1    0    0    0    0 -0.00000000000E+00 -0.00000000000E+00 -0.45593999997E+02  0.45594000000E+02  0.51100000000E-03 0. -1.
    9900012    2    1    2    0    0 -0.43153916233E+02 -0.41654184850E+01  0.20030554407E+01  0.47787269263E+02  0.19999991879E+02 0.  0.
        -12    1    1    2    0    0  0.43153916233E+02  0.41654184850E+01 -0.20030554407E+01  0.43400730737E+02  0.00000000000E+00 0.  1.
         11    1    3    3    0    0 -0.20227338905E+02 -0.17141970868E+01  0.60685506595E+01  0.21187520341E+02  0.51100000000E-03 0. -1.
        -11    1    3    3    0    0 -0.14318965178E+02 -0.68511829354E+01  0.55924782860E+00  0.15883457740E+02  0.51100000000E-03 0.  1.
         12    1    3    3    0    0 -0.86076121492E+01  0.43999615372E+01 -0.46247430474E+01  0.10716291182E+02  0.00000000000E+00 0. -1.
</event>
<event>
 7    1  0.4083500E-009  0.4778727E+02  0.7816164E-02  0.1312668E+00
        -11   -1    0    0    0    0  0.00000000000E+00  0.00000000000E+00  0.45593999997E+02  0.45594000000E+02  0.51100000000E-03 0.  1.
         11   -1    0    0    0    0 -0.00000000000E+00 -0.00000000000E+00 -0.45593999997E+02  0.45594000000E+02  0.51100000000E-03 0. -1.
    9900012    2    1    2    0    0  0.17034905954E+02  0.39888713388E+02 -0.15251189342E+01  0.47787268850E+02  0.19999989996E+02 0.  0.
        -12    1    1    2    0    0 -0.17034905954E+02 -0.39888713388E+02  0.15251189342E+01  0.43400731150E+02  0.00000000000E+00 0.  1.
         11    1    3    3    0    0 -0.53521637061E+00  0.35190096609E+01 -0.50574315725E+00  0.35952276644E+01  0.51100000000E-03 0. -1.
        -11    1    3    3    0    0 -0.21383764980E+01  0.36997640337E+01  0.38203643513E+01  0.57320233766E+01  0.51100000000E-03 0.  1.
         12    1    3    3    0    0  0.19708498822E+02  0.32669939693E+02 -0.48397401282E+01  0.38460017809E+02  0.00000000000E+00 0. -1.
</event>
<event>
 7    1  0.4083500E-009  0.4778727E+02  0.7816164E-02  0.1312668E+00
        -11   -1    0    0    0    0  0.00000000000E+00  0.00000000000E+00  0.45593999997E+02  0.45594000000E+02  0.51100000000E-03 0.  1.
         11   -1    0    0    0    0 -0.00000000000E+00 -0.00000000000E+00 -0.45593999997E+02  0.45594000000E+02  0.51100000000E-03 0. -1.
    9900012    2    1    2    0    0  0.97011237998E+01 -0.35065746430E+01 -0.42157031457E+02  0.47787272241E+02  0.20000005457E+02 0.  0.
        -12    1    1    2    0    0 -0.97011237998E+01  0.35065746430E+01  0.42157031457E+02  0.43400727759E+02  0.00000000000E+00 0.  1.
         11    1    3    3    0    0  0.67687220241E+01 -0.70253393255E+01 -0.39682483339E+02  0.40864048682E+02  0.51100000000E-03 0. -1.
        -11    1    3    3    0    0 -0.10873749697E+01  0.46672760552E+00 -0.12670131287E+01  0.17336497663E+01  0.51100000000E-03 0.  1.
        -12    1    3    3    0    0  0.40197767454E+01  0.30520370769E+01 -0.12075349893E+01  0.51895737929E+01  0.00000000000E+00 0.  1.
</event>
<event>
 7    1  0.4083500E-009  0.4778727E+02  0.7816164E-02  0.1312668E+00
        -11   -1    0    0    0    0  0.00000000000E+00  0.00000000000E+00  0.45593999997E+02  0.45594000000E+02  0.51100000000E-03 0.  1.
         11   -1    0    0    0    0 -0.00000000000E+00 -0.00000000000E+00 -0.45593999997E+02  0.45594000000E+02  0.51100000000E-03 0. -1.
    9900012    2    1    2    0    0  0.98308313296E+01 -0.81693628236E+01 -0.41475771853E+02  0.47787269772E+02  0.19999994198E+02 0.  0.
        -12    1    1    2    0    0 -0.98308313296E+01  0.81693628236E+01  0.41475771853E+02  0.43400730228E+02  0.00000000000E+00 0.  1.
         11    1    3    3    0    0  0.81070894073E+01 -0.71539001411E+01 -0.19884979778E+02  0.22634389917E+02  0.51100000000E-03 0. -1.
        -11    1    3    3    0    0  0.42110728553E+01  0.19442803446E+00 -0.21961261719E+02  0.22362199207E+02  0.51100000000E-03 0.  1.
        -12    1    3    3    0    0 -0.24873309329E+01 -0.12098907170E+01  0.37046964441E+00  0.27906806472E+01  0.00000000000E+00 0.  1.
</event>
<event>
 7    1  0.4083500E-009  0.4778727E+02  0.7816164E-02  0.1312668E+00
        -11   -1    0    0    0    0  0.00000000000E+00  0.00000000000E+00  0.45593999997E+02  0.45594000000E+02  0.51100000000E-03 0.  1.
         11   -1    0    0    0    0 -0.00000000000E+00 -0.00000000000E+00 -0.45593999997E+02  0.45594000000E+02  0.51100000000E-03 0. -1.
    9900012    2    1    2    0    0 -0.11992619325E+02 -0.25259454732E+02 -0.33192781816E+02  0.47787265717E+02  0.19999975710E+02 0.  0.
        -12    1    1    2    0    0  0.11992619325E+02  0.25259454732E+02  0.33192781816E+02  0.43400734283E+02  0.00000000000E+00 0.  1.
         11    1    3    3    0    0 -0.37159967749E+01 -0.42910272413E+01 -0.16118292502E+02  0.17088619027E+02  0.51100000000E-03 0. -1.
        -11    1    3    3    0    0  0.24917397791E+01 -0.23538731703E+01 -0.32998776976E+00  0.34435996019E+01  0.51100000000E-03 0.  1.
        -12    1    3    3    0    0 -0.10768362329E+02 -0.18614554321E+02 -0.16744501544E+02  0.27255047088E+02  0.00000000000E+00 0.  1.
</event>
<event>
 7    1  0.4083500E-009  0.4778727E+02  0.7816164E-02  0.1312668E+00
        -11   -1    0    0    0    0  0.00000000000E+00  0.00000000000E+00  0.45593999997E+02  0.45594000000E+02  0.51100000000E-03 0.  1.
         11   -1    0    0    0    0 -0.00000000000E+00 -0.00000000000E+00 -0.45593999997E+02  0.45594000000E+02  0.51100000000E-03 0. -1.
    9900012    2    1    2    0    0  0.40238487769E+02  0.73960505372E+01 -0.14483999850E+02  0.47787265984E+02  0.19999976928E+02 0.  0.
        -12    1    1    2    0    0 -0.40238487769E+02 -0.73960505372E+01  0.14483999850E+02  0.43400734016E+02  0.00000000000E+00 0.  1.
         11    1    3    3    0    0  0.15263024370E+02  0.55581064352E+01 -0.75076774849E+01  0.17894627170E+02  0.51100000000E-03 0.  1.
        -11    1    3    3    0    0  0.20417715829E+02 -0.33688399333E+01 -0.91684932218E+01  0.22633900910E+02  0.51100000000E-03 0. -1.
        -12    1    3    3    0    0  0.45577475696E+01  0.52067840353E+01  0.21921708572E+01  0.72587379044E+01  0.00000000000E+00 0.  1.
</event>
<event>
 7    1  0.4083500E-009  0.4778728E+02  0.7816164E-02  0.1312668E+00
        -11   -1    0    0    0    0  0.00000000000E+00  0.00000000000E+00  0.45593999997E+02  0.45594000000E+02  0.51100000000E-03 0.  1.
         11   -1    0    0    0    0 -0.00000000000E+00 -0.00000000000E+00 -0.45593999997E+02  0.45594000000E+02  0.51100000000E-03 0. -1.
    9900012    2    1    2    0    0 -0.24927512971E+02 -0.35527808999E+02  0.12795069832E+00  0.47787280115E+02  0.20000041354E+02 0.  0.
        -12    1    1    2    0    0  0.24927512971E+02  0.35527808999E+02 -0.12795069832E+00  0.43400719885E+02  0.00000000000E+00 0.  1.
         11    1    3    3    0    0 -0.48614187462E+01 -0.16662034534E+01 -0.13785927780E+01  0.53207278152E+01  0.51100000000E-03 0. -1.
        -11    1    3    3    0    0 -0.73777364341E+01 -0.28805016836E+01 -0.34206266857E+01  0.86272227294E+01  0.51100000000E-03 0.  1.
         12    1    3    3    0    0 -0.12688357790E+02 -0.30981103862E+02  0.49271701620E+01  0.33839329570E+02  0.00000000000E+00 0. -1.
</event>
<event>
 7    1  0.4083500E-009  0.4778727E+02  0.7816164E-02  0.1312668E+00
        -11   -1    0    0    0    0  0.00000000000E+00  0.00000000000E+00  0.45593999997E+02  0.45594000000E+02  0.51100000000E-03 0.  1.
         11   -1    0    0    0    0 -0.00000000000E+00 -0.00000000000E+00 -0.45593999997E+02  0.45594000000E+02  0.51100000000E-03 0. -1.
    9900012    2    1    2    0    0 -0.19078811489E+02 -0.31698434709E+02 -0.22689899664E+02  0.47787270080E+02  0.19999995602E+02 0.  0.
        -12    1    1    2    0    0  0.19078811489E+02  0.31698434709E+02  0.22689899664E+02  0.43400729920E+02  0.00000000000E+00 0.  1.
         11    1    3    3    0    0 -0.73122853327E+01 -0.37521867931E+01 -0.80107715695E+01  0.11476971897E+02  0.51100000000E-03 0. -1.
        -11    1    3    3    0    0  0.29123181518E+01 -0.57081444853E+01 -0.42855060745E+01  0.77090902873E+01  0.51100000000E-03 0.  1.
         12    1    3    3    0    0 -0.14678844308E+02 -0.22238103430E+02 -0.10393622020E+02  0.28601207896E+02  0.00000000000E+00 0. -1.
</event>
<event>
 7    1  0.4083500E-009  0.4778727E+02  0.7816164E-02  0.1312668E+00
        -11   -1    0    0    0    0  0.00000000000E+00  0.00000000000E+00  0.45593999997E+02  0.45594000000E+02  0.51100000000E-03 0.  1.
         11   -1    0    0    0    0 -0.00000000000E+00 -0.00000000000E+00 -0.45593999997E+02  0.45594000000E+02  0.51100000000E-03 0. -1.
    9900012    2    1    2    0    0 -0.49195686354E+01 -0.42149277553E+02 -0.91027212568E+01  0.47787270881E+02  0.19999999253E+02 0.  0.
        -12    1    1    2    0    0  0.49195686354E+01  0.42149277553E+02  0.91027212568E+01  0.43400729119E+02  0.00000000000E+00 0.  1.
         11    1    3    3    0    0 -0.18915770338E+01 -0.99358912623E+01  0.56205712658E+01  0.11571120104E+02  0.51100000000E-03 0. -1.
        -11    1    3    3    0    0 -0.52851650222E+00 -0.27849391599E+01  0.66744196708E+00  0.29121632609E+01  0.51100000000E-03 0.  1.
        -12    1    3    3    0    0 -0.24994750994E+01 -0.29428447131E+02 -0.15390734490E+02  0.33303987516E+02  0.00000000000E+00 0.  1.
</event>
<event>
 7    1  0.4083500E-009  0.4778727E+02  0.7816164E-02  0.1312668E+00
        -11   -1    0    0    0    0  0.00000000000E+00  0.00000000000E+00  0.45593999997E+02  0.45594000000E+02  0.51100000000E-03 0.  1.
         11   -1    0    0    0    0 -0.00000000000E+00 -0.00000000000E+00 -0.45593999997E+02  0.45594000000E+02  0.51100000000E-03 0. -1.
    9900012    2    1    2    0    0 -0.14910210463E+02 -0.29184010341E+02 -0.28453518678E+02  0.47787267739E+02  0.19999984930E+02 0.  0.
        -12    1    1    2    0    0  0.14910210463E+02  0.29184010341E+02  0.28453518678E+02  0.43400732261E+02  0.00000000000E+00 0.  1.
         11    1    3    3    0    0 -0.96255059073E+01 -0.12683045060E+02 -0.12866916036E+02  0.20471138817E+02  0.51100000000E-03 0. -1.
        -11    1    3    3    0    0 -0.48984442981E+01 -0.12345373592E+01  0.57089089122E+00  0.50837737660E+01  0.51100000000E-03 0.  1.
         12    1    3    3    0    0 -0.38626025738E+00 -0.15266427922E+02 -0.16157493534E+02  0.22232355156E+02  0.00000000000E+00 0. -1.
</event>
<event>
 7    1  0.4083500E-009  0.4778727E+02  0.7816164E-02  0.1312668E+00
        -11   -1    0    0    0    0  0.00000000000E+00  0.00000000000E+00  0.45593999997E+02  0.45594000000E+02  0.51100000000E-03 0. -1.
         11   -1    0    0    0    0 -0.00000000000E+00 -0.00000000000E+00 -0.45593999997E+02  0.45594000000E+02  0.51100000000E-03 0.  1.
    9900012    2    1    2    0    0 -0.15415915344E+02 -0.25561551407E+02  0.31505241555E+02  0.47787267269E+02  0.19999982784E+02 0.  0.
        -12    1    1    2    0    0  0.15415915344E+02  0.25561551407E+02 -0.31505241555E+02  0.43400732731E+02  0.00000000000E+00 0.  1.
         11    1    3    3    0    0 -0.75347017937E+01 -0.20733705605E+02  0.20267064686E+02  0.29956838793E+02  0.51100000000E-03 0. -1.
        -11    1    3    3    0    0 -0.36124431322E+01 -0.78245525902E+01  0.66852829677E+01  0.10907170909E+02  0.51100000000E-03 0.  1.
        -12    1    3    3    0    0 -0.42687704177E+01  0.29967067884E+01  0.45528939017E+01  0.69232575666E+01  0.00000000000E+00 0.  1.
</event>
<event>
 7    1  0.4083500E-009  0.4778727E+02  0.7816164E-02  0.1312668E+00
        -11   -1    0    0    0    0  0.00000000000E+00  0.00000000000E+00  0.45593999997E+02  0.45594000000E+02  0.51100000000E-03 0. -1.
         11   -1    0    0    0    0 -0.00000000000E+00 -0.00000000000E+00 -0.45593999997E+02  0.45594000000E+02  0.51100000000E-03 0.  1.
    9900012    2    1    2    0    0  0.35292044024E+02 -0.21144040466E+02 -0.13821162797E+02  0.47787270056E+02  0.19999995493E+02 0.  0.
        -12    1    1    2    0    0 -0.35292044024E+02  0.21144040466E+02  0.13821162797E+02  0.43400729944E+02  0.00000000000E+00 0.  1.
         11    1    3    3    0    0  0.91474269725E+01 -0.92395083391E+01 -0.11194285199E+01  0.13049791379E+02  0.51100000000E-03 0. -1.
        -11    1    3    3    0    0  0.19025201921E+00 -0.28615040311E+01 -0.56910623423E+01  0.63728009537E+01  0.51100000000E-03 0.  1.
         12    1    3    3    0    0  0.25954365032E+02 -0.90430280958E+01 -0.70106719346E+01  0.28364677723E+02  0.00000000000E+00 0. -1.
</event>
<event>
 7    1  0.4083500E-009  0.4778723E+02  0.7816164E-02  0.1312668E+00
        -11   -1    0    0    0    0  0.00000000000E+00  0.00000000000E+00  0.45593999997E+02  0.45594000000E+02  0.51100000000E-03 0.  1.
         11   -1    0    0    0    0 -0.00000000000E+00 -0.00000000000E+00 -0.45593999997E+02  0.45594000000E+02  0.51100000000E-03 0. -1.
    9900012    2    1    2    0    0  0.13524244544E+02 -0.25351210453E+02 -0.32527487214E+02  0.47787234034E+02  0.19999831255E+02 0.  0.
        -12    1    1    2    0    0 -0.13524244544E+02  0.25351210453E+02  0.32527487214E+02  0.43400765966E+02  0.00000000000E+00 0.  1.
         11    1    3    3    0    0  0.57169620620E+01 -0.12522911499E+02 -0.48385226320E+01  0.14591719198E+02  0.51100000000E-03 0. -1.
        -11    1    3    3    0    0  0.57699017258E+01 -0.13561460882E+02 -0.17981534301E+02  0.23249528238E+02  0.51100000000E-03 0.  1.
        -12    1    3    3    0    0  0.20373807561E+01  0.73316192802E+00 -0.97074302815E+01  0.99459865990E+01  0.00000000000E+00 0.  1.
</event>
<event>
 7    1  0.4083500E-009  0.4778727E+02  0.7816164E-02  0.1312668E+00
        -11   -1    0    0    0    0  0.00000000000E+00  0.00000000000E+00  0.45593999997E+02  0.45594000000E+02  0.51100000000E-03 0.  1.
         11   -1    0    0    0    0 -0.00000000000E+00 -0.00000000000E+00 -0.45593999997E+02  0.45594000000E+02  0.51100000000E-03 0. -1.
    9900012    2    1    2    0    0 -0.74412328543E+01  0.70209520793E+01 -0.42177689912E+02  0.47787271425E+02  0.20000001736E+02 0.  0.
        -12    1    1    2    0    0  0.74412328543E+01 -0.70209520793E+01  0.42177689912E+02  0.43400728575E+02  0.00000000000E+00 0.  1.
         11    1    3    3    0    0 -0.23523084212E+01  0.15431311136E+01  0.80444405223E+00  0.29260449478E+01  0.51100000000E-03 0. -1.
        -11    1    3    3    0    0 -0.34262602414E+00 -0.20404787340E+01 -0.18384614287E+01  0.27678306925E+01  0.51100000000E-03 0.  1.
         12    1    3    3    0    0 -0.47462984089E+01  0.75182996997E+01 -0.41143672536E+02  0.42093395785E+02  0.00000000000E+00 0. -1.
</event>
<event>
 7    1  0.4083500E-009  0.4778727E+02  0.7816164E-02  0.1312668E+00
        -11   -1    0    0    0    0  0.00000000000E+00  0.00000000000E+00  0.45593999997E+02  0.45594000000E+02  0.51100000000E-03 0. -1.
         11   -1    0    0    0    0 -0.00000000000E+00 -0.00000000000E+00 -0.45593999997E+02  0.45594000000E+02  0.51100000000E-03 0.  1.
    9900012    2    1    2    0    0  0.22059622148E+02  0.14724338616E+01  0.37347400146E+02  0.47787270876E+02  0.19999999232E+02 0.  0.
        -12    1    1    2    0    0 -0.22059622148E+02 -0.14724338616E+01 -0.37347400146E+02  0.43400729124E+02  0.00000000000E+00 0.  1.
         11    1    3    3    0    0  0.22680923687E+02  0.18683256895E+01  0.32499293125E+02  0.39675168482E+02  0.51100000000E-03 0. -1.
        -11    1    3    3    0    0  0.10151880966E+01  0.27098365433E+01  0.29021420440E+01  0.40983227871E+01  0.51100000000E-03 0.  1.
         12    1    3    3    0    0 -0.16364896353E+01 -0.31057283711E+01  0.19459649774E+01  0.40137796072E+01  0.00000000000E+00 0. -1.
</event>
<event>
 7    1  0.4083500E-009  0.4778727E+02  0.7816164E-02  0.1312668E+00
        -11   -1    0    0    0    0  0.00000000000E+00  0.00000000000E+00  0.45593999997E+02  0.45594000000E+02  0.51100000000E-03 0.  1.
         11   -1    0    0    0    0 -0.00000000000E+00 -0.00000000000E+00 -0.45593999997E+02  0.45594000000E+02  0.51100000000E-03 0. -1.
    9900012    2    1    2    0    0  0.36580692804E+02  0.22845921120E+02 -0.48517956655E+01  0.47787272828E+02  0.20000008132E+02 0.  0.
        -12    1    1    2    0    0 -0.36580692804E+02 -0.22845921120E+02  0.48517956655E+01  0.43400727172E+02  0.00000000000E+00 0.  1.
         11    1    3    3    0    0  0.12554056947E+02  0.14144210036E+01  0.56318028400E+01  0.13831924526E+02  0.51100000000E-03 0.  1.
        -11    1    3    3    0    0  0.25384842580E+01  0.23008581802E+01 -0.19695370548E+01  0.39518258015E+01  0.51100000000E-03 0. -1.
        -12    1    3    3    0    0  0.21488151599E+02  0.19130641936E+02 -0.85140614508E+01  0.30003522500E+02  0.00000000000E+00 0.  1.
</event>
<event>
 7    1  0.4083500E-009  0.4778727E+02  0.7816164E-02  0.1312668E+00
        -11   -1    0    0    0    0  0.00000000000E+00  0.00000000000E+00  0.45593999997E+02  0.45594000000E+02  0.51100000000E-03 0. -1.
         11   -1    0    0    0    0 -0.00000000000E+00 -0.00000000000E+00 -0.45593999997E+02  0.45594000000E+02  0.51100000000E-03 0.  1.
    9900012    2    1    2    0    0  0.15973291453E+02  0.29654626549E+02  0.27369331580E+02  0.47787271587E+02  0.20000002473E+02 0.  0.
        -12    1    1    2    0    0 -0.15973291453E+02 -0.29654626549E+02 -0.27369331580E+02  0.43400728413E+02  0.00000000000E+00 0.  1.
         11    1    3    3    0    0  0.11755043099E+02  0.13261990563E+02  0.40398089472E+01  0.18176399219E+02  0.51100000000E-03 0. -1.
        -11    1    3    3    0    0 -0.14050201570E+01  0.32220431614E+01  0.24207783207E+01  0.42679985608E+01  0.51100000000E-03 0.  1.
        -12    1    3    3    0    0  0.56232685111E+01  0.13170592825E+02  0.20908744313E+02  0.25342873808E+02  0.00000000000E+00 0.  1.
</event>
<event>
 7    1  0.4083500E-009  0.4778727E+02  0.7816164E-02  0.1312668E+00
        -11   -1    0    0    0    0  0.00000000000E+00  0.00000000000E+00  0.45593999997E+02  0.45594000000E+02  0.51100000000E-03 0.  1.
         11   -1    0    0    0    0 -0.00000000000E+00 -0.00000000000E+00 -0.45593999997E+02  0.45594000000E+02  0.51100000000E-03 0. -1.
    9900012    2    1    2    0    0 -0.11442462806E+01  0.11390771055E+02 -0.41863635696E+02  0.47787274678E+02  0.20000016568E+02 0.  0.
        -12    1    1    2    0    0  0.11442462806E+01 -0.11390771055E+02  0.41863635696E+02  0.43400725322E+02  0.00000000000E+00 0.  1.
         11    1    3    3    0    0 -0.51416900539E+01  0.17918345148E+01 -0.11474542259E+02  0.12700896341E+02  0.51100000000E-03 0. -1.
        -11    1    3    3    0    0  0.93166664909E-02  0.99217549076E+01 -0.92262582357E+01  0.13548621647E+02  0.51100000000E-03 0.  1.
         12    1    3    3    0    0  0.39881271068E+01 -0.32281836721E+00 -0.21162835201E+02  0.21537756690E+02  0.00000000000E+00 0. -1.
</event>
<event>
 7    1  0.4083500E-009  0.4778727E+02  0.7816164E-02  0.1312668E+00
        -11   -1    0    0    0    0  0.00000000000E+00  0.00000000000E+00  0.45593999997E+02  0.45594000000E+02  0.51100000000E-03 0. -1.
         11   -1    0    0    0    0 -0.00000000000E+00 -0.00000000000E+00 -0.45593999997E+02  0.45594000000E+02  0.51100000000E-03 0.  1.
    9900012    2    1    2    0    0  0.62083952432E+01 -0.42871856999E+02 -0.26613968620E+01  0.47787270429E+02  0.19999997193E+02 0.  0.
        -12    1    1    2    0    0 -0.62083952432E+01  0.42871856999E+02  0.26613968620E+01  0.43400729571E+02  0.00000000000E+00 0.  1.
         11    1    3    3    0    0 -0.10490992471E+01 -0.96197897824E+01  0.13490181806E+01  0.97704050581E+01  0.51100000000E-03 0. -1.
        -11    1    3    3    0    0 -0.24539915247E+01 -0.14102290452E+02  0.43721506310E+01  0.14967042854E+02  0.51100000000E-03 0.  1.
        -12    1    3    3    0    0  0.97114860151E+01 -0.19149776765E+02 -0.83825656736E+01  0.23049822517E+02  0.00000000000E+00 0.  1.
</event>
<event>
 7    1  0.4083500E-009  0.4778727E+02  0.7816164E-02  0.1312668E+00
        -11   -1    0    0    0    0  0.00000000000E+00  0.00000000000E+00  0.45593999997E+02  0.45594000000E+02  0.51100000000E-03 0. -1.
         11   -1    0    0    0    0 -0.00000000000E+00 -0.00000000000E+00 -0.45593999997E+02  0.45594000000E+02  0.51100000000E-03 0.  1.
    9900012    2    1    2    0    0 -0.38124688540E+02  0.79358591214E+01 -0.19161245044E+02  0.47787273647E+02  0.20000011868E+02 0.  0.
        -12    1    1    2    0    0  0.38124688540E+02 -0.79358591214E+01  0.19161245044E+02  0.43400726353E+02  0.00000000000E+00 0.  1.
         11    1    3    3    0    0 -0.19098857311E+02  0.91563783335E+01 -0.10131038868E+02  0.23478576694E+02  0.51100000000E-03 0. -1.
        -11    1    3    3    0    0 -0.16287588863E+02 -0.75493794538E+00 -0.11998152818E+02  0.20243792964E+02  0.51100000000E-03 0.  1.
        -12    1    3    3    0    0 -0.27382423668E+01 -0.46558126672E+00  0.29679466420E+01  0.40649039896E+01  0.00000000000E+00 0.  1.
</event>
<event>
 7    1  0.4083500E-009  0.4778727E+02  0.7816164E-02  0.1312668E+00
        -11   -1    0    0    0    0  0.00000000000E+00  0.00000000000E+00  0.45593999997E+02  0.45594000000E+02  0.51100000000E-03 0.  1.
         11   -1    0    0    0    0 -0.00000000000E+00 -0.00000000000E+00 -0.45593999997E+02  0.45594000000E+02  0.51100000000E-03 0. -1.
    9900012    2    1    2    0    0 -0.28647301378E+02  0.30578330104E+02 -0.11310209953E+02  0.47787274230E+02  0.20000014522E+02 0.  0.
        -12    1    1    2    0    0  0.28647301378E+02 -0.30578330104E+02  0.11310209953E+02  0.43400725770E+02  0.00000000000E+00 0.  1.
         11    1    3    3    0    0 -0.98843647029E+01  0.88323958724E+01  0.48922365179E+01  0.14129609366E+02  0.51100000000E-03 0. -1.
        -11    1    3    3    0    0  0.50052864107E+00  0.34425033994E+00 -0.79432664154E+00  0.99999614582E+00  0.51100000000E-03 0.  1.
        -12    1    3    3    0    0 -0.19263465316E+02  0.21401683892E+02 -0.15408119829E+02  0.32657668718E+02  0.00000000000E+00 0.  1.
</event>
<event>
 7    1  0.4083500E-009  0.4778727E+02  0.7816164E-02  0.1312668E+00
        -11   -1    0    0    0    0  0.00000000000E+00  0.00000000000E+00  0.45593999997E+02  0.45594000000E+02  0.51100000000E-03 0.  1.
         11   -1    0    0    0    0 -0.00000000000E+00 -0.00000000000E+00 -0.45593999997E+02  0.45594000000E+02  0.51100000000E-03 0. -1.
    9900012    2    1    2    0    0 -0.40240908856E+02  0.13347091589E+02 -0.92815721950E+01  0.47787272105E+02  0.20000004834E+02 0.  0.
        -12    1    1    2    0    0  0.40240908856E+02 -0.13347091589E+02  0.92815721950E+01  0.43400727895E+02  0.00000000000E+00 0.  1.
         11    1    3    3    0    0 -0.21064820146E+02  0.13373527929E+02 -0.10835857198E+01  0.24975028635E+02  0.51100000000E-03 0. -1.
        -11    1    3    3    0    0 -0.69488536139E+00  0.25257407505E+01 -0.75985052637E+00  0.27275639475E+01  0.51100000000E-03 0.  1.
        -12    1    3    3    0    0 -0.18481203349E+02 -0.25521770904E+01 -0.74381359488E+01  0.20084679522E+02  0.00000000000E+00 0.  1.
</event>
<event>
 7    1  0.4083500E-009  0.4778727E+02  0.7816164E-02  0.1312668E+00
        -11   -1    0    0    0    0  0.00000000000E+00  0.00000000000E+00  0.45593999997E+02  0.45594000000E+02  0.51100000000E-03 0. -1.
         11   -1    0    0    0    0 -0.00000000000E+00 -0.00000000000E+00 -0.45593999997E+02  0.45594000000E+02  0.51100000000E-03 0.  1.
    9900012    2    1    2    0    0  0.37655636222E+02  0.21544188406E+01  0.21471719620E+02  0.47787271858E+02  0.20000003711E+02 0.  0.
        -12    1    1    2    0    0 -0.37655636222E+02 -0.21544188406E+01 -0.21471719620E+02  0.43400728142E+02  0.00000000000E+00 0.  1.
         11    1    3    3    0    0  0.15230990531E+02 -0.10057762447E+01  0.40059116809E+01  0.15781064193E+02  0.51100000000E-03 0. -1.
        -11    1    3    3    0    0  0.11668581686E+02 -0.55231238604E+01  0.71475023442E+01  0.14756269372E+02  0.51100000000E-03 0.  1.
         12    1    3    3    0    0  0.10756064004E+02  0.86833189458E+01  0.10318305595E+02  0.17249938293E+02  0.00000000000E+00 0. -1.
</event>
<event>
 7    1  0.4083500E-009  0.4778727E+02  0.7816164E-02  0.1312668E+00
        -11   -1    0    0    0    0  0.00000000000E+00  0.00000000000E+00  0.45593999997E+02  0.45594000000E+02  0.51100000000E-03 0. -1.
         11   -1    0    0    0    0 -0.00000000000E+00 -0.00000000000E+00 -0.45593999997E+02  0.45594000000E+02  0.51100000000E-03 0.  1.
    9900012    2    1    2    0    0  0.22319260492E+02 -0.35399555046E+02 -0.11504138217E+02  0.47787273249E+02  0.20000010053E+02 0.  0.
        -12    1    1    2    0    0 -0.22319260492E+02  0.35399555046E+02  0.11504138217E+02  0.43400726751E+02  0.00000000000E+00 0.  1.
         11    1    3    3    0    0  0.94979596591E+01 -0.12802758540E+02 -0.42767165882E+01  0.16504913480E+02  0.51100000000E-03 0. -1.
        -11    1    3    3    0    0  0.16377630734E+02 -0.19025332688E+02 -0.43468684759E+01  0.25477153259E+02  0.51100000000E-03 0.  1.
        -12    1    3    3    0    0 -0.35563299014E+01 -0.35714638172E+01 -0.28805531529E+01  0.58052065107E+01  0.00000000000E+00 0.  1.
</event>
<event>
 7    1  0.4083500E-009  0.4778728E+02  0.7816164E-02  0.1312668E+00
        -11   -1    0    0    0    0  0.00000000000E+00  0.00000000000E+00  0.45593999997E+02  0.45594000000E+02  0.51100000000E-03 0. -1.
         11   -1    0    0    0    0 -0.00000000000E+00 -0.00000000000E+00 -0.45593999997E+02  0.45594000000E+02  0.51100000000E-03 0.  1.
    9900012    2    1    2    0    0  0.42476330082E+02 -0.85818616011E+01  0.23949754361E+01  0.47787275662E+02  0.20000021052E+02 0.  0.
        -12    1    1    2    0    0 -0.42476330082E+02  0.85818616011E+01 -0.23949754361E+01  0.43400724338E+02  0.00000000000E+00 0.  1.
         11    1    3    3    0    0  0.76384267755E+00 -0.57068886476E+00 -0.28096593893E+01  0.29670402022E+01  0.51100000000E-03 0. -1.
        -11    1    3    3    0    0  0.63096249775E+01 -0.14948054029E+01 -0.40588556727E+01  0.76498444547E+01  0.51100000000E-03 0.  1.
         12    1    3    3    0    0  0.35402862427E+02 -0.65163673334E+01  0.92634904981E+01  0.37170391005E+02  0.00000000000E+00 0. -1.
</event>
<event>
 7    1  0.4083500E-009  0.4778727E+02  0.7816164E-02  0.1312668E+00
        -11   -1    0    0    0    0  0.00000000000E+00  0.00000000000E+00  0.45593999997E+02  0.45594000000E+02  0.51100000000E-03 0. -1.
         11   -1    0    0    0    0 -0.00000000000E+00 -0.00000000000E+00 -0.45593999997E+02  0.45594000000E+02  0.51100000000E-03 0.  1.
    9900012    2    1    2    0    0  0.10662823198E+02 -0.23377204259E+02  0.34977625442E+02  0.47787265455E+02  0.19999974514E+02 0.  0.
        -12    1    1    2    0    0 -0.10662823198E+02  0.23377204259E+02 -0.34977625442E+02  0.43400734545E+02  0.00000000000E+00 0.  1.
         11    1    3    3    0    0 -0.61439682677E+00  0.61257189092E+00  0.13648036699E+01  0.16172251237E+01  0.51100000000E-03 0.  1.
        -11    1    3    3    0    0  0.13488315889E+02 -0.21516995583E+02  0.20478706201E+02  0.32623506439E+02  0.51100000000E-03 0. -1.
         12    1    3    3    0    0 -0.22110958636E+01 -0.24727805666E+01  0.13134115571E+02  0.13546533892E+02  0.00000000000E+00 0. -1.
</event>
<event>
 7    1  0.4083500E-009  0.4778727E+02  0.7816164E-02  0.1312668E+00
        -11   -1    0    0    0    0  0.00000000000E+00  0.00000000000E+00  0.45593999997E+02  0.45594000000E+02  0.51100000000E-03 0. -1.
         11   -1    0    0    0    0 -0.00000000000E+00 -0.00000000000E+00 -0.45593999997E+02  0.45594000000E+02  0.51100000000E-03 0.  1.
    9900012    2    1    2    0    0  0.15910562419E+02 -0.14481647431E+02 -0.37692959679E+02  0.47787270535E+02  0.19999997676E+02 0.  0.
        -12    1    1    2    0    0 -0.15910562419E+02  0.14481647431E+02  0.37692959679E+02  0.43400729465E+02  0.00000000000E+00 0.  1.
         11    1    3    3    0    0  0.49837547462E+01 -0.40088473211E+01 -0.27127925489E+01  0.69475112011E+01  0.51100000000E-03 0. -1.
        -11    1    3    3    0    0 -0.44904785746E+00 -0.58440636626E+01 -0.30042421469E+01  0.65863643393E+01  0.51100000000E-03 0.  1.
        -12    1    3    3    0    0  0.11375855530E+02 -0.46287364471E+01 -0.31975924983E+02  0.34253394994E+02  0.00000000000E+00 0.  1.
</event>
<event>
 7    1  0.4083500E-009  0.4778726E+02  0.7816164E-02  0.1312668E+00
        -11   -1    0    0    0    0  0.00000000000E+00  0.00000000000E+00  0.45593999997E+02  0.45594000000E+02  0.51100000000E-03 0.  1.
         11   -1    0    0    0    0 -0.00000000000E+00 -0.00000000000E+00 -0.45593999997E+02  0.45594000000E+02  0.51100000000E-03 0. -1.
    9900012    2    1    2    0    0 -0.39426272122E+02  0.31511459699E+01 -0.17867941664E+02  0.47787262752E+02  0.19999962192E+02 0.  0.
        -12    1    1    2    0    0  0.39426272122E+02 -0.31511459699E+01  0.17867941664E+02  0.43400737248E+02  0.00000000000E+00 0.  1.
         11    1    3    3    0    0 -0.47726055636E+01  0.11208060081E+01  0.28238908910E+01  0.56575904764E+01  0.51100000000E-03 0. -1.
        -11    1    3    3    0    0 -0.21857939129E+01 -0.30952002170E+01 -0.27487902312E+01  0.46812185817E+01  0.51100000000E-03 0.  1.
         12    1    3    3    0    0 -0.32467872645E+02  0.51255401788E+01 -0.17943042324E+02  0.37448453694E+02  0.00000000000E+00 0. -1.
</event>
<event>
 7    1  0.4083500E-009  0.4778727E+02  0.7816164E-02  0.1312668E+00
        -11   -1    0    0    0    0  0.00000000000E+00  0.00000000000E+00  0.45593999997E+02  0.45594000000E+02  0.51100000000E-03 0.  1.
         11   -1    0    0    0    0 -0.00000000000E+00 -0.00000000000E+00 -0.45593999997E+02  0.45594000000E+02  0.51100000000E-03 0. -1.
    9900012    2    1    2    0    0 -0.43217764454E+02 -0.14185863861E+01 -0.37196322351E+01  0.47787271714E+02  0.20000003054E+02 0.  0.
        -12    1    1    2    0    0  0.43217764454E+02  0.14185863861E+01  0.37196322351E+01  0.43400728286E+02  0.00000000000E+00 0.  1.
         11    1    3    3    0    0 -0.63715230161E+01 -0.92101864837E+00 -0.80056233350E-01  0.64382443381E+01  0.51100000000E-03 0. -1.
        -11    1    3    3    0    0 -0.18383711390E+02  0.88676986217E+01 -0.55309602513E+00  0.20418198716E+02  0.51100000000E-03 0.  1.
        -12    1    3    3    0    0 -0.18462530048E+02 -0.93652663594E+01 -0.30864799767E+01  0.20930828661E+02  0.00000000000E+00 0.  1.
</event>
<event>
 7    1  0.4083500E-009  0.4778723E+02  0.7816164E-02  0.1312668E+00
        -11   -1    0    0    0    0  0.00000000000E+00  0.00000000000E+00  0.45593999997E+02  0.45594000000E+02  0.51100000000E-03 0. -1.
         11   -1    0    0    0    0 -0.00000000000E+00 -0.00000000000E+00 -0.45593999997E+02  0.45594000000E+02  0.51100000000E-03 0.  1.
    9900012    2    1    2    0    0  0.97805607494E+01 -0.41522443444E+02 -0.79908550165E+01  0.47787234546E+02  0.19999833586E+02 0.  0.
        -12    1    1    2    0    0 -0.97805607494E+01  0.41522443444E+02  0.79908550165E+01  0.43400765454E+02  0.00000000000E+00 0.  1.
         11    1    3    3    0    0  0.52548031723E+00 -0.13492952223E+02 -0.50863646467E+01  0.14429379572E+02  0.51100000000E-03 0. -1.
        -11    1    3    3    0    0  0.34973845123E+01 -0.48346808997E+00  0.29655199481E+01  0.46108294964E+01  0.51100000000E-03 0.  1.
        -12    1    3    3    0    0  0.57576959198E+01 -0.27546023131E+02 -0.58700103179E+01  0.28747025477E+02  0.00000000000E+00 0.  1.
</event>
<event>
 7    1  0.4083500E-009  0.4778726E+02  0.7816164E-02  0.1312668E+00
        -11   -1    0    0    0    0  0.00000000000E+00  0.00000000000E+00  0.45593999997E+02  0.45594000000E+02  0.51100000000E-03 0.  1.
         11   -1    0    0    0    0 -0.00000000000E+00 -0.00000000000E+00 -0.45593999997E+02  0.45594000000E+02  0.51100000000E-03 0. -1.
    9900012    2    1    2    0    0 -0.40786596461E+02 -0.10474286346E+02  0.10505575967E+02  0.47787259778E+02  0.19999948634E+02 0.  0.
        -12    1    1    2    0    0  0.40786596461E+02  0.10474286346E+02 -0.10505575967E+02  0.43400740222E+02  0.00000000000E+00 0.  1.
         11    1    3    3    0    0 -0.29706281592E+02 -0.14293751745E+02  0.87912505230E+01  0.34118332184E+02  0.51100000000E-03 0. -1.
        -11    1    3    3    0    0 -0.17171252784E+01 -0.18935545871E+01  0.71892377884E+00  0.26553568229E+01  0.51100000000E-03 0.  1.
         12    1    3    3    0    0 -0.93631895908E+01  0.57130199857E+01  0.99540166519E+00  0.11013570772E+02  0.00000000000E+00 0. -1.
</event>
<event>
 7    1  0.4083500E-009  0.4778727E+02  0.7816164E-02  0.1312668E+00
        -11   -1    0    0    0    0  0.00000000000E+00  0.00000000000E+00  0.45593999997E+02  0.45594000000E+02  0.51100000000E-03 0.  1.
         11   -1    0    0    0    0 -0.00000000000E+00 -0.00000000000E+00 -0.45593999997E+02  0.45594000000E+02  0.51100000000E-03 0. -1.
    9900012    2    1    2    0    0 -0.21366316654E+02 -0.36170753658E+02 -0.10898640130E+02  0.47787271156E+02  0.20000000509E+02 0.  0.
        -12    1    1    2    0    0  0.21366316654E+02  0.36170753658E+02  0.10898640130E+02  0.43400728844E+02  0.00000000000E+00 0.  1.
         11    1    3    3    0    0 -0.67323593876E+01 -0.72885770535E+01  0.15513433848E+01  0.10042643325E+02  0.51100000000E-03 0. -1.
        -11    1    3    3    0    0  0.14993628798E+00  0.16654508608E+01 -0.30413935710E+00  0.16996200957E+01  0.51100000000E-03 0.  1.
         12    1    3    3    0    0 -0.14783893554E+02 -0.30547627465E+02 -0.12145844157E+02  0.36045007735E+02  0.00000000000E+00 0. -1.
</event>
<event>
 7    1  0.4083500E-009  0.4778727E+02  0.7816164E-02  0.1312668E+00
        -11   -1    0    0    0    0  0.00000000000E+00  0.00000000000E+00  0.45593999997E+02  0.45594000000E+02  0.51100000000E-03 0. -1.
         11   -1    0    0    0    0 -0.00000000000E+00 -0.00000000000E+00 -0.45593999997E+02  0.45594000000E+02  0.51100000000E-03 0.  1.
    9900012    2    1    2    0    0 -0.39103876061E+02  0.35541436045E+01  0.18489951140E+02  0.47787270133E+02  0.19999995846E+02 0.  0.
        -12    1    1    2    0    0  0.39103876061E+02 -0.35541436045E+01 -0.18489951140E+02  0.43400729867E+02  0.00000000000E+00 0.  1.
         11    1    3    3    0    0 -0.25812755582E+01 -0.10524640973E+01  0.33445411762E+01  0.43539200870E+01  0.51100000000E-03 0. -1.
        -11    1    3    3    0    0 -0.27701170359E+02  0.10401339518E+02  0.78828795542E+01  0.30621601744E+02  0.51100000000E-03 0.  1.
        -12    1    3    3    0    0 -0.88214301440E+01 -0.57947318164E+01  0.72625304097E+01  0.12811748302E+02  0.00000000000E+00 0.  1.
</event>
<event>
 7    1  0.4083500E-009  0.4778727E+02  0.7816164E-02  0.1312668E+00
        -11   -1    0    0    0    0  0.00000000000E+00  0.00000000000E+00  0.45593999997E+02  0.45594000000E+02  0.51100000000E-03 0.  1.
         11   -1    0    0    0    0 -0.00000000000E+00 -0.00000000000E+00 -0.45593999997E+02  0.45594000000E+02  0.51100000000E-03 0. -1.
    9900012    2    1    2    0    0  0.12374633512E+02  0.41588981470E+02  0.92102108483E+00  0.47787271733E+02  0.20000003140E+02 0.  0.
        -12    1    1    2    0    0 -0.12374633512E+02 -0.41588981470E+02 -0.92102108483E+00  0.43400728267E+02  0.00000000000E+00 0.  1.
         11    1    3    3    0    0  0.63360516974E+01  0.61385339585E+01  0.98037584056E+00  0.88762766587E+01  0.51100000000E-03 0. -1.
        -11    1    3    3    0    0  0.75106951195E+01  0.14196265002E+02  0.53528657181E+01  0.16929195281E+02  0.51100000000E-03 0.  1.
         12    1    3    3    0    0 -0.14721133052E+01  0.21254182509E+02 -0.54122204739E+01  0.21981799794E+02  0.00000000000E+00 0. -1.
</event>
<event>
 7    1  0.4083500E-009  0.4778727E+02  0.7816164E-02  0.1312668E+00
        -11   -1    0    0    0    0  0.00000000000E+00  0.00000000000E+00  0.45593999997E+02  0.45594000000E+02  0.51100000000E-03 0. -1.
         11   -1    0    0    0    0 -0.00000000000E+00 -0.00000000000E+00 -0.45593999997E+02  0.45594000000E+02  0.51100000000E-03 0.  1.
    9900012    2    1    2    0    0 -0.27400516410E+02  0.31685504579E+02  0.11351816000E+02  0.47787271590E+02  0.20000002489E+02 0.  0.
        -12    1    1    2    0    0  0.27400516410E+02 -0.31685504579E+02 -0.11351816000E+02  0.43400728410E+02  0.00000000000E+00 0.  1.
         11    1    3    3    0    0  0.10027195720E+01  0.85113212582E+01  0.56459315743E+01  0.10262776413E+02  0.51100000000E-03 0. -1.
        -11    1    3    3    0    0 -0.38148057390E+01  0.15041989442E+01 -0.61308616023E+00  0.41462310827E+01  0.51100000000E-03 0.  1.
         12    1    3    3    0    0 -0.24588430243E+02  0.21669984377E+02  0.63189705858E+01  0.33378264095E+02  0.00000000000E+00 0. -1.
</event>
<event>
 7    1  0.4083500E-009  0.4778725E+02  0.7816164E-02  0.1312668E+00
        -11   -1    0    0    0    0  0.00000000000E+00  0.00000000000E+00  0.45593999997E+02  0.45594000000E+02  0.51100000000E-03 0. -1.
         11   -1    0    0    0    0 -0.00000000000E+00 -0.00000000000E+00 -0.45593999997E+02  0.45594000000E+02  0.51100000000E-03 0.  1.
    9900012    2    1    2    0    0  0.27276483003E+02  0.27761142440E+02  0.19207740303E+02  0.47787252977E+02  0.19999917623E+02 0.  0.
        -12    1    1    2    0    0 -0.27276483003E+02 -0.27761142440E+02 -0.19207740303E+02  0.43400747023E+02  0.00000000000E+00 0.  1.
         11    1    3    3    0    0  0.45185767777E+01  0.11029159357E+02  0.34747914195E+01  0.12415074220E+02  0.51100000000E-03 0. -1.
        -11    1    3    3    0    0  0.22665003947E+02  0.18820059721E+02  0.15442021964E+02  0.33261886513E+02  0.51100000000E-03 0.  1.
        -12    1    3    3    0    0  0.92902278336E-01 -0.20880766383E+01  0.29092692000E+00  0.21102922436E+01  0.00000000000E+00 0.  1.
</event>
<event>
 7    1  0.4083500E-009  0.4778727E+02  0.7816164E-02  0.1312668E+00
        -11   -1    0    0    0    0  0.00000000000E+00  0.00000000000E+00  0.45593999997E+02  0.45594000000E+02  0.51100000000E-03 0.  1.
         11   -1    0    0    0    0 -0.00000000000E+00 -0.00000000000E+00 -0.45593999997E+02  0.45594000000E+02  0.51100000000E-03 0. -1.
    9900012    2    1    2    0    0  0.27698931384E+02 -0.64016258290E+01 -0.32793468795E+02  0.47787271795E+02  0.20000003424E+02 0.  0.
        -12    1    1    2    0    0 -0.27698931384E+02  0.64016258290E+01  0.32793468795E+02  0.43400728205E+02  0.00000000000E+00 0.  1.
         11    1    3    3    0    0  0.15035899084E+02 -0.24790250185E+01 -0.77883158667E+01  0.17113786566E+02  0.51100000000E-03 0. -1.
        -11    1    3    3    0    0  0.13374775699E+02 -0.60485395460E+01 -0.24175592870E+02  0.28283011624E+02  0.51100000000E-03 0.  1.
         12    1    3    3    0    0 -0.71174339816E+00  0.21259387355E+01 -0.82956005767E+00  0.23904736061E+01  0.00000000000E+00 0. -1.
</event>
<event>
 7    1  0.4083500E-009  0.4778727E+02  0.7816164E-02  0.1312668E+00
        -11   -1    0    0    0    0  0.00000000000E+00  0.00000000000E+00  0.45593999997E+02  0.45594000000E+02  0.51100000000E-03 0.  1.
         11   -1    0    0    0    0 -0.00000000000E+00 -0.00000000000E+00 -0.45593999997E+02  0.45594000000E+02  0.51100000000E-03 0. -1.
    9900012    2    1    2    0    0  0.15217927124E+00  0.23647675756E+02 -0.36392139252E+02  0.47787268134E+02  0.19999986730E+02 0.  0.
        -12    1    1    2    0    0 -0.15217927124E+00 -0.23647675756E+02  0.36392139252E+02  0.43400731866E+02  0.00000000000E+00 0.  1.
         11    1    3    3    0    0  0.36549199082E+00  0.10112467050E+02 -0.15571266597E+02  0.18570404356E+02  0.51100000000E-03 0. -1.
        -11    1    3    3    0    0  0.75249664617E+01  0.65164055457E+01 -0.11567071004E+02  0.15260596101E+02  0.51100000000E-03 0.  1.
         12    1    3    3    0    0 -0.77382791812E+01  0.70188031605E+01 -0.92538016499E+01  0.13956267677E+02  0.00000000000E+00 0. -1.
</event>
<event>
 7    1  0.4083500E-009  0.4778727E+02  0.7816164E-02  0.1312668E+00
        -11   -1    0    0    0    0  0.00000000000E+00  0.00000000000E+00  0.45593999997E+02  0.45594000000E+02  0.51100000000E-03 0. -1.
         11   -1    0    0    0    0 -0.00000000000E+00 -0.00000000000E+00 -0.45593999997E+02  0.45594000000E+02  0.51100000000E-03 0.  1.
    9900012    2    1    2    0    0  0.34230636436E+02 -0.15287806645E+02  0.21867089688E+02  0.47787272883E+02  0.20000008385E+02 0.  0.
        -12    1    1    2    0    0 -0.34230636436E+02  0.15287806645E+02 -0.21867089688E+02  0.43400727117E+02  0.00000000000E+00 0.  1.
         11    1    3    3    0    0  0.24927850765E+02 -0.12461645359E+01  0.14618072892E+02  0.28924707866E+02  0.51100000000E-03 0. -1.
        -11    1    3    3    0    0  0.39613702125E+01 -0.39825088284E+01  0.53753937153E+00  0.56428520596E+01  0.51100000000E-03 0.  1.
         12    1    3    3    0    0  0.53414154586E+01 -0.10059133281E+02  0.67114774240E+01  0.13219712958E+02  0.00000000000E+00 0. -1.
</event>
<event>
 7    1  0.4083500E-009  0.4778727E+02  0.7816164E-02  0.1312668E+00
        -11   -1    0    0    0    0  0.00000000000E+00  0.00000000000E+00  0.45593999997E+02  0.45594000000E+02  0.51100000000E-03 0. -1.
         11   -1    0    0    0    0 -0.00000000000E+00 -0.00000000000E+00 -0.45593999997E+02  0.45594000000E+02  0.51100000000E-03 0.  1.
    9900012    2    1    2    0    0 -0.21652097987E+02 -0.36027228477E+02  0.10809668866E+02  0.47787268671E+02  0.19999989177E+02 0.  0.
        -12    1    1    2    0    0  0.21652097987E+02  0.36027228477E+02 -0.10809668866E+02  0.43400731329E+02  0.00000000000E+00 0.  1.
         11    1    3    3    0    0 -0.91713824442E+00 -0.32852256326E+01  0.37408734920E+01  0.50624089879E+01  0.51100000000E-03 0. -1.
        -11    1    3    3    0    0 -0.54962331654E+01 -0.94726577476E+01  0.99037467042E+01  0.14765636554E+02  0.51100000000E-03 0.  1.
         12    1    3    3    0    0 -0.15238726577E+02 -0.23269345096E+02 -0.28349513300E+01  0.27959223128E+02  0.00000000000E+00 0. -1.
</event>
<event>
 7    1  0.4083500E-009  0.4778725E+02  0.7816164E-02  0.1312668E+00
        -11   -1    0    0    0    0  0.00000000000E+00  0.00000000000E+00  0.45593999997E+02  0.45594000000E+02  0.51100000000E-03 0.  1.
         11   -1    0    0    0    0 -0.00000000000E+00 -0.00000000000E+00 -0.45593999997E+02  0.45594000000E+02  0.51100000000E-03 0. -1.
    9900012    2    1    2    0    0 -0.20091379035E+02 -0.26187180210E+02 -0.28181425811E+02  0.47787254850E+02  0.19999926163E+02 0.  0.
        -12    1    1    2    0    0  0.20091379035E+02  0.26187180210E+02  0.28181425811E+02  0.43400745150E+02  0.00000000000E+00 0.  1.
         11    1    3    3    0    0 -0.12878732544E+02 -0.11042625323E+02 -0.15406822979E+02  0.22916621054E+02  0.51100000000E-03 0. -1.
        -11    1    3    3    0    0 -0.67118730620E+01 -0.34940665396E+01  0.95622713128E-02  0.75668905557E+01  0.51100000000E-03 0.  1.
         12    1    3    3    0    0 -0.50077342924E+00 -0.11650488347E+02 -0.12784165103E+02  0.17303743240E+02  0.00000000000E+00 0. -1.
</event>
<event>
 7    1  0.4083500E-009  0.4778728E+02  0.7816164E-02  0.1312668E+00
        -11   -1    0    0    0    0  0.00000000000E+00  0.00000000000E+00  0.45593999997E+02  0.45594000000E+02  0.51100000000E-03 0.  1.
         11   -1    0    0    0    0 -0.00000000000E+00 -0.00000000000E+00 -0.45593999997E+02  0.45594000000E+02  0.51100000000E-03 0. -1.
    9900012    2    1    2    0    0 -0.61897369057E+01  0.17865191157E+02  0.39065905460E+02  0.47787275727E+02  0.20000021348E+02 0.  0.
        -12    1    1    2    0    0  0.61897369057E+01 -0.17865191157E+02 -0.39065905460E+02  0.43400724273E+02  0.00000000000E+00 0.  1.
         11    1    3    3    0    0  0.17781905455E+01  0.21632176820E+01  0.10907044074E+02  0.11260776308E+02  0.51100000000E-03 0. -1.
        -11    1    3    3    0    0 -0.53279023901E+01 -0.87509298380E+00  0.27126181600E+01  0.60424025976E+01  0.51100000000E-03 0.  1.
         12    1    3    3    0    0 -0.26400250611E+01  0.16577066459E+02  0.25446243226E+02  0.30484096821E+02  0.00000000000E+00 0. -1.
</event>
<event>
 7    1  0.4083500E-009  0.4778726E+02  0.7816164E-02  0.1312668E+00
        -11   -1    0    0    0    0  0.00000000000E+00  0.00000000000E+00  0.45593999997E+02  0.45594000000E+02  0.51100000000E-03 0. -1.
         11   -1    0    0    0    0 -0.00000000000E+00 -0.00000000000E+00 -0.45593999997E+02  0.45594000000E+02  0.51100000000E-03 0.  1.
    9900012    2    1    2    0    0 -0.25982510275E+02 -0.27921228310E+02  0.20710836641E+02  0.47787255941E+02  0.19999931137E+02 0.  0.
        -12    1    1    2    0    0  0.25982510275E+02  0.27921228310E+02 -0.20710836641E+02  0.43400744059E+02  0.00000000000E+00 0.  1.
         11    1    3    3    0    0 -0.27402076216E+01 -0.44372667244E+01  0.70877312944E+01  0.87996595932E+01  0.51100000000E-03 0. -1.
        -11    1    3    3    0    0 -0.72030349655E+01 -0.12019998739E+01 -0.17675995897E+01  0.75135161530E+01  0.51100000000E-03 0.  1.
        -12    1    3    3    0    0 -0.16039267688E+02 -0.22281961712E+02  0.15390704936E+02  0.31474080195E+02  0.00000000000E+00 0.  1.
</event>
<event>
 7    1  0.4083500E-009  0.4778727E+02  0.7816164E-02  0.1312668E+00
        -11   -1    0    0    0    0  0.00000000000E+00  0.00000000000E+00  0.45593999997E+02  0.45594000000E+02  0.51100000000E-03 0.  1.
         11   -1    0    0    0    0 -0.00000000000E+00 -0.00000000000E+00 -0.45593999997E+02  0.45594000000E+02  0.51100000000E-03 0. -1.
    9900012    2    1    2    0    0 -0.16642783157E+02  0.32191876059E+02 -0.23881459889E+02  0.47787271414E+02  0.20000001685E+02 0.  0.
        -12    1    1    2    0    0  0.16642783157E+02 -0.32191876059E+02  0.23881459889E+02  0.43400728586E+02  0.00000000000E+00 0.  1.
         11    1    3    3    0    0 -0.15563976115E+02  0.32886582647E+02 -0.17730343208E+02  0.40473815501E+02  0.51100000000E-03 0. -1.
        -11    1    3    3    0    0 -0.21956145802E+00  0.81501909587E+00  0.77039135775E-01  0.84758400766E+00  0.51100000000E-03 0.  1.
        -12    1    3    3    0    0 -0.85924558385E+00 -0.15097256844E+01 -0.62281558167E+01  0.64658719051E+01  0.00000000000E+00 0.  1.
</event>
<event>
 7    1  0.4203579E-009  0.4778727E+02  0.7816164E-02  0.1312668E+00
        -11   -1    0    0    0    0  0.00000000000E+00  0.00000000000E+00  0.45593999997E+02  0.45594000000E+02  0.51100000000E-03 0. -1.
         11   -1    0    0    0    0 -0.00000000000E+00 -0.00000000000E+00 -0.45593999997E+02  0.45594000000E+02  0.51100000000E-03 0.  1.
    9900012    2    1    2    0    0  0.42647334470E+02  0.48099321892E+01  0.64569675778E+01  0.47787274022E+02  0.20000013578E+02 0.  0.
        -12    1    1    2    0    0 -0.42647334470E+02 -0.48099321892E+01 -0.64569675778E+01  0.43400725978E+02  0.00000000000E+00 0.  1.
         11    1    3    3    0    0  0.14843540734E+02 -0.20635513871E+01 -0.31413374653E+01  0.15311987042E+02  0.51100000000E-03 0. -1.
        -11    1    3    3    0    0  0.22693623835E+02  0.31104669218E+00  0.66344971295E+01  0.23645588706E+02  0.51100000000E-03 0.  1.
        -12    1    3    3    0    0  0.51101699016E+01  0.65624368841E+01  0.29638079136E+01  0.88296982751E+01  0.00000000000E+00 0.  1.
</event>
<event>
 7    1  0.4083500E-009  0.4778727E+02  0.7816164E-02  0.1312668E+00
        -11   -1    0    0    0    0  0.00000000000E+00  0.00000000000E+00  0.45593999997E+02  0.45594000000E+02  0.51100000000E-03 0.  1.
         11   -1    0    0    0    0 -0.00000000000E+00 -0.00000000000E+00 -0.45593999997E+02  0.45594000000E+02  0.51100000000E-03 0. -1.
    9900012    2    1    2    0    0  0.30399269528E+02 -0.21296004635E+02 -0.22494176692E+02  0.47787269749E+02  0.19999994093E+02 0.  0.
        -12    1    1    2    0    0 -0.30399269528E+02  0.21296004635E+02  0.22494176692E+02  0.43400730251E+02  0.00000000000E+00 0.  1.
         11    1    3    3    0    0  0.19524367076E+02 -0.60863494204E+01 -0.17318067939E+02  0.26798508100E+02  0.51100000000E-03 0. -1.
        -11    1    3    3    0    0  0.13821809938E+00  0.90560545871E+00 -0.58711786188E+00  0.10880869150E+01  0.51100000000E-03 0.  1.
        -12    1    3    3    0    0  0.10736684353E+02 -0.16115260673E+02 -0.45889908913E+01  0.19900674734E+02  0.00000000000E+00 0.  1.
</event>
<event>
 7    1  0.4083500E-009  0.4778726E+02  0.7816164E-02  0.1312668E+00
        -11   -1    0    0    0    0  0.00000000000E+00  0.00000000000E+00  0.45593999997E+02  0.45594000000E+02  0.51100000000E-03 0. -1.
         11   -1    0    0    0    0 -0.00000000000E+00 -0.00000000000E+00 -0.45593999997E+02  0.45594000000E+02  0.51100000000E-03 0.  1.
    9900012    2    1    2    0    0 -0.36984223246E+02  0.19403758609E+02  0.11801932077E+02  0.47787260168E+02  0.19999950408E+02 0.  0.
        -12    1    1    2    0    0  0.36984223246E+02 -0.19403758609E+02 -0.11801932077E+02  0.43400739832E+02  0.00000000000E+00 0.  1.
         11    1    3    3    0    0 -0.19190326106E+02  0.10357332802E+02  0.91036286037E+01  0.23630891071E+02  0.51100000000E-03 0. -1.
        -11    1    3    3    0    0 -0.17013430804E+02  0.26648625394E+01  0.97562353401E-01  0.17221145105E+02  0.51100000000E-03 0.  1.
        -12    1    3    3    0    0 -0.78046633674E+00  0.63815632667E+01  0.26007411199E+01  0.69352239908E+01  0.00000000000E+00 0.  1.
</event>
<event>
 7    1  0.4083500E-009  0.4778727E+02  0.7816164E-02  0.1312668E+00
        -11   -1    0    0    0    0  0.00000000000E+00  0.00000000000E+00  0.45593999997E+02  0.45594000000E+02  0.51100000000E-03 0.  1.
         11   -1    0    0    0    0 -0.00000000000E+00 -0.00000000000E+00 -0.45593999997E+02  0.45594000000E+02  0.51100000000E-03 0. -1.
    9900012    2    1    2    0    0  0.92262986164E+01 -0.25708881530E+02 -0.33727612197E+02  0.47787274197E+02  0.20000014374E+02 0.  0.
        -12    1    1    2    0    0 -0.92262986164E+01  0.25708881530E+02  0.33727612197E+02  0.43400725803E+02  0.00000000000E+00 0.  1.
         11    1    3    3    0    0 -0.54097233700E+01 -0.10683147208E+02 -0.13139004644E+02  0.17777181568E+02  0.51100000000E-03 0. -1.
        -11    1    3    3    0    0  0.47061454262E+01 -0.31148460986E+01 -0.24670523611E+01  0.61592547117E+01  0.51100000000E-03 0.  1.
        -12    1    3    3    0    0  0.99298765603E+01 -0.11910888224E+02 -0.18121555192E+02  0.23850837917E+02  0.00000000000E+00 0.  1.
</event>
<event>
 7    1  0.4083500E-009  0.4778727E+02  0.7816164E-02  0.1312668E+00
        -11   -1    0    0    0    0  0.00000000000E+00  0.00000000000E+00  0.45593999997E+02  0.45594000000E+02  0.51100000000E-03 0. -1.
         11   -1    0    0    0    0 -0.00000000000E+00 -0.00000000000E+00 -0.45593999997E+02  0.45594000000E+02  0.51100000000E-03 0.  1.
    9900012    2    1    2    0    0 -0.48104617783E+01 -0.34372769761E+02  0.26057547330E+02  0.47787267098E+02  0.19999982008E+02 0.  0.
        -12    1    1    2    0    0  0.48104617783E+01  0.34372769761E+02 -0.26057547330E+02  0.43400732902E+02  0.00000000000E+00 0.  1.
         11    1    3    3    0    0  0.42872171246E+01 -0.93491514073E+01  0.15265141770E+01  0.10397937704E+02  0.51100000000E-03 0. -1.
        -11    1    3    3    0    0 -0.35064046035E+01 -0.11577589088E+01  0.35901276299E+01  0.51501743266E+01  0.51100000000E-03 0.  1.
         12    1    3    3    0    0 -0.55912742994E+01 -0.23865859445E+02  0.20940905523E+02  0.32239155067E+02  0.00000000000E+00 0. -1.
</event>
<event>
 7    1  0.4083500E-009  0.4778727E+02  0.7816164E-02  0.1312668E+00
        -11   -1    0    0    0    0  0.00000000000E+00  0.00000000000E+00  0.45593999997E+02  0.45594000000E+02  0.51100000000E-03 0. -1.
         11   -1    0    0    0    0 -0.00000000000E+00 -0.00000000000E+00 -0.45593999997E+02  0.45594000000E+02  0.51100000000E-03 0.  1.
    9900012    2    1    2    0    0  0.34610644917E+02  0.26159040569E+02  0.11963730738E+01  0.47787268973E+02  0.19999990558E+02 0.  0.
        -12    1    1    2    0    0 -0.34610644917E+02 -0.26159040569E+02 -0.11963730738E+01  0.43400731027E+02  0.00000000000E+00 0.  1.
         11    1    3    3    0    0  0.21960112113E+02  0.99740537910E+01 -0.59287202119E+00  0.24126329404E+02  0.51100000000E-03 0. -1.
        -11    1    3    3    0    0  0.10485791655E+02  0.12940655326E+02 -0.35687386203E+01  0.17033739534E+02  0.51100000000E-03 0.  1.
        -12    1    3    3    0    0  0.21647411497E+01  0.32443314521E+01  0.53579837153E+01  0.66272000354E+01  0.00000000000E+00 0.  1.
</event>
<event>
 7    1  0.4083500E-009  0.4778728E+02  0.7816164E-02  0.1312668E+00
        -11   -1    0    0    0    0  0.00000000000E+00  0.00000000000E+00  0.45593999997E+02  0.45594000000E+02  0.51100000000E-03 0. -1.
         11   -1    0    0    0    0 -0.00000000000E+00 -0.00000000000E+00 -0.45593999997E+02  0.45594000000E+02  0.51100000000E-03 0.  1.
    9900012    2    1    2    0    0 -0.32313804755E+01 -0.16731071615E+02  0.39915556063E+02  0.47787283497E+02  0.20000056778E+02 0.  0.
        -12    1    1    2    0    0  0.32313804755E+01  0.16731071615E+02 -0.39915556063E+02  0.43400716503E+02  0.00000000000E+00 0.  1.
         11    1    3    3    0    0 -0.66736956352E+01 -0.48642700965E+01  0.21219553353E+02  0.22769909568E+02  0.51100000000E-03 0. -1.
        -11    1    3    3    0    0  0.22305569270E+01 -0.76316195010E+01  0.19005285868E+02  0.20601405088E+02  0.51100000000E-03 0.  1.
        -12    1    3    3    0    0  0.12117582327E+01 -0.42351820173E+01 -0.30928315804E+00  0.44159688411E+01  0.00000000000E+00 0.  1.
</event>
<event>
 7    1  0.4083500E-009  0.4778727E+02  0.7816164E-02  0.1312668E+00
        -11   -1    0    0    0    0  0.00000000000E+00  0.00000000000E+00  0.45593999997E+02  0.45594000000E+02  0.51100000000E-03 0.  1.
         11   -1    0    0    0    0 -0.00000000000E+00 -0.00000000000E+00 -0.45593999997E+02  0.45594000000E+02  0.51100000000E-03 0. -1.
    9900012    2    1    2    0    0 -0.39337627788E+02 -0.13645006271E+02 -0.12246955242E+02  0.47787273407E+02  0.20000010771E+02 0.  0.
        -12    1    1    2    0    0  0.39337627788E+02  0.13645006271E+02  0.12246955242E+02  0.43400726593E+02  0.00000000000E+00 0.  1.
         11    1    3    3    0    0 -0.27563970494E+02 -0.98624864994E+01 -0.11470758031E+02  0.31442318607E+02  0.51100000000E-03 0. -1.
        -11    1    3    3    0    0 -0.45551895715E+01  0.39592145481E+00 -0.51831273482E+01  0.69116796222E+01  0.51100000000E-03 0.  1.
        -12    1    3    3    0    0 -0.72184677227E+01 -0.41784412260E+01  0.44069301370E+01  0.94332751775E+01  0.00000000000E+00 0.  1.
</event>
<event>
 7    1  0.4083500E-009  0.4778727E+02  0.7816164E-02  0.1312668E+00
        -11   -1    0    0    0    0  0.00000000000E+00  0.00000000000E+00  0.45593999997E+02  0.45594000000E+02  0.51100000000E-03 0.  1.
         11   -1    0    0    0    0 -0.00000000000E+00 -0.00000000000E+00 -0.45593999997E+02  0.45594000000E+02  0.51100000000E-03 0. -1.
    9900012    2    1    2    0    0 -0.62939365008E+01  0.16126152630E+02 -0.39798960895E+02  0.47787265863E+02  0.19999976375E+02 0.  0.
        -12    1    1    2    0    0  0.62939365008E+01 -0.16126152630E+02  0.39798960895E+02  0.43400734137E+02  0.00000000000E+00 0.  1.
         11    1    3    3    0    0  0.20695872285E+01  0.48869310407E+01 -0.58304348838E+01  0.78841142488E+01  0.51100000000E-03 0. -1.
        -11    1    3    3    0    0  0.38211270381E+00  0.92412837960E+00 -0.21454982657E+02  0.21478275175E+02  0.51100000000E-03 0.  1.
         12    1    3    3    0    0 -0.87456364331E+01  0.10315093209E+02 -0.12513543354E+02  0.18424876439E+02  0.00000000000E+00 0. -1.
</event>
<event>
 7    1  0.4083500E-009  0.4778727E+02  0.7816164E-02  0.1312668E+00
        -11   -1    0    0    0    0  0.00000000000E+00  0.00000000000E+00  0.45593999997E+02  0.45594000000E+02  0.51100000000E-03 0.  1.
         11   -1    0    0    0    0 -0.00000000000E+00 -0.00000000000E+00 -0.45593999997E+02  0.45594000000E+02  0.51100000000E-03 0. -1.
    9900012    2    1    2    0    0  0.25851701021E+02 -0.29178028444E+02 -0.19077618068E+02  0.47787270735E+02  0.19999998590E+02 0.  0.
        -12    1    1    2    0    0 -0.25851701021E+02  0.29178028444E+02  0.19077618068E+02  0.43400729265E+02  0.00000000000E+00 0.  1.
         11    1    3    3    0    0  0.81330188955E+01 -0.19899225351E+02 -0.60422708933E+01  0.22330118758E+02  0.51100000000E-03 0. -1.
        -11    1    3    3    0    0 -0.51126686364E+00  0.48963619273E+00  0.38159111412E+00  0.80420734055E+00  0.51100000000E-03 0.  1.
        -12    1    3    3    0    0  0.18229948989E+02 -0.97684392857E+01 -0.13416938289E+02  0.24652944637E+02  0.00000000000E+00 0.  1.
</event>
<event>
 7    1  0.4083500E-009  0.4778727E+02  0.7816164E-02  0.1312668E+00
        -11   -1    0    0    0    0  0.00000000000E+00  0.00000000000E+00  0.45593999997E+02  0.45594000000E+02  0.51100000000E-03 0. -1.
         11   -1    0    0    0    0 -0.00000000000E+00 -0.00000000000E+00 -0.45593999997E+02  0.45594000000E+02  0.51100000000E-03 0.  1.
    9900012    2    1    2    0    0  0.21203446908E+02 -0.16897698264E+02  0.33889599164E+02  0.47787270756E+02  0.19999998684E+02 0.  0.
        -12    1    1    2    0    0 -0.21203446908E+02  0.16897698264E+02 -0.33889599164E+02  0.43400729244E+02  0.00000000000E+00 0.  1.
         11    1    3    3    0    0  0.77707196289E+01 -0.68100051332E+01  0.23859073245E+01  0.10604376808E+02  0.51100000000E-03 0. -1.
        -11    1    3    3    0    0  0.38272104908E+01 -0.27154562043E+01  0.16621737466E+01  0.49783596056E+01  0.51100000000E-03 0.  1.
         12    1    3    3    0    0  0.96055167884E+01 -0.73722369263E+01  0.29841518093E+02  0.32204534342E+02  0.00000000000E+00 0. -1.
</event>
<event>
 7    1  0.4083500E-009  0.4778728E+02  0.7816164E-02  0.1312668E+00
        -11   -1    0    0    0    0  0.00000000000E+00  0.00000000000E+00  0.45593999997E+02  0.45594000000E+02  0.51100000000E-03 0.  1.
         11   -1    0    0    0    0 -0.00000000000E+00 -0.00000000000E+00 -0.45593999997E+02  0.45594000000E+02  0.51100000000E-03 0. -1.
    9900012    2    1    2    0    0  0.12564412567E+00 -0.42377834268E+02  0.93662307230E+01  0.47787275333E+02  0.20000019553E+02 0.  0.
        -12    1    1    2    0    0 -0.12564412567E+00  0.42377834268E+02 -0.93662307230E+01  0.43400724667E+02  0.00000000000E+00 0.  1.
         11    1    3    3    0    0  0.38664823577E+01 -0.49070450381E+01 -0.15674001196E+01  0.64409254167E+01  0.51100000000E-03 0. -1.
        -11    1    3    3    0    0 -0.58657477573E+01 -0.80678198275E+01  0.21054112377E+00  0.99770256764E+01  0.51100000000E-03 0.  1.
         12    1    3    3    0    0  0.21249095253E+01 -0.29402969402E+02  0.10723089719E+02  0.31369324240E+02  0.00000000000E+00 0. -1.
</event>
<event>
 7    1  0.4083500E-009  0.4778724E+02  0.7816164E-02  0.1312668E+00
        -11   -1    0    0    0    0  0.00000000000E+00  0.00000000000E+00  0.45593999997E+02  0.45594000000E+02  0.51100000000E-03 0.  1.
         11   -1    0    0    0    0 -0.00000000000E+00 -0.00000000000E+00 -0.45593999997E+02  0.45594000000E+02  0.51100000000E-03 0. -1.
    9900012    2    1    2    0    0  0.58634448868E+01 -0.71276702560E+01 -0.42408049310E+02  0.47787236003E+02  0.19999840232E+02 0.  0.
        -12    1    1    2    0    0 -0.58634448868E+01  0.71276702560E+01  0.42408049310E+02  0.43400763997E+02  0.00000000000E+00 0.  1.
         11    1    3    3    0    0 -0.25527939859E+01  0.24516524656E+00 -0.11288835432E+02  0.11576470481E+02  0.51100000000E-03 0. -1.
        -11    1    3    3    0    0 -0.11298589564E+01  0.33181438351E+01 -0.28572594321E+01  0.45222330209E+01  0.51100000000E-03 0.  1.
         12    1    3    3    0    0  0.95460978292E+01 -0.10690979338E+02 -0.28261954446E+02  0.31688532501E+02  0.00000000000E+00 0. -1.
</event>
<event>
 7    1  0.4083500E-009  0.4778727E+02  0.7816164E-02  0.1312668E+00
        -11   -1    0    0    0    0  0.00000000000E+00  0.00000000000E+00  0.45593999997E+02  0.45594000000E+02  0.51100000000E-03 0.  1.
         11   -1    0    0    0    0 -0.00000000000E+00 -0.00000000000E+00 -0.45593999997E+02  0.45594000000E+02  0.51100000000E-03 0. -1.
    9900012    2    1    2    0    0 -0.90747439846E+01  0.49099404611E+01 -0.42156434030E+02  0.47787269317E+02  0.19999992123E+02 0.  0.
        -12    1    1    2    0    0  0.90747439846E+01 -0.49099404611E+01  0.42156434030E+02  0.43400730683E+02  0.00000000000E+00 0.  1.
         11    1    3    3    0    0 -0.45645434377E+01 -0.51787225448E+00 -0.10707145730E+02  0.11651017913E+02  0.51100000000E-03 0. -1.
        -11    1    3    3    0    0 -0.71371730775E+01  0.35818560200E+01 -0.48480988907E+01  0.93420016700E+01  0.51100000000E-03 0.  1.
         12    1    3    3    0    0  0.26269725307E+01  0.18459566956E+01 -0.26601189409E+02  0.26794249734E+02  0.00000000000E+00 0. -1.
</event>
<event>
 7    1  0.4083500E-009  0.4778728E+02  0.7816164E-02  0.1312668E+00
        -11   -1    0    0    0    0  0.00000000000E+00  0.00000000000E+00  0.45593999997E+02  0.45594000000E+02  0.51100000000E-03 0.  1.
         11   -1    0    0    0    0 -0.00000000000E+00 -0.00000000000E+00 -0.45593999997E+02  0.45594000000E+02  0.51100000000E-03 0. -1.
    9900012    2    1    2    0    0  0.36934172462E+02  0.21838406070E+02 -0.65248059140E+01  0.47787283792E+02  0.20000058123E+02 0.  0.
        -12    1    1    2    0    0 -0.36934172462E+02 -0.21838406070E+02  0.65248059140E+01  0.43400716208E+02  0.00000000000E+00 0.  1.
         11    1    3    3    0    0  0.44013326825E+01  0.52367195943E+01 -0.15164882616E+01  0.70067609065E+01  0.51100000000E-03 0. -1.
        -11    1    3    3    0    0  0.12208726095E+02 -0.20695479203E+01  0.13579878701E+01  0.12457132606E+02  0.51100000000E-03 0.  1.
         12    1    3    3    0    0  0.20324113685E+02  0.18671234396E+02 -0.63663055225E+01  0.28323390280E+02  0.00000000000E+00 0. -1.
</event>
<event>
 7    1  0.4083500E-009  0.4778728E+02  0.7816164E-02  0.1312668E+00
        -11   -1    0    0    0    0  0.00000000000E+00  0.00000000000E+00  0.45593999997E+02  0.45594000000E+02  0.51100000000E-03 0.  1.
         11   -1    0    0    0    0 -0.00000000000E+00 -0.00000000000E+00 -0.45593999997E+02  0.45594000000E+02  0.51100000000E-03 0. -1.
    9900012    2    1    2    0    0  0.43361172281E+01 -0.39760595898E+02 -0.16849807512E+02  0.47787275214E+02  0.20000019011E+02 0.  0.
        -12    1    1    2    0    0 -0.43361172281E+01  0.39760595898E+02  0.16849807512E+02  0.43400724786E+02  0.00000000000E+00 0.  1.
         11    1    3    3    0    0  0.51834083762E+01 -0.18266156156E+02 -0.96199304640E+01  0.21285282368E+02  0.51100000000E-03 0. -1.
        -11    1    3    3    0    0  0.15132884996E+00 -0.23359033581E+02 -0.63196426849E+01  0.24199281687E+02  0.51100000000E-03 0.  1.
        -12    1    3    3    0    0 -0.99861999812E+00  0.18645938389E+01 -0.91023436298E+00  0.23027111587E+01  0.00000000000E+00 0.  1.
</event>
<event>
 7    1  0.4083500E-009  0.4778727E+02  0.7816164E-02  0.1312668E+00
        -11   -1    0    0    0    0  0.00000000000E+00  0.00000000000E+00  0.45593999997E+02  0.45594000000E+02  0.51100000000E-03 0.  1.
         11   -1    0    0    0    0 -0.00000000000E+00 -0.00000000000E+00 -0.45593999997E+02  0.45594000000E+02  0.51100000000E-03 0. -1.
    9900012    2    1    2    0    0  0.28563581394E+01 -0.35873035654E+02 -0.24260870753E+02  0.47787270530E+02  0.19999997655E+02 0.  0.
        -12    1    1    2    0    0 -0.28563581394E+01  0.35873035654E+02  0.24260870753E+02  0.43400729470E+02  0.00000000000E+00 0.  1.
         11    1    3    3    0    0  0.50665434455E+01 -0.98168797425E+01 -0.55378138225E+01  0.12357522914E+02  0.51100000000E-03 0.  1.
        -11    1    3    3    0    0  0.73864295148E+00 -0.16876561341E+02 -0.32559846965E+01  0.17203643588E+02  0.51100000000E-03 0. -1.
         12    1    3    3    0    0 -0.29488282576E+01 -0.91795945700E+01 -0.15467072234E+02  0.18226104028E+02  0.00000000000E+00 0. -1.
</event>
<event>
 7    1  0.4083500E-009  0.4778728E+02  0.7816164E-02  0.1312668E+00
        -11   -1    0    0    0    0  0.00000000000E+00  0.00000000000E+00  0.45593999997E+02  0.45594000000E+02  0.51100000000E-03 0.  1.
         11   -1    0    0    0    0 -0.00000000000E+00 -0.00000000000E+00 -0.45593999997E+02  0.45594000000E+02  0.51100000000E-03 0. -1.
    9900012    2    1    2    0    0 -0.14638608645E+02 -0.28202558296E+02 -0.29562634448E+02  0.47787279810E+02  0.20000039964E+02 0.  0.
        -12    1    1    2    0    0  0.14638608645E+02  0.28202558296E+02  0.29562634448E+02  0.43400720190E+02  0.00000000000E+00 0.  1.
         11    1    3    3    0    0 -0.75027961038E+01 -0.13875686250E+02 -0.18390994961E+02  0.24229224383E+02  0.51100000000E-03 0. -1.
        -11    1    3    3    0    0 -0.24651590316E+01 -0.79316315120E+01 -0.13003423965E+02  0.15429738253E+02  0.51100000000E-03 0.  1.
        -12    1    3    3    0    0 -0.46706535100E+01 -0.63952405346E+01  0.18317844774E+01  0.81283171738E+01  0.00000000000E+00 0.  1.
</event>
<event>
 7    1  0.4083500E-009  0.4778727E+02  0.7816164E-02  0.1312668E+00
        -11   -1    0    0    0    0  0.00000000000E+00  0.00000000000E+00  0.45593999997E+02  0.45594000000E+02  0.51100000000E-03 0. -1.
         11   -1    0    0    0    0 -0.00000000000E+00 -0.00000000000E+00 -0.45593999997E+02  0.45594000000E+02  0.51100000000E-03 0.  1.
    9900012    2    1    2    0    0  0.41225163528E+02 -0.12507794724E+02  0.52597144097E+01  0.47787266913E+02  0.19999981164E+02 0.  0.
        -12    1    1    2    0    0 -0.41225163528E+02  0.12507794724E+02 -0.52597144097E+01  0.43400733087E+02  0.00000000000E+00 0.  1.
         11    1    3    3    0    0  0.23013945375E+02 -0.80865538500E+01  0.69338228170E+01  0.25359651694E+02  0.51100000000E-03 0. -1.
        -11    1    3    3    0    0  0.17884117191E+01 -0.78077566895E+00  0.41828600902E+01  0.46156631071E+01  0.51100000000E-03 0.  1.
        -12    1    3    3    0    0  0.16422806434E+02 -0.36404652049E+01 -0.58569684975E+01  0.17811952113E+02  0.00000000000E+00 0.  1.
</event>
<event>
 7    1  0.4083500E-009  0.4778728E+02  0.7816164E-02  0.1312668E+00
        -11   -1    0    0    0    0  0.00000000000E+00  0.00000000000E+00  0.45593999997E+02  0.45594000000E+02  0.51100000000E-03 0.  1.
         11   -1    0    0    0    0 -0.00000000000E+00 -0.00000000000E+00 -0.45593999997E+02  0.45594000000E+02  0.51100000000E-03 0. -1.
    9900012    2    1    2    0    0 -0.38378204519E+02  0.14832988698E+02 -0.13810096664E+02  0.47787275286E+02  0.20000019340E+02 0.  0.
        -12    1    1    2    0    0  0.38378204519E+02 -0.14832988698E+02  0.13810096664E+02  0.43400724714E+02  0.00000000000E+00 0.  1.
         11    1    3    3    0    0 -0.21757542890E+02  0.11925745558E+02 -0.42570196615E+01  0.25174119575E+02  0.51100000000E-03 0. -1.
        -11    1    3    3    0    0 -0.28181871987E+01  0.42552558769E+01  0.98173902312E+00  0.51974218066E+01  0.51100000000E-03 0.  1.
         12    1    3    3    0    0 -0.13802474430E+02 -0.13480127368E+01 -0.10534816026E+02  0.17415733905E+02  0.00000000000E+00 0. -1.
</event>
<event>
 7    1  0.4083500E-009  0.4778728E+02  0.7816164E-02  0.1312668E+00
        -11   -1    0    0    0    0  0.00000000000E+00  0.00000000000E+00  0.45593999997E+02  0.45594000000E+02  0.51100000000E-03 0.  1.
         11   -1    0    0    0    0 -0.00000000000E+00 -0.00000000000E+00 -0.45593999997E+02  0.45594000000E+02  0.51100000000E-03 0. -1.
    9900012    2    1    2    0    0 -0.36990268718E+02 -0.80942224353E+01 -0.21209106530E+02  0.47787278618E+02  0.20000034532E+02 0.  0.
        -12    1    1    2    0    0  0.36990268718E+02  0.80942224353E+01  0.21209106530E+02  0.43400721382E+02  0.00000000000E+00 0.  1.
         11    1    3    3    0    0 -0.86779938470E+01  0.83521182520E+00 -0.16288734660E+01  0.88689562538E+01  0.51100000000E-03 0. -1.
        -11    1    3    3    0    0  0.41918606791E+00  0.23371983894E+01 -0.31832000675E+01  0.39712688402E+01  0.51100000000E-03 0.  1.
         12    1    3    3    0    0 -0.28731460939E+02 -0.11266632650E+02 -0.16397032996E+02  0.34947053524E+02  0.00000000000E+00 0. -1.
</event>
<event>
 7    1  0.4083500E-009  0.4778727E+02  0.7816164E-02  0.1312668E+00
        -11   -1    0    0    0    0  0.00000000000E+00  0.00000000000E+00  0.45593999997E+02  0.45594000000E+02  0.51100000000E-03 0.  1.
         11   -1    0    0    0    0 -0.00000000000E+00 -0.00000000000E+00 -0.45593999997E+02  0.45594000000E+02  0.51100000000E-03 0. -1.
    9900012    2    1    2    0    0 -0.28869943149E+02 -0.10885109601E+02 -0.30523177023E+02  0.47787267702E+02  0.19999984760E+02 0.  0.
        -12    1    1    2    0    0  0.28869943149E+02  0.10885109601E+02  0.30523177023E+02  0.43400732298E+02  0.00000000000E+00 0.  1.
         11    1    3    3    0    0 -0.20577399798E+02 -0.14425489638E+02 -0.19148583635E+02  0.31594182838E+02  0.51100000000E-03 0. -1.
        -11    1    3    3    0    0 -0.60941407962E+01 -0.12751978584E+01 -0.58954898953E+01  0.85744669216E+01  0.51100000000E-03 0.  1.
        -12    1    3    3    0    0 -0.21984025551E+01  0.48155778959E+01 -0.54791034924E+01  0.76186179420E+01  0.00000000000E+00 0.  1.
</event>
<event>
 7    1  0.4083500E-009  0.4778727E+02  0.7816164E-02  0.1312668E+00
        -11   -1    0    0    0    0  0.00000000000E+00  0.00000000000E+00  0.45593999997E+02  0.45594000000E+02  0.51100000000E-03 0.  1.
         11   -1    0    0    0    0 -0.00000000000E+00 -0.00000000000E+00 -0.45593999997E+02  0.45594000000E+02  0.51100000000E-03 0. -1.
    9900012    2    1    2    0    0 -0.23830447826E+02 -0.63068604134E+01 -0.35720535801E+02  0.47787269479E+02  0.19999992862E+02 0.  0.
        -12    1    1    2    0    0  0.23830447826E+02  0.63068604134E+01  0.35720535801E+02  0.43400730521E+02  0.00000000000E+00 0.  1.
         11    1    3    3    0    0 -0.66027513074E+01 -0.34735853162E+01 -0.10092202715E+00  0.74613876251E+01  0.51100000000E-03 0. -1.
        -11    1    3    3    0    0 -0.71690377447E+01  0.14334515838E+01 -0.93085194862E+01  0.11836317878E+02  0.51100000000E-03 0.  1.
         12    1    3    3    0    0 -0.10058658774E+02 -0.42667266810E+01 -0.26311094288E+02  0.28489563975E+02  0.00000000000E+00 0. -1.
</event>
<event>
 7    1  0.4083500E-009  0.4778727E+02  0.7816164E-02  0.1312668E+00
        -11   -1    0    0    0    0  0.00000000000E+00  0.00000000000E+00  0.45593999997E+02  0.45594000000E+02  0.51100000000E-03 0. -1.
         11   -1    0    0    0    0 -0.00000000000E+00 -0.00000000000E+00 -0.45593999997E+02  0.45594000000E+02  0.51100000000E-03 0.  1.
    9900012    2    1    2    0    0  0.40574487284E+02 -0.81069556765E+00  0.15384314529E+02  0.47787269832E+02  0.19999994470E+02 0.  0.
        -12    1    1    2    0    0 -0.40574487284E+02  0.81069556765E+00 -0.15384314529E+02  0.43400730168E+02  0.00000000000E+00 0.  1.
         11    1    3    3    0    0  0.97037671942E+01  0.24383311956E+01  0.13145377021E+01  0.10091410526E+02  0.51100000000E-03 0. -1.
        -11    1    3    3    0    0 -0.12982818672E+01 -0.23209779058E+00 -0.13565355757E+01  0.18919815592E+01  0.51100000000E-03 0.  1.
         12    1    3    3    0    0  0.32169001957E+02 -0.30169289727E+01  0.15426312402E+02  0.35803877746E+02  0.00000000000E+00 0. -1.
</event>
<event>
 7    1  0.4083500E-009  0.4778727E+02  0.7816164E-02  0.1312668E+00
        -11   -1    0    0    0    0  0.00000000000E+00  0.00000000000E+00  0.45593999997E+02  0.45594000000E+02  0.51100000000E-03 0.  1.
         11   -1    0    0    0    0 -0.00000000000E+00 -0.00000000000E+00 -0.45593999997E+02  0.45594000000E+02  0.51100000000E-03 0. -1.
    9900012    2    1    2    0    0 -0.62511753932E+00  0.83381616973E+01 -0.42587643824E+02  0.47787272829E+02  0.20000008138E+02 0.  0.
        -12    1    1    2    0    0  0.62511753932E+00 -0.83381616973E+01  0.42587643824E+02  0.43400727171E+02  0.00000000000E+00 0.  1.
         11    1    3    3    0    0 -0.31310370159E+01  0.11007012558E+02 -0.18007733830E+02  0.21336264813E+02  0.51100000000E-03 0. -1.
        -11    1    3    3    0    0 -0.20540637857E+01  0.17155430832E+01 -0.32892199191E+01  0.42404285212E+01  0.51100000000E-03 0.  1.
        -12    1    3    3    0    0  0.45599832622E+01 -0.43843939436E+01 -0.21290690076E+02  0.22210579495E+02  0.00000000000E+00 0.  1.
</event>
<event>
 7    1  0.4083500E-009  0.4778727E+02  0.7816164E-02  0.1312668E+00
        -11   -1    0    0    0    0  0.00000000000E+00  0.00000000000E+00  0.45593999997E+02  0.45594000000E+02  0.51100000000E-03 0.  1.
         11   -1    0    0    0    0 -0.00000000000E+00 -0.00000000000E+00 -0.45593999997E+02  0.45594000000E+02  0.51100000000E-03 0. -1.
    9900012    2    1    2    0    0  0.36029438902E+02  0.66192209084E+01 -0.23274207277E+02  0.47787271004E+02  0.19999999814E+02 0.  0.
        -12    1    1    2    0    0 -0.36029438902E+02 -0.66192209084E+01  0.23274207277E+02  0.43400728996E+02  0.00000000000E+00 0.  1.
         11    1    3    3    0    0  0.16565717367E+02  0.99992824562E-01 -0.43343191283E+01  0.17123647772E+02  0.51100000000E-03 0. -1.
        -11    1    3    3    0    0  0.58558081732E+01 -0.34570771168E+01 -0.82412148247E+01  0.10684544614E+02  0.51100000000E-03 0.  1.
         12    1    3    3    0    0  0.13607913362E+02  0.99763052006E+01 -0.10698673324E+02  0.19979078618E+02  0.00000000000E+00 0. -1.
</event>
<event>
 7    1  0.4083500E-009  0.4778727E+02  0.7816164E-02  0.1312668E+00
        -11   -1    0    0    0    0  0.00000000000E+00  0.00000000000E+00  0.45593999997E+02  0.45594000000E+02  0.51100000000E-03 0. -1.
         11   -1    0    0    0    0 -0.00000000000E+00 -0.00000000000E+00 -0.45593999997E+02  0.45594000000E+02  0.51100000000E-03 0.  1.
    9900012    2    1    2    0    0 -0.96600136507E+01 -0.12675446560E+02  0.40368804761E+02  0.47787271814E+02  0.20000003510E+02 0.  0.
        -12    1    1    2    0    0  0.96600136507E+01  0.12675446560E+02 -0.40368804761E+02  0.43400728186E+02  0.00000000000E+00 0.  1.
         11    1    3    3    0    0 -0.15469318268E+01 -0.46350455575E+01  0.15156207545E+02  0.15924423782E+02  0.51100000000E-03 0. -1.
        -11    1    3    3    0    0 -0.98961978568E+01 -0.11602339751E+02  0.17729102350E+02  0.23385253689E+02  0.51100000000E-03 0.  1.
         12    1    3    3    0    0  0.17831160328E+01  0.35619387480E+01  0.74834948662E+01  0.84775943430E+01  0.00000000000E+00 0. -1.
</event>
<event>
 7    1  0.4083500E-009  0.4778727E+02  0.7816164E-02  0.1312668E+00
        -11   -1    0    0    0    0  0.00000000000E+00  0.00000000000E+00  0.45593999997E+02  0.45594000000E+02  0.51100000000E-03 0. -1.
         11   -1    0    0    0    0 -0.00000000000E+00 -0.00000000000E+00 -0.45593999997E+02  0.45594000000E+02  0.51100000000E-03 0.  1.
    9900012    2    1    2    0    0 -0.37631323336E+02 -0.44475899830E+01  0.21159529724E+02  0.47787271311E+02  0.20000001214E+02 0.  0.
        -12    1    1    2    0    0  0.37631323336E+02  0.44475899830E+01 -0.21159529724E+02  0.43400728689E+02  0.00000000000E+00 0.  1.
         11    1    3    3    0    0 -0.22599305196E+02 -0.60730676506E+01  0.13655913862E+02  0.27094182580E+02  0.51100000000E-03 0. -1.
        -11    1    3    3    0    0 -0.73272525974E+01  0.54279514830E+01  0.79384735860E+01  0.12090105503E+02  0.51100000000E-03 0.  1.
         12    1    3    3    0    0 -0.77047655420E+01 -0.38024738154E+01 -0.43485772409E+00  0.86029832276E+01  0.00000000000E+00 0. -1.
</event>
<event>
 7    1  0.4083500E-009  0.4778727E+02  0.7816164E-02  0.1312668E+00
        -11   -1    0    0    0    0  0.00000000000E+00  0.00000000000E+00  0.45593999997E+02  0.45594000000E+02  0.51100000000E-03 0.  1.
         11   -1    0    0    0    0 -0.00000000000E+00 -0.00000000000E+00 -0.45593999997E+02  0.45594000000E+02  0.51100000000E-03 0. -1.
    9900012    2    1    2    0    0  0.14388553267E+02  0.40260507108E+02  0.74622073664E+01  0.47787269171E+02  0.19999991457E+02 0.  0.
        -12    1    1    2    0    0 -0.14388553267E+02 -0.40260507108E+02 -0.74622073664E+01  0.43400730829E+02  0.00000000000E+00 0.  1.
         11    1    3    3    0    0  0.77520888875E+01  0.21288824695E+02  0.79116258947E+01  0.23997974156E+02  0.51100000000E-03 0. -1.
        -11    1    3    3    0    0  0.48521505907E+01  0.17909798894E+01  0.32715188268E+01  0.61199517983E+01  0.51100000000E-03 0.  1.
         12    1    3    3    0    0  0.17843137888E+01  0.17180702524E+02 -0.37209373551E+01  0.17669343216E+02  0.00000000000E+00 0. -1.
</event>
<event>
 7    1  0.4083500E-009  0.4778727E+02  0.7816164E-02  0.1312668E+00
        -11   -1    0    0    0    0  0.00000000000E+00  0.00000000000E+00  0.45593999997E+02  0.45594000000E+02  0.51100000000E-03 0.  1.
         11   -1    0    0    0    0 -0.00000000000E+00 -0.00000000000E+00 -0.45593999997E+02  0.45594000000E+02  0.51100000000E-03 0. -1.
    9900012    2    1    2    0    0 -0.25117114871E+02  0.13329885248E+02 -0.32788230610E+02  0.47787269975E+02  0.19999995122E+02 0.  0.
        -12    1    1    2    0    0  0.25117114871E+02 -0.13329885248E+02  0.32788230610E+02  0.43400730025E+02  0.00000000000E+00 0.  1.
         11    1    3    3    0    0 -0.33454535329E+01 -0.71062086495E+00 -0.53614246503E+01  0.63593958751E+01  0.51100000000E-03 0. -1.
        -11    1    3    3    0    0 -0.20926045482E+02  0.15676025811E+02 -0.28970841723E+02  0.39024951443E+02  0.51100000000E-03 0.  1.
        -12    1    3    3    0    0 -0.84561585623E+00 -0.16355196977E+01  0.15440357626E+01  0.24029226567E+01  0.00000000000E+00 0.  1.
</event>
<event>
 7    1  0.4083500E-009  0.4778727E+02  0.7816164E-02  0.1312668E+00
        -11   -1    0    0    0    0  0.00000000000E+00  0.00000000000E+00  0.45593999997E+02  0.45594000000E+02  0.51100000000E-03 0.  1.
         11   -1    0    0    0    0 -0.00000000000E+00 -0.00000000000E+00 -0.45593999997E+02  0.45594000000E+02  0.51100000000E-03 0. -1.
    9900012    2    1    2    0    0 -0.91115125478E+01  0.17996623424E+01 -0.42395341124E+02  0.47787269655E+02  0.19999993664E+02 0.  0.
        -12    1    1    2    0    0  0.91115125478E+01 -0.17996623424E+01  0.42395341124E+02  0.43400730345E+02  0.00000000000E+00 0.  1.
         11    1    3    3    0    0 -0.68079158260E+01  0.54077473306E+01 -0.21528008083E+02  0.23217376711E+02  0.51100000000E-03 0. -1.
        -11    1    3    3    0    0  0.17140927859E+01  0.35871499263E+01 -0.11099778484E+02  0.11790285888E+02  0.51100000000E-03 0.  1.
        -12    1    3    3    0    0 -0.40176895077E+01 -0.71952349145E+01 -0.97675545580E+01  0.12779607056E+02  0.00000000000E+00 0.  1.
</event>
<event>
 7    1  0.4083500E-009  0.4778727E+02  0.7816164E-02  0.1312668E+00
        -11   -1    0    0    0    0  0.00000000000E+00  0.00000000000E+00  0.45593999997E+02  0.45594000000E+02  0.51100000000E-03 0. -1.
         11   -1    0    0    0    0 -0.00000000000E+00 -0.00000000000E+00 -0.45593999997E+02  0.45594000000E+02  0.51100000000E-03 0.  1.
    9900012    2    1    2    0    0 -0.25051219401E+02  0.32870424585E+02 -0.13251210942E+02  0.47787274231E+02  0.20000014527E+02 0.  0.
        -12    1    1    2    0    0  0.25051219401E+02 -0.32870424585E+02  0.13251210942E+02  0.43400725769E+02  0.00000000000E+00 0.  1.
         11    1    3    3    0    0 -0.96106145943E+01  0.27951922375E+01 -0.46029562664E+01  0.11016542978E+02  0.51100000000E-03 0. -1.
        -11    1    3    3    0    0 -0.10157099452E+01 -0.10173360512E+01 -0.77444000955E-01  0.14396656446E+01  0.51100000000E-03 0.  1.
         12    1    3    3    0    0 -0.14424894861E+02  0.31092568399E+02 -0.85708106742E+01  0.35331065608E+02  0.00000000000E+00 0. -1.
</event>
<event>
 7    1  0.4083500E-009  0.4778727E+02  0.7816164E-02  0.1312668E+00
        -11   -1    0    0    0    0  0.00000000000E+00  0.00000000000E+00  0.45593999997E+02  0.45594000000E+02  0.51100000000E-03 0.  1.
         11   -1    0    0    0    0 -0.00000000000E+00 -0.00000000000E+00 -0.45593999997E+02  0.45594000000E+02  0.51100000000E-03 0. -1.
    9900012    2    1    2    0    0 -0.13910072306E+01  0.27500112775E+02 -0.33547463519E+02  0.47787269450E+02  0.19999992729E+02 0.  0.
        -12    1    1    2    0    0  0.13910072306E+01 -0.27500112775E+02  0.33547463519E+02  0.43400730550E+02  0.00000000000E+00 0.  1.
         11    1    3    3    0    0 -0.27534301626E+01  0.18124409548E+02 -0.21832058044E+02  0.28508145465E+02  0.51100000000E-03 0. -1.
        -11    1    3    3    0    0 -0.47962335933E+01  0.74335438370E+01 -0.64822832016E+01  0.10967288928E+02  0.51100000000E-03 0.  1.
         12    1    3    3    0    0  0.61586565253E+01  0.19421593899E+01 -0.52331222726E+01  0.83118350569E+01  0.00000000000E+00 0. -1.
</event>
<event>
 7    1  0.4083500E-009  0.4778727E+02  0.7816164E-02  0.1312668E+00
        -11   -1    0    0    0    0  0.00000000000E+00  0.00000000000E+00  0.45593999997E+02  0.45594000000E+02  0.51100000000E-03 0. -1.
         11   -1    0    0    0    0 -0.00000000000E+00 -0.00000000000E+00 -0.45593999997E+02  0.45594000000E+02  0.51100000000E-03 0.  1.
    9900012    2    1    2    0    0 -0.21669642321E+02  0.23915567581E+02  0.29018879138E+02  0.47787272846E+02  0.20000008215E+02 0.  0.
        -12    1    1    2    0    0  0.21669642321E+02 -0.23915567581E+02 -0.29018879138E+02  0.43400727154E+02  0.00000000000E+00 0.  1.
         11    1    3    3    0    0 -0.15684878060E+02  0.18569610640E+02  0.24702466085E+02  0.34656278940E+02  0.51100000000E-03 0.  1.
        -11    1    3    3    0    0 -0.19156264506E+01  0.59634682871E+01  0.60098572516E+01  0.86804932554E+01  0.51100000000E-03 0. -1.
        -12    1    3    3    0    0 -0.40691378108E+01 -0.61751134563E+00 -0.16934441987E+01  0.44505006504E+01  0.00000000000E+00 0.  1.
</event>
<event>
 7    1  0.4083500E-009  0.4778728E+02  0.7816164E-02  0.1312668E+00
        -11   -1    0    0    0    0  0.00000000000E+00  0.00000000000E+00  0.45593999997E+02  0.45594000000E+02  0.51100000000E-03 0.  1.
         11   -1    0    0    0    0 -0.00000000000E+00 -0.00000000000E+00 -0.45593999997E+02  0.45594000000E+02  0.51100000000E-03 0. -1.
    9900012    2    1    2    0    0 -0.15461358992E+02 -0.29315962654E+02 -0.28020404830E+02  0.47787281399E+02  0.20000047213E+02 0.  0.
        -12    1    1    2    0    0  0.15461358992E+02  0.29315962654E+02  0.28020404830E+02  0.43400718601E+02  0.00000000000E+00 0.  1.
         11    1    3    3    0    0 -0.96233255705E+01 -0.13608529735E+02 -0.18192979590E+02  0.24673568514E+02  0.51100000000E-03 0. -1.
        -11    1    3    3    0    0 -0.28166961432E+01  0.14452809843E+00 -0.58485749224E+01  0.64931113050E+01  0.51100000000E-03 0.  1.
        -12    1    3    3    0    0 -0.30213372785E+01 -0.15851961018E+02 -0.39788503172E+01  0.16620601581E+02  0.00000000000E+00 0.  1.
</event>
<event>
 7    1  0.4083500E-009  0.4778727E+02  0.7816164E-02  0.1312668E+00
        -11   -1    0    0    0    0  0.00000000000E+00  0.00000000000E+00  0.45593999997E+02  0.45594000000E+02  0.51100000000E-03 0.  1.
         11   -1    0    0    0    0 -0.00000000000E+00 -0.00000000000E+00 -0.45593999997E+02  0.45594000000E+02  0.51100000000E-03 0. -1.
    9900012    2    1    2    0    0 -0.33996994410E+02  0.25645528482E+02 -0.83746263009E+01  0.47787272751E+02  0.20000007780E+02 0.  0.
        -12    1    1    2    0    0  0.33996994410E+02 -0.25645528482E+02  0.83746263009E+01  0.43400727249E+02  0.00000000000E+00 0.  1.
         11    1    3    3    0    0 -0.20793454862E+01  0.22945761039E+01 -0.23031994333E+01  0.38592078253E+01  0.51100000000E-03 0. -1.
        -11    1    3    3    0    0 -0.18536226593E+02  0.13901050378E+02  0.55717542909E+01  0.23830135209E+02  0.51100000000E-03 0.  1.
        -12    1    3    3    0    0 -0.13381422331E+02  0.94499020003E+01 -0.11643181158E+02  0.20097929717E+02  0.00000000000E+00 0.  1.
</event>
<event>
 7    1  0.4083500E-009  0.4778727E+02  0.7816164E-02  0.1312668E+00
        -11   -1    0    0    0    0  0.00000000000E+00  0.00000000000E+00  0.45593999997E+02  0.45594000000E+02  0.51100000000E-03 0.  1.
         11   -1    0    0    0    0 -0.00000000000E+00 -0.00000000000E+00 -0.45593999997E+02  0.45594000000E+02  0.51100000000E-03 0. -1.
    9900012    2    1    2    0    0  0.87563513665E+01  0.33361815812E+02 -0.26342716329E+02  0.47787272505E+02  0.20000006659E+02 0.  0.
        -12    1    1    2    0    0 -0.87563513665E+01 -0.33361815812E+02  0.26342716329E+02  0.43400727495E+02  0.00000000000E+00 0.  1.
         11    1    3    3    0    0 -0.29149510246E+01  0.10228952104E+02 -0.46339771138E+01  0.11601816443E+02  0.51100000000E-03 0. -1.
        -11    1    3    3    0    0  0.39577013751E+01  0.14325198942E+02 -0.47976549279E+01  0.15617048952E+02  0.51100000000E-03 0.  1.
        -12    1    3    3    0    0  0.77136010160E+01  0.88076647654E+01 -0.16911084287E+02  0.20568407109E+02  0.00000000000E+00 0.  1.
</event>
<event>
 7    1  0.4083500E-009  0.4778727E+02  0.7816164E-02  0.1312668E+00
        -11   -1    0    0    0    0  0.00000000000E+00  0.00000000000E+00  0.45593999997E+02  0.45594000000E+02  0.51100000000E-03 0.  1.
         11   -1    0    0    0    0 -0.00000000000E+00 -0.00000000000E+00 -0.45593999997E+02  0.45594000000E+02  0.51100000000E-03 0. -1.
    9900012    2    1    2    0    0 -0.37225583290E+02  0.57391833347E+01 -0.21562489530E+02  0.47787271534E+02  0.20000002232E+02 0.  0.
        -12    1    1    2    0    0  0.37225583290E+02 -0.57391833347E+01  0.21562489530E+02  0.43400728466E+02  0.00000000000E+00 0.  1.
         11    1    3    3    0    0 -0.26976551577E+02  0.27439075856E+01 -0.18046739155E+02  0.32572199161E+02  0.51100000000E-03 0. -1.
        -11    1    3    3    0    0 -0.79143273385E+01  0.16266982826E+01 -0.70779207159E+01  0.10741493678E+02  0.51100000000E-03 0.  1.
        -12    1    3    3    0    0 -0.23347043752E+01  0.13685774665E+01  0.35621703405E+01  0.44735786945E+01  0.00000000000E+00 0.  1.
</event>
<event>
 7    1  0.4083500E-009  0.4778726E+02  0.7816164E-02  0.1312668E+00
        -11   -1    0    0    0    0  0.00000000000E+00  0.00000000000E+00  0.45593999997E+02  0.45594000000E+02  0.51100000000E-03 0. -1.
         11   -1    0    0    0    0 -0.00000000000E+00 -0.00000000000E+00 -0.45593999997E+02  0.45594000000E+02  0.51100000000E-03 0.  1.
    9900012    2    1    2    0    0  0.11341696249E+02  0.28151315601E+02  0.31024080490E+02  0.47787260212E+02  0.19999950610E+02 0.  0.
        -12    1    1    2    0    0 -0.11341696249E+02 -0.28151315601E+02 -0.31024080490E+02  0.43400739788E+02  0.00000000000E+00 0.  1.
         11    1    3    3    0    0  0.22598791096E+01  0.60379265295E+00  0.10374266538E+02  0.10634708535E+02  0.51100000000E-03 0. -1.
        -11    1    3    3    0    0 -0.22886585391E+01  0.29202896370E+01  0.31956661686E+01  0.48967675046E+01  0.51100000000E-03 0.  1.
         12    1    3    3    0    0  0.11370475679E+02  0.24627233311E+02  0.17454147783E+02  0.32255784172E+02  0.00000000000E+00 0. -1.
</event>
<event>
 7    1  0.4083500E-009  0.4778727E+02  0.7816164E-02  0.1312668E+00
        -11   -1    0    0    0    0  0.00000000000E+00  0.00000000000E+00  0.45593999997E+02  0.45594000000E+02  0.51100000000E-03 0.  1.
         11   -1    0    0    0    0 -0.00000000000E+00 -0.00000000000E+00 -0.45593999997E+02  0.45594000000E+02  0.51100000000E-03 0. -1.
    9900012    2    1    2    0    0  0.35923901100E+02  0.20486244011E+02 -0.13168536763E+02  0.47787271614E+02  0.20000002598E+02 0.  0.
        -12    1    1    2    0    0 -0.35923901100E+02 -0.20486244011E+02  0.13168536763E+02  0.43400728386E+02  0.00000000000E+00 0.  1.
         11    1    3    3    0    0  0.34983789520E+01  0.33066843388E+01  0.71485250687E+00  0.48666036387E+01  0.51100000000E-03 0. -1.
        -11    1    3    3    0    0 -0.13772638173E+01 -0.12983627757E+01 -0.16226429790E+01  0.24931048952E+01  0.51100000000E-03 0.  1.
         12    1    3    3    0    0  0.33802785966E+02  0.18477922448E+02 -0.12260746291E+02  0.40427563080E+02  0.00000000000E+00 0. -1.
</event>
<event>
 7    1  0.4083500E-009  0.4778727E+02  0.7816164E-02  0.1312668E+00
        -11   -1    0    0    0    0  0.00000000000E+00  0.00000000000E+00  0.45593999997E+02  0.45594000000E+02  0.51100000000E-03 0.  1.
         11   -1    0    0    0    0 -0.00000000000E+00 -0.00000000000E+00 -0.45593999997E+02  0.45594000000E+02  0.51100000000E-03 0. -1.
    9900012    2    1    2    0    0 -0.17196823265E+02 -0.51045921929E+01 -0.39520064386E+02  0.47787273268E+02  0.20000010137E+02 0.  0.
        -12    1    1    2    0    0  0.17196823265E+02  0.51045921929E+01  0.39520064386E+02  0.43400726732E+02  0.00000000000E+00 0.  1.
         11    1    3    3    0    0 -0.16485236227E+02 -0.14081844964E+01 -0.32912449357E+02  0.36837145926E+02  0.51100000000E-03 0. -1.
        -11    1    3    3    0    0 -0.95176372497E+00  0.22599620460E+01 -0.33660789113E+01  0.41645852297E+01  0.51100000000E-03 0.  1.
         12    1    3    3    0    0  0.24017668755E+00 -0.59563697425E+01 -0.32415361169E+01  0.67855421116E+01  0.00000000000E+00 0. -1.
</event>
<event>
 7    1  0.4083500E-009  0.4778727E+02  0.7816164E-02  0.1312668E+00
        -11   -1    0    0    0    0  0.00000000000E+00  0.00000000000E+00  0.45593999997E+02  0.45594000000E+02  0.51100000000E-03 0. -1.
         11   -1    0    0    0    0 -0.00000000000E+00 -0.00000000000E+00 -0.45593999997E+02  0.45594000000E+02  0.51100000000E-03 0.  1.
    9900012    2    1    2    0    0  0.37390441118E+02  0.22035828800E+02  0.19548731031E-01  0.47787271664E+02  0.20000002826E+02 0.  0.
        -12    1    1    2    0    0 -0.37390441118E+02 -0.22035828800E+02 -0.19548731031E-01  0.43400728336E+02  0.00000000000E+00 0.  1.
         11    1    3    3    0    0  0.29762619343E+02  0.16029663407E+02  0.55815843589E+01  0.34262482446E+02  0.51100000000E-03 0. -1.
        -11    1    3    3    0    0 -0.12853485310E+00  0.14031887529E+01  0.15086150522E+01  0.20643109072E+01  0.51100000000E-03 0.  1.
        -12    1    3    3    0    0  0.77563566275E+01  0.46029766401E+01 -0.70706506801E+01  0.11460478311E+02  0.00000000000E+00 0.  1.
</event>
<event>
 7    1  0.4083500E-009  0.4778728E+02  0.7816164E-02  0.1312668E+00
        -11   -1    0    0    0    0  0.00000000000E+00  0.00000000000E+00  0.45593999997E+02  0.45594000000E+02  0.51100000000E-03 0.  1.
         11   -1    0    0    0    0 -0.00000000000E+00 -0.00000000000E+00 -0.45593999997E+02  0.45594000000E+02  0.51100000000E-03 0. -1.
    9900012    2    1    2    0    0  0.22225138447E+02 -0.29867003795E+02 -0.22307577501E+02  0.47787277556E+02  0.20000029690E+02 0.  0.
        -12    1    1    2    0    0 -0.22225138447E+02  0.29867003795E+02  0.22307577501E+02  0.43400722444E+02  0.00000000000E+00 0.  1.
         11    1    3    3    0    0  0.34136853705E+01 -0.63984861448E+01 -0.41060276814E+01  0.83338668297E+01  0.51100000000E-03 0. -1.
        -11    1    3    3    0    0  0.14212126986E+02 -0.25525868140E+02 -0.18188743738E+02  0.34414893532E+02  0.51100000000E-03 0.  1.
         12    1    3    3    0    0  0.45993260905E+01  0.20573504899E+01 -0.12806081223E-01  0.50385171946E+01  0.00000000000E+00 0. -1.
</event>
<event>
 7    1  0.4083500E-009  0.4778727E+02  0.7816164E-02  0.1312668E+00
        -11   -1    0    0    0    0  0.00000000000E+00  0.00000000000E+00  0.45593999997E+02  0.45594000000E+02  0.51100000000E-03 0.  1.
         11   -1    0    0    0    0 -0.00000000000E+00 -0.00000000000E+00 -0.45593999997E+02  0.45594000000E+02  0.51100000000E-03 0. -1.
    9900012    2    1    2    0    0 -0.32446749581E+02 -0.21400451134E+02 -0.19309392666E+02  0.47787268299E+02  0.19999987482E+02 0.  0.
        -12    1    1    2    0    0  0.32446749581E+02  0.21400451134E+02  0.19309392666E+02  0.43400731701E+02  0.00000000000E+00 0.  1.
         11    1    3    3    0    0  0.76205310671E-01 -0.29227803722E+01 -0.12064273599E+01  0.31628973410E+01  0.51100000000E-03 0. -1.
        -11    1    3    3    0    0 -0.27871810893E+01  0.23609368448E+01 -0.46239087015E+01  0.58926168339E+01  0.51100000000E-03 0.  1.
         12    1    3    3    0    0 -0.29735773802E+02 -0.20838607606E+02 -0.13479056604E+02  0.38731754124E+02  0.00000000000E+00 0. -1.
</event>
<event>
 7    1  0.4083500E-009  0.4778727E+02  0.7816164E-02  0.1312668E+00
        -11   -1    0    0    0    0  0.00000000000E+00  0.00000000000E+00  0.45593999997E+02  0.45594000000E+02  0.51100000000E-03 0. -1.
         11   -1    0    0    0    0 -0.00000000000E+00 -0.00000000000E+00 -0.45593999997E+02  0.45594000000E+02  0.51100000000E-03 0.  1.
    9900012    2    1    2    0    0 -0.12608500247E+02 -0.36900211394E+01  0.41364635759E+02  0.47787266988E+02  0.19999981505E+02 0.  0.
        -12    1    1    2    0    0  0.12608500247E+02  0.36900211394E+01 -0.41364635759E+02  0.43400733012E+02  0.00000000000E+00 0.  1.
         11    1    3    3    0    0  0.19478724046E+01 -0.43127413228E+01  0.61944177252E+01  0.77951751640E+01  0.51100000000E-03 0. -1.
        -11    1    3    3    0    0 -0.50918276776E+00 -0.39993301369E+01  0.52747586187E+01  0.66390501867E+01  0.51100000000E-03 0.  1.
         12    1    3    3    0    0 -0.14047189884E+02  0.46220503202E+01  0.29895459415E+02  0.33353041637E+02  0.00000000000E+00 0. -1.
</event>
<event>
 7    1  0.4083500E-009  0.4778727E+02  0.7816164E-02  0.1312668E+00
        -11   -1    0    0    0    0  0.00000000000E+00  0.00000000000E+00  0.45593999997E+02  0.45594000000E+02  0.51100000000E-03 0.  1.
         11   -1    0    0    0    0 -0.00000000000E+00 -0.00000000000E+00 -0.45593999997E+02  0.45594000000E+02  0.51100000000E-03 0. -1.
    9900012    2    1    2    0    0  0.23236361805E+02 -0.11689637876E+02 -0.34742583333E+02  0.47787271432E+02  0.20000001765E+02 0.  0.
        -12    1    1    2    0    0 -0.23236361805E+02  0.11689637876E+02  0.34742583333E+02  0.43400728568E+02  0.00000000000E+00 0.  1.
         11    1    3    3    0    0  0.78937288653E+00 -0.46613149026E+01 -0.17294552613E+01  0.50340820352E+01  0.51100000000E-03 0. -1.
        -11    1    3    3    0    0  0.41541151090E+00 -0.36522888016E+01 -0.11183413480E+01  0.38421957063E+01  0.51100000000E-03 0.  1.
         12    1    3    3    0    0  0.22031577407E+02 -0.33760341718E+01 -0.31894786724E+02  0.38910993690E+02  0.00000000000E+00 0. -1.
</event>
<event>
 7    1  0.4083500E-009  0.4778727E+02  0.7816164E-02  0.1312668E+00
        -11   -1    0    0    0    0  0.00000000000E+00  0.00000000000E+00  0.45593999997E+02  0.45594000000E+02  0.51100000000E-03 0.  1.
         11   -1    0    0    0    0 -0.00000000000E+00 -0.00000000000E+00 -0.45593999997E+02  0.45594000000E+02  0.51100000000E-03 0. -1.
    9900012    2    1    2    0    0  0.64257313307E+01  0.39992643724E+02 -0.15585951154E+02  0.47787269032E+02  0.19999990826E+02 0.  0.
        -12    1    1    2    0    0 -0.64257313307E+01 -0.39992643724E+02  0.15585951154E+02  0.43400730968E+02  0.00000000000E+00 0.  1.
         11    1    3    3    0    0  0.14174931477E+01  0.11026460032E+02 -0.60682295939E+01  0.12665524795E+02  0.51100000000E-03 0. -1.
        -11    1    3    3    0    0  0.10873404663E+02  0.15712296499E+02 -0.73224894531E+01  0.20462796541E+02  0.51100000000E-03 0.  1.
         12    1    3    3    0    0 -0.58651664802E+01  0.13253887193E+02 -0.21952321071E+01  0.14658947696E+02  0.00000000000E+00 0. -1.
</event>
<event>
 7    1  0.4083500E-009  0.4778728E+02  0.7816164E-02  0.1312668E+00
        -11   -1    0    0    0    0  0.00000000000E+00  0.00000000000E+00  0.45593999997E+02  0.45594000000E+02  0.51100000000E-03 0.  1.
         11   -1    0    0    0    0 -0.00000000000E+00 -0.00000000000E+00 -0.45593999997E+02  0.45594000000E+02  0.51100000000E-03 0. -1.
    9900012    2    1    2    0    0 -0.25676095324E+02  0.87938228214E+01 -0.33867819949E+02  0.47787280893E+02  0.20000044902E+02 0.  0.
        -12    1    1    2    0    0  0.25676095324E+02 -0.87938228214E+01  0.33867819949E+02  0.43400719107E+02  0.00000000000E+00 0.  1.
         11    1    3    3    0    0 -0.15142667233E+02 -0.35507903326E+01 -0.20834694451E+02  0.25999864924E+02  0.51100000000E-03 0. -1.
        -11    1    3    3    0    0 -0.50942969535E+01  0.43507853401E+01 -0.92131622712E+01  0.11391380681E+02  0.51100000000E-03 0.  1.
         12    1    3    3    0    0 -0.54391311375E+01  0.79938278140E+01 -0.38199632271E+01  0.10396035288E+02  0.00000000000E+00 0. -1.
</event>
<event>
 7    1  0.4083500E-009  0.4778728E+02  0.7816164E-02  0.1312668E+00
        -11   -1    0    0    0    0  0.00000000000E+00  0.00000000000E+00  0.45593999997E+02  0.45594000000E+02  0.51100000000E-03 0.  1.
         11   -1    0    0    0    0 -0.00000000000E+00 -0.00000000000E+00 -0.45593999997E+02  0.45594000000E+02  0.51100000000E-03 0. -1.
    9900012    2    1    2    0    0 -0.20528420826E+01  0.12880141123E+02 -0.41394568814E+02  0.47787279691E+02  0.20000039425E+02 0.  0.
        -12    1    1    2    0    0  0.20528420826E+01 -0.12880141123E+02  0.41394568814E+02  0.43400720309E+02  0.00000000000E+00 0.  1.
         11    1    3    3    0    0 -0.35808920672E+01  0.48122993820E+01 -0.17734765185E+02  0.18721722938E+02  0.51100000000E-03 0. -1.
        -11    1    3    3    0    0 -0.31129452174E+01  0.10845782465E+02 -0.13861853142E+02  0.17873790812E+02  0.51100000000E-03 0.  1.
        -12    1    3    3    0    0  0.46409952020E+01 -0.27779407241E+01 -0.97979504877E+01  0.11191765942E+02  0.00000000000E+00 0.  1.
</event>
<event>
 7    1  0.4083500E-009  0.4778726E+02  0.7816164E-02  0.1312668E+00
        -11   -1    0    0    0    0  0.00000000000E+00  0.00000000000E+00  0.45593999997E+02  0.45594000000E+02  0.51100000000E-03 0.  1.
         11   -1    0    0    0    0 -0.00000000000E+00 -0.00000000000E+00 -0.45593999997E+02  0.45594000000E+02  0.51100000000E-03 0. -1.
    9900012    2    1    2    0    0  0.31149155632E+02 -0.26313233364E+02 -0.14864990958E+02  0.47787261494E+02  0.19999956458E+02 0.  0.
        -12    1    1    2    0    0 -0.31149155632E+02  0.26313233364E+02  0.14864990958E+02  0.43400738506E+02  0.00000000000E+00 0.  1.
         11    1    3    3    0    0  0.17976191775E+02 -0.62417211295E+01 -0.97758250695E+01  0.21393207087E+02  0.51100000000E-03 0. -1.
        -11    1    3    3    0    0  0.11276739468E+02 -0.83684652770E+01 -0.26819544794E+01  0.14296466144E+02  0.51100000000E-03 0.  1.
        -12    1    3    3    0    0  0.18962243883E+01 -0.11703046957E+02 -0.24072114088E+01  0.12097588263E+02  0.00000000000E+00 0.  1.
</event>
<event>
 7    1  0.4163038E-009  0.4778727E+02  0.7816164E-02  0.1312668E+00
        -11   -1    0    0    0    0  0.00000000000E+00  0.00000000000E+00  0.45593999997E+02  0.45594000000E+02  0.51100000000E-03 0.  1.
         11   -1    0    0    0    0 -0.00000000000E+00 -0.00000000000E+00 -0.45593999997E+02  0.45594000000E+02  0.51100000000E-03 0. -1.
    9900012    2    1    2    0    0  0.29612705931E+02 -0.27960123419E+02 -0.14998074134E+02  0.47787273256E+02  0.20000010086E+02 0.  0.
        -12    1    1    2    0    0 -0.29612705931E+02  0.27960123419E+02  0.14998074134E+02  0.43400726744E+02  0.00000000000E+00 0.  1.
         11    1    3    3    0    0  0.25353817496E+02 -0.17759871290E+02 -0.12115236002E+02  0.33241661112E+02  0.51100000000E-03 0.  1.
        -11    1    3    3    0    0  0.48759661062E+01 -0.10585808268E+02 -0.47164095713E+01  0.12572943238E+02  0.51100000000E-03 0. -1.
        -12    1    3    3    0    0 -0.61707767147E+00  0.38555613896E+00  0.18335714398E+01  0.19726689063E+01  0.00000000000E+00 0.  1.
</event>
<event>
 7    1  0.4083500E-009  0.4778727E+02  0.7816164E-02  0.1312668E+00
        -11   -1    0    0    0    0  0.00000000000E+00  0.00000000000E+00  0.45593999997E+02  0.45594000000E+02  0.51100000000E-03 0. -1.
         11   -1    0    0    0    0 -0.00000000000E+00 -0.00000000000E+00 -0.45593999997E+02  0.45594000000E+02  0.51100000000E-03 0.  1.
    9900012    2    1    2    0    0 -0.14344142432E+02 -0.40586869007E+02  0.55294433333E+01  0.47787273030E+02  0.20000009055E+02 0.  0.
        -12    1    1    2    0    0  0.14344142432E+02  0.40586869007E+02 -0.55294433333E+01  0.43400726970E+02  0.00000000000E+00 0.  1.
         11    1    3    3    0    0 -0.21727465778E+00 -0.22251576168E+02 -0.11134243888E+01  0.22280474959E+02  0.51100000000E-03 0. -1.
        -11    1    3    3    0    0 -0.35075566689E+01 -0.10818823724E+01 -0.10783960039E+01  0.38257497900E+01  0.51100000000E-03 0.  1.
        -12    1    3    3    0    0 -0.10619311105E+02 -0.17253410466E+02  0.77212637260E+01  0.21681048282E+02  0.00000000000E+00 0.  1.
</event>
<event>
 7    1  0.4083500E-009  0.4778727E+02  0.7816164E-02  0.1312668E+00
        -11   -1    0    0    0    0  0.00000000000E+00  0.00000000000E+00  0.45593999997E+02  0.45594000000E+02  0.51100000000E-03 0.  1.
         11   -1    0    0    0    0 -0.00000000000E+00 -0.00000000000E+00 -0.45593999997E+02  0.45594000000E+02  0.51100000000E-03 0. -1.
    9900012    2    1    2    0    0  0.13244374124E+02 -0.40291708450E+02 -0.92080550637E+01  0.47787268511E+02  0.19999988449E+02 0.  0.
        -12    1    1    2    0    0 -0.13244374124E+02  0.40291708450E+02  0.92080550637E+01  0.43400731489E+02  0.00000000000E+00 0.  1.
         11    1    3    3    0    0  0.82106228617E+01 -0.31478135113E+02 -0.13744335718E+02  0.35315635101E+02  0.51100000000E-03 0. -1.
        -11    1    3    3    0    0 -0.12456370110E+01 -0.14286134876E+01  0.42711169165E+00  0.19429289020E+01  0.51100000000E-03 0.  1.
        -12    1    3    3    0    0  0.62793882735E+01 -0.73849598489E+01  0.41091689626E+01  0.10528704508E+02  0.00000000000E+00 0.  1.
</event>
<event>
 7    1  0.4083500E-009  0.4778727E+02  0.7816164E-02  0.1312668E+00
        -11   -1    0    0    0    0  0.00000000000E+00  0.00000000000E+00  0.45593999997E+02  0.45594000000E+02  0.51100000000E-03 0. -1.
         11   -1    0    0    0    0 -0.00000000000E+00 -0.00000000000E+00 -0.45593999997E+02  0.45594000000E+02  0.51100000000E-03 0.  1.
    9900012    2    1    2    0    0  0.69513497034E+01  0.84956069748E+01  0.41989603893E+02  0.47787269181E+02  0.19999991504E+02 0.  0.
        -12    1    1    2    0    0 -0.69513497034E+01 -0.84956069748E+01 -0.41989603893E+02  0.43400730819E+02  0.00000000000E+00 0.  1.
         11    1    3    3    0    0 -0.26818165558E+00 -0.91818459634E+00 -0.49837547746E-01  0.95784570554E+00  0.51100000000E-03 0. -1.
        -11    1    3    3    0    0  0.56774918090E+01 -0.33721402025E+01  0.22325895539E+02  0.23281985625E+02  0.51100000000E-03 0.  1.
         12    1    3    3    0    0  0.15420395500E+01  0.12785931774E+02  0.19713545901E+02  0.23547437850E+02  0.00000000000E+00 0. -1.
</event>
<event>
 7    1  0.4083500E-009  0.4778727E+02  0.7816164E-02  0.1312668E+00
        -11   -1    0    0    0    0  0.00000000000E+00  0.00000000000E+00  0.45593999997E+02  0.45594000000E+02  0.51100000000E-03 0.  1.
         11   -1    0    0    0    0 -0.00000000000E+00 -0.00000000000E+00 -0.45593999997E+02  0.45594000000E+02  0.51100000000E-03 0. -1.
    9900012    2    1    2    0    0  0.27847701654E+02  0.14934917956E+02 -0.29750245890E+02  0.47787269681E+02  0.19999993782E+02 0.  0.
        -12    1    1    2    0    0 -0.27847701654E+02 -0.14934917956E+02  0.29750245890E+02  0.43400730319E+02  0.00000000000E+00 0.  1.
         11    1    3    3    0    0  0.15637268727E+02  0.39864232593E+01 -0.92784080052E+01  0.18614634001E+02  0.51100000000E-03 0. -1.
        -11    1    3    3    0    0  0.40330872510E+01  0.53757349977E+00  0.77216321728E+00  0.41413783137E+01  0.51100000000E-03 0.  1.
         12    1    3    3    0    0  0.81773456760E+01  0.10410921197E+02 -0.21244001102E+02  0.25031257366E+02  0.00000000000E+00 0. -1.
</event>
<event>
 7    1  0.4083500E-009  0.4778727E+02  0.7816164E-02  0.1312668E+00
        -11   -1    0    0    0    0  0.00000000000E+00  0.00000000000E+00  0.45593999997E+02  0.45594000000E+02  0.51100000000E-03 0.  1.
         11   -1    0    0    0    0 -0.00000000000E+00 -0.00000000000E+00 -0.45593999997E+02  0.45594000000E+02  0.51100000000E-03 0. -1.
    9900012    2    1    2    0    0 -0.20514116555E+01  0.24274344501E+02 -0.35918956198E+02  0.47787268381E+02  0.19999987856E+02 0.  0.
        -12    1    1    2    0    0  0.20514116555E+01 -0.24274344501E+02  0.35918956198E+02  0.43400731619E+02  0.00000000000E+00 0.  1.
         11    1    3    3    0    0 -0.79007264663E+01  0.78486576700E+01 -0.20704130463E+02  0.23509230622E+02  0.51100000000E-03 0. -1.
        -11    1    3    3    0    0  0.62917885681E+00  0.10925101668E+02 -0.65093671272E+01  0.12732854085E+02  0.51100000000E-03 0.  1.
        -12    1    3    3    0    0  0.52201359540E+01  0.55005851628E+01 -0.87054586077E+01  0.11545183675E+02  0.00000000000E+00 0.  1.
</event>
<event>
 7    1  0.4083500E-009  0.4778727E+02  0.7816164E-02  0.1312668E+00
        -11   -1    0    0    0    0  0.00000000000E+00  0.00000000000E+00  0.45593999997E+02  0.45594000000E+02  0.51100000000E-03 0.  1.
         11   -1    0    0    0    0 -0.00000000000E+00 -0.00000000000E+00 -0.45593999997E+02  0.45594000000E+02  0.51100000000E-03 0. -1.
    9900012    2    1    2    0    0 -0.12158544245E+02 -0.41315664569E+02 -0.53674259673E+01  0.47787267305E+02  0.19999982952E+02 0.  0.
        -12    1    1    2    0    0  0.12158544245E+02  0.41315664569E+02  0.53674259673E+01  0.43400732695E+02  0.00000000000E+00 0.  1.
         11    1    3    3    0    0 -0.11448229192E+01 -0.14813675604E+02  0.16944793124E-01  0.14857856232E+02  0.51100000000E-03 0. -1.
        -11    1    3    3    0    0 -0.33935099888E+00 -0.19946788898E+02 -0.37060882474E+01  0.20290998911E+02  0.51100000000E-03 0.  1.
        -12    1    3    3    0    0 -0.10674370327E+02 -0.65552000668E+01 -0.16782825130E+01  0.12638412163E+02  0.00000000000E+00 0.  1.
</event>
<event>
 7    1  0.4083500E-009  0.4778727E+02  0.7816164E-02  0.1312668E+00
        -11   -1    0    0    0    0  0.00000000000E+00  0.00000000000E+00  0.45593999997E+02  0.45594000000E+02  0.51100000000E-03 0.  1.
         11   -1    0    0    0    0 -0.00000000000E+00 -0.00000000000E+00 -0.45593999997E+02  0.45594000000E+02  0.51100000000E-03 0. -1.
    9900012    2    1    2    0    0  0.17873023055E+02 -0.28525953919E+02 -0.27394309880E+02  0.47787271735E+02  0.20000003151E+02 0.  0.
        -12    1    1    2    0    0 -0.17873023055E+02  0.28525953919E+02  0.27394309880E+02  0.43400728265E+02  0.00000000000E+00 0.  1.
         11    1    3    3    0    0  0.84049005661E+01  0.39795615476E+00 -0.39451113806E+01  0.92932570552E+01  0.51100000000E-03 0.  1.
        -11    1    3    3    0    0  0.88187448306E+00 -0.34708349237E+01 -0.37307349868E+01  0.51713423281E+01  0.51100000000E-03 0. -1.
        -12    1    3    3    0    0  0.85862480059E+01 -0.25453075150E+02 -0.19718463512E+02  0.33322672352E+02  0.00000000000E+00 0.  1.
</event>
<event>
 7    1  0.4083500E-009  0.4778727E+02  0.7816164E-02  0.1312668E+00
        -11   -1    0    0    0    0  0.00000000000E+00  0.00000000000E+00  0.45593999997E+02  0.45594000000E+02  0.51100000000E-03 0.  1.
         11   -1    0    0    0    0 -0.00000000000E+00 -0.00000000000E+00 -0.45593999997E+02  0.45594000000E+02  0.51100000000E-03 0. -1.
    9900012    2    1    2    0    0 -0.55034370088E+01  0.35468605246E+01 -0.42904027393E+02  0.47787267229E+02  0.19999982606E+02 0.  0.
        -12    1    1    2    0    0  0.55034370088E+01 -0.35468605246E+01  0.42904027393E+02  0.43400732771E+02  0.00000000000E+00 0.  1.
         11    1    3    3    0    0 -0.84556231215E+01  0.16201482589E+01 -0.14498467283E+02  0.16862028246E+02  0.51100000000E-03 0. -1.
        -11    1    3    3    0    0 -0.25738869333E+01  0.16928923806E+01 -0.14442581453E+01  0.34024491780E+01  0.51100000000E-03 0.  1.
        -12    1    3    3    0    0  0.55260730460E+01  0.23381988516E+00 -0.26961301964E+02  0.27522789805E+02  0.00000000000E+00 0.  1.
</event>
<event>
 7    1  0.4083500E-009  0.4778727E+02  0.7816164E-02  0.1312668E+00
        -11   -1    0    0    0    0  0.00000000000E+00  0.00000000000E+00  0.45593999997E+02  0.45594000000E+02  0.51100000000E-03 0.  1.
         11   -1    0    0    0    0 -0.00000000000E+00 -0.00000000000E+00 -0.45593999997E+02  0.45594000000E+02  0.51100000000E-03 0. -1.
    9900012    2    1    2    0    0 -0.22634941514E+02  0.23504843908E+02 -0.28614768765E+02  0.47787271251E+02  0.20000000942E+02 0.  0.
        -12    1    1    2    0    0  0.22634941514E+02 -0.23504843908E+02  0.28614768765E+02  0.43400728749E+02  0.00000000000E+00 0.  1.
         11    1    3    3    0    0 -0.27453768677E+01  0.47647352450E+01 -0.35807187486E+00  0.55107179051E+01  0.51100000000E-03 0. -1.
        -11    1    3    3    0    0 -0.50230405702E+01 -0.23399733206E+01 -0.37098847840E+01  0.66685573464E+01  0.51100000000E-03 0.  1.
         12    1    3    3    0    0 -0.14866524076E+02  0.21080081983E+02 -0.24546812106E+02  0.35607995999E+02  0.00000000000E+00 0. -1.
</event>
<event>
 7    1  0.4083500E-009  0.4778726E+02  0.7816164E-02  0.1312668E+00
        -11   -1    0    0    0    0  0.00000000000E+00  0.00000000000E+00  0.45593999997E+02  0.45594000000E+02  0.51100000000E-03 0. -1.
         11   -1    0    0    0    0 -0.00000000000E+00 -0.00000000000E+00 -0.45593999997E+02  0.45594000000E+02  0.51100000000E-03 0.  1.
    9900012    2    1    2    0    0 -0.18923502409E+02 -0.16582885279E+02  0.35362879235E+02  0.47787259737E+02  0.19999948444E+02 0.  0.
        -12    1    1    2    0    0  0.18923502409E+02  0.16582885279E+02 -0.35362879235E+02  0.43400740263E+02  0.00000000000E+00 0.  1.
         11    1    3    3    0    0 -0.10020918100E+02 -0.12421117884E+02  0.15116658088E+02  0.21982181900E+02  0.51100000000E-03 0. -1.
        -11    1    3    3    0    0 -0.67028150823E-01 -0.30109796782E+01 -0.65655445091E+00  0.30824593109E+01  0.51100000000E-03 0.  1.
        -12    1    3    3    0    0 -0.88355561577E+01 -0.11507877169E+01  0.20902775598E+02  0.22722618526E+02  0.00000000000E+00 0.  1.
</event>
<event>
 7    1  0.4083500E-009  0.4778727E+02  0.7816164E-02  0.1312668E+00
        -11   -1    0    0    0    0  0.00000000000E+00  0.00000000000E+00  0.45593999997E+02  0.45594000000E+02  0.51100000000E-03 0.  1.
         11   -1    0    0    0    0 -0.00000000000E+00 -0.00000000000E+00 -0.45593999997E+02  0.45594000000E+02  0.51100000000E-03 0. -1.
    9900012    2    1    2    0    0 -0.26998366356E+02  0.31897318363E+02 -0.11716339604E+02  0.47787270532E+02  0.19999997662E+02 0.  0.
        -12    1    1    2    0    0  0.26998366356E+02 -0.31897318363E+02  0.11716339604E+02  0.43400729468E+02  0.00000000000E+00 0.  1.
         11    1    3    3    0    0 -0.57120834358E+01  0.33060127467E+01 -0.17768318203E+01  0.68348188738E+01  0.51100000000E-03 0. -1.
        -11    1    3    3    0    0 -0.19237688231E+02  0.19115455830E+02 -0.72992030070E-01  0.27120004206E+02  0.51100000000E-03 0.  1.
         12    1    3    3    0    0 -0.20485946894E+01  0.94758497866E+01 -0.98665157538E+01  0.13832447452E+02  0.00000000000E+00 0. -1.
</event>
<event>
 7    1  0.4083500E-009  0.4778727E+02  0.7816164E-02  0.1312668E+00
        -11   -1    0    0    0    0  0.00000000000E+00  0.00000000000E+00  0.45593999997E+02  0.45594000000E+02  0.51100000000E-03 0. -1.
         11   -1    0    0    0    0 -0.00000000000E+00 -0.00000000000E+00 -0.45593999997E+02  0.45594000000E+02  0.51100000000E-03 0.  1.
    9900012    2    1    2    0    0  0.12071410253E+02  0.73195470111E+01  0.41040573717E+02  0.47787269535E+02  0.19999993116E+02 0.  0.
        -12    1    1    2    0    0 -0.12071410253E+02 -0.73195470111E+01 -0.41040573717E+02  0.43400730465E+02  0.00000000000E+00 0.  1.
         11    1    3    3    0    0  0.14480877703E+01  0.47975369100E+01  0.93763264335E+01  0.10631501128E+02  0.51100000000E-03 0. -1.
        -11    1    3    3    0    0  0.92099824664E+00  0.32092672525E+01 -0.65687250017E+00  0.34028099875E+01  0.51100000000E-03 0.  1.
         12    1    3    3    0    0  0.97023242362E+01 -0.68725715147E+00  0.32321119783E+02  0.33752958419E+02  0.00000000000E+00 0. -1.
</event>
<event>
 7    1  0.4083500E-009  0.4778727E+02  0.7816164E-02  0.1312668E+00
        -11   -1    0    0    0    0  0.00000000000E+00  0.00000000000E+00  0.45593999997E+02  0.45594000000E+02  0.51100000000E-03 0.  1.
         11   -1    0    0    0    0 -0.00000000000E+00 -0.00000000000E+00 -0.45593999997E+02  0.45594000000E+02  0.51100000000E-03 0. -1.
    9900012    2    1    2    0    0 -0.40633802161E+02  0.64961278615E+01 -0.13795557545E+02  0.47787274623E+02  0.20000016318E+02 0.  0.
        -12    1    1    2    0    0  0.40633802161E+02 -0.64961278615E+01  0.13795557545E+02  0.43400725377E+02  0.00000000000E+00 0.  1.
         11    1    3    3    0    0 -0.30459685828E+02  0.70618205028E+01 -0.12806250314E+02  0.33788486455E+02  0.51100000000E-03 0.  1.
        -11    1    3    3    0    0 -0.53897176774E+01 -0.19840433355E+00 -0.52903274055E+01  0.75548650048E+01  0.51100000000E-03 0. -1.
        -12    1    3    3    0    0 -0.47843986551E+01 -0.36728830778E+00  0.43010201746E+01  0.64439231633E+01  0.00000000000E+00 0.  1.
</event>
<event>
 7    1  0.4083500E-009  0.4778728E+02  0.7816164E-02  0.1312668E+00
        -11   -1    0    0    0    0  0.00000000000E+00  0.00000000000E+00  0.45593999997E+02  0.45594000000E+02  0.51100000000E-03 0.  1.
         11   -1    0    0    0    0 -0.00000000000E+00 -0.00000000000E+00 -0.45593999997E+02  0.45594000000E+02  0.51100000000E-03 0. -1.
    9900012    2    1    2    0    0  0.27392380462E+02 -0.31916985804E+02 -0.10704499687E+02  0.47787276461E+02  0.20000024695E+02 0.  0.
        -12    1    1    2    0    0 -0.27392380462E+02  0.31916985804E+02  0.10704499687E+02  0.43400723539E+02  0.00000000000E+00 0.  1.
         11    1    3    3    0    0  0.38348522991E+01 -0.11850325026E+02 -0.80520873548E+00  0.12481372391E+02  0.51100000000E-03 0. -1.
        -11    1    3    3    0    0  0.30202625462E+01 -0.59570102936E+01  0.29144360796E+01  0.72871047344E+01  0.51100000000E-03 0.  1.
         12    1    3    3    0    0  0.20537265616E+02 -0.14109650484E+02 -0.12813727031E+02  0.28018799336E+02  0.00000000000E+00 0. -1.
</event>
<event>
 7    1  0.4083500E-009  0.4778727E+02  0.7816164E-02  0.1312668E+00
        -11   -1    0    0    0    0  0.00000000000E+00  0.00000000000E+00  0.45593999997E+02  0.45594000000E+02  0.51100000000E-03 0.  1.
         11   -1    0    0    0    0 -0.00000000000E+00 -0.00000000000E+00 -0.45593999997E+02  0.45594000000E+02  0.51100000000E-03 0. -1.
    9900012    2    1    2    0    0 -0.30061461107E+02 -0.27891684178E+02 -0.14212166173E+02  0.47787272385E+02  0.20000006113E+02 0.  0.
        -12    1    1    2    0    0  0.30061461107E+02  0.27891684178E+02  0.14212166173E+02  0.43400727615E+02  0.00000000000E+00 0.  1.
         11    1    3    3    0    0 -0.87813212298E+01 -0.32156654118E+00 -0.16623511029E+01  0.89430654159E+01  0.51100000000E-03 0. -1.
        -11    1    3    3    0    0  0.14164993467E+01 -0.68763053057E+00 -0.65501481070E+00  0.17053887560E+01  0.51100000000E-03 0.  1.
        -12    1    3    3    0    0 -0.22696639224E+02 -0.26882487106E+02 -0.11894800259E+02  0.37138818213E+02  0.00000000000E+00 0.  1.
</event>
<event>
 7    1  0.4083500E-009  0.4778728E+02  0.7816164E-02  0.1312668E+00
        -11   -1    0    0    0    0  0.00000000000E+00  0.00000000000E+00  0.45593999997E+02  0.45594000000E+02  0.51100000000E-03 0.  1.
         11   -1    0    0    0    0 -0.00000000000E+00 -0.00000000000E+00 -0.45593999997E+02  0.45594000000E+02  0.51100000000E-03 0. -1.
    9900012    2    1    2    0    0  0.33833340585E+02 -0.26282253909E+02  0.69405153459E+01  0.47787279281E+02  0.20000037552E+02 0.  0.
        -12    1    1    2    0    0 -0.33833340585E+02  0.26282253909E+02 -0.69405153459E+01  0.43400720719E+02  0.00000000000E+00 0.  1.
         11    1    3    3    0    0  0.20273699625E+02 -0.11116046162E+02  0.44566389648E+01  0.23546783430E+02  0.51100000000E-03 0. -1.
        -11    1    3    3    0    0  0.12140025911E+02 -0.40141199987E+01  0.23321224067E+01  0.12997391418E+02  0.51100000000E-03 0.  1.
         12    1    3    3    0    0  0.14196150492E+01 -0.11152087748E+02  0.15175397435E+00  0.11243104433E+02  0.00000000000E+00 0. -1.
</event>
<event>
 7    1  0.4083500E-009  0.4778730E+02  0.7816164E-02  0.1312668E+00
        -11   -1    0    0    0    0  0.00000000000E+00  0.00000000000E+00  0.45593999997E+02  0.45594000000E+02  0.51100000000E-03 0.  1.
         11   -1    0    0    0    0 -0.00000000000E+00 -0.00000000000E+00 -0.45593999997E+02  0.45594000000E+02  0.51100000000E-03 0. -1.
    9900012    2    1    2    0    0 -0.33551135475E+02  0.73470333165E+01 -0.26532310265E+02  0.47787296339E+02  0.20000115330E+02 0.  0.
        -12    1    1    2    0    0  0.33551135475E+02 -0.73470333165E+01  0.26532310265E+02  0.43400703661E+02  0.00000000000E+00 0.  1.
         11    1    3    3    0    0 -0.14316323575E+02 -0.31375776075E+00 -0.55722631095E+01  0.15365730737E+02  0.51100000000E-03 0. -1.
        -11    1    3    3    0    0  0.17128654693E+01 -0.69470201911E+00 -0.37311595023E+00  0.18856656079E+01  0.51100000000E-03 0.  1.
        -12    1    3    3    0    0 -0.20947677369E+02  0.83554930964E+01 -0.20586931206E+02  0.30535899995E+02  0.00000000000E+00 0.  1.
</event>
<event>
 7    1  0.4083500E-009  0.4778727E+02  0.7816164E-02  0.1312668E+00
        -11   -1    0    0    0    0  0.00000000000E+00  0.00000000000E+00  0.45593999997E+02  0.45594000000E+02  0.51100000000E-03 0. -1.
         11   -1    0    0    0    0 -0.00000000000E+00 -0.00000000000E+00 -0.45593999997E+02  0.45594000000E+02  0.51100000000E-03 0.  1.
    9900012    2    1    2    0    0  0.22428559379E+02 -0.24540285662E+01  0.37075064742E+02  0.47787274688E+02  0.20000016612E+02 0.  0.
        -12    1    1    2    0    0 -0.22428559379E+02  0.24540285662E+01 -0.37075064742E+02  0.43400725312E+02  0.00000000000E+00 0.  1.
         11    1    3    3    0    0  0.19509902839E+02 -0.64200499909E+00  0.24283067758E+02  0.31156313312E+02  0.51100000000E-03 0. -1.
        -11    1    3    3    0    0  0.48506893783E+01 -0.36580818680E+01  0.36077762915E+01  0.70658899248E+01  0.51100000000E-03 0.  1.
         12    1    3    3    0    0 -0.19320328383E+01  0.18460583009E+01  0.91842206918E+01  0.95650714505E+01  0.00000000000E+00 0. -1.
</event>
<event>
 7    1  0.5022786E-009  0.4778727E+02  0.7816164E-02  0.1312668E+00
        -11   -1    0    0    0    0  0.00000000000E+00  0.00000000000E+00  0.45593999997E+02  0.45594000000E+02  0.51100000000E-03 0. -1.
         11   -1    0    0    0    0 -0.00000000000E+00 -0.00000000000E+00 -0.45593999997E+02  0.45594000000E+02  0.51100000000E-03 0.  1.
    9900012    2    1    2    0    0 -0.28338194987E+02  0.12651018794E+01  0.32847671049E+02  0.47787271075E+02  0.20000000139E+02 0.  0.
        -12    1    1    2    0    0  0.28338194987E+02 -0.12651018794E+01 -0.32847671049E+02  0.43400728925E+02  0.00000000000E+00 0.  1.
         11    1    3    3    0    0 -0.20749763511E+02  0.71681534767E+01  0.23001964220E+02  0.31796626681E+02  0.51100000000E-03 0. -1.
        -11    1    3    3    0    0 -0.57315485396E+01 -0.95098231654E+00  0.13203286208E+01  0.59580436349E+01  0.51100000000E-03 0.  1.
         12    1    3    3    0    0 -0.18568829362E+01 -0.49520692808E+01  0.85253782084E+01  0.10032600759E+02  0.00000000000E+00 0. -1.
</event>
<event>
 7    1  0.4083500E-009  0.4778727E+02  0.7816164E-02  0.1312668E+00
        -11   -1    0    0    0    0  0.00000000000E+00  0.00000000000E+00  0.45593999997E+02  0.45594000000E+02  0.51100000000E-03 0.  1.
         11   -1    0    0    0    0 -0.00000000000E+00 -0.00000000000E+00 -0.45593999997E+02  0.45594000000E+02  0.51100000000E-03 0. -1.
    9900012    2    1    2    0    0  0.17058461783E+02  0.68118259921E+01 -0.39322147966E+02  0.47787269448E+02  0.19999992722E+02 0.  0.
        -12    1    1    2    0    0 -0.17058461783E+02 -0.68118259921E+01  0.39322147966E+02  0.43400730552E+02  0.00000000000E+00 0.  1.
         11    1    3    3    0    0  0.12133993162E+02  0.71099336342E+01 -0.16468302492E+02  0.21656175414E+02  0.51100000000E-03 0. -1.
        -11    1    3    3    0    0  0.51482387714E+01 -0.97563851297E+00 -0.25726647032E+01  0.58373655781E+01  0.51100000000E-03 0.  1.
        -12    1    3    3    0    0 -0.22377015073E+00  0.67753087089E+00 -0.20281180772E+02  0.20293728456E+02  0.00000000000E+00 0.  1.
</event>
<event>
 7    1  0.4083500E-009  0.4778727E+02  0.7816164E-02  0.1312668E+00
        -11   -1    0    0    0    0  0.00000000000E+00  0.00000000000E+00  0.45593999997E+02  0.45594000000E+02  0.51100000000E-03 0.  1.
         11   -1    0    0    0    0 -0.00000000000E+00 -0.00000000000E+00 -0.45593999997E+02  0.45594000000E+02  0.51100000000E-03 0. -1.
    9900012    2    1    2    0    0 -0.42579480676E+00  0.20187036238E+02 -0.38417774625E+02  0.47787272582E+02  0.20000007011E+02 0.  0.
        -12    1    1    2    0    0  0.42579480676E+00 -0.20187036238E+02  0.38417774625E+02  0.43400727418E+02  0.00000000000E+00 0.  1.
         11    1    3    3    0    0  0.44052411852E+01  0.27639470421E+01 -0.14964773113E+01  0.54115614896E+01  0.51100000000E-03 0. -1.
        -11    1    3    3    0    0  0.31432368030E+00  0.34531867203E+01 -0.11881685176E+01  0.36653843712E+01  0.51100000000E-03 0.  1.
        -12    1    3    3    0    0 -0.51453596722E+01  0.13969902476E+02 -0.35733128796E+02  0.38710326721E+02  0.00000000000E+00 0.  1.
</event>
<event>
 7    1  0.4083500E-009  0.4778727E+02  0.7816164E-02  0.1312668E+00
        -11   -1    0    0    0    0  0.00000000000E+00  0.00000000000E+00  0.45593999997E+02  0.45594000000E+02  0.51100000000E-03 0.  1.
         11   -1    0    0    0    0 -0.00000000000E+00 -0.00000000000E+00 -0.45593999997E+02  0.45594000000E+02  0.51100000000E-03 0. -1.
    9900012    2    1    2    0    0 -0.18290823231E+02  0.32941034461E+02 -0.21539669301E+02  0.47787270520E+02  0.19999997607E+02 0.  0.
        -12    1    1    2    0    0  0.18290823231E+02 -0.32941034461E+02  0.21539669301E+02  0.43400729480E+02  0.00000000000E+00 0.  1.
         11    1    3    3    0    0 -0.17532024778E+01  0.22006725574E+02 -0.10305268149E+02  0.24363255967E+02  0.51100000000E-03 0. -1.
        -11    1    3    3    0    0  0.36287136675E+00 -0.75739362268E-01 -0.32128889014E+00  0.49054958144E+00  0.51100000000E-03 0.  1.
         12    1    3    3    0    0 -0.16900492120E+02  0.11010048249E+02 -0.10913112262E+02  0.22933464971E+02  0.00000000000E+00 0. -1.
</event>
<event>
 7    1  0.4083500E-009  0.4778727E+02  0.7816164E-02  0.1312668E+00
        -11   -1    0    0    0    0  0.00000000000E+00  0.00000000000E+00  0.45593999997E+02  0.45594000000E+02  0.51100000000E-03 0.  1.
         11   -1    0    0    0    0 -0.00000000000E+00 -0.00000000000E+00 -0.45593999997E+02  0.45594000000E+02  0.51100000000E-03 0. -1.
    9900012    2    1    2    0    0 -0.29340538658E+02  0.13335494269E+02 -0.29067515725E+02  0.47787273202E+02  0.20000009839E+02 0.  0.
        -12    1    1    2    0    0  0.29340538658E+02 -0.13335494269E+02  0.29067515725E+02  0.43400726798E+02  0.00000000000E+00 0.  1.
         11    1    3    3    0    0 -0.11727202322E+01 -0.19975248599E+01 -0.83495762162E+01  0.86649178623E+01  0.51100000000E-03 0. -1.
        -11    1    3    3    0    0 -0.96990582131E+01  0.18070803923E+01 -0.92262357953E+01  0.13507801338E+02  0.51100000000E-03 0.  1.
        -12    1    3    3    0    0 -0.18468760213E+02  0.13525938736E+02 -0.11491703713E+02  0.25614554002E+02  0.00000000000E+00 0.  1.
</event>
<event>
 7    1  0.4083500E-009  0.4778727E+02  0.7816164E-02  0.1312668E+00
        -11   -1    0    0    0    0  0.00000000000E+00  0.00000000000E+00  0.45593999997E+02  0.45594000000E+02  0.51100000000E-03 0.  1.
         11   -1    0    0    0    0 -0.00000000000E+00 -0.00000000000E+00 -0.45593999997E+02  0.45594000000E+02  0.51100000000E-03 0. -1.
    9900012    2    1    2    0    0 -0.28533837332E+02  0.18763520043E+02 -0.26783832822E+02  0.47787271228E+02  0.20000000839E+02 0.  0.
        -12    1    1    2    0    0  0.28533837332E+02 -0.18763520043E+02  0.26783832822E+02  0.43400728772E+02  0.00000000000E+00 0.  1.
         11    1    3    3    0    0 -0.17264419957E+01  0.36470225386E+01 -0.19747951039E+00  0.40398482372E+01  0.51100000000E-03 0. -1.
        -11    1    3    3    0    0 -0.41766394988E+01 -0.34635836015E+01 -0.34599722858E+01  0.64352262856E+01  0.51100000000E-03 0.  1.
         12    1    3    3    0    0 -0.22630755837E+02  0.18580081106E+02 -0.23126381025E+02  0.37312196706E+02  0.00000000000E+00 0. -1.
</event>
<event>
 7    1  0.4083500E-009  0.4778727E+02  0.7816164E-02  0.1312668E+00
        -11   -1    0    0    0    0  0.00000000000E+00  0.00000000000E+00  0.45593999997E+02  0.45594000000E+02  0.51100000000E-03 0.  1.
         11   -1    0    0    0    0 -0.00000000000E+00 -0.00000000000E+00 -0.45593999997E+02  0.45594000000E+02  0.51100000000E-03 0. -1.
    9900012    2    1    2    0    0 -0.32912237876E+02  0.72248283934E+01 -0.27353417166E+02  0.47787274453E+02  0.20000015542E+02 0.  0.
        -12    1    1    2    0    0  0.32912237876E+02 -0.72248283934E+01  0.27353417166E+02  0.43400725547E+02  0.00000000000E+00 0.  1.
         11    1    3    3    0    0 -0.17459616701E+02  0.57067490434E+01 -0.19539039982E+02  0.26817518224E+02  0.51100000000E-03 0. -1.
        -11    1    3    3    0    0  0.98760538560E+00  0.26181297909E+01 -0.22101633029E+01  0.35657804316E+01  0.51100000000E-03 0.  1.
         12    1    3    3    0    0 -0.16440226561E+02 -0.11000504409E+01 -0.56042138803E+01  0.17403975798E+02  0.00000000000E+00 0. -1.
</event>
<event>
 7    1  0.4083500E-009  0.4778727E+02  0.7816164E-02  0.1312668E+00
        -11   -1    0    0    0    0  0.00000000000E+00  0.00000000000E+00  0.45593999997E+02  0.45594000000E+02  0.51100000000E-03 0.  1.
         11   -1    0    0    0    0 -0.00000000000E+00 -0.00000000000E+00 -0.45593999997E+02  0.45594000000E+02  0.51100000000E-03 0. -1.
    9900012    2    1    2    0    0  0.38302455459E+02  0.85502581575E+01  0.18532081555E+02  0.47787273560E+02  0.20000011470E+02 0.  0.
        -12    1    1    2    0    0 -0.38302455459E+02 -0.85502581575E+01 -0.18532081555E+02  0.43400726440E+02  0.00000000000E+00 0.  1.
         11    1    3    3    0    0  0.13549564971E+02  0.19454547376E+01  0.11833794351E+01  0.13739573945E+02  0.51100000000E-03 0. -1.
        -11    1    3    3    0    0  0.99563958408E+01  0.84231711645E+01  0.30548967234E+01  0.13394477401E+02  0.51100000000E-03 0.  1.
         12    1    3    3    0    0  0.14796494647E+02 -0.18183677446E+01  0.14293805397E+02  0.20653222214E+02  0.00000000000E+00 0. -1.
</event>
<event>
 7    1  0.4083500E-009  0.4778727E+02  0.7816164E-02  0.1312668E+00
        -11   -1    0    0    0    0  0.00000000000E+00  0.00000000000E+00  0.45593999997E+02  0.45594000000E+02  0.51100000000E-03 0.  1.
         11   -1    0    0    0    0 -0.00000000000E+00 -0.00000000000E+00 -0.45593999997E+02  0.45594000000E+02  0.51100000000E-03 0. -1.
    9900012    2    1    2    0    0  0.26235699762E+01  0.74146853226E+01 -0.42682109491E+02  0.47787272489E+02  0.20000006588E+02 0.  0.
        -12    1    1    2    0    0 -0.26235699762E+01 -0.74146853226E+01  0.42682109491E+02  0.43400727511E+02  0.00000000000E+00 0.  1.
         11    1    3    3    0    0 -0.77064059707E+00  0.30664410091E+01 -0.25482581795E+01  0.40608579639E+01  0.51100000000E-03 0. -1.
        -11    1    3    3    0    0 -0.32910213006E+01  0.18975588453E+01 -0.97027693489E+00  0.39208402625E+01  0.51100000000E-03 0.  1.
         12    1    3    3    0    0  0.66852318738E+01  0.24506854681E+01 -0.39163574377E+02  0.39805574263E+02  0.00000000000E+00 0. -1.
</event>
<event>
 7    1  0.4083500E-009  0.4778727E+02  0.7816164E-02  0.1312668E+00
        -11   -1    0    0    0    0  0.00000000000E+00  0.00000000000E+00  0.45593999997E+02  0.45594000000E+02  0.51100000000E-03 0.  1.
         11   -1    0    0    0    0 -0.00000000000E+00 -0.00000000000E+00 -0.45593999997E+02  0.45594000000E+02  0.51100000000E-03 0. -1.
    9900012    2    1    2    0    0 -0.42341536064E+02 -0.90533137668E+01  0.29757200259E+01  0.47787273323E+02  0.20000010388E+02 0.  0.
        -12    1    1    2    0    0  0.42341536064E+02  0.90533137668E+01 -0.29757200259E+01  0.43400726677E+02  0.00000000000E+00 0.  1.
         11    1    3    3    0    0 -0.15424649893E+02 -0.94893440964E+01 -0.30439290436E+01  0.18363904269E+02  0.51100000000E-03 0. -1.
        -11    1    3    3    0    0 -0.22930608760E+01 -0.80898273860E-01 -0.24706685403E+01  0.33717763877E+01  0.51100000000E-03 0.  1.
        -12    1    3    3    0    0 -0.24623825295E+02  0.51692860347E+00  0.84903176097E+01  0.26051592666E+02  0.00000000000E+00 0.  1.
</event>
<event>
 7    1  0.4083500E-009  0.4778727E+02  0.7816164E-02  0.1312668E+00
        -11   -1    0    0    0    0  0.00000000000E+00  0.00000000000E+00  0.45593999997E+02  0.45594000000E+02  0.51100000000E-03 0.  1.
         11   -1    0    0    0    0 -0.00000000000E+00 -0.00000000000E+00 -0.45593999997E+02  0.45594000000E+02  0.51100000000E-03 0. -1.
    9900012    2    1    2    0    0 -0.41497392004E+02  0.40683099654E+01 -0.12043183119E+02  0.47787274790E+02  0.20000017078E+02 0.  0.
        -12    1    1    2    0    0  0.41497392004E+02 -0.40683099654E+01  0.12043183119E+02  0.43400725210E+02  0.00000000000E+00 0.  1.
         11    1    3    3    0    0 -0.82640072936E+01  0.46283088794E+01 -0.24504900290E+01  0.97836578679E+01  0.51100000000E-03 0. -1.
        -11    1    3    3    0    0 -0.23423802999E+02 -0.18540147047E+01  0.98731851871E+00  0.23517795721E+02  0.51100000000E-03 0.  1.
        -12    1    3    3    0    0 -0.98095817111E+01  0.12940157906E+01 -0.10580011609E+02  0.14485821201E+02  0.00000000000E+00 0.  1.
</event>
<event>
 7    1  0.4083500E-009  0.4778727E+02  0.7816164E-02  0.1312668E+00
        -11   -1    0    0    0    0  0.00000000000E+00  0.00000000000E+00  0.45593999997E+02  0.45594000000E+02  0.51100000000E-03 0.  1.
         11   -1    0    0    0    0 -0.00000000000E+00 -0.00000000000E+00 -0.45593999997E+02  0.45594000000E+02  0.51100000000E-03 0. -1.
    9900012    2    1    2    0    0 -0.44992773902E+00 -0.21735027163E+02 -0.37563403413E+02  0.47787272855E+02  0.20000008255E+02 0.  0.
        -12    1    1    2    0    0  0.44992773902E+00  0.21735027163E+02  0.37563403413E+02  0.43400727145E+02  0.00000000000E+00 0.  1.
         11    1    3    3    0    0 -0.43477566254E+01 -0.73578140804E+01 -0.89302821277E+01  0.12360839569E+02  0.51100000000E-03 0. -1.
        -11    1    3    3    0    0 -0.13133791374E+01 -0.12044709026E+02 -0.26830278422E+02  0.29439154552E+02  0.51100000000E-03 0.  1.
        -12    1    3    3    0    0  0.52112080237E+01 -0.23325040568E+01 -0.18028428628E+01  0.59872787332E+01  0.00000000000E+00 0.  1.
</event>
<event>
 7    1  0.4083500E-009  0.4778727E+02  0.7816164E-02  0.1312668E+00
        -11   -1    0    0    0    0  0.00000000000E+00  0.00000000000E+00  0.45593999997E+02  0.45594000000E+02  0.51100000000E-03 0.  1.
         11   -1    0    0    0    0 -0.00000000000E+00 -0.00000000000E+00 -0.45593999997E+02  0.45594000000E+02  0.51100000000E-03 0. -1.
    9900012    2    1    2    0    0  0.44692706263E+01 -0.24477122543E+01 -0.43100551107E+02  0.47787272115E+02  0.20000004883E+02 0.  0.
        -12    1    1    2    0    0 -0.44692706263E+01  0.24477122543E+01  0.43100551107E+02  0.43400727885E+02  0.00000000000E+00 0.  1.
         11    1    3    3    0    0  0.10570505516E+02 -0.27686706161E+00 -0.22092666845E+02  0.24492818760E+02  0.51100000000E-03 0. -1.
        -11    1    3    3    0    0  0.58878846835E+00 -0.14258361059E+01 -0.11734827185E+02  0.11835786826E+02  0.51100000000E-03 0.  1.
        -12    1    3    3    0    0 -0.66900233585E+01 -0.74500908682E+00 -0.92730570766E+01  0.11458666529E+02  0.00000000000E+00 0.  1.
</event>
<event>
 7    1  0.4083500E-009  0.4778727E+02  0.7816164E-02  0.1312668E+00
        -11   -1    0    0    0    0  0.00000000000E+00  0.00000000000E+00  0.45593999997E+02  0.45594000000E+02  0.51100000000E-03 0.  1.
         11   -1    0    0    0    0 -0.00000000000E+00 -0.00000000000E+00 -0.45593999997E+02  0.45594000000E+02  0.51100000000E-03 0. -1.
    9900012    2    1    2    0    0  0.28207171564E+02 -0.27262548798E+02 -0.18566961031E+02  0.47787272627E+02  0.20000007216E+02 0.  0.
        -12    1    1    2    0    0 -0.28207171564E+02  0.27262548798E+02  0.18566961031E+02  0.43400727373E+02  0.00000000000E+00 0.  1.
         11    1    3    3    0    0  0.14509350915E+01 -0.65389649852E+01 -0.16603546757E+01  0.69007284853E+01  0.51100000000E-03 0. -1.
        -11    1    3    3    0    0  0.13863993161E+00 -0.74117392582E+01 -0.25091564983E+01  0.78261718903E+01  0.51100000000E-03 0.  1.
         12    1    3    3    0    0  0.26617596541E+02 -0.13311844554E+02 -0.14397449857E+02  0.33060372252E+02  0.00000000000E+00 0. -1.
</event>
<event>
 7    1  0.4083500E-009  0.4778727E+02  0.7816164E-02  0.1312668E+00
        -11   -1    0    0    0    0  0.00000000000E+00  0.00000000000E+00  0.45593999997E+02  0.45594000000E+02  0.51100000000E-03 0.  1.
         11   -1    0    0    0    0 -0.00000000000E+00 -0.00000000000E+00 -0.45593999997E+02  0.45594000000E+02  0.51100000000E-03 0. -1.
    9900012    2    1    2    0    0 -0.31248458493E+02 -0.60890942617E+01 -0.29497115336E+02  0.47787273736E+02  0.20000012272E+02 0.  0.
        -12    1    1    2    0    0  0.31248458493E+02  0.60890942617E+01  0.29497115336E+02  0.43400726264E+02  0.00000000000E+00 0.  1.
         11    1    3    3    0    0 -0.13323237899E+02 -0.82954330362E+01 -0.11014196927E+02  0.19173820996E+02  0.51100000000E-03 0. -1.
        -11    1    3    3    0    0 -0.10917654202E+01 -0.37611234773E+01 -0.42194900220E+01  0.57569173914E+01  0.51100000000E-03 0.  1.
         12    1    3    3    0    0 -0.16833455174E+02  0.59674622518E+01 -0.14263428386E+02  0.22856535349E+02  0.00000000000E+00 0. -1.
</event>
<event>
 7    1  0.4083500E-009  0.4778727E+02  0.7816164E-02  0.1312668E+00
        -11   -1    0    0    0    0  0.00000000000E+00  0.00000000000E+00  0.45593999997E+02  0.45594000000E+02  0.51100000000E-03 0.  1.
         11   -1    0    0    0    0 -0.00000000000E+00 -0.00000000000E+00 -0.45593999997E+02  0.45594000000E+02  0.51100000000E-03 0. -1.
    9900012    2    1    2    0    0 -0.36537320329E+02 -0.12459391854E+02 -0.19834588956E+02  0.47787272572E+02  0.20000006964E+02 0.  0.
        -12    1    1    2    0    0  0.36537320329E+02  0.12459391854E+02  0.19834588956E+02  0.43400727428E+02  0.00000000000E+00 0.  1.
         11    1    3    3    0    0 -0.19960161477E+02 -0.12605412851E+02 -0.43429194240E+01  0.24003446184E+02  0.51100000000E-03 0. -1.
        -11    1    3    3    0    0 -0.10299401555E+02 -0.31238290592E+01 -0.75571215700E+01  0.13150896056E+02  0.51100000000E-03 0.  1.
        -12    1    3    3    0    0 -0.62777572972E+01  0.32698500562E+01 -0.79345479623E+01  0.10632930332E+02  0.00000000000E+00 0.  1.
</event>
<event>
 7    1  0.4083500E-009  0.4778727E+02  0.7816164E-02  0.1312668E+00
        -11   -1    0    0    0    0  0.00000000000E+00  0.00000000000E+00  0.45593999997E+02  0.45594000000E+02  0.51100000000E-03 0. -1.
         11   -1    0    0    0    0 -0.00000000000E+00 -0.00000000000E+00 -0.45593999997E+02  0.45594000000E+02  0.51100000000E-03 0.  1.
    9900012    2    1    2    0    0  0.20425764449E+02 -0.35601534996E+02  0.14104691839E+02  0.47787268678E+02  0.19999989213E+02 0.  0.
        -12    1    1    2    0    0 -0.20425764449E+02  0.35601534996E+02 -0.14104691839E+02  0.43400731322E+02  0.00000000000E+00 0.  1.
         11    1    3    3    0    0 -0.12736983569E+01 -0.29244111025E+01  0.24015605516E+01  0.39927410566E+01  0.51100000000E-03 0.  1.
        -11    1    3    3    0    0  0.90497352600E+01 -0.25486877079E+02  0.40288081817E+01  0.27344284725E+02  0.51100000000E-03 0. -1.
         12    1    3    3    0    0  0.12649727546E+02 -0.71902468146E+01  0.76743231059E+01  0.16450242897E+02  0.00000000000E+00 0. -1.
</event>
<event>
 7    1  0.4083500E-009  0.4778728E+02  0.7816164E-02  0.1312668E+00
        -11   -1    0    0    0    0  0.00000000000E+00  0.00000000000E+00  0.45593999997E+02  0.45594000000E+02  0.51100000000E-03 0.  1.
         11   -1    0    0    0    0 -0.00000000000E+00 -0.00000000000E+00 -0.45593999997E+02  0.45594000000E+02  0.51100000000E-03 0. -1.
    9900012    2    1    2    0    0  0.28306087090E+02  0.32064151748E+02 -0.73673905836E+01  0.47787276070E+02  0.20000022911E+02 0.  0.
        -12    1    1    2    0    0 -0.28306087090E+02 -0.32064151748E+02  0.73673905836E+01  0.43400723930E+02  0.00000000000E+00 0.  1.
         11    1    3    3    0    0  0.18120163917E+02  0.27574296680E+02 -0.82007816886E+01  0.33999044080E+02  0.51100000000E-03 0. -1.
        -11    1    3    3    0    0 -0.11909375766E+01  0.16398093847E+01 -0.43140209351E-01  0.20271084007E+01  0.51100000000E-03 0.  1.
        -12    1    3    3    0    0  0.11376860750E+02  0.28500456829E+01  0.87653131435E+00  0.11761123589E+02  0.00000000000E+00 0.  1.
</event>
<event>
 7    1  0.4083500E-009  0.4778727E+02  0.7816164E-02  0.1312668E+00
        -11   -1    0    0    0    0  0.00000000000E+00  0.00000000000E+00  0.45593999997E+02  0.45594000000E+02  0.51100000000E-03 0. -1.
         11   -1    0    0    0    0 -0.00000000000E+00 -0.00000000000E+00 -0.45593999997E+02  0.45594000000E+02  0.51100000000E-03 0.  1.
    9900012    2    1    2    0    0 -0.29747695622E+02 -0.23349667609E+02  0.21295334874E+02  0.47787266600E+02  0.19999979734E+02 0.  0.
        -12    1    1    2    0    0  0.29747695622E+02  0.23349667609E+02 -0.21295334874E+02  0.43400733400E+02  0.00000000000E+00 0.  1.
         11    1    3    3    0    0 -0.34722288198E+01 -0.31304974506E+01  0.56456501400E+01  0.73300581873E+01  0.51100000000E-03 0. -1.
        -11    1    3    3    0    0 -0.21044872218E+01 -0.71139140651E+01 -0.21249457150E+01  0.77169964588E+01  0.51100000000E-03 0.  1.
        -12    1    3    3    0    0 -0.24170979580E+02 -0.13105256094E+02  0.17774630450E+02  0.32740211954E+02  0.00000000000E+00 0.  1.
</event>
<event>
 7    1  0.4083500E-009  0.4778727E+02  0.7816164E-02  0.1312668E+00
        -11   -1    0    0    0    0  0.00000000000E+00  0.00000000000E+00  0.45593999997E+02  0.45594000000E+02  0.51100000000E-03 0.  1.
         11   -1    0    0    0    0 -0.00000000000E+00 -0.00000000000E+00 -0.45593999997E+02  0.45594000000E+02  0.51100000000E-03 0. -1.
    9900012    2    1    2    0    0 -0.15045357879E+02  0.11223243005E+02 -0.39131819131E+02  0.47787271369E+02  0.20000001478E+02 0.  0.
        -12    1    1    2    0    0  0.15045357879E+02 -0.11223243005E+02  0.39131819131E+02  0.43400728631E+02  0.00000000000E+00 0.  1.
         11    1    3    3    0    0 -0.10602565025E+02  0.48765522598E+01 -0.22562290522E+02  0.25401812945E+02  0.51100000000E-03 0. -1.
        -11    1    3    3    0    0 -0.71420468141E+01  0.72565993702E+01 -0.16671954540E+02  0.19535125686E+02  0.51100000000E-03 0.  1.
        -12    1    3    3    0    0  0.26992539600E+01 -0.90990862488E+00  0.10242593044E+00  0.28503327381E+01  0.00000000000E+00 0.  1.
</event>
<event>
 7    1  0.4083500E-009  0.4778726E+02  0.7816164E-02  0.1312668E+00
        -11   -1    0    0    0    0  0.00000000000E+00  0.00000000000E+00  0.45593999997E+02  0.45594000000E+02  0.51100000000E-03 0.  1.
         11   -1    0    0    0    0 -0.00000000000E+00 -0.00000000000E+00 -0.45593999997E+02  0.45594000000E+02  0.51100000000E-03 0. -1.
    9900012    2    1    2    0    0 -0.14918804968E+02 -0.33195998885E+02  0.23644855145E+02  0.47787259701E+02  0.19999948280E+02 0.  0.
        -12    1    1    2    0    0  0.14918804968E+02  0.33195998885E+02 -0.23644855145E+02  0.43400740299E+02  0.00000000000E+00 0.  1.
         11    1    3    3    0    0 -0.13266471062E+02 -0.23450451594E+02  0.73691024386E+01  0.27932536680E+02  0.51100000000E-03 0. -1.
        -11    1    3    3    0    0 -0.31053659524E+01 -0.30080479506E+01  0.47298837520E+01  0.64080769923E+01  0.51100000000E-03 0.  1.
         12    1    3    3    0    0  0.14530320458E+01 -0.67374993410E+01  0.11545868955E+02  0.13446646029E+02  0.00000000000E+00 0. -1.
</event>
<event>
 7    1  0.4083500E-009  0.4778727E+02  0.7816164E-02  0.1312668E+00
        -11   -1    0    0    0    0  0.00000000000E+00  0.00000000000E+00  0.45593999997E+02  0.45594000000E+02  0.51100000000E-03 0.  1.
         11   -1    0    0    0    0 -0.00000000000E+00 -0.00000000000E+00 -0.45593999997E+02  0.45594000000E+02  0.51100000000E-03 0. -1.
    9900012    2    1    2    0    0 -0.27783981721E+01  0.39378316967E+02 -0.18034737328E+02  0.47787273116E+02  0.20000009444E+02 0.  0.
        -12    1    1    2    0    0  0.27783981721E+01 -0.39378316967E+02  0.18034737328E+02  0.43400726884E+02  0.00000000000E+00 0.  1.
         11    1    3    3    0    0  0.50715765884E+01  0.42941174717E+01 -0.30570954892E+01  0.73147909775E+01  0.51100000000E-03 0. -1.
        -11    1    3    3    0    0 -0.17291909061E+01  0.68538542252E+01 -0.81537244829E+01  0.10791137203E+02  0.51100000000E-03 0.  1.
         12    1    3    3    0    0 -0.61207838544E+01  0.28230345271E+02 -0.68239173559E+01  0.29681344935E+02  0.00000000000E+00 0. -1.
</event>
<event>
 7    1  0.4083500E-009  0.4778727E+02  0.7816164E-02  0.1312668E+00
        -11   -1    0    0    0    0  0.00000000000E+00  0.00000000000E+00  0.45593999997E+02  0.45594000000E+02  0.51100000000E-03 0.  1.
         11   -1    0    0    0    0 -0.00000000000E+00 -0.00000000000E+00 -0.45593999997E+02  0.45594000000E+02  0.51100000000E-03 0. -1.
    9900012    2    1    2    0    0 -0.78779898753E+01  0.13990004189E+02 -0.40321712439E+02  0.47787269180E+02  0.19999991500E+02 0.  0.
        -12    1    1    2    0    0  0.78779898753E+01 -0.13990004189E+02  0.40321712439E+02  0.43400730820E+02  0.00000000000E+00 0.  1.
         11    1    3    3    0    0  0.14687189239E+00 -0.13691217852E+01 -0.13865199543E+01  0.19540991941E+01  0.51100000000E-03 0. -1.
        -11    1    3    3    0    0  0.77416401736E+00  0.98502876493E+01 -0.31634953647E+02  0.33142084865E+02  0.51100000000E-03 0.  1.
        -12    1    3    3    0    0 -0.87990257851E+01  0.55088383251E+01 -0.73002388379E+01  0.12691085121E+02  0.00000000000E+00 0.  1.
</event>
<event>
 7    1  0.4083500E-009  0.4778727E+02  0.7816164E-02  0.1312668E+00
        -11   -1    0    0    0    0  0.00000000000E+00  0.00000000000E+00  0.45593999997E+02  0.45594000000E+02  0.51100000000E-03 0.  1.
         11   -1    0    0    0    0 -0.00000000000E+00 -0.00000000000E+00 -0.45593999997E+02  0.45594000000E+02  0.51100000000E-03 0. -1.
    9900012    2    1    2    0    0  0.36247298147E+02  0.14618001952E+02 -0.18869832722E+02  0.47787271999E+02  0.20000004353E+02 0.  0.
        -12    1    1    2    0    0 -0.36247298147E+02 -0.14618001952E+02  0.18869832722E+02  0.43400728001E+02  0.00000000000E+00 0.  1.
         11    1    3    3    0    0  0.80536789284E+01  0.84932925256E+00 -0.60489738888E+01  0.10108075476E+02  0.51100000000E-03 0. -1.
        -11    1    3    3    0    0  0.13355676979E+02 -0.12170124633E+01 -0.92465575394E+01  0.16289691633E+02  0.51100000000E-03 0.  1.
         12    1    3    3    0    0  0.14837942240E+02  0.14985685163E+02 -0.35743012934E+01  0.21389504890E+02  0.00000000000E+00 0. -1.
</event>
<event>
 7    1  0.4083500E-009  0.4778727E+02  0.7816164E-02  0.1312668E+00
        -11   -1    0    0    0    0  0.00000000000E+00  0.00000000000E+00  0.45593999997E+02  0.45594000000E+02  0.51100000000E-03 0.  1.
         11   -1    0    0    0    0 -0.00000000000E+00 -0.00000000000E+00 -0.45593999997E+02  0.45594000000E+02  0.51100000000E-03 0. -1.
    9900012    2    1    2    0    0 -0.29077771337E+02  0.22755488461E+02 -0.22809965949E+02  0.47787267431E+02  0.19999983523E+02 0.  0.
        -12    1    1    2    0    0  0.29077771337E+02 -0.22755488461E+02  0.22809965949E+02  0.43400732569E+02  0.00000000000E+00 0.  1.
         11    1    3    3    0    0 -0.68244021257E+01  0.10371713693E+02 -0.70281737865E+01  0.14266749326E+02  0.51100000000E-03 0. -1.
        -11    1    3    3    0    0 -0.10405280705E+02  0.62383628914E+01  0.88946273379E+00  0.12164628327E+02  0.51100000000E-03 0.  1.
         12    1    3    3    0    0 -0.11848088506E+02  0.61454118762E+01 -0.16671254896E+02  0.21355889777E+02  0.00000000000E+00 0. -1.
</event>
<event>
 7    1  0.4083500E-009  0.4778727E+02  0.7816164E-02  0.1312668E+00
        -11   -1    0    0    0    0  0.00000000000E+00  0.00000000000E+00  0.45593999997E+02  0.45594000000E+02  0.51100000000E-03 0.  1.
         11   -1    0    0    0    0 -0.00000000000E+00 -0.00000000000E+00 -0.45593999997E+02  0.45594000000E+02  0.51100000000E-03 0. -1.
    9900012    2    1    2    0    0 -0.13770276698E+02 -0.10582846596E+01 -0.41144656079E+02  0.47787271773E+02  0.20000003321E+02 0.  0.
        -12    1    1    2    0    0  0.13770276698E+02  0.10582846596E+01  0.41144656079E+02  0.43400728227E+02  0.00000000000E+00 0.  1.
         11    1    3    3    0    0 -0.66318326472E+01  0.39074406747E+01 -0.11159867376E+02  0.13556988493E+02  0.51100000000E-03 0. -1.
        -11    1    3    3    0    0 -0.11401787743E+02 -0.38098842319E+01 -0.23290034538E+02  0.26209572500E+02  0.51100000000E-03 0.  1.
        -12    1    3    3    0    0  0.42633436914E+01 -0.11558411024E+01 -0.66947541659E+01  0.80207107806E+01  0.00000000000E+00 0.  1.
</event>
<event>
 7    1  0.4083500E-009  0.4778727E+02  0.7816164E-02  0.1312668E+00
        -11   -1    0    0    0    0  0.00000000000E+00  0.00000000000E+00  0.45593999997E+02  0.45594000000E+02  0.51100000000E-03 0.  1.
         11   -1    0    0    0    0 -0.00000000000E+00 -0.00000000000E+00 -0.45593999997E+02  0.45594000000E+02  0.51100000000E-03 0. -1.
    9900012    2    1    2    0    0 -0.14887931696E+02  0.19070202092E+02 -0.36031931951E+02  0.47787271456E+02  0.20000001878E+02 0.  0.
        -12    1    1    2    0    0  0.14887931696E+02 -0.19070202092E+02  0.36031931951E+02  0.43400728544E+02  0.00000000000E+00 0.  1.
         11    1    3    3    0    0 -0.77205546002E+01  0.14499037991E+01 -0.11970557869E+02  0.14317941204E+02  0.51100000000E-03 0. -1.
        -11    1    3    3    0    0 -0.76047715846E+01  0.28684349054E+01 -0.57756171887E+01  0.99708687602E+01  0.51100000000E-03 0.  1.
         12    1    3    3    0    0  0.43739448934E+00  0.14751863388E+02 -0.18285756893E+02  0.23498461492E+02  0.00000000000E+00 0. -1.
</event>
<event>
 7    1  0.4083500E-009  0.4778727E+02  0.7816164E-02  0.1312668E+00
        -11   -1    0    0    0    0  0.00000000000E+00  0.00000000000E+00  0.45593999997E+02  0.45594000000E+02  0.51100000000E-03 0.  1.
         11   -1    0    0    0    0 -0.00000000000E+00 -0.00000000000E+00 -0.45593999997E+02  0.45594000000E+02  0.51100000000E-03 0. -1.
    9900012    2    1    2    0    0  0.19672134192E+02  0.18675682459E+02 -0.33879924046E+02  0.47787271523E+02  0.20000002180E+02 0.  0.
        -12    1    1    2    0    0 -0.19672134192E+02 -0.18675682459E+02  0.33879924046E+02  0.43400728477E+02  0.00000000000E+00 0.  1.
         11    1    3    3    0    0  0.12115160046E+02  0.12245570333E+02 -0.10976922626E+02  0.20426059980E+02  0.51100000000E-03 0. -1.
        -11    1    3    3    0    0  0.89894504348E+01  0.85429916264E+01 -0.19447375576E+02  0.23064980861E+02  0.51100000000E-03 0.  1.
        -12    1    3    3    0    0 -0.14324762881E+01 -0.21128795001E+01 -0.34556258440E+01  0.42962306818E+01  0.00000000000E+00 0.  1.
</event>
<event>
 7    1  0.4083500E-009  0.4778727E+02  0.7816164E-02  0.1312668E+00
        -11   -1    0    0    0    0  0.00000000000E+00  0.00000000000E+00  0.45593999997E+02  0.45594000000E+02  0.51100000000E-03 0. -1.
         11   -1    0    0    0    0 -0.00000000000E+00 -0.00000000000E+00 -0.45593999997E+02  0.45594000000E+02  0.51100000000E-03 0.  1.
    9900012    2    1    2    0    0  0.15979407894E+02  0.21033871155E+02  0.34436294688E+02  0.47787267238E+02  0.19999982645E+02 0.  0.
        -12    1    1    2    0    0 -0.15979407894E+02 -0.21033871155E+02 -0.34436294688E+02  0.43400732762E+02  0.00000000000E+00 0.  1.
         11    1    3    3    0    0  0.14633257932E+02  0.95462487888E+01  0.28733532112E+02  0.33628543999E+02  0.51100000000E-03 0. -1.
        -11    1    3    3    0    0  0.85838938938E+00  0.61294514532E+01  0.61936576107E+01  0.87560494700E+01  0.51100000000E-03 0.  1.
        -12    1    3    3    0    0  0.48776057307E+00  0.53581709134E+01 -0.49089503454E+00  0.54026737685E+01  0.00000000000E+00 0.  1.
</event>
<event>
 7    1  0.4083500E-009  0.4778727E+02  0.7816164E-02  0.1312668E+00
        -11   -1    0    0    0    0  0.00000000000E+00  0.00000000000E+00  0.45593999997E+02  0.45594000000E+02  0.51100000000E-03 0.  1.
         11   -1    0    0    0    0 -0.00000000000E+00 -0.00000000000E+00 -0.45593999997E+02  0.45594000000E+02  0.51100000000E-03 0. -1.
    9900012    2    1    2    0    0  0.14023387533E+02  0.15562117311E+02 -0.38010373742E+02  0.47787269533E+02  0.19999993109E+02 0.  0.
        -12    1    1    2    0    0 -0.14023387533E+02 -0.15562117311E+02  0.38010373742E+02  0.43400730467E+02  0.00000000000E+00 0.  1.
         11    1    3    3    0    0  0.49186597395E+01  0.26039489882E+01 -0.59829313681E+01  0.81712442126E+01  0.51100000000E-03 0. -1.
        -11    1    3    3    0    0 -0.43921714509E+01  0.76136664580E+01 -0.11505459683E+02  0.14478766859E+02  0.51100000000E-03 0.  1.
         12    1    3    3    0    0  0.13496899244E+02  0.53445018644E+01 -0.20521982691E+02  0.25137258461E+02  0.00000000000E+00 0. -1.
</event>
<event>
 7    1  0.4083500E-009  0.4778727E+02  0.7816164E-02  0.1312668E+00
        -11   -1    0    0    0    0  0.00000000000E+00  0.00000000000E+00  0.45593999997E+02  0.45594000000E+02  0.51100000000E-03 0. -1.
         11   -1    0    0    0    0 -0.00000000000E+00 -0.00000000000E+00 -0.45593999997E+02  0.45594000000E+02  0.51100000000E-03 0.  1.
    9900012    2    1    2    0    0 -0.35483561797E+02 -0.12417013179E+01  0.24959932373E+02  0.47787271849E+02  0.20000003669E+02 0.  0.
        -12    1    1    2    0    0  0.35483561797E+02  0.12417013179E+01 -0.24959932373E+02  0.43400728151E+02  0.00000000000E+00 0.  1.
         11    1    3    3    0    0 -0.83869686721E+01 -0.70569401954E+01  0.77899283726E+01  0.13447104995E+02  0.51100000000E-03 0. -1.
        -11    1    3    3    0    0 -0.49049078552E+01 -0.25665586574E+01  0.58558893014E+01  0.80583363159E+01  0.51100000000E-03 0.  1.
        -12    1    3    3    0    0 -0.22191685270E+02  0.83817975349E+01  0.11314114699E+02  0.26281830538E+02  0.00000000000E+00 0.  1.
</event>
<event>
 7    1  0.4083500E-009  0.4778729E+02  0.7816164E-02  0.1312668E+00
        -11   -1    0    0    0    0  0.00000000000E+00  0.00000000000E+00  0.45593999997E+02  0.45594000000E+02  0.51100000000E-03 0.  1.
         11   -1    0    0    0    0 -0.00000000000E+00 -0.00000000000E+00 -0.45593999997E+02  0.45594000000E+02  0.51100000000E-03 0. -1.
    9900012    2    1    2    0    0 -0.20645758739E+02  0.30676632947E+02 -0.22722647695E+02  0.47787287089E+02  0.20000073155E+02 0.  0.
        -12    1    1    2    0    0  0.20645758739E+02 -0.30676632947E+02  0.22722647695E+02  0.43400712911E+02  0.00000000000E+00 0.  1.
         11    1    3    3    0    0 -0.82625107676E+01  0.15457271492E+02 -0.11367040259E+02  0.20890331033E+02  0.51100000000E-03 0. -1.
        -11    1    3    3    0    0 -0.41012479960E+01  0.14114200609E+02 -0.28458166731E+01  0.14970957443E+02  0.51100000000E-03 0.  1.
        -12    1    3    3    0    0 -0.82819999756E+01  0.11051608456E+01 -0.85097907634E+01  0.11925998613E+02  0.00000000000E+00 0.  1.
</event>
<event>
 7    1  0.4083500E-009  0.4778730E+02  0.7816164E-02  0.1312668E+00
        -11   -1    0    0    0    0  0.00000000000E+00  0.00000000000E+00  0.45593999997E+02  0.45594000000E+02  0.51100000000E-03 0.  1.
         11   -1    0    0    0    0 -0.00000000000E+00 -0.00000000000E+00 -0.45593999997E+02  0.45594000000E+02  0.51100000000E-03 0. -1.
    9900012    2    1    2    0    0 -0.24550216977E+02 -0.25194983072E+02 -0.25418903793E+02  0.47787297291E+02  0.20000119668E+02 0.  0.
        -12    1    1    2    0    0  0.24550216977E+02  0.25194983072E+02  0.25418903793E+02  0.43400702709E+02  0.00000000000E+00 0.  1.
         11    1    3    3    0    0 -0.73374171607E+01 -0.41360090115E+01 -0.10982212646E+02  0.13840276587E+02  0.51100000000E-03 0. -1.
        -11    1    3    3    0    0 -0.35774823918E+00 -0.25104106932E+01 -0.75366101453E+01  0.79517695134E+01  0.51100000000E-03 0.  1.
         12    1    3    3    0    0 -0.16855051577E+02 -0.18548563367E+02 -0.69000810014E+01  0.25995251191E+02  0.00000000000E+00 0. -1.
</event>
<event>
 7    1  0.4083500E-009  0.4778727E+02  0.7816164E-02  0.1312668E+00
        -11   -1    0    0    0    0  0.00000000000E+00  0.00000000000E+00  0.45593999997E+02  0.45594000000E+02  0.51100000000E-03 0. -1.
         11   -1    0    0    0    0 -0.00000000000E+00 -0.00000000000E+00 -0.45593999997E+02  0.45594000000E+02  0.51100000000E-03 0.  1.
    9900012    2    1    2    0    0 -0.51018491090E+01  0.26158905371E+02  0.34253551013E+02  0.47787274758E+02  0.20000016930E+02 0.  0.
        -12    1    1    2    0    0  0.51018491090E+01 -0.26158905371E+02 -0.34253551013E+02  0.43400725242E+02  0.00000000000E+00 0.  1.
         11    1    3    3    0    0 -0.53090199351E+01  0.47985215354E+01  0.94099601620E+01  0.11821964816E+02  0.51100000000E-03 0. -1.
        -11    1    3    3    0    0  0.13569858969E+01 -0.20560982549E+01  0.15182464225E+01  0.28937904587E+01  0.51100000000E-03 0.  1.
         12    1    3    3    0    0 -0.11498150708E+01  0.23416482091E+02  0.23325344429E+02  0.33071519483E+02  0.00000000000E+00 0. -1.
</event>
<event>
 7    1  0.4083500E-009  0.4778728E+02  0.7816164E-02  0.1312668E+00
        -11   -1    0    0    0    0  0.00000000000E+00  0.00000000000E+00  0.45593999997E+02  0.45594000000E+02  0.51100000000E-03 0.  1.
         11   -1    0    0    0    0 -0.00000000000E+00 -0.00000000000E+00 -0.45593999997E+02  0.45594000000E+02  0.51100000000E-03 0. -1.
    9900012    2    1    2    0    0 -0.16700270757E+01 -0.36383278020E+02 -0.23602773296E+02  0.47787276306E+02  0.20000023988E+02 0.  0.
        -12    1    1    2    0    0  0.16700270757E+01  0.36383278020E+02  0.23602773296E+02  0.43400723694E+02  0.00000000000E+00 0.  1.
         11    1    3    3    0    0  0.53112710664E+01 -0.13739730570E+02 -0.11614689778E+02  0.18758753034E+02  0.51100000000E-03 0. -1.
        -11    1    3    3    0    0  0.54706869573E+00 -0.13816704140E+01  0.19971044831E+01  0.24893219696E+01  0.51100000000E-03 0.  1.
         12    1    3    3    0    0 -0.75283668378E+01 -0.21261877036E+02 -0.13985188001E+02  0.26539201302E+02  0.00000000000E+00 0. -1.
</event>
<event>
 7    1  0.4083500E-009  0.4778727E+02  0.7816164E-02  0.1312668E+00
        -11   -1    0    0    0    0  0.00000000000E+00  0.00000000000E+00  0.45593999997E+02  0.45594000000E+02  0.51100000000E-03 0.  1.
         11   -1    0    0    0    0 -0.00000000000E+00 -0.00000000000E+00 -0.45593999997E+02  0.45594000000E+02  0.51100000000E-03 0. -1.
    9900012    2    1    2    0    0  0.36046061279E+02  0.14637147123E+02 -0.19236908527E+02  0.47787271212E+02  0.20000000764E+02 0.  0.
        -12    1    1    2    0    0 -0.36046061279E+02 -0.14637147123E+02  0.19236908527E+02  0.43400728788E+02  0.00000000000E+00 0.  1.
         11    1    3    3    0    0  0.54772064760E+01 -0.11290181649E+01  0.21765870316E+01  0.60010002637E+01  0.51100000000E-03 0. -1.
        -11    1    3    3    0    0  0.10393942302E+02  0.79146317372E+00 -0.89531077741E+01  0.13741127669E+02  0.51100000000E-03 0.  1.
         12    1    3    3    0    0  0.20174912501E+02  0.14974702114E+02 -0.12460387785E+02  0.28045143279E+02  0.00000000000E+00 0. -1.
</event>
<event>
 7    1  0.4083500E-009  0.4778727E+02  0.7816164E-02  0.1312668E+00
        -11   -1    0    0    0    0  0.00000000000E+00  0.00000000000E+00  0.45593999997E+02  0.45594000000E+02  0.51100000000E-03 0.  1.
         11   -1    0    0    0    0 -0.00000000000E+00 -0.00000000000E+00 -0.45593999997E+02  0.45594000000E+02  0.51100000000E-03 0. -1.
    9900012    2    1    2    0    0  0.30595460504E+02  0.24433229635E+02 -0.18723204020E+02  0.47787270944E+02  0.19999999541E+02 0.  0.
        -12    1    1    2    0    0 -0.30595460504E+02 -0.24433229635E+02  0.18723204020E+02  0.43400729056E+02  0.00000000000E+00 0.  1.
         11    1    3    3    0    0  0.57067421795E+01  0.18916494258E+01 -0.50602851200E+01  0.78582268744E+01  0.51100000000E-03 0. -1.
        -11    1    3    3    0    0 -0.18050594165E+00  0.14011672971E+01  0.28738936797E+01  0.32023612121E+01  0.51100000000E-03 0.  1.
         12    1    3    3    0    0  0.25069224266E+02  0.21140412912E+02 -0.16536812580E+02  0.36726682857E+02  0.00000000000E+00 0. -1.
</event>
<event>
 7    1  0.4083500E-009  0.4778727E+02  0.7816164E-02  0.1312668E+00
        -11   -1    0    0    0    0  0.00000000000E+00  0.00000000000E+00  0.45593999997E+02  0.45594000000E+02  0.51100000000E-03 0.  1.
         11   -1    0    0    0    0 -0.00000000000E+00 -0.00000000000E+00 -0.45593999997E+02  0.45594000000E+02  0.51100000000E-03 0. -1.
    9900012    2    1    2    0    0 -0.11888420705E+02  0.76617133182E+01 -0.41031532252E+02  0.47787273776E+02  0.20000012454E+02 0.  0.
        -12    1    1    2    0    0  0.11888420705E+02 -0.76617133182E+01  0.41031532252E+02  0.43400726224E+02  0.00000000000E+00 0.  1.
         11    1    3    3    0    0  0.12994781052E+01  0.37491941873E+01 -0.22488113545E+01  0.45609487138E+01  0.51100000000E-03 0. -1.
        -11    1    3    3    0    0 -0.52122188547E+01  0.84186328113E+01 -0.18983395906E+02  0.21410509666E+02  0.51100000000E-03 0.  1.
        -12    1    3    3    0    0 -0.79756799559E+01 -0.45061136804E+01 -0.19799324992E+02  0.21815815396E+02  0.00000000000E+00 0.  1.
</event>
<event>
 7    1  0.4083500E-009  0.4778727E+02  0.7816164E-02  0.1312668E+00
        -11   -1    0    0    0    0  0.00000000000E+00  0.00000000000E+00  0.45593999997E+02  0.45594000000E+02  0.51100000000E-03 0. -1.
         11   -1    0    0    0    0 -0.00000000000E+00 -0.00000000000E+00 -0.45593999997E+02  0.45594000000E+02  0.51100000000E-03 0.  1.
    9900012    2    1    2    0    0 -0.30254200284E+02 -0.28668381896E+02  0.12100850804E+02  0.47787270219E+02  0.19999996235E+02 0.  0.
        -12    1    1    2    0    0  0.30254200284E+02  0.28668381896E+02 -0.12100850804E+02  0.43400729781E+02  0.00000000000E+00 0.  1.
         11    1    3    3    0    0 -0.44927690084E+01  0.28974174971E+00  0.91627271620E+00  0.45943965432E+01  0.51100000000E-03 0. -1.
        -11    1    3    3    0    0 -0.46766662668E+01 -0.12777942045E+02 -0.15994438652E+01  0.13700555872E+02  0.51100000000E-03 0.  1.
         12    1    3    3    0    0 -0.21084765009E+02 -0.16180181601E+02  0.12784021953E+02  0.29492317804E+02  0.00000000000E+00 0. -1.
</event>
<event>
 7    1  0.4083500E-009  0.4778727E+02  0.7816164E-02  0.1312668E+00
        -11   -1    0    0    0    0  0.00000000000E+00  0.00000000000E+00  0.45593999997E+02  0.45594000000E+02  0.51100000000E-03 0.  1.
         11   -1    0    0    0    0 -0.00000000000E+00 -0.00000000000E+00 -0.45593999997E+02  0.45594000000E+02  0.51100000000E-03 0. -1.
    9900012    2    1    2    0    0  0.39104972461E+02  0.10349628541E+02 -0.15726073646E+02  0.47787273342E+02  0.20000010475E+02 0.  0.
        -12    1    1    2    0    0 -0.39104972461E+02 -0.10349628541E+02  0.15726073646E+02  0.43400726658E+02  0.00000000000E+00 0.  1.
         11    1    3    3    0    0  0.10961733071E+02  0.13488634666E+01 -0.11850361580E+02  0.16199076962E+02  0.51100000000E-03 0. -1.
        -11    1    3    3    0    0  0.18523347715E+02  0.64592489868E+01 -0.74952246075E+01  0.21000350003E+02  0.51100000000E-03 0.  1.
        -12    1    3    3    0    0  0.96198916755E+01  0.25415160878E+01  0.36195125422E+01  0.10587846378E+02  0.00000000000E+00 0.  1.
</event>
<event>
 7    1  0.4083500E-009  0.4778728E+02  0.7816164E-02  0.1312668E+00
        -11   -1    0    0    0    0  0.00000000000E+00  0.00000000000E+00  0.45593999997E+02  0.45594000000E+02  0.51100000000E-03 0.  1.
         11   -1    0    0    0    0 -0.00000000000E+00 -0.00000000000E+00 -0.45593999997E+02  0.45594000000E+02  0.51100000000E-03 0. -1.
    9900012    2    1    2    0    0 -0.38102945980E+02  0.19128372183E+02  0.81174628695E+01  0.47787282055E+02  0.20000050201E+02 0.  0.
        -12    1    1    2    0    0  0.38102945980E+02 -0.19128372183E+02 -0.81174628695E+01  0.43400717945E+02  0.00000000000E+00 0.  1.
         11    1    3    3    0    0 -0.63399029000E+01  0.11527208199E+02  0.22274898244E+01  0.13342886076E+02  0.51100000000E-03 0. -1.
        -11    1    3    3    0    0 -0.97699781584E+01  0.34130187392E+01  0.61808572543E+01  0.12054217801E+02  0.51100000000E-03 0.  1.
        -12    1    3    3    0    0 -0.21993064921E+02  0.41881452442E+01 -0.29088420920E+00  0.22390178178E+02  0.00000000000E+00 0.  1.
</event>
<event>
 7    1  0.4083500E-009  0.4778727E+02  0.7816164E-02  0.1312668E+00
        -11   -1    0    0    0    0  0.00000000000E+00  0.00000000000E+00  0.45593999997E+02  0.45594000000E+02  0.51100000000E-03 0.  1.
         11   -1    0    0    0    0 -0.00000000000E+00 -0.00000000000E+00 -0.45593999997E+02  0.45594000000E+02  0.51100000000E-03 0. -1.
    9900012    2    1    2    0    0  0.40065655480E+02 -0.12620236340E+02  0.10913103452E+02  0.47787274877E+02  0.20000017473E+02 0.  0.
        -12    1    1    2    0    0 -0.40065655480E+02  0.12620236340E+02 -0.10913103452E+02  0.43400725123E+02  0.00000000000E+00 0.  1.
         11    1    3    3    0    0  0.63830414147E+01 -0.91558573809E+01 -0.22827956487E+01  0.11392282402E+02  0.51100000000E-03 0.  1.
        -11    1    3    3    0    0  0.48055487354E+01 -0.77820788190E+00  0.12258420077E+01  0.50201190269E+01  0.51100000000E-03 0. -1.
        -12    1    3    3    0    0  0.28877065329E+02 -0.26861710770E+01  0.11970057093E+02  0.31374873448E+02  0.00000000000E+00 0.  1.
</event>
<event>
 7    1  0.4083500E-009  0.4778727E+02  0.7816164E-02  0.1312668E+00
        -11   -1    0    0    0    0  0.00000000000E+00  0.00000000000E+00  0.45593999997E+02  0.45594000000E+02  0.51100000000E-03 0.  1.
         11   -1    0    0    0    0 -0.00000000000E+00 -0.00000000000E+00 -0.45593999997E+02  0.45594000000E+02  0.51100000000E-03 0. -1.
    9900012    2    1    2    0    0  0.18627204709E+02 -0.14453125255E+02 -0.36438407784E+02  0.47787272509E+02  0.20000006679E+02 0.  0.
        -12    1    1    2    0    0 -0.18627204709E+02  0.14453125255E+02  0.36438407784E+02  0.43400727491E+02  0.00000000000E+00 0.  1.
         11    1    3    3    0    0  0.73418624419E+01 -0.15995487384E+01 -0.17628967353E+02  0.19163558919E+02  0.51100000000E-03 0. -1.
        -11    1    3    3    0    0  0.71868010785E+01  0.75496823558E+00 -0.79040071860E+01  0.10709501232E+02  0.51100000000E-03 0.  1.
         12    1    3    3    0    0  0.40985411885E+01 -0.13608544752E+02 -0.10905433245E+02  0.17914212358E+02  0.00000000000E+00 0. -1.
</event>
<event>
 7    1  0.4083500E-009  0.4778727E+02  0.7816164E-02  0.1312668E+00
        -11   -1    0    0    0    0  0.00000000000E+00  0.00000000000E+00  0.45593999997E+02  0.45594000000E+02  0.51100000000E-03 0. -1.
         11   -1    0    0    0    0 -0.00000000000E+00 -0.00000000000E+00 -0.45593999997E+02  0.45594000000E+02  0.51100000000E-03 0.  1.
    9900012    2    1    2    0    0  0.12088845165E+02  0.41656534007E+02  0.14887192278E+01  0.47787270884E+02  0.19999999268E+02 0.  0.
        -12    1    1    2    0    0 -0.12088845165E+02 -0.41656534007E+02 -0.14887192278E+01  0.43400729116E+02  0.00000000000E+00 0.  1.
         11    1    3    3    0    0 -0.12817676508E+01  0.65982630383E+00  0.10212799169E+01  0.17667235187E+01  0.51100000000E-03 0. -1.
        -11    1    3    3    0    0 -0.29679218618E+01  0.13390474782E+02  0.22196472606E+01  0.13893891078E+02  0.51100000000E-03 0.  1.
         12    1    3    3    0    0  0.16338534678E+02  0.27606232921E+02 -0.17522079497E+01  0.32126656287E+02  0.00000000000E+00 0. -1.
</event>
<event>
 7    1  0.4083500E-009  0.4778727E+02  0.7816164E-02  0.1312668E+00
        -11   -1    0    0    0    0  0.00000000000E+00  0.00000000000E+00  0.45593999997E+02  0.45594000000E+02  0.51100000000E-03 0.  1.
         11   -1    0    0    0    0 -0.00000000000E+00 -0.00000000000E+00 -0.45593999997E+02  0.45594000000E+02  0.51100000000E-03 0. -1.
    9900012    2    1    2    0    0  0.39609859753E+02 -0.17716249487E+02 -0.90395236202E+00  0.47787267110E+02  0.19999982061E+02 0.  0.
        -12    1    1    2    0    0 -0.39609859753E+02  0.17716249487E+02  0.90395236202E+00  0.43400732890E+02  0.00000000000E+00 0.  1.
         11    1    3    3    0    0  0.10459664704E+02  0.13134900696E+01  0.18470254458E+01  0.10702399037E+02  0.51100000000E-03 0. -1.
        -11    1    3    3    0    0  0.38148265547E+01 -0.31819701737E+01  0.40823679460E+01  0.64298961217E+01  0.51100000000E-03 0.  1.
         12    1    3    3    0    0  0.25335368494E+02 -0.15847769383E+02 -0.68333457538E+01  0.30654971951E+02  0.00000000000E+00 0. -1.
</event>
<event>
 7    1  0.4083500E-009  0.4778728E+02  0.7816164E-02  0.1312668E+00
        -11   -1    0    0    0    0  0.00000000000E+00  0.00000000000E+00  0.45593999997E+02  0.45594000000E+02  0.51100000000E-03 0. -1.
         11   -1    0    0    0    0 -0.00000000000E+00 -0.00000000000E+00 -0.45593999997E+02  0.45594000000E+02  0.51100000000E-03 0.  1.
    9900012    2    1    2    0    0 -0.28844098399E+02  0.32344014331E+02 -0.23463155345E+01  0.47787280281E+02  0.20000042114E+02 0.  0.
        -12    1    1    2    0    0  0.28844098399E+02 -0.32344014331E+02  0.23463155345E+01  0.43400719719E+02  0.00000000000E+00 0.  1.
         11    1    3    3    0    0 -0.22118139864E+02  0.24933337488E+02 -0.15167137268E+01  0.33364409932E+02  0.51100000000E-03 0. -1.
        -11    1    3    3    0    0 -0.28733417589E+01  0.92107167842E+01 -0.23082156387E+01  0.99207487740E+01  0.51100000000E-03 0.  1.
         12    1    3    3    0    0 -0.38526167760E+01 -0.18000399410E+01  0.14786138310E+01  0.45021215747E+01  0.00000000000E+00 0. -1.
</event>
<event>
 7    1  0.4083500E-009  0.4778727E+02  0.7816164E-02  0.1312668E+00
        -11   -1    0    0    0    0  0.00000000000E+00  0.00000000000E+00  0.45593999997E+02  0.45594000000E+02  0.51100000000E-03 0.  1.
         11   -1    0    0    0    0 -0.00000000000E+00 -0.00000000000E+00 -0.45593999997E+02  0.45594000000E+02  0.51100000000E-03 0. -1.
    9900012    2    1    2    0    0  0.36594148141E+02 -0.85346222738E+01 -0.21717557740E+02  0.47787265332E+02  0.19999973956E+02 0.  0.
        -12    1    1    2    0    0 -0.36594148141E+02  0.85346222738E+01  0.21717557740E+02  0.43400734668E+02  0.00000000000E+00 0.  1.
         11    1    3    3    0    0  0.10442508313E+02 -0.31148942879E+01 -0.73806577982E+01  0.13161407831E+02  0.51100000000E-03 0. -1.
        -11    1    3    3    0    0  0.17208621009E+02 -0.31389710629E+00 -0.16784906782E+02  0.24040970537E+02  0.51100000000E-03 0.  1.
         12    1    3    3    0    0  0.89430188184E+01 -0.51058308796E+01  0.24480068400E+01  0.10584886964E+02  0.00000000000E+00 0. -1.
</event>
<event>
 7    1  0.4083500E-009  0.4778727E+02  0.7816164E-02  0.1312668E+00
        -11   -1    0    0    0    0  0.00000000000E+00  0.00000000000E+00  0.45593999997E+02  0.45594000000E+02  0.51100000000E-03 0.  1.
         11   -1    0    0    0    0 -0.00000000000E+00 -0.00000000000E+00 -0.45593999997E+02  0.45594000000E+02  0.51100000000E-03 0. -1.
    9900012    2    1    2    0    0  0.42653515303E+02 -0.11064797740E+01  0.79420802299E+01  0.47787270702E+02  0.19999998440E+02 0.  0.
        -12    1    1    2    0    0 -0.42653515303E+02  0.11064797740E+01 -0.79420802299E+01  0.43400729298E+02  0.00000000000E+00 0.  1.
         11    1    3    3    0    0  0.11342795124E+02 -0.32017731861E+01  0.18429349325E+01  0.11929239799E+02  0.51100000000E-03 0. -1.
        -11    1    3    3    0    0 -0.15430940534E+01 -0.77518553736E+00 -0.11719833996E+01  0.20870067621E+01  0.51100000000E-03 0.  1.
        -12    1    3    3    0    0  0.32853814232E+02  0.28704789495E+01  0.72711286970E+01  0.33771024141E+02  0.00000000000E+00 0.  1.
</event>
<event>
 7    1  0.4083500E-009  0.4778727E+02  0.7816164E-02  0.1312668E+00
        -11   -1    0    0    0    0  0.00000000000E+00  0.00000000000E+00  0.45593999997E+02  0.45594000000E+02  0.51100000000E-03 0.  1.
         11   -1    0    0    0    0 -0.00000000000E+00 -0.00000000000E+00 -0.45593999997E+02  0.45594000000E+02  0.51100000000E-03 0. -1.
    9900012    2    1    2    0    0 -0.20474495880E+02 -0.19492984476E+01 -0.38218037184E+02  0.47787272907E+02  0.20000008493E+02 0.  0.
        -12    1    1    2    0    0  0.20474495880E+02  0.19492984476E+01  0.38218037184E+02  0.43400727093E+02  0.00000000000E+00 0.  1.
         11    1    3    3    0    0 -0.75622522069E+01 -0.24213754210E+01 -0.64887375501E+01  0.10254483538E+02  0.51100000000E-03 0. -1.
        -11    1    3    3    0    0 -0.13027028140E+02 -0.28415823137E+01 -0.31504164553E+02  0.34209507987E+02  0.51100000000E-03 0.  1.
        -12    1    3    3    0    0  0.11478446714E+00  0.33136592871E+01 -0.22513508074E+00  0.33232813828E+01  0.00000000000E+00 0.  1.
</event>
<event>
 7    1  0.4083500E-009  0.4778727E+02  0.7816164E-02  0.1312668E+00
        -11   -1    0    0    0    0  0.00000000000E+00  0.00000000000E+00  0.45593999997E+02  0.45594000000E+02  0.51100000000E-03 0.  1.
         11   -1    0    0    0    0 -0.00000000000E+00 -0.00000000000E+00 -0.45593999997E+02  0.45594000000E+02  0.51100000000E-03 0. -1.
    9900012    2    1    2    0    0  0.21439213144E+02  0.36073183626E+02 -0.11077404978E+02  0.47787270303E+02  0.19999996620E+02 0.  0.
        -12    1    1    2    0    0 -0.21439213144E+02 -0.36073183626E+02  0.11077404978E+02  0.43400729697E+02  0.00000000000E+00 0.  1.
         11    1    3    3    0    0  0.11241516785E+02  0.72594860250E+01 -0.63299065053E+01  0.14803362916E+02  0.51100000000E-03 0. -1.
        -11    1    3    3    0    0  0.62029359262E+01  0.15790588759E+02 -0.83281682723E+01  0.18899140047E+02  0.51100000000E-03 0.  1.
        -12    1    3    3    0    0  0.39947604327E+01  0.13023108842E+02  0.35806697998E+01  0.14084767341E+02  0.00000000000E+00 0.  1.
</event>
<event>
 7    1  0.4083500E-009  0.4778727E+02  0.7816164E-02  0.1312668E+00
        -11   -1    0    0    0    0  0.00000000000E+00  0.00000000000E+00  0.45593999997E+02  0.45594000000E+02  0.51100000000E-03 0. -1.
         11   -1    0    0    0    0 -0.00000000000E+00 -0.00000000000E+00 -0.45593999997E+02  0.45594000000E+02  0.51100000000E-03 0.  1.
    9900012    2    1    2    0    0 -0.23441834808E+02  0.36100400678E+02  0.55555972122E+01  0.47787271796E+02  0.20000003426E+02 0.  0.
        -12    1    1    2    0    0  0.23441834808E+02 -0.36100400678E+02 -0.55555972122E+01  0.43400728204E+02  0.00000000000E+00 0.  1.
         11    1    3    3    0    0 -0.90369325510E+01  0.10078884328E+02 -0.13460021770E+01  0.13603741447E+02  0.51100000000E-03 0. -1.
        -11    1    3    3    0    0 -0.14899455616E+02  0.13425865825E+02  0.53885667529E+00  0.20063350109E+02  0.51100000000E-03 0.  1.
        -12    1    3    3    0    0  0.49455335962E+00  0.12595650525E+02  0.63627427139E+01  0.14120180240E+02  0.00000000000E+00 0.  1.
</event>
<event>
 7    1  0.4083500E-009  0.4778726E+02  0.7816164E-02  0.1312668E+00
        -11   -1    0    0    0    0  0.00000000000E+00  0.00000000000E+00  0.45593999997E+02  0.45594000000E+02  0.51100000000E-03 0.  1.
         11   -1    0    0    0    0 -0.00000000000E+00 -0.00000000000E+00 -0.45593999997E+02  0.45594000000E+02  0.51100000000E-03 0. -1.
    9900012    2    1    2    0    0  0.36411087500E+02 -0.98871096682E+00 -0.23598292539E+02  0.47787259764E+02  0.19999948567E+02 0.  0.
        -12    1    1    2    0    0 -0.36411087500E+02  0.98871096682E+00  0.23598292539E+02  0.43400740236E+02  0.00000000000E+00 0.  1.
         11    1    3    3    0    0  0.12273653658E+02 -0.51007795080E+01 -0.88454844322E+01  0.15965685729E+02  0.51100000000E-03 0. -1.
        -11    1    3    3    0    0 -0.16936952356E+00  0.57438339146E+00 -0.55641091131E+01  0.55962409526E+01  0.51100000000E-03 0.  1.
         12    1    3    3    0    0  0.24306803366E+02  0.35376851497E+01 -0.91886989937E+01  0.26225333082E+02  0.00000000000E+00 0. -1.
</event>
<event>
 7    1  0.4083500E-009  0.4778727E+02  0.7816164E-02  0.1312668E+00
        -11   -1    0    0    0    0  0.00000000000E+00  0.00000000000E+00  0.45593999997E+02  0.45594000000E+02  0.51100000000E-03 0.  1.
         11   -1    0    0    0    0 -0.00000000000E+00 -0.00000000000E+00 -0.45593999997E+02  0.45594000000E+02  0.51100000000E-03 0. -1.
    9900012    2    1    2    0    0  0.80594587318E+00  0.30061269148E+02 -0.31293673368E+02  0.47787269080E+02  0.19999991042E+02 0.  0.
        -12    1    1    2    0    0 -0.80594587318E+00 -0.30061269148E+02  0.31293673368E+02  0.43400730920E+02  0.00000000000E+00 0.  1.
         11    1    3    3    0    0  0.60494021245E+01  0.19478587869E+02 -0.26073501991E+02  0.33103446313E+02  0.51100000000E-03 0. -1.
        -11    1    3    3    0    0 -0.17867178691E+01  0.55847743893E+01 -0.61942389523E+01  0.85293998723E+01  0.51100000000E-03 0.  1.
        -12    1    3    3    0    0 -0.34567383822E+01  0.49979068901E+01  0.97406757569E+00  0.61544228947E+01  0.00000000000E+00 0.  1.
</event>
<event>
 7    1  0.4083500E-009  0.4778727E+02  0.7816164E-02  0.1312668E+00
        -11   -1    0    0    0    0  0.00000000000E+00  0.00000000000E+00  0.45593999997E+02  0.45594000000E+02  0.51100000000E-03 0. -1.
         11   -1    0    0    0    0 -0.00000000000E+00 -0.00000000000E+00 -0.45593999997E+02  0.45594000000E+02  0.51100000000E-03 0.  1.
    9900012    2    1    2    0    0  0.31798754755E+02  0.12381256206E+02  0.26817292479E+02  0.47787268611E+02  0.19999988906E+02 0.  0.
        -12    1    1    2    0    0 -0.31798754755E+02 -0.12381256206E+02 -0.26817292479E+02  0.43400731389E+02  0.00000000000E+00 0.  1.
         11    1    3    3    0    0  0.25299403772E+02  0.12507052043E+02  0.14588062586E+02  0.31769446837E+02  0.51100000000E-03 0. -1.
        -11    1    3    3    0    0  0.19556418790E+01  0.29848278028E+01  0.88863805571E+01  0.95760895901E+01  0.51100000000E-03 0.  1.
        -12    1    3    3    0    0  0.45437091040E+01 -0.31106236404E+01  0.33428493359E+01  0.64417321845E+01  0.00000000000E+00 0.  1.
</event>
<event>
 7    1  0.4083500E-009  0.4778727E+02  0.7816164E-02  0.1312668E+00
        -11   -1    0    0    0    0  0.00000000000E+00  0.00000000000E+00  0.45593999997E+02  0.45594000000E+02  0.51100000000E-03 0. -1.
         11   -1    0    0    0    0 -0.00000000000E+00 -0.00000000000E+00 -0.45593999997E+02  0.45594000000E+02  0.51100000000E-03 0.  1.
    9900012    2    1    2    0    0  0.61282485304E+01 -0.38339046227E+02  0.19395502660E+02  0.47787269371E+02  0.19999992372E+02 0.  0.
        -12    1    1    2    0    0 -0.61282485304E+01  0.38339046227E+02 -0.19395502660E+02  0.43400730629E+02  0.00000000000E+00 0.  1.
         11    1    3    3    0    0  0.10500800958E+02 -0.24346575621E+02  0.17438598998E+02  0.31735269032E+02  0.51100000000E-03 0. -1.
        -11    1    3    3    0    0  0.80159659634E+00 -0.10918271284E+01 -0.11873336642E+01  0.18012232158E+01  0.51100000000E-03 0.  1.
         12    1    3    3    0    0 -0.51741490242E+01 -0.12900643478E+02  0.31442373259E+01  0.14250777124E+02  0.00000000000E+00 0. -1.
</event>
<event>
 7    1  0.4083500E-009  0.4778727E+02  0.7816164E-02  0.1312668E+00
        -11   -1    0    0    0    0  0.00000000000E+00  0.00000000000E+00  0.45593999997E+02  0.45594000000E+02  0.51100000000E-03 0.  1.
         11   -1    0    0    0    0 -0.00000000000E+00 -0.00000000000E+00 -0.45593999997E+02  0.45594000000E+02  0.51100000000E-03 0. -1.
    9900012    2    1    2    0    0 -0.42990976819E+02  0.20450142085E+01 -0.55872432397E+01  0.47787268923E+02  0.19999990330E+02 0.  0.
        -12    1    1    2    0    0  0.42990976819E+02 -0.20450142085E+01  0.55872432397E+01  0.43400731077E+02  0.00000000000E+00 0.  1.
         11    1    3    3    0    0 -0.28613649919E+01  0.20614774914E+01  0.11750435556E+01  0.37172337408E+01  0.51100000000E-03 0.  1.
        -11    1    3    3    0    0 -0.42456550624E+01  0.52131819525E+01  0.14750024773E+01  0.68832031459E+01  0.51100000000E-03 0. -1.
         12    1    3    3    0    0 -0.35883956765E+02 -0.52296452354E+01 -0.82372892726E+01  0.37186832037E+02  0.00000000000E+00 0. -1.
</event>
<event>
 7    1  0.4083500E-009  0.4778727E+02  0.7816164E-02  0.1312668E+00
        -11   -1    0    0    0    0  0.00000000000E+00  0.00000000000E+00  0.45593999997E+02  0.45594000000E+02  0.51100000000E-03 0.  1.
         11   -1    0    0    0    0 -0.00000000000E+00 -0.00000000000E+00 -0.45593999997E+02  0.45594000000E+02  0.51100000000E-03 0. -1.
    9900012    2    1    2    0    0 -0.58163518478E+01 -0.39643506412E+02 -0.16678900454E+02  0.47787271091E+02  0.20000000211E+02 0.  0.
        -12    1    1    2    0    0  0.58163518478E+01  0.39643506412E+02  0.16678900454E+02  0.43400728909E+02  0.00000000000E+00 0.  1.
         11    1    3    3    0    0 -0.16199096672E+01 -0.22163101812E+02 -0.96942018629E+00  0.22243357773E+02  0.51100000000E-03 0. -1.
        -11    1    3    3    0    0 -0.20206586235E+01 -0.14992524278E+02 -0.79060188469E+01  0.17069387211E+02  0.51100000000E-03 0.  1.
        -12    1    3    3    0    0 -0.21757835572E+01 -0.24878803229E+01 -0.78034614210E+01  0.84745261069E+01  0.00000000000E+00 0.  1.
</event>
<event>
 7    1  0.4083500E-009  0.4778726E+02  0.7816164E-02  0.1312668E+00
        -11   -1    0    0    0    0  0.00000000000E+00  0.00000000000E+00  0.45593999997E+02  0.45594000000E+02  0.51100000000E-03 0. -1.
         11   -1    0    0    0    0 -0.00000000000E+00 -0.00000000000E+00 -0.45593999997E+02  0.45594000000E+02  0.51100000000E-03 0.  1.
    9900012    2    1    2    0    0 -0.33709566792E+02  0.24880808279E+02  0.11324060840E+02  0.47787264202E+02  0.19999968802E+02 0.  0.
        -12    1    1    2    0    0  0.33709566792E+02 -0.24880808279E+02 -0.11324060840E+02  0.43400735798E+02  0.00000000000E+00 0.  1.
         11    1    3    3    0    0 -0.10914080579E+02  0.18223101355E+02  0.57020589898E+01  0.21993454819E+02  0.51100000000E-03 0.  1.
        -11    1    3    3    0    0 -0.13106463396E+02  0.23965749057E+01  0.71148237664E+01  0.15104425561E+02  0.51100000000E-03 0. -1.
        -12    1    3    3    0    0 -0.96890228170E+01  0.42611320181E+01 -0.14928219167E+01  0.10689383822E+02  0.00000000000E+00 0.  1.
</event>
<event>
 7    1  0.4083500E-009  0.4778728E+02  0.7816164E-02  0.1312668E+00
        -11   -1    0    0    0    0  0.00000000000E+00  0.00000000000E+00  0.45593999997E+02  0.45594000000E+02  0.51100000000E-03 0.  1.
         11   -1    0    0    0    0 -0.00000000000E+00 -0.00000000000E+00 -0.45593999997E+02  0.45594000000E+02  0.51100000000E-03 0. -1.
    9900012    2    1    2    0    0  0.30524946128E+02  0.27775291302E+02 -0.13430672409E+02  0.47787284518E+02  0.20000061430E+02 0.  0.
        -12    1    1    2    0    0 -0.30524946128E+02 -0.27775291302E+02  0.13430672409E+02  0.43400715482E+02  0.00000000000E+00 0.  1.
         11    1    3    3    0    0 -0.24554829390E+01  0.59482326459E+00  0.70376904690E+00  0.26226899002E+01  0.51100000000E-03 0.  1.
        -11    1    3    3    0    0  0.19085591241E+02  0.16946212212E+02 -0.67995304570E+01  0.26413396527E+02  0.51100000000E-03 0. -1.
        -12    1    3    3    0    0  0.13894837825E+02  0.10234255826E+02 -0.73349109985E+01  0.18751198091E+02  0.00000000000E+00 0.  1.
</event>
<event>
 7    1  0.4083500E-009  0.4778727E+02  0.7816164E-02  0.1312668E+00
        -11   -1    0    0    0    0  0.00000000000E+00  0.00000000000E+00  0.45593999997E+02  0.45594000000E+02  0.51100000000E-03 0.  1.
         11   -1    0    0    0    0 -0.00000000000E+00 -0.00000000000E+00 -0.45593999997E+02  0.45594000000E+02  0.51100000000E-03 0. -1.
    9900012    2    1    2    0    0 -0.29363666747E+02 -0.12893361863E+02 -0.29243115440E+02  0.47787268375E+02  0.19999987828E+02 0.  0.
        -12    1    1    2    0    0  0.29363666747E+02  0.12893361863E+02  0.29243115440E+02  0.43400731625E+02  0.00000000000E+00 0.  1.
         11    1    3    3    0    0 -0.10755347208E+02 -0.10211434401E+02 -0.14670391990E+02  0.20860759514E+02  0.51100000000E-03 0. -1.
        -11    1    3    3    0    0 -0.10267226857E+02 -0.74819496081E+01 -0.10479290320E+02  0.16468486365E+02  0.51100000000E-03 0.  1.
        -12    1    3    3    0    0 -0.83410926819E+01  0.48000221467E+01 -0.40934331303E+01  0.10458022496E+02  0.00000000000E+00 0.  1.
</event>
<event>
 7    1  0.4083500E-009  0.4778727E+02  0.7816164E-02  0.1312668E+00
        -11   -1    0    0    0    0  0.00000000000E+00  0.00000000000E+00  0.45593999997E+02  0.45594000000E+02  0.51100000000E-03 0. -1.
         11   -1    0    0    0    0 -0.00000000000E+00 -0.00000000000E+00 -0.45593999997E+02  0.45594000000E+02  0.51100000000E-03 0.  1.
    9900012    2    1    2    0    0  0.51952587611E-01 -0.54727234633E+01  0.43054265633E+02  0.47787272006E+02  0.20000004386E+02 0.  0.
        -12    1    1    2    0    0 -0.51952587611E-01  0.54727234633E+01 -0.43054265633E+02  0.43400727994E+02  0.00000000000E+00 0.  1.
         11    1    3    3    0    0  0.12638455852E+01  0.22861532880E+01 -0.10645740708E+00  0.26144092947E+01  0.51100000000E-03 0. -1.
        -11    1    3    3    0    0  0.81426553506E+00  0.24028627359E+00 -0.32655149561E+00  0.90961640007E+00  0.51100000000E-03 0.  1.
         12    1    3    3    0    0 -0.20261585327E+01 -0.79991630249E+01  0.43487274536E+02  0.44263246312E+02  0.00000000000E+00 0. -1.
</event>
<event>
 7    1  0.4083500E-009  0.4778727E+02  0.7816164E-02  0.1312668E+00
        -11   -1    0    0    0    0  0.00000000000E+00  0.00000000000E+00  0.45593999997E+02  0.45594000000E+02  0.51100000000E-03 0. -1.
         11   -1    0    0    0    0 -0.00000000000E+00 -0.00000000000E+00 -0.45593999997E+02  0.45594000000E+02  0.51100000000E-03 0.  1.
    9900012    2    1    2    0    0 -0.33814891328E+02 -0.25295203393E+02  0.10016433161E+02  0.47787272776E+02  0.20000007897E+02 0.  0.
        -12    1    1    2    0    0  0.33814891328E+02  0.25295203393E+02 -0.10016433161E+02  0.43400727224E+02  0.00000000000E+00 0.  1.
         11    1    3    3    0    0 -0.52963043972E+01 -0.16844116240E+01 -0.18093298306E+01  0.58448060262E+01  0.51100000000E-03 0.  1.
        -11    1    3    3    0    0 -0.11042633148E+02 -0.76315892754E+01 -0.33269874726E+01  0.13829307561E+02  0.51100000000E-03 0. -1.
         12    1    3    3    0    0 -0.17475953783E+02 -0.15979202494E+02  0.15152750464E+02  0.28113159190E+02  0.00000000000E+00 0. -1.
</event>
<event>
 7    1  0.4083500E-009  0.4778727E+02  0.7816164E-02  0.1312668E+00
        -11   -1    0    0    0    0  0.00000000000E+00  0.00000000000E+00  0.45593999997E+02  0.45594000000E+02  0.51100000000E-03 0. -1.
         11   -1    0    0    0    0 -0.00000000000E+00 -0.00000000000E+00 -0.45593999997E+02  0.45594000000E+02  0.51100000000E-03 0.  1.
    9900012    2    1    2    0    0 -0.22652237636E+02  0.27197862863E+02  0.25115245680E+02  0.47787272128E+02  0.20000004942E+02 0.  0.
        -12    1    1    2    0    0  0.22652237636E+02 -0.27197862863E+02 -0.25115245680E+02  0.43400727872E+02  0.00000000000E+00 0.  1.
         11    1    3    3    0    0 -0.11260900282E+02  0.96211420362E+01  0.19879065583E+02  0.24790149212E+02  0.51100000000E-03 0. -1.
        -11    1    3    3    0    0 -0.29669734756E+00  0.50243055289E+01  0.35514068174E+01  0.61598836034E+01  0.51100000000E-03 0.  1.
        -12    1    3    3    0    0 -0.11094640006E+02  0.12552415298E+02  0.16847732798E+01  0.16837239313E+02  0.00000000000E+00 0.  1.
</event>
<event>
 7    1  0.4083500E-009  0.4778728E+02  0.7816164E-02  0.1312668E+00
        -11   -1    0    0    0    0  0.00000000000E+00  0.00000000000E+00  0.45593999997E+02  0.45594000000E+02  0.51100000000E-03 0. -1.
         11   -1    0    0    0    0 -0.00000000000E+00 -0.00000000000E+00 -0.45593999997E+02  0.45594000000E+02  0.51100000000E-03 0.  1.
    9900012    2    1    2    0    0  0.41375212242E+02 -0.23570485402E+01 -0.12890261957E+02  0.47787277434E+02  0.20000029134E+02 0.  0.
        -12    1    1    2    0    0 -0.41375212242E+02  0.23570485402E+01  0.12890261957E+02  0.43400722566E+02  0.00000000000E+00 0.  1.
         11    1    3    3    0    0  0.99942041733E+01  0.35431030538E+01 -0.25660407718E+01  0.10909732435E+02  0.51100000000E-03 0. -1.
        -11    1    3    3    0    0  0.15883820954E+02 -0.57779619489E+01  0.20765863255E+01  0.17029175653E+02  0.51100000000E-03 0.  1.
        -12    1    3    3    0    0  0.15497187115E+02 -0.12218964508E+00 -0.12400807511E+02  0.19848369346E+02  0.00000000000E+00 0.  1.
</event>
<event>
 7    1  0.4083500E-009  0.4778727E+02  0.7816164E-02  0.1312668E+00
        -11   -1    0    0    0    0  0.00000000000E+00  0.00000000000E+00  0.45593999997E+02  0.45594000000E+02  0.51100000000E-03 0.  1.
         11   -1    0    0    0    0 -0.00000000000E+00 -0.00000000000E+00 -0.45593999997E+02  0.45594000000E+02  0.51100000000E-03 0. -1.
    9900012    2    1    2    0    0 -0.75210367885E+01 -0.13441214427E+02 -0.40575745291E+02  0.47787270218E+02  0.19999996232E+02 0.  0.
        -12    1    1    2    0    0  0.75210367885E+01  0.13441214427E+02  0.40575745291E+02  0.43400729782E+02  0.00000000000E+00 0.  1.
         11    1    3    3    0    0 -0.46201319500E+01 -0.15075471221E+02 -0.33686011112E+02  0.37193585424E+02  0.51100000000E-03 0. -1.
        -11    1    3    3    0    0 -0.65344214225E+00 -0.23469696990E+01 -0.13855036307E+00  0.24401741465E+01  0.51100000000E-03 0.  1.
        -12    1    3    3    0    0 -0.22474626962E+01  0.39812264929E+01 -0.67511838163E+01  0.81535106476E+01  0.00000000000E+00 0.  1.
</event>
<event>
 7    1  0.4083500E-009  0.4778727E+02  0.7816164E-02  0.1312668E+00
        -11   -1    0    0    0    0  0.00000000000E+00  0.00000000000E+00  0.45593999997E+02  0.45594000000E+02  0.51100000000E-03 0. -1.
         11   -1    0    0    0    0 -0.00000000000E+00 -0.00000000000E+00 -0.45593999997E+02  0.45594000000E+02  0.51100000000E-03 0.  1.
    9900012    2    1    2    0    0  0.12794476064E+02  0.36853815270E+02  0.19018965710E+02  0.47787269886E+02  0.19999994720E+02 0.  0.
        -12    1    1    2    0    0 -0.12794476064E+02 -0.36853815270E+02 -0.19018965710E+02  0.43400730114E+02  0.00000000000E+00 0.  1.
         11    1    3    3    0    0  0.22536531612E+01  0.86052493456E+01  0.11314041114E+02  0.14392247756E+02  0.51100000000E-03 0. -1.
        -11    1    3    3    0    0  0.19979652411E-01  0.11763544811E+02  0.72804375668E+01  0.13834238582E+02  0.51100000000E-03 0.  1.
         12    1    3    3    0    0  0.10520843251E+02  0.16485021113E+02  0.42448702894E+00  0.19560783549E+02  0.00000000000E+00 0. -1.
</event>
<event>
 7    1  0.4083500E-009  0.4778727E+02  0.7816164E-02  0.1312668E+00
        -11   -1    0    0    0    0  0.00000000000E+00  0.00000000000E+00  0.45593999997E+02  0.45594000000E+02  0.51100000000E-03 0.  1.
         11   -1    0    0    0    0 -0.00000000000E+00 -0.00000000000E+00 -0.45593999997E+02  0.45594000000E+02  0.51100000000E-03 0. -1.
    9900012    2    1    2    0    0  0.50221722569E+01 -0.36747833504E+01 -0.42952266642E+02  0.47787268940E+02  0.19999990406E+02 0.  0.
        -12    1    1    2    0    0 -0.50221722569E+01  0.36747833504E+01  0.42952266642E+02  0.43400731060E+02  0.00000000000E+00 0.  1.
         11    1    3    3    0    0  0.51782497883E+01 -0.16490915295E+01 -0.13651109912E+02  0.14693079181E+02  0.51100000000E-03 0. -1.
        -11    1    3    3    0    0  0.43603306551E+00  0.22740094236E+01 -0.28604852495E+02  0.28698411633E+02  0.51100000000E-03 0.  1.
        -12    1    3    3    0    0 -0.59211059694E+00 -0.42997012444E+01 -0.69630423478E+00  0.43957781265E+01  0.00000000000E+00 0.  1.
</event>
<event>
 7    1  0.4083500E-009  0.4778727E+02  0.7816164E-02  0.1312668E+00
        -11   -1    0    0    0    0  0.00000000000E+00  0.00000000000E+00  0.45593999997E+02  0.45594000000E+02  0.51100000000E-03 0. -1.
         11   -1    0    0    0    0 -0.00000000000E+00 -0.00000000000E+00 -0.45593999997E+02  0.45594000000E+02  0.51100000000E-03 0.  1.
    9900012    2    1    2    0    0 -0.25428771994E+02  0.20962424674E+02  0.28241419467E+02  0.47787268821E+02  0.19999989864E+02 0.  0.
        -12    1    1    2    0    0  0.25428771994E+02 -0.20962424674E+02 -0.28241419467E+02  0.43400731179E+02  0.00000000000E+00 0.  1.
         11    1    3    3    0    0 -0.11495674688E+02  0.49537755835E+01  0.52334414018E+01  0.13567584097E+02  0.51100000000E-03 0. -1.
        -11    1    3    3    0    0 -0.13265483424E+02  0.48216775492E+01  0.12377371648E+02  0.18772878150E+02  0.51100000000E-03 0.  1.
         12    1    3    3    0    0 -0.66761388288E+00  0.11186971541E+02  0.10630606418E+02  0.15446806575E+02  0.00000000000E+00 0. -1.
</event>
<event>
 7    1  0.4083500E-009  0.4778727E+02  0.7816164E-02  0.1312668E+00
        -11   -1    0    0    0    0  0.00000000000E+00  0.00000000000E+00  0.45593999997E+02  0.45594000000E+02  0.51100000000E-03 0.  1.
         11   -1    0    0    0    0 -0.00000000000E+00 -0.00000000000E+00 -0.45593999997E+02  0.45594000000E+02  0.51100000000E-03 0. -1.
    9900012    2    1    2    0    0 -0.35918594720E+02  0.92887303575E+01 -0.22521041500E+02  0.47787271105E+02  0.20000000278E+02 0.  0.
        -12    1    1    2    0    0  0.35918594720E+02 -0.92887303575E+01  0.22521041500E+02  0.43400728895E+02  0.00000000000E+00 0.  1.
         11    1    3    3    0    0 -0.21149397116E+02  0.56800484190E+01 -0.11022181225E+02  0.24516289027E+02  0.51100000000E-03 0. -1.
        -11    1    3    3    0    0 -0.98298379294E+01 -0.35585640680E+01 -0.24953963472E+01  0.10747841417E+02  0.51100000000E-03 0.  1.
         12    1    3    3    0    0 -0.49393596746E+01  0.71672460065E+01 -0.90034639281E+01  0.12523140661E+02  0.00000000000E+00 0. -1.
</event>
<event>
 7    1  0.4083500E-009  0.4778727E+02  0.7816164E-02  0.1312668E+00
        -11   -1    0    0    0    0  0.00000000000E+00  0.00000000000E+00  0.45593999997E+02  0.45594000000E+02  0.51100000000E-03 0.  1.
         11   -1    0    0    0    0 -0.00000000000E+00 -0.00000000000E+00 -0.45593999997E+02  0.45594000000E+02  0.51100000000E-03 0. -1.
    9900012    2    1    2    0    0 -0.12314789002E+02 -0.41296855472E+02  0.51515848692E+01  0.47787272740E+02  0.20000007729E+02 0.  0.
        -12    1    1    2    0    0  0.12314789002E+02  0.41296855472E+02 -0.51515848692E+01  0.43400727260E+02  0.00000000000E+00 0.  1.
         11    1    3    3    0    0 -0.49047544324E+01 -0.10586548524E+02 -0.43961731894E+01  0.12468278336E+02  0.51100000000E-03 0.  1.
        -11    1    3    3    0    0  0.42970881016E+00 -0.14398137884E+02 -0.88020742711E+00  0.14431416755E+02  0.51100000000E-03 0. -1.
         12    1    3    3    0    0 -0.78397433799E+01 -0.16312169065E+02  0.10427965486E+02  0.20887577649E+02  0.00000000000E+00 0. -1.
</event>
<event>
 7    1  0.4083500E-009  0.4778727E+02  0.7816164E-02  0.1312668E+00
        -11   -1    0    0    0    0  0.00000000000E+00  0.00000000000E+00  0.45593999997E+02  0.45594000000E+02  0.51100000000E-03 0. -1.
         11   -1    0    0    0    0 -0.00000000000E+00 -0.00000000000E+00 -0.45593999997E+02  0.45594000000E+02  0.51100000000E-03 0.  1.
    9900012    2    1    2    0    0  0.91455219240E+01  0.10421579804E+02  0.41126307528E+02  0.47787273419E+02  0.20000010827E+02 0.  0.
        -12    1    1    2    0    0 -0.91455219240E+01 -0.10421579804E+02 -0.41126307528E+02  0.43400726581E+02  0.00000000000E+00 0.  1.
         11    1    3    3    0    0  0.28270086335E+01  0.31205711507E+01  0.19017647185E+02  0.19478214672E+02  0.51100000000E-03 0. -1.
        -11    1    3    3    0    0  0.21536181571E+01  0.14990652195E+01  0.20901674468E+02  0.21065736720E+02  0.51100000000E-03 0.  1.
        -12    1    3    3    0    0  0.41648951334E+01  0.58019434342E+01  0.12069858747E+01  0.72433220271E+01  0.00000000000E+00 0.  1.
</event>
<event>
 7    1  0.4083500E-009  0.4778727E+02  0.7816164E-02  0.1312668E+00
        -11   -1    0    0    0    0  0.00000000000E+00  0.00000000000E+00  0.45593999997E+02  0.45594000000E+02  0.51100000000E-03 0.  1.
         11   -1    0    0    0    0 -0.00000000000E+00 -0.00000000000E+00 -0.45593999997E+02  0.45594000000E+02  0.51100000000E-03 0. -1.
    9900012    2    1    2    0    0 -0.79761130519E+01  0.20311565822E+01 -0.42613135603E+02  0.47787270716E+02  0.19999998502E+02 0.  0.
        -12    1    1    2    0    0  0.79761130519E+01 -0.20311565822E+01  0.42613135603E+02  0.43400729284E+02  0.00000000000E+00 0.  1.
         11    1    3    3    0    0 -0.62974539401E+01  0.70285249039E+00 -0.95585337209E+01  0.11468107730E+02  0.51100000000E-03 0. -1.
        -11    1    3    3    0    0  0.42444497533E+00  0.47233461093E+01 -0.22363532795E+01  0.52432268935E+01  0.51100000000E-03 0.  1.
         12    1    3    3    0    0 -0.21031040871E+01 -0.33950420175E+01 -0.30818248602E+02  0.31075936093E+02  0.00000000000E+00 0. -1.
</event>
