<event>
 7    1  0.2232484E-015  0.9000770E+02  0.7816164E-02  0.1186339E+00
        -11   -1    0    0    0    0  0.00000000000E+00  0.00000000000E+00  0.45593999997E+02  0.45594000000E+02  0.51100000000E-03 0.  1.
         11   -1    0    0    0    0 -0.00000000000E+00 -0.00000000000E+00 -0.45593999997E+02  0.45594000000E+02  0.51100000000E-03 0. -1.
    9900012    2    1    2    0    0 -0.54509005050E+00  0.56957864517E+00 -0.87838443007E+00  0.90007702494E+02  0.89999963367E+02 0.  0.
        -12    1    1    2    0    0  0.54509005050E+00 -0.56957864517E+00  0.87838443007E+00  0.11802975062E+01  0.00000000000E+00 0.  1.
         11    1    3    3    0    0 -0.19450542699E+02  0.28662939390E+02 -0.17398996986E+02  0.38763549916E+02  0.51100000000E-03 0. -1.
        -11    1    3    3    0    0 -0.50659319411E+01 -0.70203712022E+00 -0.64281091448E+01  0.82144452028E+01  0.51100000000E-03 0.  1.
        -12    1    3    3    0    0  0.23971384589E+02 -0.27391323625E+02  0.22948721701E+02  0.43029707375E+02  0.00000000000E+00 0.  1.
</event>
<event>
 7    1  0.2536776E-015  0.9000784E+02  0.7816164E-02  0.1186339E+00
        -11   -1    0    0    0    0  0.00000000000E+00  0.00000000000E+00  0.45593999997E+02  0.45594000000E+02  0.51100000000E-03 0. -1.
         11   -1    0    0    0    0 -0.00000000000E+00 -0.00000000000E+00 -0.45593999997E+02  0.45594000000E+02  0.51100000000E-03 0.  1.
    9900012    2    1    2    0    0  0.64721853386E+00 -0.92857366067E+00  0.33410717467E+00  0.90007843876E+02  0.90000106615E+02 0.  0.
        -12    1    1    2    0    0 -0.64721853386E+00  0.92857366067E+00 -0.33410717467E+00  0.11801561244E+01  0.00000000000E+00 0.  1.
         11    1    3    3    0    0  0.79421742721E+01  0.34487995334E+01  0.31751928436E+01  0.92224834099E+01  0.51100000000E-03 0. -1.
        -11    1    3    3    0    0  0.30282566620E+02 -0.15770898543E+01 -0.22991414434E+02  0.38054253264E+02  0.51100000000E-03 0.  1.
         12    1    3    3    0    0 -0.37577522358E+02 -0.28002833398E+01  0.20150328765E+02  0.42731107202E+02  0.00000000000E+00 0. -1.
</event>
<event>
 7    1  0.2232484E-015  0.9000810E+02  0.7816164E-02  0.1186338E+00
        -11   -1    0    0    0    0  0.00000000000E+00  0.00000000000E+00  0.45593999997E+02  0.45594000000E+02  0.51100000000E-03 0. -1.
         11   -1    0    0    0    0 -0.00000000000E+00 -0.00000000000E+00 -0.45593999997E+02  0.45594000000E+02  0.51100000000E-03 0.  1.
    9900012    2    1    2    0    0 -0.78491181898E+00  0.11741580066E+00 -0.87308972557E+00  0.90008102249E+02  0.90000368398E+02 0.  0.
        -12    1    1    2    0    0  0.78491181898E+00 -0.11741580066E+00  0.87308972557E+00  0.11798977510E+01  0.00000000000E+00 0.  1.
         11    1    3    3    0    0 -0.30911532630E+02 -0.23769433258E+02  0.17295026454E+02  0.42657083201E+02  0.51100000000E-03 0. -1.
        -11    1    3    3    0    0  0.43224554224E+01 -0.28653927832E+01 -0.66604966334E+01  0.84413454109E+01  0.51100000000E-03 0.  1.
        -12    1    3    3    0    0  0.25804165388E+02  0.26752241841E+02 -0.11507619546E+02  0.38909673637E+02  0.00000000000E+00 0.  1.
</event>
<event>
 7    1  0.2232484E-015  0.9000776E+02  0.7816164E-02  0.1186339E+00
        -11   -1    0    0    0    0  0.00000000000E+00  0.00000000000E+00  0.45593999997E+02  0.45594000000E+02  0.51100000000E-03 0. -1.
         11   -1    0    0    0    0 -0.00000000000E+00 -0.00000000000E+00 -0.45593999997E+02  0.45594000000E+02  0.51100000000E-03 0.  1.
    9900012    2    1    2    0    0 -0.32263859614E-01  0.97605919431E+00  0.66274612848E+00  0.90007760644E+02  0.90000022284E+02 0.  0.
        -12    1    1    2    0    0  0.32263859614E-01 -0.97605919431E+00 -0.66274612848E+00  0.11802393563E+01  0.00000000000E+00 0.  1.
         11    1    3    3    0    0 -0.44259402132E+01 -0.40796166967E+02  0.10575289998E+02  0.42376325286E+02  0.51100000000E-03 0. -1.
        -11    1    3    3    0    0 -0.10690961077E+01  0.91532416032E+01  0.59310463677E+01  0.10959110804E+02  0.51100000000E-03 0.  1.
        -12    1    3    3    0    0  0.54627724613E+01  0.32618984558E+02 -0.15843590238E+02  0.36672324554E+02  0.00000000000E+00 0.  1.
</event>
<event>
 7    1  0.2232484E-015  0.9000775E+02  0.7816164E-02  0.1186339E+00
        -11   -1    0    0    0    0  0.00000000000E+00  0.00000000000E+00  0.45593999997E+02  0.45594000000E+02  0.51100000000E-03 0.  1.
         11   -1    0    0    0    0 -0.00000000000E+00 -0.00000000000E+00 -0.45593999997E+02  0.45594000000E+02  0.51100000000E-03 0. -1.
    9900012    2    1    2    0    0  0.20764381955E-02  0.11695789232E+01 -0.15837218787E+00  0.90007745401E+02  0.90000006840E+02 0.  0.
        -12    1    1    2    0    0 -0.20764381955E-02 -0.11695789232E+01  0.15837218787E+00  0.11802545992E+01  0.00000000000E+00 0.  1.
         11    1    3    3    0    0  0.71374419973E+01 -0.21527635544E+01 -0.52984445499E+01  0.91460911922E+01  0.51100000000E-03 0. -1.
        -11    1    3    3    0    0 -0.99087937846E+01 -0.88115176965E+01  0.40900902688E+02  0.42996638000E+02  0.51100000000E-03 0.  1.
         12    1    3    3    0    0  0.27734282255E+01  0.12133860174E+02 -0.35760830326E+02  0.37865016208E+02  0.00000000000E+00 0. -1.
</event>
<event>
 7    1  0.2232484E-015  0.9000774E+02  0.7816164E-02  0.1186339E+00
        -11   -1    0    0    0    0  0.00000000000E+00  0.00000000000E+00  0.45593999997E+02  0.45594000000E+02  0.51100000000E-03 0.  1.
         11   -1    0    0    0    0 -0.00000000000E+00 -0.00000000000E+00 -0.45593999997E+02  0.45594000000E+02  0.51100000000E-03 0. -1.
    9900012    2    1    2    0    0  0.68282323833E+00 -0.95792776460E+00 -0.95576947686E-01  0.90007742346E+02  0.90000003745E+02 0.  0.
        -12    1    1    2    0    0 -0.68282323833E+00  0.95792776460E+00  0.95576947686E-01  0.11802576540E+01  0.00000000000E+00 0.  1.
         11    1    3    3    0    0 -0.10688947534E+01  0.85650679123E+01 -0.15696708479E+01  0.87730719345E+01  0.51100000000E-03 0. -1.
        -11    1    3    3    0    0  0.21593916216E+01 -0.26732378410E+02  0.34674952217E+02  0.43836461299E+02  0.51100000000E-03 0.  1.
         12    1    3    3    0    0 -0.40767362986E+00  0.17209382733E+02 -0.33200858317E+02  0.37398209113E+02  0.00000000000E+00 0. -1.
</event>
<event>
 7    1  0.2232484E-015  0.9000776E+02  0.7816164E-02  0.1186339E+00
        -11   -1    0    0    0    0  0.00000000000E+00  0.00000000000E+00  0.45593999997E+02  0.45594000000E+02  0.51100000000E-03 0.  1.
         11   -1    0    0    0    0 -0.00000000000E+00 -0.00000000000E+00 -0.45593999997E+02  0.45594000000E+02  0.51100000000E-03 0. -1.
    9900012    2    1    2    0    0 -0.18936335772E+00  0.11597622315E+01 -0.10986597169E+00  0.90007755345E+02  0.90000016915E+02 0.  0.
        -12    1    1    2    0    0  0.18936335772E+00 -0.11597622315E+01  0.10986597169E+00  0.11802446554E+01  0.00000000000E+00 0.  1.
         11    1    3    3    0    0  0.28922220477E+02  0.22720269512E+02  0.84299234347E+01  0.37732864898E+02  0.51100000000E-03 0. -1.
        -11    1    3    3    0    0 -0.25224475852E+01  0.94985553174E+01  0.20513755624E+01  0.10039593463E+02  0.51100000000E-03 0.  1.
        -12    1    3    3    0    0 -0.26589136249E+02 -0.31059062598E+02 -0.10591164969E+02  0.42235296984E+02  0.00000000000E+00 0.  1.
</event>
<event>
 7    1  0.2232484E-015  0.9000772E+02  0.7816164E-02  0.1186339E+00
        -11   -1    0    0    0    0  0.00000000000E+00  0.00000000000E+00  0.45593999997E+02  0.45594000000E+02  0.51100000000E-03 0.  1.
         11   -1    0    0    0    0 -0.00000000000E+00 -0.00000000000E+00 -0.45593999997E+02  0.45594000000E+02  0.51100000000E-03 0. -1.
    9900012    2    1    2    0    0 -0.53568108773E+00  0.10164928191E+01 -0.26991196093E+00  0.90007718531E+02  0.89999979616E+02 0.  0.
        -12    1    1    2    0    0  0.53568108773E+00 -0.10164928191E+01  0.26991196093E+00  0.11802814688E+01  0.00000000000E+00 0.  1.
         11    1    3    3    0    0  0.12584989226E+02 -0.10963219510E+01 -0.22343967571E+01  0.12828733560E+02  0.51100000000E-03 0. -1.
        -11    1    3    3    0    0  0.98144874836E+01 -0.28541051831E+02  0.18582900012E+02  0.35443475808E+02  0.51100000000E-03 0.  1.
         12    1    3    3    0    0 -0.22935157797E+02  0.30653866601E+02 -0.16618415216E+02  0.41735509163E+02  0.00000000000E+00 0. -1.
</event>
<event>
 7    1  0.2232484E-015  0.9000758E+02  0.7816164E-02  0.1186339E+00
        -11   -1    0    0    0    0  0.00000000000E+00  0.00000000000E+00  0.45593999997E+02  0.45594000000E+02  0.51100000000E-03 0. -1.
         11   -1    0    0    0    0 -0.00000000000E+00 -0.00000000000E+00 -0.45593999997E+02  0.45594000000E+02  0.51100000000E-03 0.  1.
    9900012    2    1    2    0    0  0.50420122801E+00 -0.98757326387E+00  0.40482052947E+00  0.90007576563E+02  0.89999835773E+02 0.  0.
        -12    1    1    2    0    0 -0.50420122801E+00  0.98757326387E+00 -0.40482052947E+00  0.11804234371E+01  0.00000000000E+00 0.  1.
         11    1    3    3    0    0  0.65923455195E+01  0.95850126034E+01 -0.22554237397E+01  0.11849827955E+02  0.51100000000E-03 0. -1.
        -11    1    3    3    0    0  0.31411083083E+02  0.12794460306E+02  0.18274463022E+01  0.33966070059E+02  0.51100000000E-03 0.  1.
         12    1    3    3    0    0 -0.37499227375E+02 -0.23367046173E+02  0.83279796692E+00  0.44191678549E+02  0.00000000000E+00 0. -1.
</event>
<event>
 7    1  0.2232484E-015  0.9000754E+02  0.7816164E-02  0.1186339E+00
        -11   -1    0    0    0    0  0.00000000000E+00  0.00000000000E+00  0.45593999997E+02  0.45594000000E+02  0.51100000000E-03 0. -1.
         11   -1    0    0    0    0 -0.00000000000E+00 -0.00000000000E+00 -0.45593999997E+02  0.45594000000E+02  0.51100000000E-03 0.  1.
    9900012    2    1    2    0    0  0.27288096500E+00  0.53049587716E+00  0.10186258496E+01  0.90007538854E+02  0.89999797566E+02 0.  0.
        -12    1    1    2    0    0 -0.27288096500E+00 -0.53049587716E+00 -0.10186258496E+01  0.11804611465E+01  0.00000000000E+00 0.  1.
         11    1    3    3    0    0 -0.14607482562E+02 -0.22296938573E+02  0.25119729503E+02  0.36626941274E+02  0.51100000000E-03 0. -1.
        -11    1    3    3    0    0  0.64784238923E+00 -0.97491309313E+01  0.10592226817E+01  0.98278790503E+01  0.51100000000E-03 0.  1.
        -12    1    3    3    0    0  0.14232521138E+02  0.32576565381E+02 -0.25160326335E+02  0.43552718529E+02  0.00000000000E+00 0.  1.
</event>
<event>
 7    1  0.2232484E-015  0.9000774E+02  0.7816164E-02  0.1186339E+00
        -11   -1    0    0    0    0  0.00000000000E+00  0.00000000000E+00  0.45593999997E+02  0.45594000000E+02  0.51100000000E-03 0.  1.
         11   -1    0    0    0    0 -0.00000000000E+00 -0.00000000000E+00 -0.45593999997E+02  0.45594000000E+02  0.51100000000E-03 0. -1.
    9900012    2    1    2    0    0  0.45858689885E+00 -0.81039649273E+00  0.72523467851E+00  0.90007741656E+02  0.90000003046E+02 0.  0.
        -12    1    1    2    0    0 -0.45858689885E+00  0.81039649273E+00 -0.72523467851E+00  0.11802583438E+01  0.00000000000E+00 0.  1.
         11    1    3    3    0    0 -0.19292483102E+02 -0.10931209925E+02 -0.22921642165E+02  0.31891894495E+02  0.51100000000E-03 0. -1.
        -11    1    3    3    0    0  0.60253541381E-01  0.25419103724E+02  0.27227538167E+01  0.25564582008E+02  0.51100000000E-03 0.  1.
        -12    1    3    3    0    0  0.19690816460E+02 -0.15298290292E+02  0.20924123026E+02  0.32551265154E+02  0.00000000000E+00 0.  1.
</event>
<event>
 7    1  0.2232484E-015  0.9000796E+02  0.7816164E-02  0.1186339E+00
        -11   -1    0    0    0    0  0.00000000000E+00  0.00000000000E+00  0.45593999997E+02  0.45594000000E+02  0.51100000000E-03 0.  1.
         11   -1    0    0    0    0 -0.00000000000E+00 -0.00000000000E+00 -0.45593999997E+02  0.45594000000E+02  0.51100000000E-03 0. -1.
    9900012    2    1    2    0    0  0.35931959293E+00  0.11025905063E+01  0.21836119521E+00  0.90007958473E+02  0.90000222724E+02 0.  0.
        -12    1    1    2    0    0 -0.35931959293E+00 -0.11025905063E+01 -0.21836119521E+00  0.11800415273E+01  0.00000000000E+00 0.  1.
         11    1    3    3    0    0 -0.62087381189E+01 -0.12662636572E+02 -0.32596307953E+02  0.35516335487E+02  0.51100000000E-03 0. -1.
        -11    1    3    3    0    0 -0.15029679722E+00  0.54205767530E+01 -0.94472958493E+01  0.10892962893E+02  0.51100000000E-03 0.  1.
        -12    1    3    3    0    0  0.67183545091E+01  0.83446503255E+01  0.42261964998E+02  0.43598660092E+02  0.00000000000E+00 0.  1.
</event>
<event>
 7    1  0.2232484E-015  0.9000784E+02  0.7816164E-02  0.1186339E+00
        -11   -1    0    0    0    0  0.00000000000E+00  0.00000000000E+00  0.45593999997E+02  0.45594000000E+02  0.51100000000E-03 0. -1.
         11   -1    0    0    0    0 -0.00000000000E+00 -0.00000000000E+00 -0.45593999997E+02  0.45594000000E+02  0.51100000000E-03 0.  1.
    9900012    2    1    2    0    0  0.80603903153E+00 -0.10083763750E+00  0.85609772436E+00  0.90007843035E+02  0.90000105763E+02 0.  0.
        -12    1    1    2    0    0 -0.80603903153E+00  0.10083763750E+00 -0.85609772436E+00  0.11801569655E+01  0.00000000000E+00 0.  1.
         11    1    3    3    0    0 -0.31438035721E+01  0.79174484658E+01  0.18463481255E+02  0.20333952676E+02  0.51100000000E-03 0. -1.
        -11    1    3    3    0    0 -0.99952640531E+00  0.24469999734E+02 -0.26038899662E+02  0.35746387732E+02  0.51100000000E-03 0.  1.
        -12    1    3    3    0    0  0.49493690089E+01 -0.32488285837E+02  0.84315161308E+01  0.33927502627E+02  0.00000000000E+00 0.  1.
</event>
<event>
 7    1  0.2232484E-015  0.9000764E+02  0.7816164E-02  0.1186339E+00
        -11   -1    0    0    0    0  0.00000000000E+00  0.00000000000E+00  0.45593999997E+02  0.45594000000E+02  0.51100000000E-03 0.  1.
         11   -1    0    0    0    0 -0.00000000000E+00 -0.00000000000E+00 -0.45593999997E+02  0.45594000000E+02  0.51100000000E-03 0. -1.
    9900012    2    1    2    0    0 -0.18711462154E+00  0.10191853715E+00 -0.11609716890E+01  0.90007637965E+02  0.89999897987E+02 0.  0.
        -12    1    1    2    0    0  0.18711462154E+00 -0.10191853715E+00  0.11609716890E+01  0.11803620345E+01  0.00000000000E+00 0.  1.
         11    1    3    3    0    0 -0.12880129885E+01 -0.98979789017E+01 -0.32326404011E+01  0.10491850553E+02  0.51100000000E-03 0. -1.
        -11    1    3    3    0    0  0.11918902106E+02 -0.19103107861E+02  0.30166371578E+02  0.37643046261E+02  0.51100000000E-03 0.  1.
         12    1    3    3    0    0 -0.10818003739E+02  0.29103005300E+02 -0.28094702866E+02  0.41872741151E+02  0.00000000000E+00 0. -1.
</event>
<event>
 7    1  0.2980857E-015  0.9000769E+02  0.7816164E-02  0.1186339E+00
        -11   -1    0    0    0    0  0.00000000000E+00  0.00000000000E+00  0.45593999997E+02  0.45594000000E+02  0.51100000000E-03 0.  1.
         11   -1    0    0    0    0 -0.00000000000E+00 -0.00000000000E+00 -0.45593999997E+02  0.45594000000E+02  0.51100000000E-03 0. -1.
    9900012    2    1    2    0    0 -0.33282482497E+00  0.76713383976E+00 -0.83298872790E+00  0.90007687790E+02  0.89999948469E+02 0.  0.
        -12    1    1    2    0    0  0.33282482497E+00 -0.76713383976E+00  0.83298872790E+00  0.11803122100E+01  0.00000000000E+00 0.  1.
         11    1    3    3    0    0 -0.64981977241E+01 -0.87702674074E+00 -0.70371373494E+01  0.96185784761E+01  0.51100000000E-03 0. -1.
        -11    1    3    3    0    0 -0.13920196373E+02  0.22987155811E+02  0.31689652721E+02  0.41550153901E+02  0.51100000000E-03 0.  1.
         12    1    3    3    0    0  0.20085569272E+02 -0.21342995230E+02 -0.25485504100E+02  0.38838955413E+02  0.00000000000E+00 0. -1.
</event>
<event>
 7    1  0.2232484E-015  0.9000778E+02  0.7816164E-02  0.1186339E+00
        -11   -1    0    0    0    0  0.00000000000E+00  0.00000000000E+00  0.45593999997E+02  0.45594000000E+02  0.51100000000E-03 0.  1.
         11   -1    0    0    0    0 -0.00000000000E+00 -0.00000000000E+00 -0.45593999997E+02  0.45594000000E+02  0.51100000000E-03 0. -1.
    9900012    2    1    2    0    0  0.75443719611E+00  0.28007889418E+00 -0.86330915242E+00  0.90007778681E+02  0.90000040559E+02 0.  0.
        -12    1    1    2    0    0 -0.75443719611E+00 -0.28007889418E+00  0.86330915242E+00  0.11802213193E+01  0.00000000000E+00 0.  1.
         11    1    3    3    0    0 -0.15552148666E+02 -0.17574157048E+02 -0.19612868913E+01  0.23549245649E+02  0.51100000000E-03 0. -1.
        -11    1    3    3    0    0  0.13258667563E+02 -0.17878710683E+02  0.16216504304E+02  0.27539345913E+02  0.51100000000E-03 0.  1.
        -12    1    3    3    0    0  0.30479182993E+01  0.35732946625E+02 -0.15118526566E+02  0.38919187119E+02  0.00000000000E+00 0.  1.
</event>
<event>
 7    1  0.2232484E-015  0.9000782E+02  0.7816164E-02  0.1186339E+00
        -11   -1    0    0    0    0  0.00000000000E+00  0.00000000000E+00  0.45593999997E+02  0.45594000000E+02  0.51100000000E-03 0.  1.
         11   -1    0    0    0    0 -0.00000000000E+00 -0.00000000000E+00 -0.45593999997E+02  0.45594000000E+02  0.51100000000E-03 0. -1.
    9900012    2    1    2    0    0  0.64538354467E+00 -0.96527520604E+00 -0.21105878284E+00  0.90007821220E+02  0.90000083660E+02 0.  0.
        -12    1    1    2    0    0 -0.64538354467E+00  0.96527520604E+00  0.21105878284E+00  0.11801787801E+01  0.00000000000E+00 0.  1.
         11    1    3    3    0    0  0.78629446036E+01  0.61617842905E+01 -0.41754303846E+01  0.10827174269E+02  0.51100000000E-03 0. -1.
        -11    1    3    3    0    0  0.33281294863E+02  0.98447624879E+01  0.60026462634E+01  0.35222091060E+02  0.51100000000E-03 0.  1.
         12    1    3    3    0    0 -0.40498855922E+02 -0.16971821984E+02 -0.20382746616E+01  0.43958555891E+02  0.00000000000E+00 0. -1.
</event>
<event>
 7    1  0.2232484E-015  0.9000786E+02  0.7816164E-02  0.1186339E+00
        -11   -1    0    0    0    0  0.00000000000E+00  0.00000000000E+00  0.45593999997E+02  0.45594000000E+02  0.51100000000E-03 0. -1.
         11   -1    0    0    0    0 -0.00000000000E+00 -0.00000000000E+00 -0.45593999997E+02  0.45594000000E+02  0.51100000000E-03 0.  1.
    9900012    2    1    2    0    0  0.57252601908E+00 -0.10319075315E+01  0.10538154346E-01  0.90007860072E+02  0.90000123025E+02 0.  0.
        -12    1    1    2    0    0 -0.57252601908E+00  0.10319075315E+01 -0.10538154346E-01  0.11801399277E+01  0.00000000000E+00 0.  1.
         11    1    3    3    0    0 -0.39606802998E+01  0.65240227649E+01  0.60499632516E+01  0.97391948888E+01  0.51100000000E-03 0. -1.
        -11    1    3    3    0    0 -0.31298438700E+02 -0.10833170984E+01 -0.24201566290E+02  0.39578803067E+02  0.51100000000E-03 0.  1.
         12    1    3    3    0    0  0.35831645019E+02 -0.64726131980E+01  0.18162141193E+02  0.40689862117E+02  0.00000000000E+00 0. -1.
</event>
<event>
 7    1  0.2232484E-015  0.9000704E+02  0.7816164E-02  0.1186340E+00
        -11   -1    0    0    0    0  0.00000000000E+00  0.00000000000E+00  0.45593999997E+02  0.45594000000E+02  0.51100000000E-03 0.  1.
         11   -1    0    0    0    0 -0.00000000000E+00 -0.00000000000E+00 -0.45593999997E+02  0.45594000000E+02  0.51100000000E-03 0. -1.
    9900012    2    1    2    0    0 -0.37907170454E+00  0.24612420769E+00 -0.10910474263E+01  0.90007044044E+02  0.89999296223E+02 0.  0.
        -12    1    1    2    0    0  0.37907170454E+00 -0.24612420769E+00  0.10910474263E+01  0.11809559557E+01  0.00000000000E+00 0.  1.
         11    1    3    3    0    0 -0.81867034797E+01  0.27728001590E+02 -0.29007891360E+02  0.40955121139E+02  0.51100000000E-03 0. -1.
        -11    1    3    3    0    0 -0.86333664627E+01 -0.29613241872E+01  0.11453119744E+01  0.91987062786E+01  0.51100000000E-03 0.  1.
        -12    1    3    3    0    0  0.16440998238E+02 -0.24520553195E+02  0.26771531960E+02  0.39853216627E+02  0.00000000000E+00 0.  1.
</event>
<event>
 7    1  0.2232484E-015  0.9000825E+02  0.7816164E-02  0.1186338E+00
        -11   -1    0    0    0    0  0.00000000000E+00  0.00000000000E+00  0.45593999997E+02  0.45594000000E+02  0.51100000000E-03 0. -1.
         11   -1    0    0    0    0 -0.00000000000E+00 -0.00000000000E+00 -0.45593999997E+02  0.45594000000E+02  0.51100000000E-03 0.  1.
    9900012    2    1    2    0    0 -0.13695508355E+00 -0.10837162846E+01  0.44565432909E+00  0.90008251950E+02  0.90000520074E+02 0.  0.
        -12    1    1    2    0    0  0.13695508355E+00  0.10837162846E+01 -0.44565432909E+00  0.11797480500E+01  0.00000000000E+00 0.  1.
         11    1    3    3    0    0 -0.31546302283E+00 -0.78909778049E+01  0.42157103814E+01  0.89520535028E+01  0.51100000000E-03 0. -1.
        -11    1    3    3    0    0  0.17436019314E+02 -0.32718267481E+02  0.37987188654E+01  0.37268352012E+02  0.51100000000E-03 0.  1.
         12    1    3    3    0    0 -0.17257511374E+02  0.39525529001E+02 -0.75687749178E+01  0.43787846435E+02  0.00000000000E+00 0. -1.
</event>
<event>
 7    1  0.2232484E-015  0.9000774E+02  0.7816164E-02  0.1186339E+00
        -11   -1    0    0    0    0  0.00000000000E+00  0.00000000000E+00  0.45593999997E+02  0.45594000000E+02  0.51100000000E-03 0.  1.
         11   -1    0    0    0    0 -0.00000000000E+00 -0.00000000000E+00 -0.45593999997E+02  0.45594000000E+02  0.51100000000E-03 0. -1.
    9900012    2    1    2    0    0  0.75239489937E+00 -0.37225618239E-01 -0.90858419992E+00  0.90007741944E+02  0.90000003337E+02 0.  0.
        -12    1    1    2    0    0 -0.75239489937E+00  0.37225618239E-01  0.90858419992E+00  0.11802580564E+01  0.00000000000E+00 0.  1.
         11    1    3    3    0    0  0.91969854354E+01  0.87847934102E+00  0.46079797581E+01  0.10324230953E+02  0.51100000000E-03 0. -1.
        -11    1    3    3    0    0  0.14503139317E+02 -0.30009454580E+02  0.15853149484E+02  0.36908410465E+02  0.51100000000E-03 0.  1.
         12    1    3    3    0    0 -0.22947729853E+02  0.29093749621E+02 -0.21369713442E+02  0.42775100526E+02  0.00000000000E+00 0. -1.
</event>
<event>
 7    1  0.2232484E-015  0.9000773E+02  0.7816164E-02  0.1186339E+00
        -11   -1    0    0    0    0  0.00000000000E+00  0.00000000000E+00  0.45593999997E+02  0.45594000000E+02  0.51100000000E-03 0. -1.
         11   -1    0    0    0    0 -0.00000000000E+00 -0.00000000000E+00 -0.45593999997E+02  0.45594000000E+02  0.51100000000E-03 0.  1.
    9900012    2    1    2    0    0  0.45824657266E+00  0.66176689357E+00  0.86320295163E+00  0.90007726863E+02  0.89999988057E+02 0.  0.
        -12    1    1    2    0    0 -0.45824657266E+00 -0.66176689357E+00 -0.86320295163E+00  0.11802731372E+01  0.00000000000E+00 0.  1.
         11    1    3    3    0    0 -0.98010234908E+01 -0.17751671859E+02  0.25387526932E+02  0.32491667228E+02  0.51100000000E-03 0. -1.
        -11    1    3    3    0    0 -0.25235297726E+01 -0.12284842871E+00  0.13277846059E+02  0.13516082660E+02  0.51100000000E-03 0.  1.
        -12    1    3    3    0    0  0.12782799836E+02  0.18536287181E+02 -0.37802170039E+02  0.43999976975E+02  0.00000000000E+00 0.  1.
</event>
<event>
 7    1  0.2232484E-015  0.9000762E+02  0.7816164E-02  0.1186339E+00
        -11   -1    0    0    0    0  0.00000000000E+00  0.00000000000E+00  0.45593999997E+02  0.45594000000E+02  0.51100000000E-03 0.  1.
         11   -1    0    0    0    0 -0.00000000000E+00 -0.00000000000E+00 -0.45593999997E+02  0.45594000000E+02  0.51100000000E-03 0. -1.
    9900012    2    1    2    0    0 -0.24103462866E+00  0.10557793751E+01 -0.46961029386E+00  0.90007618024E+02  0.89999877782E+02 0.  0.
        -12    1    1    2    0    0  0.24103462866E+00 -0.10557793751E+01  0.46961029386E+00  0.11803819760E+01  0.00000000000E+00 0.  1.
         11    1    3    3    0    0  0.12322683888E+02 -0.24392845492E+02 -0.26982310586E+02  0.38404485861E+02  0.51100000000E-03 0. -1.
        -11    1    3    3    0    0  0.80367092850E+01  0.50908018835E+01 -0.32703201166E+01  0.10059818779E+02  0.51100000000E-03 0.  1.
        -12    1    3    3    0    0 -0.20600427801E+02  0.20357822984E+02  0.29783020409E+02  0.41543313384E+02  0.00000000000E+00 0.  1.
</event>
<event>
 7    1  0.2232484E-015  0.9000778E+02  0.7816164E-02  0.1186339E+00
        -11   -1    0    0    0    0  0.00000000000E+00  0.00000000000E+00  0.45593999997E+02  0.45594000000E+02  0.51100000000E-03 0. -1.
         11   -1    0    0    0    0 -0.00000000000E+00 -0.00000000000E+00 -0.45593999997E+02  0.45594000000E+02  0.51100000000E-03 0.  1.
    9900012    2    1    2    0    0  0.21963592770E+00 -0.99895873348E+00  0.58886962434E+00  0.90007777171E+02  0.90000039030E+02 0.  0.
        -12    1    1    2    0    0 -0.21963592770E+00  0.99895873348E+00 -0.58886962434E+00  0.11802228291E+01  0.00000000000E+00 0.  1.
         11    1    3    3    0    0  0.97719530620E+01 -0.69727068579E+01  0.29878674439E+01  0.12370814836E+02  0.51100000000E-03 0. -1.
        -11    1    3    3    0    0 -0.79361672020E+01 -0.16514374006E+02 -0.34114954205E+02  0.38723860853E+02  0.51100000000E-03 0.  1.
         12    1    3    3    0    0 -0.16161499323E+01  0.22488122131E+02  0.31715956385E+02  0.38913101483E+02  0.00000000000E+00 0. -1.
</event>
<event>
 7    1  0.2232484E-015  0.9000776E+02  0.7816164E-02  0.1186339E+00
        -11   -1    0    0    0    0  0.00000000000E+00  0.00000000000E+00  0.45593999997E+02  0.45594000000E+02  0.51100000000E-03 0.  1.
         11   -1    0    0    0    0 -0.00000000000E+00 -0.00000000000E+00 -0.45593999997E+02  0.45594000000E+02  0.51100000000E-03 0. -1.
    9900012    2    1    2    0    0 -0.11739308829E+01  0.53268867566E-01 -0.10963297171E+00  0.90007758212E+02  0.90000019820E+02 0.  0.
        -12    1    1    2    0    0  0.11739308829E+01 -0.53268867566E-01  0.10963297171E+00  0.11802417881E+01  0.00000000000E+00 0.  1.
         11    1    3    3    0    0  0.62775790588E+01 -0.88759445867E+00  0.67142514860E+01  0.92345544582E+01  0.51100000000E-03 0. -1.
        -11    1    3    3    0    0  0.49070315920E+01  0.38551386733E+02  0.56378123057E+01  0.39269241220E+02  0.51100000000E-03 0.  1.
         12    1    3    3    0    0 -0.12358541534E+02 -0.37610523407E+02 -0.12461696763E+02  0.41503962534E+02  0.00000000000E+00 0. -1.
</event>
<event>
 7    1  0.2232484E-015  0.9000775E+02  0.7816164E-02  0.1186339E+00
        -11   -1    0    0    0    0  0.00000000000E+00  0.00000000000E+00  0.45593999997E+02  0.45594000000E+02  0.51100000000E-03 0.  1.
         11   -1    0    0    0    0 -0.00000000000E+00 -0.00000000000E+00 -0.45593999997E+02  0.45594000000E+02  0.51100000000E-03 0. -1.
    9900012    2    1    2    0    0 -0.99128042481E+00  0.47989493213E+00 -0.42433986261E+00  0.90007745644E+02  0.90000007086E+02 0.  0.
        -12    1    1    2    0    0  0.99128042481E+00 -0.47989493213E+00  0.42433986261E+00  0.11802543563E+01  0.00000000000E+00 0.  1.
         11    1    3    3    0    0 -0.89156763465E+01  0.23975017734E+02  0.18452438251E+02  0.31540184492E+02  0.51100000000E-03 0.  1.
        -11    1    3    3    0    0 -0.18412657744E+02 -0.12602959865E+02 -0.19972518784E+02  0.29945985865E+02  0.51100000000E-03 0. -1.
         12    1    3    3    0    0  0.26337053666E+02 -0.10892162938E+02  0.10957406701E+01  0.28521575287E+02  0.00000000000E+00 0. -1.
</event>
<event>
 7    1  0.2232484E-015  0.9000769E+02  0.7816164E-02  0.1186339E+00
        -11   -1    0    0    0    0  0.00000000000E+00  0.00000000000E+00  0.45593999997E+02  0.45594000000E+02  0.51100000000E-03 0.  1.
         11   -1    0    0    0    0 -0.00000000000E+00 -0.00000000000E+00 -0.45593999997E+02  0.45594000000E+02  0.51100000000E-03 0. -1.
    9900012    2    1    2    0    0 -0.11587564766E+01  0.15108167483E-01 -0.22401646208E+00  0.90007691479E+02  0.89999952207E+02 0.  0.
        -12    1    1    2    0    0  0.11587564766E+01 -0.15108167483E-01  0.22401646208E+00  0.11803085207E+01  0.00000000000E+00 0.  1.
         11    1    3    3    0    0  0.80736185464E+01 -0.16963006950E+00 -0.33238836686E+01  0.87327139938E+01  0.51100000000E-03 0. -1.
        -11    1    3    3    0    0 -0.64700931977E+01  0.39240556488E+02  0.11147381097E+02  0.41303117134E+02  0.51100000000E-03 0.  1.
         12    1    3    3    0    0 -0.27622818254E+01 -0.39055818251E+02 -0.80475138905E+01  0.39971860351E+02  0.00000000000E+00 0. -1.
</event>
<event>
 7    1  0.2232484E-015  0.9000777E+02  0.7816164E-02  0.1186339E+00
        -11   -1    0    0    0    0  0.00000000000E+00  0.00000000000E+00  0.45593999997E+02  0.45594000000E+02  0.51100000000E-03 0. -1.
         11   -1    0    0    0    0 -0.00000000000E+00 -0.00000000000E+00 -0.45593999997E+02  0.45594000000E+02  0.51100000000E-03 0.  1.
    9900012    2    1    2    0    0  0.89406787249E+00  0.11108603458E+00  0.76240093165E+00  0.90007765850E+02  0.90000027559E+02 0.  0.
        -12    1    1    2    0    0 -0.89406787249E+00 -0.11108603458E+00 -0.76240093165E+00  0.11802341498E+01  0.00000000000E+00 0.  1.
         11    1    3    3    0    0 -0.10627294551E+02  0.34000485819E+01  0.38476421564E+02  0.40061636717E+02  0.51100000000E-03 0. -1.
        -11    1    3    3    0    0  0.23600961470E+01  0.91777918042E+01 -0.32414651738E+00  0.94819295215E+01  0.51100000000E-03 0.  1.
        -12    1    3    3    0    0  0.91612662769E+01 -0.12466754352E+02 -0.37389874115E+02  0.40464199611E+02  0.00000000000E+00 0.  1.
</event>
<event>
 7    1  0.2232484E-015  0.9000776E+02  0.7816164E-02  0.1186339E+00
        -11   -1    0    0    0    0  0.00000000000E+00  0.00000000000E+00  0.45593999997E+02  0.45594000000E+02  0.51100000000E-03 0.  1.
         11   -1    0    0    0    0 -0.00000000000E+00 -0.00000000000E+00 -0.45593999997E+02  0.45594000000E+02  0.51100000000E-03 0. -1.
    9900012    2    1    2    0    0 -0.72654446477E+00 -0.30618227801E+00 -0.87827301677E+00  0.90007755136E+02  0.90000016704E+02 0.  0.
        -12    1    1    2    0    0  0.72654446477E+00  0.30618227801E+00  0.87827301677E+00  0.11802448638E+01  0.00000000000E+00 0.  1.
         11    1    3    3    0    0  0.22141830378E+02  0.21913729238E+02 -0.58490608780E+01  0.31696745811E+02  0.51100000000E-03 0. -1.
        -11    1    3    3    0    0  0.98531328593E+01 -0.18616382570E+02  0.12566217368E+02  0.24526796496E+02  0.51100000000E-03 0.  1.
        -12    1    3    3    0    0 -0.32721507702E+02 -0.36035289458E+01 -0.75954295070E+01  0.33784212830E+02  0.00000000000E+00 0.  1.
</event>
<event>
 7    1  0.2232484E-015  0.9000771E+02  0.7816164E-02  0.1186339E+00
        -11   -1    0    0    0    0  0.00000000000E+00  0.00000000000E+00  0.45593999997E+02  0.45594000000E+02  0.51100000000E-03 0. -1.
         11   -1    0    0    0    0 -0.00000000000E+00 -0.00000000000E+00 -0.45593999997E+02  0.45594000000E+02  0.51100000000E-03 0.  1.
    9900012    2    1    2    0    0 -0.51389015869E+00 -0.10588181826E+01  0.88880908907E-01  0.90007712385E+02  0.89999973388E+02 0.  0.
        -12    1    1    2    0    0  0.51389015869E+00  0.10588181826E+01 -0.88880908907E-01  0.11802876153E+01  0.00000000000E+00 0.  1.
         11    1    3    3    0    0  0.88011887903E+01  0.67220741340E+00 -0.11945083704E+02  0.14852535537E+02  0.51100000000E-03 0. -1.
        -11    1    3    3    0    0  0.29776453947E+02 -0.10660364380E+02 -0.41809774690E+01  0.31902369054E+02  0.51100000000E-03 0.  1.
         12    1    3    3    0    0 -0.39091532896E+02  0.89293387842E+01  0.16214942082E+02  0.43252807793E+02  0.00000000000E+00 0. -1.
</event>
<event>
 7    1  0.2232484E-015  0.9000778E+02  0.7816164E-02  0.1186339E+00
        -11   -1    0    0    0    0  0.00000000000E+00  0.00000000000E+00  0.45593999997E+02  0.45594000000E+02  0.51100000000E-03 0.  1.
         11   -1    0    0    0    0 -0.00000000000E+00 -0.00000000000E+00 -0.45593999997E+02  0.45594000000E+02  0.51100000000E-03 0. -1.
    9900012    2    1    2    0    0  0.28196431343E+00  0.99490055522E+00  0.56885545292E+00  0.90007776498E+02  0.90000038348E+02 0.  0.
        -12    1    1    2    0    0 -0.28196431343E+00 -0.99490055522E+00 -0.56885545292E+00  0.11802235022E+01  0.00000000000E+00 0.  1.
         11    1    3    3    0    0 -0.31443531512E+01 -0.84743330589E+01  0.16499917062E+02  0.18813520161E+02  0.51100000000E-03 0. -1.
        -11    1    3    3    0    0 -0.11457021892E+02  0.16766083617E+01  0.24671355585E+02  0.27253442955E+02  0.51100000000E-03 0.  1.
         12    1    3    3    0    0  0.14883339357E+02  0.77926252524E+01 -0.40602417194E+02  0.43940813382E+02  0.00000000000E+00 0. -1.
</event>
<event>
 7    1  0.2232484E-015  0.9000769E+02  0.7816164E-02  0.1186339E+00
        -11   -1    0    0    0    0  0.00000000000E+00  0.00000000000E+00  0.45593999997E+02  0.45594000000E+02  0.51100000000E-03 0.  1.
         11   -1    0    0    0    0 -0.00000000000E+00 -0.00000000000E+00 -0.45593999997E+02  0.45594000000E+02  0.51100000000E-03 0. -1.
    9900012    2    1    2    0    0  0.28395788778E+00 -0.51622568019E+00 -0.10227488379E+01  0.90007688083E+02  0.89999948766E+02 0.  0.
        -12    1    1    2    0    0 -0.28395788778E+00  0.51622568019E+00  0.10227488379E+01  0.11803119166E+01  0.00000000000E+00 0.  1.
         11    1    3    3    0    0  0.10211958793E+02  0.23601368032E+01  0.35958693928E+01  0.11080822401E+02  0.51100000000E-03 0. -1.
        -11    1    3    3    0    0 -0.25770530839E+02  0.23170251756E+02  0.19759159481E+02  0.39892420456E+02  0.51100000000E-03 0.  1.
         12    1    3    3    0    0  0.15842529933E+02 -0.26046614239E+02 -0.24377777712E+02  0.39034445227E+02  0.00000000000E+00 0. -1.
</event>
<event>
 7    1  0.2232484E-015  0.9000776E+02  0.7816164E-02  0.1186339E+00
        -11   -1    0    0    0    0  0.00000000000E+00  0.00000000000E+00  0.45593999997E+02  0.45594000000E+02  0.51100000000E-03 0.  1.
         11   -1    0    0    0    0 -0.00000000000E+00 -0.00000000000E+00 -0.45593999997E+02  0.45594000000E+02  0.51100000000E-03 0. -1.
    9900012    2    1    2    0    0 -0.66113813768E+00 -0.42309059196E-01 -0.97676669562E+00  0.90007759825E+02  0.90000021454E+02 0.  0.
        -12    1    1    2    0    0  0.66113813768E+00  0.42309059196E-01  0.97676669562E+00  0.11802401752E+01  0.00000000000E+00 0.  1.
         11    1    3    3    0    0 -0.24852627508E+02 -0.11756834082E+02 -0.26218597098E+02  0.37990670904E+02  0.51100000000E-03 0. -1.
        -11    1    3    3    0    0 -0.63288577010E+01  0.26097609671E+01 -0.46994379905E+01  0.83036142609E+01  0.51100000000E-03 0.  1.
        -12    1    3    3    0    0  0.30520347071E+02  0.91047640559E+01  0.29941268393E+02  0.43713474660E+02  0.00000000000E+00 0.  1.
</event>
<event>
 7    1  0.2232484E-015  0.9000774E+02  0.7816164E-02  0.1186339E+00
        -11   -1    0    0    0    0  0.00000000000E+00  0.00000000000E+00  0.45593999997E+02  0.45594000000E+02  0.51100000000E-03 0. -1.
         11   -1    0    0    0    0 -0.00000000000E+00 -0.00000000000E+00 -0.45593999997E+02  0.45594000000E+02  0.51100000000E-03 0.  1.
    9900012    2    1    2    0    0 -0.75863402735E+00  0.58482624760E+00  0.68954140498E+00  0.90007739573E+02  0.90000000935E+02 0.  0.
        -12    1    1    2    0    0  0.75863402735E+00 -0.58482624760E+00 -0.68954140498E+00  0.11802604274E+01  0.00000000000E+00 0.  1.
         11    1    3    3    0    0  0.16049598978E+02  0.26754492915E+02 -0.20876008102E+02  0.37539315830E+02  0.51100000000E-03 0. -1.
        -11    1    3    3    0    0  0.20572825811E+01  0.82588482447E+01  0.28385049583E+01  0.89720731499E+01  0.51100000000E-03 0.  1.
        -12    1    3    3    0    0 -0.18865515586E+02 -0.34428514912E+02  0.18727044549E+02  0.43496350593E+02  0.00000000000E+00 0.  1.
</event>
<event>
 7    1  0.2232484E-015  0.9000777E+02  0.7816164E-02  0.1186339E+00
        -11   -1    0    0    0    0  0.00000000000E+00  0.00000000000E+00  0.45593999997E+02  0.45594000000E+02  0.51100000000E-03 0. -1.
         11   -1    0    0    0    0 -0.00000000000E+00 -0.00000000000E+00 -0.45593999997E+02  0.45594000000E+02  0.51100000000E-03 0.  1.
    9900012    2    1    2    0    0  0.11338871988E+00 -0.11132167767E+01  0.37527679598E+00  0.90007770672E+02  0.90000032445E+02 0.  0.
        -12    1    1    2    0    0 -0.11338871988E+00  0.11132167767E+01 -0.37527679598E+00  0.11802293283E+01  0.00000000000E+00 0.  1.
         11    1    3    3    0    0  0.70049170177E+01 -0.33758695300E+01 -0.35133133544E+01  0.85328030855E+01  0.51100000000E-03 0. -1.
        -11    1    3    3    0    0  0.12112502739E+02 -0.17349274168E+02 -0.30774420565E+02  0.37346686575E+02  0.51100000000E-03 0.  1.
         12    1    3    3    0    0 -0.19004031037E+02  0.19611926921E+02  0.34663010715E+02  0.44128281012E+02  0.00000000000E+00 0. -1.
</event>
<event>
 7    1  0.2232484E-015  0.9000770E+02  0.7816164E-02  0.1186339E+00
        -11   -1    0    0    0    0  0.00000000000E+00  0.00000000000E+00  0.45593999997E+02  0.45594000000E+02  0.51100000000E-03 0. -1.
         11   -1    0    0    0    0 -0.00000000000E+00 -0.00000000000E+00 -0.45593999997E+02  0.45594000000E+02  0.51100000000E-03 0.  1.
    9900012    2    1    2    0    0  0.17730977037E+00  0.36396438392E+00  0.11086922606E+01  0.90007700311E+02  0.89999961155E+02 0.  0.
        -12    1    1    2    0    0 -0.17730977037E+00 -0.36396438392E+00 -0.11086922606E+01  0.11802996891E+01  0.00000000000E+00 0.  1.
         11    1    3    3    0    0  0.23628587565E+02  0.12455047521E+02  0.23363106610E+02  0.35486238316E+02  0.51100000000E-03 0. -1.
        -11    1    3    3    0    0 -0.11264157472E+02  0.92587261004E+01  0.71124927029E+01  0.16223218092E+02  0.51100000000E-03 0.  1.
        -12    1    3    3    0    0 -0.12187120323E+02 -0.21349809237E+02 -0.29366907052E+02  0.38298243903E+02  0.00000000000E+00 0.  1.
</event>
<event>
 7    1  0.2232484E-015  0.9000767E+02  0.7816164E-02  0.1186339E+00
        -11   -1    0    0    0    0  0.00000000000E+00  0.00000000000E+00  0.45593999997E+02  0.45594000000E+02  0.51100000000E-03 0.  1.
         11   -1    0    0    0    0 -0.00000000000E+00 -0.00000000000E+00 -0.45593999997E+02  0.45594000000E+02  0.51100000000E-03 0. -1.
    9900012    2    1    2    0    0  0.60062317474E+00  0.58366797969E+00 -0.83171600880E+00  0.90007674609E+02  0.89999935114E+02 0.  0.
        -12    1    1    2    0    0 -0.60062317474E+00 -0.58366797969E+00  0.83171600880E+00  0.11803253907E+01  0.00000000000E+00 0.  1.
         11    1    3    3    0    0  0.20548253933E+02 -0.55807306359E+01 -0.28542487456E+02  0.35609674031E+02  0.51100000000E-03 0. -1.
        -11    1    3    3    0    0 -0.15801898438E+01 -0.27760384705E+01 -0.10551330352E+02  0.11024244282E+02  0.51100000000E-03 0.  1.
        -12    1    3    3    0    0 -0.18367440915E+02  0.89404370861E+01  0.38262101800E+02  0.43373756296E+02  0.00000000000E+00 0.  1.
</event>
<event>
 7    1  0.2232484E-015  0.9000768E+02  0.7816164E-02  0.1186339E+00
        -11   -1    0    0    0    0  0.00000000000E+00  0.00000000000E+00  0.45593999997E+02  0.45594000000E+02  0.51100000000E-03 0. -1.
         11   -1    0    0    0    0 -0.00000000000E+00 -0.00000000000E+00 -0.45593999997E+02  0.45594000000E+02  0.51100000000E-03 0.  1.
    9900012    2    1    2    0    0  0.40257213042E+00  0.64550608649E+00  0.90244971448E+00  0.90007678893E+02  0.89999939455E+02 0.  0.
        -12    1    1    2    0    0 -0.40257213042E+00 -0.64550608649E+00 -0.90244971448E+00  0.11803211068E+01  0.00000000000E+00 0.  1.
         11    1    3    3    0    0  0.40202631483E+02  0.11406131391E+02 -0.12747258592E+01  0.41808806940E+02  0.51100000000E-03 0. -1.
        -11    1    3    3    0    0 -0.74561243210E+01  0.41795004243E+01  0.84543007557E+01  0.12022363129E+02  0.51100000000E-03 0.  1.
        -12    1    3    3    0    0 -0.32343935032E+02 -0.14940125728E+02 -0.62771251820E+01  0.36176508824E+02  0.00000000000E+00 0.  1.
</event>
<event>
 7    1  0.2232484E-015  0.9000771E+02  0.7816164E-02  0.1186339E+00
        -11   -1    0    0    0    0  0.00000000000E+00  0.00000000000E+00  0.45593999997E+02  0.45594000000E+02  0.51100000000E-03 0.  1.
         11   -1    0    0    0    0 -0.00000000000E+00 -0.00000000000E+00 -0.45593999997E+02  0.45594000000E+02  0.51100000000E-03 0. -1.
    9900012    2    1    2    0    0  0.14427402947E+00  0.39634820033E+00 -0.11023521880E+01  0.90007708833E+02  0.89999969790E+02 0.  0.
        -12    1    1    2    0    0 -0.14427402947E+00 -0.39634820033E+00  0.11023521880E+01  0.11802911665E+01  0.00000000000E+00 0.  1.
         11    1    3    3    0    0 -0.36029434353E+02 -0.76950619010E+00 -0.11185673747E+02  0.37733692862E+02  0.51100000000E-03 0. -1.
        -11    1    3    3    0    0 -0.55199553562E+01 -0.66175060222E+01  0.37169621678E+01  0.93849401227E+01  0.51100000000E-03 0.  1.
        -12    1    3    3    0    0  0.41693663739E+02  0.77833604127E+01  0.63663593916E+01  0.42889075849E+02  0.00000000000E+00 0.  1.
</event>
<event>
 7    1  0.2232484E-015  0.9000777E+02  0.7816164E-02  0.1186339E+00
        -11   -1    0    0    0    0  0.00000000000E+00  0.00000000000E+00  0.45593999997E+02  0.45594000000E+02  0.51100000000E-03 0. -1.
         11   -1    0    0    0    0 -0.00000000000E+00 -0.00000000000E+00 -0.45593999997E+02  0.45594000000E+02  0.51100000000E-03 0.  1.
    9900012    2    1    2    0    0 -0.12346994600E-01  0.27475265702E+00  0.11477417073E+01  0.90007765914E+02  0.90000027624E+02 0.  0.
        -12    1    1    2    0    0  0.12346994600E-01 -0.27475265702E+00 -0.11477417073E+01  0.11802340859E+01  0.00000000000E+00 0.  1.
         11    1    3    3    0    0  0.15195436645E+02  0.27980799400E+02 -0.14311623655E+02  0.34909153553E+02  0.51100000000E-03 0. -1.
        -11    1    3    3    0    0 -0.18962817163E+02 -0.10308861096E+01 -0.67817169122E+01  0.20165387313E+02  0.51100000000E-03 0.  1.
        -12    1    3    3    0    0  0.37550335238E+01 -0.26675160633E+02  0.22241082274E+02  0.34933225049E+02  0.00000000000E+00 0.  1.
</event>
<event>
 7    1  0.2232484E-015  0.9000774E+02  0.7816164E-02  0.1186339E+00
        -11   -1    0    0    0    0  0.00000000000E+00  0.00000000000E+00  0.45593999997E+02  0.45594000000E+02  0.51100000000E-03 0.  1.
         11   -1    0    0    0    0 -0.00000000000E+00 -0.00000000000E+00 -0.45593999997E+02  0.45594000000E+02  0.51100000000E-03 0. -1.
    9900012    2    1    2    0    0  0.32526070412E-01  0.87874219575E+00  0.78724663421E+00  0.90007744496E+02  0.90000005923E+02 0.  0.
        -12    1    1    2    0    0 -0.32526070412E-01 -0.87874219575E+00 -0.78724663421E+00  0.11802555041E+01  0.00000000000E+00 0.  1.
         11    1    3    3    0    0  0.45879311596E+01  0.13440927155E+01  0.65622139968E+01  0.81190116611E+01  0.51100000000E-03 0. -1.
        -11    1    3    3    0    0 -0.18622647296E+00 -0.32971574337E+02  0.21389027253E+02  0.39302034065E+02  0.51100000000E-03 0.  1.
         12    1    3    3    0    0 -0.43691786162E+01  0.32506223817E+02 -0.27163994616E+02  0.42586698770E+02  0.00000000000E+00 0. -1.
</event>
<event>
 7    1  0.2232484E-015  0.9000719E+02  0.7816164E-02  0.1186340E+00
        -11   -1    0    0    0    0  0.00000000000E+00  0.00000000000E+00  0.45593999997E+02  0.45594000000E+02  0.51100000000E-03 0.  1.
         11   -1    0    0    0    0 -0.00000000000E+00 -0.00000000000E+00 -0.45593999997E+02  0.45594000000E+02  0.51100000000E-03 0. -1.
    9900012    2    1    2    0    0 -0.56687176617E+00  0.10264319380E+01  0.13934712826E+00  0.90007185135E+02  0.89999439177E+02 0.  0.
        -12    1    1    2    0    0  0.56687176617E+00 -0.10264319380E+01 -0.13934712826E+00  0.11808148648E+01  0.00000000000E+00 0.  1.
         11    1    3    3    0    0 -0.94408500262E+01 -0.21048102969E+01 -0.15735992523E+01  0.97998005322E+01  0.51100000000E-03 0. -1.
        -11    1    3    3    0    0 -0.21596167844E+02  0.26111742931E+02  0.18394766796E+02  0.38556257990E+02  0.51100000000E-03 0.  1.
         12    1    3    3    0    0  0.30470146104E+02 -0.22980500696E+02 -0.16681820415E+02  0.41651126614E+02  0.00000000000E+00 0. -1.
</event>
<event>
 7    1  0.2232484E-015  0.9000776E+02  0.7816164E-02  0.1186339E+00
        -11   -1    0    0    0    0  0.00000000000E+00  0.00000000000E+00  0.45593999997E+02  0.45594000000E+02  0.51100000000E-03 0. -1.
         11   -1    0    0    0    0 -0.00000000000E+00 -0.00000000000E+00 -0.45593999997E+02  0.45594000000E+02  0.51100000000E-03 0.  1.
    9900012    2    1    2    0    0 -0.21426784680E+00 -0.48276660405E+00  0.10554592134E+01  0.90007759154E+02  0.90000020774E+02 0.  0.
        -12    1    1    2    0    0  0.21426784680E+00  0.48276660405E+00 -0.10554592134E+01  0.11802408463E+01  0.00000000000E+00 0.  1.
         11    1    3    3    0    0  0.14111062747E+02 -0.12027032110E+02 -0.89282841111E+01  0.20578771845E+02  0.51100000000E-03 0. -1.
        -11    1    3    3    0    0  0.12183127255E+02  0.39046758765E+01 -0.23067248255E+02  0.26377509847E+02  0.51100000000E-03 0.  1.
         12    1    3    3    0    0 -0.26508457849E+02  0.76395896291E+01  0.33050991580E+02  0.43051477462E+02  0.00000000000E+00 0. -1.
</event>
<event>
 7    1  0.2232484E-015  0.9000763E+02  0.7816164E-02  0.1186339E+00
        -11   -1    0    0    0    0  0.00000000000E+00  0.00000000000E+00  0.45593999997E+02  0.45594000000E+02  0.51100000000E-03 0.  1.
         11   -1    0    0    0    0 -0.00000000000E+00 -0.00000000000E+00 -0.45593999997E+02  0.45594000000E+02  0.51100000000E-03 0. -1.
    9900012    2    1    2    0    0  0.90385979248E-02 -0.46598156885E+00 -0.10844570855E+01  0.90007632392E+02  0.89999892340E+02 0.  0.
        -12    1    1    2    0    0 -0.90385979248E-02  0.46598156885E+00  0.10844570855E+01  0.11803676076E+01  0.00000000000E+00 0.  1.
         11    1    3    3    0    0  0.11302281329E+01 -0.19207993222E+02  0.33835169374E+01  0.19536443033E+02  0.51100000000E-03 0. -1.
        -11    1    3    3    0    0  0.47841738705E+01  0.22383890333E+02  0.28629231908E+02  0.36654601157E+02  0.51100000000E-03 0.  1.
         12    1    3    3    0    0 -0.59053634055E+01 -0.36418786801E+01 -0.33097205931E+02  0.33816588203E+02  0.00000000000E+00 0. -1.
</event>
<event>
 7    1  0.2232484E-015  0.9000779E+02  0.7816164E-02  0.1186339E+00
        -11   -1    0    0    0    0  0.00000000000E+00  0.00000000000E+00  0.45593999997E+02  0.45594000000E+02  0.51100000000E-03 0.  1.
         11   -1    0    0    0    0 -0.00000000000E+00 -0.00000000000E+00 -0.45593999997E+02  0.45594000000E+02  0.51100000000E-03 0. -1.
    9900012    2    1    2    0    0 -0.10247269411E+01  0.41005334946E+00 -0.41794363193E+00  0.90007794114E+02  0.90000056197E+02 0.  0.
        -12    1    1    2    0    0  0.10247269411E+01 -0.41005334946E+00  0.41794363193E+00  0.11802058857E+01  0.00000000000E+00 0.  1.
         11    1    3    3    0    0  0.25942090861E+01  0.55979743305E+01 -0.67740185382E+01  0.91626723615E+01  0.51100000000E-03 0. -1.
        -11    1    3    3    0    0 -0.40648095874E+02 -0.11993642468E+02  0.81325873723E+01  0.43153842650E+02  0.51100000000E-03 0.  1.
         12    1    3    3    0    0  0.37029159846E+02  0.68057214866E+01 -0.17765124660E+01  0.37691279103E+02  0.00000000000E+00 0. -1.
</event>
<event>
 7    1  0.2232484E-015  0.9000778E+02  0.7816164E-02  0.1186339E+00
        -11   -1    0    0    0    0  0.00000000000E+00  0.00000000000E+00  0.45593999997E+02  0.45594000000E+02  0.51100000000E-03 0. -1.
         11   -1    0    0    0    0 -0.00000000000E+00 -0.00000000000E+00 -0.45593999997E+02  0.45594000000E+02  0.51100000000E-03 0.  1.
    9900012    2    1    2    0    0  0.25217376585E+00  0.61294542308E+00  0.97654287946E+00  0.90007775574E+02  0.90000037412E+02 0.  0.
        -12    1    1    2    0    0 -0.25217376585E+00 -0.61294542308E+00 -0.97654287946E+00  0.11802244258E+01  0.00000000000E+00 0.  1.
         11    1    3    3    0    0 -0.41626940672E+01 -0.31085842262E+02 -0.94954485188E+01  0.32769210455E+02  0.51100000000E-03 0. -1.
        -11    1    3    3    0    0 -0.17787692835E+02  0.17303364826E+01 -0.18301210282E+01  0.17965116865E+02  0.51100000000E-03 0.  1.
        -12    1    3    3    0    0  0.22202560668E+02  0.29968451202E+02  0.12302112426E+02  0.39273448255E+02  0.00000000000E+00 0.  1.
</event>
<event>
 7    1  0.2232484E-015  0.9000771E+02  0.7816164E-02  0.1186339E+00
        -11   -1    0    0    0    0  0.00000000000E+00  0.00000000000E+00  0.45593999997E+02  0.45594000000E+02  0.51100000000E-03 0.  1.
         11   -1    0    0    0    0 -0.00000000000E+00 -0.00000000000E+00 -0.45593999997E+02  0.45594000000E+02  0.51100000000E-03 0. -1.
    9900012    2    1    2    0    0  0.93778626514E+00  0.61697765787E+00 -0.36465180548E+00  0.90007713828E+02  0.89999974850E+02 0.  0.
        -12    1    1    2    0    0 -0.93778626514E+00 -0.61697765787E+00  0.36465180548E+00  0.11802861724E+01  0.00000000000E+00 0.  1.
         11    1    3    3    0    0 -0.40384260461E+01 -0.55520920156E+01 -0.66963632238E+01  0.95904062149E+01  0.51100000000E-03 0. -1.
        -11    1    3    3    0    0 -0.38024750885E+01  0.34501975989E+02 -0.20591327426E+02  0.40358988210E+02  0.51100000000E-03 0.  1.
         12    1    3    3    0    0  0.87786873998E+01 -0.28332906316E+02  0.26923038844E+02  0.40058319402E+02  0.00000000000E+00 0. -1.
</event>
<event>
 7    1  0.2232484E-015  0.9000749E+02  0.7816164E-02  0.1186340E+00
        -11   -1    0    0    0    0  0.00000000000E+00  0.00000000000E+00  0.45593999997E+02  0.45594000000E+02  0.51100000000E-03 0.  1.
         11   -1    0    0    0    0 -0.00000000000E+00 -0.00000000000E+00 -0.45593999997E+02  0.45594000000E+02  0.51100000000E-03 0. -1.
    9900012    2    1    2    0    0  0.95707634365E+00  0.48942838660E+00 -0.48791307668E+00  0.90007493988E+02  0.89999752109E+02 0.  0.
        -12    1    1    2    0    0 -0.95707634365E+00 -0.48942838660E+00  0.48791307668E+00  0.11805060117E+01  0.00000000000E+00 0.  1.
         11    1    3    3    0    0  0.33709961334E-01 -0.35641023950E+02 -0.99377285587E+01  0.37000569911E+02  0.51100000000E-03 0. -1.
        -11    1    3    3    0    0 -0.77268777371E+01 -0.51858582889E+01 -0.14305476680E+01  0.94151066191E+01  0.51100000000E-03 0.  1.
        -12    1    3    3    0    0  0.86502441194E+01  0.41316310626E+02  0.10880363150E+02  0.43591817458E+02  0.00000000000E+00 0.  1.
</event>
<event>
 7    1  0.2232484E-015  0.9000771E+02  0.7816164E-02  0.1186339E+00
        -11   -1    0    0    0    0  0.00000000000E+00  0.00000000000E+00  0.45593999997E+02  0.45594000000E+02  0.51100000000E-03 0. -1.
         11   -1    0    0    0    0 -0.00000000000E+00 -0.00000000000E+00 -0.45593999997E+02  0.45594000000E+02  0.51100000000E-03 0.  1.
    9900012    2    1    2    0    0 -0.10763653319E+01  0.40586108155E+00  0.26420910906E+00  0.90007706817E+02  0.89999967747E+02 0.  0.
        -12    1    1    2    0    0  0.10763653319E+01 -0.40586108155E+00 -0.26420910906E+00  0.11802931833E+01  0.00000000000E+00 0.  1.
         11    1    3    3    0    0 -0.40381320023E+01  0.42362640883E+01  0.19610492529E+02  0.20465186561E+02  0.51100000000E-03 0. -1.
        -11    1    3    3    0    0 -0.12881723489E+02 -0.12345441854E+02  0.19684036917E+02  0.26567085731E+02  0.51100000000E-03 0.  1.
        -12    1    3    3    0    0  0.15843490159E+02  0.85150388471E+01 -0.39030320337E+02  0.42975434525E+02  0.00000000000E+00 0.  1.
</event>
<event>
 7    1  0.2232484E-015  0.9000787E+02  0.7816164E-02  0.1186339E+00
        -11   -1    0    0    0    0  0.00000000000E+00  0.00000000000E+00  0.45593999997E+02  0.45594000000E+02  0.51100000000E-03 0.  1.
         11   -1    0    0    0    0 -0.00000000000E+00 -0.00000000000E+00 -0.45593999997E+02  0.45594000000E+02  0.51100000000E-03 0. -1.
    9900012    2    1    2    0    0  0.54919029567E+00 -0.10391165192E+01 -0.10651099117E+00  0.90007865384E+02  0.90000128407E+02 0.  0.
        -12    1    1    2    0    0 -0.54919029567E+00  0.10391165192E+01  0.10651099117E+00  0.11801346163E+01  0.00000000000E+00 0.  1.
         11    1    3    3    0    0 -0.14776158263E+02  0.13990878996E+02 -0.92999676637E+01  0.22373398197E+02  0.51100000000E-03 0. -1.
        -11    1    3    3    0    0  0.37338094830E+01  0.25021976954E+02  0.28493224278E+01  0.25458972927E+02  0.51100000000E-03 0.  1.
        -12    1    3    3    0    0  0.11591539075E+02 -0.40051972469E+02  0.63441342448E+01  0.42175494260E+02  0.00000000000E+00 0.  1.
</event>
<event>
 7    1  0.2232484E-015  0.9000776E+02  0.7816164E-02  0.1186339E+00
        -11   -1    0    0    0    0  0.00000000000E+00  0.00000000000E+00  0.45593999997E+02  0.45594000000E+02  0.51100000000E-03 0.  1.
         11   -1    0    0    0    0 -0.00000000000E+00 -0.00000000000E+00 -0.45593999997E+02  0.45594000000E+02  0.51100000000E-03 0. -1.
    9900012    2    1    2    0    0 -0.26543902012E+00 -0.18662998918E+00 -0.11347591319E+01  0.90007759807E+02  0.90000021436E+02 0.  0.
        -12    1    1    2    0    0  0.26543902012E+00  0.18662998918E+00  0.11347591319E+01  0.11802401933E+01  0.00000000000E+00 0.  1.
         11    1    3    3    0    0  0.39851074226E+02  0.12644928173E+02 -0.64356174226E+01  0.42301530673E+02  0.51100000000E-03 0. -1.
        -11    1    3    3    0    0 -0.31619886407E+01 -0.81025594602E+01 -0.35813906422E+01  0.94061682509E+01  0.51100000000E-03 0.  1.
        -12    1    3    3    0    0 -0.36954524605E+02 -0.47289987019E+01  0.88822489329E+01  0.38300060883E+02  0.00000000000E+00 0.  1.
</event>
<event>
 7    1  0.2232484E-015  0.9000781E+02  0.7816164E-02  0.1186339E+00
        -11   -1    0    0    0    0  0.00000000000E+00  0.00000000000E+00  0.45593999997E+02  0.45594000000E+02  0.51100000000E-03 0.  1.
         11   -1    0    0    0    0 -0.00000000000E+00 -0.00000000000E+00 -0.45593999997E+02  0.45594000000E+02  0.51100000000E-03 0. -1.
    9900012    2    1    2    0    0 -0.98318098345E-01  0.29274180709E+00 -0.11390749792E+01  0.90007806786E+02  0.90000069036E+02 0.  0.
        -12    1    1    2    0    0  0.98318098345E-01 -0.29274180709E+00  0.11390749792E+01  0.11801932140E+01  0.00000000000E+00 0.  1.
         11    1    3    3    0    0 -0.69368926792E+01  0.43876593747E+01 -0.56408815057E+01  0.99594969378E+01  0.51100000000E-03 0. -1.
        -11    1    3    3    0    0 -0.21311648243E+01 -0.41232740139E+02 -0.17970680155E+01  0.41326869911E+02  0.51100000000E-03 0.  1.
         12    1    3    3    0    0  0.89697394052E+01  0.37137822571E+02  0.62988745420E+01  0.38721439938E+02  0.00000000000E+00 0. -1.
</event>
<event>
 7    1  0.2232484E-015  0.9000770E+02  0.7816164E-02  0.1186339E+00
        -11   -1    0    0    0    0  0.00000000000E+00  0.00000000000E+00  0.45593999997E+02  0.45594000000E+02  0.51100000000E-03 0.  1.
         11   -1    0    0    0    0 -0.00000000000E+00 -0.00000000000E+00 -0.45593999997E+02  0.45594000000E+02  0.51100000000E-03 0. -1.
    9900012    2    1    2    0    0  0.88681361347E+00  0.76822928540E+00 -0.12841538696E+00  0.90007701253E+02  0.89999962110E+02 0.  0.
        -12    1    1    2    0    0 -0.88681361347E+00 -0.76822928540E+00  0.12841538696E+00  0.11802987467E+01  0.00000000000E+00 0.  1.
         11    1    3    3    0    0  0.69308388669E+01  0.39997890910E+01  0.37533989579E+01  0.88387128118E+01  0.51100000000E-03 0. -1.
        -11    1    3    3    0    0  0.14822871076E+02  0.33707513932E+02  0.67389247749E+01  0.37434303917E+02  0.51100000000E-03 0.  1.
         12    1    3    3    0    0 -0.20866896330E+02 -0.36939073737E+02 -0.10620739120E+02  0.43734684524E+02  0.00000000000E+00 0. -1.
</event>
<event>
 7    1  0.2232484E-015  0.9000767E+02  0.7816164E-02  0.1186339E+00
        -11   -1    0    0    0    0  0.00000000000E+00  0.00000000000E+00  0.45593999997E+02  0.45594000000E+02  0.51100000000E-03 0.  1.
         11   -1    0    0    0    0 -0.00000000000E+00 -0.00000000000E+00 -0.45593999997E+02  0.45594000000E+02  0.51100000000E-03 0. -1.
    9900012    2    1    2    0    0  0.50015585330E+00  0.86216969255E+00 -0.63220435107E+00  0.90007671741E+02  0.89999932208E+02 0.  0.
        -12    1    1    2    0    0 -0.50015585330E+00 -0.86216969255E+00  0.63220435107E+00  0.11803282585E+01  0.00000000000E+00 0.  1.
         11    1    3    3    0    0  0.72249663892E+00  0.11497923923E+02 -0.21198894961E+01  0.11714016718E+02  0.51100000000E-03 0. -1.
        -11    1    3    3    0    0  0.13961107008E+02  0.30570978981E+02 -0.58128114901E+01  0.34106979380E+02  0.51100000000E-03 0.  1.
         12    1    3    3    0    0 -0.14183447793E+02 -0.41206733212E+02  0.73004966351E+01  0.44186675643E+02  0.00000000000E+00 0. -1.
</event>
<event>
 7    1  0.2232484E-015  0.9000830E+02  0.7816164E-02  0.1186338E+00
        -11   -1    0    0    0    0  0.00000000000E+00  0.00000000000E+00  0.45593999997E+02  0.45594000000E+02  0.51100000000E-03 0. -1.
         11   -1    0    0    0    0 -0.00000000000E+00 -0.00000000000E+00 -0.45593999997E+02  0.45594000000E+02  0.51100000000E-03 0.  1.
    9900012    2    1    2    0    0 -0.71312401608E+00  0.91995458294E+00  0.19190303498E+00  0.90008301279E+02  0.90000570054E+02 0.  0.
        -12    1    1    2    0    0  0.71312401608E+00 -0.91995458294E+00 -0.19190303498E+00  0.11796987208E+01  0.00000000000E+00 0.  1.
         11    1    3    3    0    0 -0.86372926468E+01  0.62444961839E+01 -0.14889795355E+01  0.10761673530E+02  0.51100000000E-03 0. -1.
        -11    1    3    3    0    0 -0.96146739410E+01  0.20331050563E+02 -0.28243571775E+02  0.36103918331E+02  0.51100000000E-03 0.  1.
         12    1    3    3    0    0  0.17538842572E+02 -0.25655592164E+02  0.29924454345E+02  0.43142709418E+02  0.00000000000E+00 0. -1.
</event>
<event>
 7    1  0.2232484E-015  0.9000768E+02  0.7816164E-02  0.1186339E+00
        -11   -1    0    0    0    0  0.00000000000E+00  0.00000000000E+00  0.45593999997E+02  0.45594000000E+02  0.51100000000E-03 0.  1.
         11   -1    0    0    0    0 -0.00000000000E+00 -0.00000000000E+00 -0.45593999997E+02  0.45594000000E+02  0.51100000000E-03 0. -1.
    9900012    2    1    2    0    0 -0.91833853505E+00 -0.32338305276E+00 -0.66725992011E+00  0.90007678830E+02  0.89999939390E+02 0.  0.
        -12    1    1    2    0    0  0.91833853505E+00  0.32338305276E+00  0.66725992011E+00  0.11803211702E+01  0.00000000000E+00 0.  1.
         11    1    3    3    0    0 -0.43133497337E+02 -0.45597328878E+01  0.28083049325E-01  0.43373846330E+02  0.51100000000E-03 0. -1.
        -11    1    3    3    0    0  0.56040126775E+01  0.32386254950E+01 -0.69296429007E+01  0.94822784276E+01  0.51100000000E-03 0.  1.
        -12    1    3    3    0    0  0.36611146124E+02  0.99772434012E+00  0.62342999313E+01  0.37151554073E+02  0.00000000000E+00 0.  1.
</event>
<event>
 7    1  0.2232484E-015  0.9000771E+02  0.7816164E-02  0.1186339E+00
        -11   -1    0    0    0    0  0.00000000000E+00  0.00000000000E+00  0.45593999997E+02  0.45594000000E+02  0.51100000000E-03 0.  1.
         11   -1    0    0    0    0 -0.00000000000E+00 -0.00000000000E+00 -0.45593999997E+02  0.45594000000E+02  0.51100000000E-03 0. -1.
    9900012    2    1    2    0    0 -0.60185102020E+00 -0.95520950967E-01 -0.10108040100E+01  0.90007714590E+02  0.89999975623E+02 0.  0.
        -12    1    1    2    0    0  0.60185102020E+00  0.95520950967E-01  0.10108040100E+01  0.11802854101E+01  0.00000000000E+00 0.  1.
         11    1    3    3    0    0 -0.33892207104E+01 -0.49115522989E+01 -0.83470621784E+01  0.10260780198E+02  0.51100000000E-03 0. -1.
        -11    1    3    3    0    0  0.37223083569E+02 -0.56103208861E+01 -0.11198519679E+02  0.39273916205E+02  0.51100000000E-03 0.  1.
         12    1    3    3    0    0 -0.34435713879E+02  0.10426352234E+02  0.18534777848E+02  0.40473018186E+02  0.00000000000E+00 0. -1.
</event>
<event>
 7    1  0.2232484E-015  0.9000776E+02  0.7816164E-02  0.1186339E+00
        -11   -1    0    0    0    0  0.00000000000E+00  0.00000000000E+00  0.45593999997E+02  0.45594000000E+02  0.51100000000E-03 0.  1.
         11   -1    0    0    0    0 -0.00000000000E+00 -0.00000000000E+00 -0.45593999997E+02  0.45594000000E+02  0.51100000000E-03 0. -1.
    9900012    2    1    2    0    0 -0.10504180313E+01  0.49616993961E+00  0.20831481301E+00  0.90007763706E+02  0.90000025386E+02 0.  0.
        -12    1    1    2    0    0  0.10504180313E+01 -0.49616993961E+00 -0.20831481301E+00  0.11802362944E+01  0.00000000000E+00 0.  1.
         11    1    3    3    0    0 -0.26965199341E+01  0.40176763948E+01 -0.12678144053E+02  0.13570124549E+02  0.51100000000E-03 0. -1.
        -11    1    3    3    0    0 -0.21359624900E+02 -0.27974831236E+02 -0.90380696162E+01  0.36338842320E+02  0.51100000000E-03 0.  1.
         12    1    3    3    0    0  0.23005726803E+02  0.24453324781E+02  0.21924528482E+02  0.40098796836E+02  0.00000000000E+00 0. -1.
</event>
<event>
 7    1  0.2232484E-015  0.9000770E+02  0.7816164E-02  0.1186339E+00
        -11   -1    0    0    0    0  0.00000000000E+00  0.00000000000E+00  0.45593999997E+02  0.45594000000E+02  0.51100000000E-03 0.  1.
         11   -1    0    0    0    0 -0.00000000000E+00 -0.00000000000E+00 -0.45593999997E+02  0.45594000000E+02  0.51100000000E-03 0. -1.
    9900012    2    1    2    0    0 -0.37987183291E+00  0.10538481054E+01 -0.37177009434E+00  0.90007698580E+02  0.89999959401E+02 0.  0.
        -12    1    1    2    0    0  0.37987183291E+00 -0.10538481054E+01  0.37177009434E+00  0.11803014198E+01  0.00000000000E+00 0.  1.
         11    1    3    3    0    0  0.80160065024E+01  0.28322172119E+01  0.12080038645E+01  0.85870302305E+01  0.51100000000E-03 0. -1.
        -11    1    3    3    0    0  0.62522893138E+01  0.37243197502E+02 -0.96234940174E+01  0.38971252471E+02  0.51100000000E-03 0.  1.
         12    1    3    3    0    0 -0.14648167649E+02 -0.39021566608E+02  0.80437200586E+01  0.42449415878E+02  0.00000000000E+00 0. -1.
</event>
<event>
 7    1  0.2232484E-015  0.9000781E+02  0.7816164E-02  0.1186339E+00
        -11   -1    0    0    0    0  0.00000000000E+00  0.00000000000E+00  0.45593999997E+02  0.45594000000E+02  0.51100000000E-03 0. -1.
         11   -1    0    0    0    0 -0.00000000000E+00 -0.00000000000E+00 -0.45593999997E+02  0.45594000000E+02  0.51100000000E-03 0.  1.
    9900012    2    1    2    0    0  0.54208973104E+00 -0.75235174611E+00 -0.73004329591E+00  0.90007806101E+02  0.90000068341E+02 0.  0.
        -12    1    1    2    0    0 -0.54208973104E+00  0.75235174611E+00  0.73004329591E+00  0.11801938994E+01  0.00000000000E+00 0.  1.
         11    1    3    3    0    0  0.24302473634E+01  0.21582503576E+01 -0.12821068736E+02  0.13226637919E+02  0.51100000000E-03 0. -1.
        -11    1    3    3    0    0  0.23198812438E+02  0.14137840858E+01 -0.23480981586E+02  0.33038465165E+02  0.51100000000E-03 0.  1.
         12    1    3    3    0    0 -0.25086970071E+02 -0.43243861895E+01  0.35572007026E+02  0.43742703016E+02  0.00000000000E+00 0. -1.
</event>
<event>
 7    1  0.2232484E-015  0.9000779E+02  0.7816164E-02  0.1186339E+00
        -11   -1    0    0    0    0  0.00000000000E+00  0.00000000000E+00  0.45593999997E+02  0.45594000000E+02  0.51100000000E-03 0.  1.
         11   -1    0    0    0    0 -0.00000000000E+00 -0.00000000000E+00 -0.45593999997E+02  0.45594000000E+02  0.51100000000E-03 0. -1.
    9900012    2    1    2    0    0  0.68797566397E+00  0.67759633162E+00 -0.67856573794E+00  0.90007788678E+02  0.90000050689E+02 0.  0.
        -12    1    1    2    0    0 -0.68797566397E+00 -0.67759633162E+00  0.67856573794E+00  0.11802113216E+01  0.00000000000E+00 0.  1.
         11    1    3    3    0    0 -0.22018963730E+02  0.19707772894E+02 -0.19750288738E+02  0.35543001866E+02  0.51100000000E-03 0. -1.
        -11    1    3    3    0    0 -0.26206422628E+01  0.27372040456E+01 -0.96810892511E+01  0.10396323447E+02  0.51100000000E-03 0.  1.
        -12    1    3    3    0    0  0.25327581656E+02 -0.21767380608E+02  0.28752812251E+02  0.44068463366E+02  0.00000000000E+00 0.  1.
</event>
<event>
 7    1  0.2232484E-015  0.9000781E+02  0.7816164E-02  0.1186339E+00
        -11   -1    0    0    0    0  0.00000000000E+00  0.00000000000E+00  0.45593999997E+02  0.45594000000E+02  0.51100000000E-03 0. -1.
         11   -1    0    0    0    0 -0.00000000000E+00 -0.00000000000E+00 -0.45593999997E+02  0.45594000000E+02  0.51100000000E-03 0.  1.
    9900012    2    1    2    0    0 -0.31694986806E-01 -0.23341628170E-01  0.11795295995E+01  0.90007813794E+02  0.90000076136E+02 0.  0.
        -12    1    1    2    0    0  0.31694986806E-01  0.23341628170E-01 -0.11795295995E+01  0.11801862056E+01  0.00000000000E+00 0.  1.
         11    1    3    3    0    0 -0.12294905636E+02  0.75361862185E+00  0.37527900375E+01  0.12876959227E+02  0.51100000000E-03 0. -1.
        -11    1    3    3    0    0 -0.80639254246E+01 -0.31832406081E+02 -0.17399457122E+02  0.37162751224E+02  0.51100000000E-03 0.  1.
         12    1    3    3    0    0  0.20327136073E+02  0.31055445831E+02  0.14826196684E+02  0.39968103343E+02  0.00000000000E+00 0. -1.
</event>
<event>
 7    1  0.2232484E-015  0.9000781E+02  0.7816164E-02  0.1186339E+00
        -11   -1    0    0    0    0  0.00000000000E+00  0.00000000000E+00  0.45593999997E+02  0.45594000000E+02  0.51100000000E-03 0. -1.
         11   -1    0    0    0    0 -0.00000000000E+00 -0.00000000000E+00 -0.45593999997E+02  0.45594000000E+02  0.51100000000E-03 0.  1.
    9900012    2    1    2    0    0 -0.11203869108E+01 -0.16101584341E+00  0.33416111172E+00  0.90007806550E+02  0.90000068796E+02 0.  0.
        -12    1    1    2    0    0  0.11203869108E+01  0.16101584341E+00 -0.33416111172E+00  0.11801934504E+01  0.00000000000E+00 0.  1.
         11    1    3    3    0    0  0.15947914116E+02  0.61069642289E+01  0.34264288872E+02  0.38284102038E+02  0.51100000000E-03 0. -1.
        -11    1    3    3    0    0  0.75878814269E+01 -0.31081554091E+01  0.16067468652E+01  0.83557291929E+01  0.51100000000E-03 0.  1.
        -12    1    3    3    0    0 -0.24656182454E+02 -0.31598246632E+01 -0.35536874625E+02  0.43367975318E+02  0.00000000000E+00 0.  1.
</event>
<event>
 7    1  0.2232484E-015  0.9000769E+02  0.7816164E-02  0.1186339E+00
        -11   -1    0    0    0    0  0.00000000000E+00  0.00000000000E+00  0.45593999997E+02  0.45594000000E+02  0.51100000000E-03 0. -1.
         11   -1    0    0    0    0 -0.00000000000E+00 -0.00000000000E+00 -0.45593999997E+02  0.45594000000E+02  0.51100000000E-03 0.  1.
    9900012    2    1    2    0    0  0.91926043555E+00 -0.40252995188E-01  0.73923331344E+00  0.90007692437E+02  0.89999953177E+02 0.  0.
        -12    1    1    2    0    0 -0.91926043555E+00  0.40252995188E-01 -0.73923331344E+00  0.11803075632E+01  0.00000000000E+00 0.  1.
         11    1    3    3    0    0  0.17215881809E+01  0.20843166446E+01  0.88458145839E+01  0.92496852732E+01  0.51100000000E-03 0. -1.
        -11    1    3    3    0    0  0.20759317314E+02 -0.11248968368E+02  0.28682512309E+02  0.37150707359E+02  0.51100000000E-03 0.  1.
         12    1    3    3    0    0 -0.21561645059E+02  0.91243987287E+01 -0.36789093579E+02  0.43607299804E+02  0.00000000000E+00 0. -1.
</event>
<event>
 7    1  0.2232484E-015  0.9000777E+02  0.7816164E-02  0.1186339E+00
        -11   -1    0    0    0    0  0.00000000000E+00  0.00000000000E+00  0.45593999997E+02  0.45594000000E+02  0.51100000000E-03 0. -1.
         11   -1    0    0    0    0 -0.00000000000E+00 -0.00000000000E+00 -0.45593999997E+02  0.45594000000E+02  0.51100000000E-03 0.  1.
    9900012    2    1    2    0    0  0.10582178715E+01  0.37420119007E+00 -0.36482530457E+00  0.90007767355E+02  0.90000029084E+02 0.  0.
        -12    1    1    2    0    0 -0.10582178715E+01 -0.37420119007E+00  0.36482530457E+00  0.11802326453E+01  0.00000000000E+00 0.  1.
         11    1    3    3    0    0  0.23548341526E+02 -0.14050571236E+02  0.25896149927E+02  0.37716753864E+02  0.51100000000E-03 0. -1.
        -11    1    3    3    0    0 -0.71108520672E+01  0.18456812531E+02  0.19842168041E+01  0.19878512583E+02  0.51100000000E-03 0.  1.
        -12    1    3    3    0    0 -0.15379271587E+02 -0.40320401052E+01 -0.28245192036E+02  0.32412500908E+02  0.00000000000E+00 0.  1.
</event>
<event>
 7    1  0.2232484E-015  0.9000773E+02  0.7816164E-02  0.1186339E+00
        -11   -1    0    0    0    0  0.00000000000E+00  0.00000000000E+00  0.45593999997E+02  0.45594000000E+02  0.51100000000E-03 0.  1.
         11   -1    0    0    0    0 -0.00000000000E+00 -0.00000000000E+00 -0.45593999997E+02  0.45594000000E+02  0.51100000000E-03 0. -1.
    9900012    2    1    2    0    0  0.22076223225E+00  0.65037974009E+00 -0.95984519123E+00  0.90007731996E+02  0.89999993259E+02 0.  0.
        -12    1    1    2    0    0 -0.22076223225E+00 -0.65037974009E+00  0.95984519123E+00  0.11802680037E+01  0.00000000000E+00 0.  1.
         11    1    3    3    0    0  0.14119937279E+01  0.13190284791E+01  0.11911308675E+02  0.12067014420E+02  0.51100000000E-03 0. -1.
        -11    1    3    3    0    0 -0.15127830322E+02 -0.35787672181E+02 -0.95608078686E+01  0.40012720199E+02  0.51100000000E-03 0.  1.
         12    1    3    3    0    0  0.13936598826E+02  0.35119023442E+02 -0.33103459972E+01  0.37927997377E+02  0.00000000000E+00 0. -1.
</event>
<event>
 7    1  0.2232484E-015  0.9000773E+02  0.7816164E-02  0.1186339E+00
        -11   -1    0    0    0    0  0.00000000000E+00  0.00000000000E+00  0.45593999997E+02  0.45594000000E+02  0.51100000000E-03 0.  1.
         11   -1    0    0    0    0 -0.00000000000E+00 -0.00000000000E+00 -0.45593999997E+02  0.45594000000E+02  0.51100000000E-03 0. -1.
    9900012    2    1    2    0    0  0.98680754742E+00 -0.47403001699E+00 -0.44108321289E+00  0.90007725458E+02  0.89999986635E+02 0.  0.
        -12    1    1    2    0    0 -0.98680754742E+00  0.47403001699E+00  0.44108321289E+00  0.11802745415E+01  0.00000000000E+00 0.  1.
         11    1    3    3    0    0 -0.17491483304E+02  0.10309244752E+02 -0.35210942974E+02  0.40645332093E+02  0.51100000000E-03 0. -1.
        -11    1    3    3    0    0 -0.67134561211E+01  0.12676404018E+01  0.45131159274E+01  0.81881390385E+01  0.51100000000E-03 0.  1.
        -12    1    3    3    0    0  0.25191746972E+02 -0.12050915171E+02  0.30256743834E+02  0.41174254327E+02  0.00000000000E+00 0.  1.
</event>
<event>
 7    1  0.2232484E-015  0.9000774E+02  0.7816164E-02  0.1186339E+00
        -11   -1    0    0    0    0  0.00000000000E+00  0.00000000000E+00  0.45593999997E+02  0.45594000000E+02  0.51100000000E-03 0.  1.
         11   -1    0    0    0    0 -0.00000000000E+00 -0.00000000000E+00 -0.45593999997E+02  0.45594000000E+02  0.51100000000E-03 0. -1.
    9900012    2    1    2    0    0  0.90307670206E+00  0.41322028541E+00 -0.63773801221E+00  0.90007742271E+02  0.90000003669E+02 0.  0.
        -12    1    1    2    0    0 -0.90307670206E+00 -0.41322028541E+00  0.63773801221E+00  0.11802577288E+01  0.00000000000E+00 0.  1.
         11    1    3    3    0    0  0.29040036140E+02 -0.38574106439E+01 -0.25809051468E+02  0.39042418647E+02  0.51100000000E-03 0. -1.
        -11    1    3    3    0    0  0.73330983394E+01  0.48116041007E+01  0.38661199470E+01  0.95850273334E+01  0.51100000000E-03 0.  1.
        -12    1    3    3    0    0 -0.35470057777E+02 -0.54097317134E+00  0.21305193509E+02  0.41380296291E+02  0.00000000000E+00 0.  1.
</event>
<event>
 7    1  0.2232484E-015  0.9000777E+02  0.7816164E-02  0.1186339E+00
        -11   -1    0    0    0    0  0.00000000000E+00  0.00000000000E+00  0.45593999997E+02  0.45594000000E+02  0.51100000000E-03 0.  1.
         11   -1    0    0    0    0 -0.00000000000E+00 -0.00000000000E+00 -0.45593999997E+02  0.45594000000E+02  0.51100000000E-03 0. -1.
    9900012    2    1    2    0    0 -0.10436937374E+01 -0.40932254929E+00 -0.36890686297E+00  0.90007773818E+02  0.90000035633E+02 0.  0.
        -12    1    1    2    0    0  0.10436937374E+01  0.40932254929E+00  0.36890686297E+00  0.11802261819E+01  0.00000000000E+00 0.  1.
         11    1    3    3    0    0 -0.25437329297E+02 -0.19503475027E+02 -0.16815269519E+02  0.36196637263E+02  0.51100000000E-03 0. -1.
        -11    1    3    3    0    0 -0.85617097286E+01  0.60492120493E+01 -0.57842732543E+01  0.11973038764E+02  0.51100000000E-03 0.  1.
        -12    1    3    3    0    0  0.32955345288E+02  0.13044940429E+02  0.22230635910E+02  0.41838097791E+02  0.00000000000E+00 0.  1.
</event>
<event>
 7    1  0.2232484E-015  0.9000799E+02  0.7816164E-02  0.1186339E+00
        -11   -1    0    0    0    0  0.00000000000E+00  0.00000000000E+00  0.45593999997E+02  0.45594000000E+02  0.51100000000E-03 0.  1.
         11   -1    0    0    0    0 -0.00000000000E+00 -0.00000000000E+00 -0.45593999997E+02  0.45594000000E+02  0.51100000000E-03 0. -1.
    9900012    2    1    2    0    0 -0.31711698370E-01 -0.10623048356E+01 -0.51277264691E+00  0.90007986024E+02  0.90000250639E+02 0.  0.
        -12    1    1    2    0    0  0.31711698370E-01  0.10623048356E+01  0.51277264691E+00  0.11800139758E+01  0.00000000000E+00 0.  1.
         11    1    3    3    0    0 -0.13778017532E+02  0.14499496737E+02 -0.11158654718E+02  0.22903815143E+02  0.51100000000E-03 0. -1.
        -11    1    3    3    0    0  0.10143361378E+02 -0.31626137217E+01  0.36602467070E+02  0.38113390055E+02  0.51100000000E-03 0.  1.
         12    1    3    3    0    0  0.36029444559E+01 -0.12399187851E+02 -0.25956584999E+02  0.28990780826E+02  0.00000000000E+00 0. -1.
</event>
<event>
 7    1  0.2232484E-015  0.9000776E+02  0.7816164E-02  0.1186339E+00
        -11   -1    0    0    0    0  0.00000000000E+00  0.00000000000E+00  0.45593999997E+02  0.45594000000E+02  0.51100000000E-03 0.  1.
         11   -1    0    0    0    0 -0.00000000000E+00 -0.00000000000E+00 -0.45593999997E+02  0.45594000000E+02  0.51100000000E-03 0. -1.
    9900012    2    1    2    0    0 -0.12481437611E+00  0.42663135373E+00 -0.10933279757E+01  0.90007763158E+02  0.90000024832E+02 0.  0.
        -12    1    1    2    0    0  0.12481437611E+00 -0.42663135373E+00  0.10933279757E+01  0.11802368419E+01  0.00000000000E+00 0.  1.
         11    1    3    3    0    0  0.88552500183E+01 -0.80625021059E+01  0.14613395914E+01  0.12064613825E+02  0.51100000000E-03 0. -1.
        -11    1    3    3    0    0  0.25485094373E+02  0.11290844332E+02  0.22018955864E+02  0.35521931514E+02  0.51100000000E-03 0.  1.
         12    1    3    3    0    0 -0.34465158767E+02 -0.28017108727E+01 -0.24573623431E+02  0.42421217818E+02  0.00000000000E+00 0. -1.
</event>
<event>
 7    1  0.2232484E-015  0.9000721E+02  0.7816164E-02  0.1186340E+00
        -11   -1    0    0    0    0  0.00000000000E+00  0.00000000000E+00  0.45593999997E+02  0.45594000000E+02  0.51100000000E-03 0. -1.
         11   -1    0    0    0    0 -0.00000000000E+00 -0.00000000000E+00 -0.45593999997E+02  0.45594000000E+02  0.51100000000E-03 0.  1.
    9900012    2    1    2    0    0  0.14934019184E+00 -0.84318038548E+00  0.81302625265E+00  0.90007209018E+02  0.89999463376E+02 0.  0.
        -12    1    1    2    0    0 -0.14934019184E+00  0.84318038548E+00 -0.81302625265E+00  0.11807909819E+01  0.00000000000E+00 0.  1.
         11    1    3    3    0    0 -0.34528746365E+02 -0.14374893321E+02  0.68284062898E+01  0.38019718782E+02  0.51100000000E-03 0. -1.
        -11    1    3    3    0    0 -0.68957434381E+01 -0.66475077162E+00 -0.40237595226E+01  0.80114800199E+01  0.51100000000E-03 0.  1.
        -12    1    3    3    0    0  0.41573829995E+02  0.14196463707E+02 -0.19916205146E+01  0.43976010216E+02  0.00000000000E+00 0.  1.
</event>
<event>
 7    1  0.2232484E-015  0.9000774E+02  0.7816164E-02  0.1186339E+00
        -11   -1    0    0    0    0  0.00000000000E+00  0.00000000000E+00  0.45593999997E+02  0.45594000000E+02  0.51100000000E-03 0.  1.
         11   -1    0    0    0    0 -0.00000000000E+00 -0.00000000000E+00 -0.45593999997E+02  0.45594000000E+02  0.51100000000E-03 0. -1.
    9900012    2    1    2    0    0 -0.14252354429E+00 -0.99032211527E+00  0.62607212280E+00  0.90007738522E+02  0.89999999871E+02 0.  0.
        -12    1    1    2    0    0  0.14252354429E+00  0.99032211527E+00 -0.62607212280E+00  0.11802614776E+01  0.00000000000E+00 0.  1.
         11    1    3    3    0    0 -0.10758458310E+01  0.61760334811E+01 -0.57429811358E+01  0.85019213357E+01  0.51100000000E-03 0. -1.
        -11    1    3    3    0    0  0.15069886518E+02  0.31570169724E+02 -0.11130821227E+02  0.36710656185E+02  0.51100000000E-03 0.  1.
         12    1    3    3    0    0 -0.14136564231E+02 -0.38736525320E+02  0.17499874485E+02  0.44795161002E+02  0.00000000000E+00 0. -1.
</event>
<event>
 7    1  0.2232484E-015  0.9000777E+02  0.7816164E-02  0.1186339E+00
        -11   -1    0    0    0    0  0.00000000000E+00  0.00000000000E+00  0.45593999997E+02  0.45594000000E+02  0.51100000000E-03 0.  1.
         11   -1    0    0    0    0 -0.00000000000E+00 -0.00000000000E+00 -0.45593999997E+02  0.45594000000E+02  0.51100000000E-03 0. -1.
    9900012    2    1    2    0    0  0.11528512938E+01 -0.11359477850E+00 -0.22579392087E+00  0.90007765797E+02  0.90000027505E+02 0.  0.
        -12    1    1    2    0    0 -0.11528512938E+01  0.11359477850E+00  0.22579392087E+00  0.11802342031E+01  0.00000000000E+00 0.  1.
         11    1    3    3    0    0  0.19994298442E+02  0.14777005443E+02 -0.31601869458E+02  0.40209576142E+02  0.51100000000E-03 0. -1.
        -11    1    3    3    0    0  0.82529794005E+01 -0.15164919341E+01  0.56685931783E+01  0.10126419192E+02  0.51100000000E-03 0.  1.
        -12    1    3    3    0    0 -0.27094426549E+02 -0.13374108287E+02  0.25707482358E+02  0.39671770463E+02  0.00000000000E+00 0.  1.
</event>
<event>
 7    1  0.2232484E-015  0.9000775E+02  0.7816164E-02  0.1186339E+00
        -11   -1    0    0    0    0  0.00000000000E+00  0.00000000000E+00  0.45593999997E+02  0.45594000000E+02  0.51100000000E-03 0. -1.
         11   -1    0    0    0    0 -0.00000000000E+00 -0.00000000000E+00 -0.45593999997E+02  0.45594000000E+02  0.51100000000E-03 0.  1.
    9900012    2    1    2    0    0  0.16335852531E+00 -0.21583393788E+00  0.11487951484E+01  0.90007745540E+02  0.90000006982E+02 0.  0.
        -12    1    1    2    0    0 -0.16335852531E+00  0.21583393788E+00 -0.11487951484E+01  0.11802544596E+01  0.00000000000E+00 0.  1.
         11    1    3    3    0    0  0.59498695107E+01 -0.45971609333E+01  0.25467912193E+01  0.79385755408E+01  0.51100000000E-03 0. -1.
        -11    1    3    3    0    0 -0.13483870749E+02 -0.34910589342E+02 -0.14209075826E+02  0.40030761356E+02  0.51100000000E-03 0.  1.
         12    1    3    3    0    0  0.76973597639E+01  0.39291916338E+02  0.12811079755E+02  0.42038408644E+02  0.00000000000E+00 0. -1.
</event>
<event>
 7    1  0.2772370E-015  0.9000777E+02  0.7816164E-02  0.1186339E+00
        -11   -1    0    0    0    0  0.00000000000E+00  0.00000000000E+00  0.45593999997E+02  0.45594000000E+02  0.51100000000E-03 0.  1.
         11   -1    0    0    0    0 -0.00000000000E+00 -0.00000000000E+00 -0.45593999997E+02  0.45594000000E+02  0.51100000000E-03 0. -1.
    9900012    2    1    2    0    0  0.63730344235E+00  0.30381573537E+00 -0.94577333415E+00  0.90007768295E+02  0.90000030036E+02 0.  0.
        -12    1    1    2    0    0 -0.63730344235E+00 -0.30381573537E+00  0.94577333415E+00  0.11802317053E+01  0.00000000000E+00 0.  1.
         11    1    3    3    0    0 -0.49395135787E+01 -0.33914613530E+01  0.69091223953E+01  0.91453144854E+01  0.51100000000E-03 0. -1.
        -11    1    3    3    0    0  0.57035512913E+01 -0.34357827010E+02  0.13351013581E+02  0.37299334284E+02  0.51100000000E-03 0.  1.
         12    1    3    3    0    0 -0.12673427018E+00  0.38053104098E+02 -0.21205909310E+02  0.43563119525E+02  0.00000000000E+00 0. -1.
</event>
<event>
 7    1  0.2232484E-015  0.9000906E+02  0.7816164E-02  0.1186336E+00
        -11   -1    0    0    0    0  0.00000000000E+00  0.00000000000E+00  0.45593999997E+02  0.45594000000E+02  0.51100000000E-03 0.  1.
         11   -1    0    0    0    0 -0.00000000000E+00 -0.00000000000E+00 -0.45593999997E+02  0.45594000000E+02  0.51100000000E-03 0. -1.
    9900012    2    1    2    0    0 -0.89209189543E+00 -0.72228095085E+00 -0.26903749020E+00  0.90009060267E+02  0.90001339053E+02 0.  0.
        -12    1    1    2    0    0  0.89209189543E+00  0.72228095085E+00  0.26903749020E+00  0.11789397326E+01  0.00000000000E+00 0.  1.
         11    1    3    3    0    0 -0.29235567806E+02 -0.67307529503E+01 -0.14088462416E+02  0.33143720879E+02  0.51100000000E-03 0. -1.
        -11    1    3    3    0    0 -0.10194685427E+02  0.12431778250E+02  0.34593886560E+01  0.16445306064E+02  0.51100000000E-03 0.  1.
        -12    1    3    3    0    0  0.38538161337E+02 -0.64233062502E+01  0.10360036270E+02  0.40420033324E+02  0.00000000000E+00 0.  1.
</event>
<event>
 7    1  0.2232484E-015  0.9000788E+02  0.7816164E-02  0.1186339E+00
        -11   -1    0    0    0    0  0.00000000000E+00  0.00000000000E+00  0.45593999997E+02  0.45594000000E+02  0.51100000000E-03 0.  1.
         11   -1    0    0    0    0 -0.00000000000E+00 -0.00000000000E+00 -0.45593999997E+02  0.45594000000E+02  0.51100000000E-03 0. -1.
    9900012    2    1    2    0    0 -0.10236706590E+01  0.58029863615E+00 -0.89583803766E-01  0.90007884165E+02  0.90000147436E+02 0.  0.
        -12    1    1    2    0    0  0.10236706590E+01 -0.58029863615E+00  0.89583803766E-01  0.11801158346E+01  0.00000000000E+00 0.  1.
         11    1    3    3    0    0  0.71097519760E+01  0.39817943081E+02  0.41110206472E+01  0.40656090016E+02  0.51100000000E-03 0. -1.
        -11    1    3    3    0    0 -0.84323465578E+01 -0.32383732148E+00  0.43718703464E+01  0.95038197409E+01  0.51100000000E-03 0.  1.
        -12    1    3    3    0    0  0.29892392279E+00 -0.38913807123E+02 -0.85724747973E+01  0.39847974409E+02  0.00000000000E+00 0.  1.
</event>
<event>
 7    1  0.2232484E-015  0.9000774E+02  0.7816164E-02  0.1186339E+00
        -11   -1    0    0    0    0  0.00000000000E+00  0.00000000000E+00  0.45593999997E+02  0.45594000000E+02  0.51100000000E-03 0. -1.
         11   -1    0    0    0    0 -0.00000000000E+00 -0.00000000000E+00 -0.45593999997E+02  0.45594000000E+02  0.51100000000E-03 0.  1.
    9900012    2    1    2    0    0 -0.85378275097E+00  0.81376696828E+00  0.43133065609E-01  0.90007736417E+02  0.89999997737E+02 0.  0.
        -12    1    1    2    0    0  0.85378275097E+00 -0.81376696828E+00 -0.43133065609E-01  0.11802635832E+01  0.00000000000E+00 0.  1.
         11    1    3    3    0    0  0.61822651588E+01 -0.14569790394E+02  0.38899170589E+02  0.41995769636E+02  0.51100000000E-03 0. -1.
        -11    1    3    3    0    0 -0.52134273239E+01 -0.49257505163E+01 -0.60404039133E+01  0.93770636293E+01  0.51100000000E-03 0.  1.
        -12    1    3    3    0    0 -0.18226205859E+01  0.20309307878E+02 -0.32815633610E+02  0.38634903151E+02  0.00000000000E+00 0.  1.
</event>
<event>
 7    1  0.2232484E-015  0.9000784E+02  0.7816164E-02  0.1186339E+00
        -11   -1    0    0    0    0  0.00000000000E+00  0.00000000000E+00  0.45593999997E+02  0.45594000000E+02  0.51100000000E-03 0.  1.
         11   -1    0    0    0    0 -0.00000000000E+00 -0.00000000000E+00 -0.45593999997E+02  0.45594000000E+02  0.51100000000E-03 0. -1.
    9900012    2    1    2    0    0  0.10932313075E+01 -0.43237172077E+00  0.10333838978E+00  0.90007839494E+02  0.90000102176E+02 0.  0.
        -12    1    1    2    0    0 -0.10932313075E+01  0.43237172077E+00 -0.10333838978E+00  0.11801605058E+01  0.00000000000E+00 0.  1.
         11    1    3    3    0    0  0.35688063193E+01 -0.55790839963E+01  0.63037436976E+01  0.91432894326E+01  0.51100000000E-03 0. -1.
        -11    1    3    3    0    0 -0.31002661193E+02  0.13535829069E+02  0.21617438643E+02  0.40145950274E+02  0.51100000000E-03 0.  1.
         12    1    3    3    0    0  0.28527086181E+02 -0.83891167938E+01 -0.27817843951E+02  0.40718599788E+02  0.00000000000E+00 0. -1.
</event>
<event>
 7    1  0.2605703E-015  0.9000774E+02  0.7816164E-02  0.1186339E+00
        -11   -1    0    0    0    0  0.00000000000E+00  0.00000000000E+00  0.45593999997E+02  0.45594000000E+02  0.51100000000E-03 0.  1.
         11   -1    0    0    0    0 -0.00000000000E+00 -0.00000000000E+00 -0.45593999997E+02  0.45594000000E+02  0.51100000000E-03 0. -1.
    9900012    2    1    2    0    0 -0.75395865651E+00 -0.90425025279E+00  0.83002886204E-01  0.90007740853E+02  0.90000002232E+02 0.  0.
        -12    1    1    2    0    0  0.75395865651E+00  0.90425025279E+00 -0.83002886204E-01  0.11802591472E+01  0.00000000000E+00 0.  1.
         11    1    3    3    0    0  0.42650938043E+00 -0.89135627510E+01  0.39486295821E+01  0.97583393569E+01  0.51100000000E-03 0. -1.
        -11    1    3    3    0    0  0.23124256852E+02 -0.24801743092E+02  0.12665348241E+02  0.36197634752E+02  0.51100000000E-03 0.  1.
         12    1    3    3    0    0 -0.24304724888E+02  0.32811055590E+02 -0.16530974937E+02  0.44051766743E+02  0.00000000000E+00 0. -1.
</event>
<event>
 7    1  0.2232484E-015  0.9000715E+02  0.7816164E-02  0.1186340E+00
        -11   -1    0    0    0    0  0.00000000000E+00  0.00000000000E+00  0.45593999997E+02  0.45594000000E+02  0.51100000000E-03 0.  1.
         11   -1    0    0    0    0 -0.00000000000E+00 -0.00000000000E+00 -0.45593999997E+02  0.45594000000E+02  0.51100000000E-03 0. -1.
    9900012    2    1    2    0    0  0.60198883394E+00  0.64131353901E+00 -0.78786902053E+00  0.90007148102E+02  0.89999401655E+02 0.  0.
        -12    1    1    2    0    0 -0.60198883394E+00 -0.64131353901E+00  0.78786902053E+00  0.11808518980E+01  0.00000000000E+00 0.  1.
         11    1    3    3    0    0  0.17131298786E+02  0.27887592057E+01 -0.31994748777E+02  0.36399485237E+02  0.51100000000E-03 0. -1.
        -11    1    3    3    0    0 -0.41591757083E+01 -0.17925738612E+01 -0.97883194693E+01  0.10785326231E+02  0.51100000000E-03 0.  1.
        -12    1    3    3    0    0 -0.12370134244E+02 -0.35487180552E+00  0.40995199225E+02  0.42822336633E+02  0.00000000000E+00 0.  1.
</event>
<event>
 7    1  0.2232484E-015  0.9000782E+02  0.7816164E-02  0.1186339E+00
        -11   -1    0    0    0    0  0.00000000000E+00  0.00000000000E+00  0.45593999997E+02  0.45594000000E+02  0.51100000000E-03 0. -1.
         11   -1    0    0    0    0 -0.00000000000E+00 -0.00000000000E+00 -0.45593999997E+02  0.45594000000E+02  0.51100000000E-03 0.  1.
    9900012    2    1    2    0    0 -0.88794095363E+00 -0.71290517330E+00  0.31010066168E+00  0.90007815547E+02  0.90000077912E+02 0.  0.
        -12    1    1    2    0    0  0.88794095363E+00  0.71290517330E+00 -0.31010066168E+00  0.11801844532E+01  0.00000000000E+00 0.  1.
         11    1    3    3    0    0 -0.40700875990E+01 -0.36105793380E+02  0.14902198016E+02  0.39271738371E+02  0.51100000000E-03 0. -1.
        -11    1    3    3    0    0 -0.25155466431E+01 -0.41856996550E+01 -0.91623354661E+01  0.10382506825E+02  0.51100000000E-03 0.  1.
        -12    1    3    3    0    0  0.56976932885E+01  0.39578587862E+02 -0.54297618884E+01  0.40353570351E+02  0.00000000000E+00 0.  1.
</event>
<event>
 7    1  0.2232484E-015  0.9000770E+02  0.7816164E-02  0.1186339E+00
        -11   -1    0    0    0    0  0.00000000000E+00  0.00000000000E+00  0.45593999997E+02  0.45594000000E+02  0.51100000000E-03 0.  1.
         11   -1    0    0    0    0 -0.00000000000E+00 -0.00000000000E+00 -0.45593999997E+02  0.45594000000E+02  0.51100000000E-03 0. -1.
    9900012    2    1    2    0    0  0.14629118493E+00  0.71363733039E+00 -0.92866984872E+00  0.90007700446E+02  0.89999961292E+02 0.  0.
        -12    1    1    2    0    0 -0.14629118493E+00 -0.71363733039E+00  0.92866984872E+00  0.11802995544E+01  0.00000000000E+00 0.  1.
         11    1    3    3    0    0  0.10891188596E+02 -0.61634396012E+00 -0.36219272485E+02  0.37826360762E+02  0.51100000000E-03 0. -1.
        -11    1    3    3    0    0  0.36672006678E+01 -0.58088466834E+01 -0.51985078818E+01  0.86148444552E+01  0.51100000000E-03 0.  1.
        -12    1    3    3    0    0 -0.14412098079E+02  0.71388279740E+01  0.40489110518E+02  0.43566495228E+02  0.00000000000E+00 0.  1.
</event>
<event>
 7    1  0.2232484E-015  0.9000770E+02  0.7816164E-02  0.1186339E+00
        -11   -1    0    0    0    0  0.00000000000E+00  0.00000000000E+00  0.45593999997E+02  0.45594000000E+02  0.51100000000E-03 0. -1.
         11   -1    0    0    0    0 -0.00000000000E+00 -0.00000000000E+00 -0.45593999997E+02  0.45594000000E+02  0.51100000000E-03 0.  1.
    9900012    2    1    2    0    0 -0.37873017098E+00  0.13049452777E+00  0.11102463895E+01  0.90007698170E+02  0.89999958986E+02 0.  0.
        -12    1    1    2    0    0  0.37873017098E+00 -0.13049452777E+00 -0.11102463895E+01  0.11803018299E+01  0.00000000000E+00 0.  1.
         11    1    3    3    0    0  0.40096951892E+01  0.14380903215E+01  0.10449027441E+02  0.11283968008E+02  0.51100000000E-03 0. -1.
        -11    1    3    3    0    0  0.20004036608E+02 -0.26815611473E+02  0.14154130406E+02  0.36325994922E+02  0.51100000000E-03 0.  1.
         12    1    3    3    0    0 -0.24392461968E+02  0.25508015679E+02 -0.23492911457E+02  0.42397735240E+02  0.00000000000E+00 0. -1.
</event>
<event>
 7    1  0.2232484E-015  0.9000778E+02  0.7816164E-02  0.1186339E+00
        -11   -1    0    0    0    0  0.00000000000E+00  0.00000000000E+00  0.45593999997E+02  0.45594000000E+02  0.51100000000E-03 0. -1.
         11   -1    0    0    0    0 -0.00000000000E+00 -0.00000000000E+00 -0.45593999997E+02  0.45594000000E+02  0.51100000000E-03 0.  1.
    9900012    2    1    2    0    0  0.38812044614E+00 -0.44308774949E+00  0.10227171763E+01  0.90007781945E+02  0.90000043867E+02 0.  0.
        -12    1    1    2    0    0 -0.38812044614E+00  0.44308774949E+00 -0.10227171763E+01  0.11802180549E+01  0.00000000000E+00 0.  1.
         11    1    3    3    0    0 -0.12427233540E+02  0.29658224313E+02  0.20145909154E+02  0.37946067764E+02  0.51100000000E-03 0. -1.
        -11    1    3    3    0    0  0.63009927854E+01  0.38351532746E+01  0.58597228718E+01  0.94205765809E+01  0.51100000000E-03 0.  1.
        -12    1    3    3    0    0  0.65143612008E+01 -0.33936465337E+02 -0.24982914850E+02  0.42641137600E+02  0.00000000000E+00 0.  1.
</event>
<event>
 7    1  0.2232484E-015  0.9000773E+02  0.7816164E-02  0.1186339E+00
        -11   -1    0    0    0    0  0.00000000000E+00  0.00000000000E+00  0.45593999997E+02  0.45594000000E+02  0.51100000000E-03 0. -1.
         11   -1    0    0    0    0 -0.00000000000E+00 -0.00000000000E+00 -0.45593999997E+02  0.45594000000E+02  0.51100000000E-03 0.  1.
    9900012    2    1    2    0    0 -0.10715464866E+01  0.49352756300E+00 -0.35478510176E-01  0.90007728822E+02  0.89999990043E+02 0.  0.
        -12    1    1    2    0    0  0.10715464866E+01 -0.49352756300E+00  0.35478510176E-01  0.11802711778E+01  0.00000000000E+00 0.  1.
         11    1    3    3    0    0 -0.79586103893E+01  0.70107937733E+01 -0.44911907133E+00  0.10615668460E+02  0.51100000000E-03 0. -1.
        -11    1    3    3    0    0  0.38928636597E+00  0.22645397562E+02 -0.29447687658E+02  0.37150126289E+02  0.51100000000E-03 0.  1.
         12    1    3    3    0    0  0.64977775368E+01 -0.29162663772E+02  0.29861328219E+02  0.42241934073E+02  0.00000000000E+00 0. -1.
</event>
<event>
 7    1  0.2232484E-015  0.9000768E+02  0.7816164E-02  0.1186339E+00
        -11   -1    0    0    0    0  0.00000000000E+00  0.00000000000E+00  0.45593999997E+02  0.45594000000E+02  0.51100000000E-03 0. -1.
         11   -1    0    0    0    0 -0.00000000000E+00 -0.00000000000E+00 -0.45593999997E+02  0.45594000000E+02  0.51100000000E-03 0.  1.
    9900012    2    1    2    0    0  0.11162135632E+01 -0.25145568472E+00  0.28980174993E+00  0.90007683206E+02  0.89999943824E+02 0.  0.
        -12    1    1    2    0    0 -0.11162135632E+01  0.25145568472E+00 -0.28980174993E+00  0.11803167940E+01  0.00000000000E+00 0.  1.
         11    1    3    3    0    0  0.18836182399E+02 -0.83522586353E+01 -0.16362880187E+02  0.26311705379E+02  0.51100000000E-03 0. -1.
        -11    1    3    3    0    0 -0.18640366252E+02  0.11385988997E+02 -0.18349864195E+02  0.28527557128E+02  0.51100000000E-03 0.  1.
         12    1    3    3    0    0  0.92039741585E+00 -0.32851860468E+01  0.35002546132E+02  0.35168420699E+02  0.00000000000E+00 0. -1.
</event>
<event>
 7    1  0.2232484E-015  0.9000774E+02  0.7816164E-02  0.1186339E+00
        -11   -1    0    0    0    0  0.00000000000E+00  0.00000000000E+00  0.45593999997E+02  0.45594000000E+02  0.51100000000E-03 0.  1.
         11   -1    0    0    0    0 -0.00000000000E+00 -0.00000000000E+00 -0.45593999997E+02  0.45594000000E+02  0.51100000000E-03 0. -1.
    9900012    2    1    2    0    0 -0.66457725065E+00 -0.93909105482E+00 -0.26352963936E+00  0.90007744603E+02  0.90000006032E+02 0.  0.
        -12    1    1    2    0    0  0.66457725065E+00  0.93909105482E+00  0.26352963936E+00  0.11802553970E+01  0.00000000000E+00 0.  1.
         11    1    3    3    0    0  0.43680784548E+02 -0.17116587365E+01 -0.67733817716E+00  0.43719555140E+02  0.51100000000E-03 0. -1.
        -11    1    3    3    0    0 -0.83966326053E+01  0.48373105509E+01 -0.24559888223E+01  0.99967441615E+01  0.51100000000E-03 0.  1.
        -12    1    3    3    0    0 -0.35948729193E+02 -0.40647428693E+01  0.28697973601E+01  0.36291445302E+02  0.00000000000E+00 0.  1.
</event>
<event>
 7    1  0.2232484E-015  0.9000745E+02  0.7816164E-02  0.1186340E+00
        -11   -1    0    0    0    0  0.00000000000E+00  0.00000000000E+00  0.45593999997E+02  0.45594000000E+02  0.51100000000E-03 0. -1.
         11   -1    0    0    0    0 -0.00000000000E+00 -0.00000000000E+00 -0.45593999997E+02  0.45594000000E+02  0.51100000000E-03 0.  1.
    9900012    2    1    2    0    0  0.11192253423E+01  0.38301733120E-01  0.37357664364E+00  0.90007452712E+02  0.89999710288E+02 0.  0.
        -12    1    1    2    0    0 -0.11192253423E+01 -0.38301733120E-01 -0.37357664364E+00  0.11805472876E+01  0.00000000000E+00 0.  1.
         11    1    3    3    0    0  0.19403552280E+00 -0.60144126134E+01  0.15750224393E+02  0.16860616167E+02  0.51100000000E-03 0. -1.
        -11    1    3    3    0    0 -0.34074485724E+02 -0.81139894368E+00  0.54383010219E+00  0.34088483349E+02  0.51100000000E-03 0.  1.
         12    1    3    3    0    0  0.34999675543E+02  0.68641132902E+01 -0.15920477851E+02  0.39058353196E+02  0.00000000000E+00 0. -1.
</event>
<event>
 7    1  0.2232484E-015  0.9000775E+02  0.7816164E-02  0.1186339E+00
        -11   -1    0    0    0    0  0.00000000000E+00  0.00000000000E+00  0.45593999997E+02  0.45594000000E+02  0.51100000000E-03 0.  1.
         11   -1    0    0    0    0 -0.00000000000E+00 -0.00000000000E+00 -0.45593999997E+02  0.45594000000E+02  0.51100000000E-03 0. -1.
    9900012    2    1    2    0    0  0.41348557505E+00  0.81256254244E+00 -0.74950433000E+00  0.90007752167E+02  0.90000013696E+02 0.  0.
        -12    1    1    2    0    0 -0.41348557505E+00 -0.81256254244E+00  0.74950433000E+00  0.11802478328E+01  0.00000000000E+00 0.  1.
         11    1    3    3    0    0  0.16938639761E+01  0.43122624449E+02  0.88033792462E+01  0.44044629650E+02  0.51100000000E-03 0. -1.
        -11    1    3    3    0    0  0.68912736548E+00 -0.58240373101E+01 -0.72869049699E+01  0.93537848712E+01  0.51100000000E-03 0.  1.
        -12    1    3    3    0    0 -0.19695057665E+01 -0.36486024597E+02 -0.22659786063E+01  0.36609337646E+02  0.00000000000E+00 0.  1.
</event>
<event>
 7    1  0.3546793E-015  0.9000775E+02  0.7816164E-02  0.1186339E+00
        -11   -1    0    0    0    0  0.00000000000E+00  0.00000000000E+00  0.45593999997E+02  0.45594000000E+02  0.51100000000E-03 0.  1.
         11   -1    0    0    0    0 -0.00000000000E+00 -0.00000000000E+00 -0.45593999997E+02  0.45594000000E+02  0.51100000000E-03 0. -1.
    9900012    2    1    2    0    0  0.10554238261E+01 -0.33682147127E+00  0.40695977356E+00  0.90007752393E+02  0.90000013925E+02 0.  0.
        -12    1    1    2    0    0 -0.10554238261E+01  0.33682147127E+00 -0.40695977356E+00  0.11802476068E+01  0.00000000000E+00 0.  1.
         11    1    3    3    0    0  0.32690412071E+01  0.82317740854E+01  0.36648258745E+01  0.95853890875E+01  0.51100000000E-03 0. -1.
        -11    1    3    3    0    0 -0.54567781679E+01  0.26159900823E+02  0.24184236909E+02  0.36041561484E+02  0.51100000000E-03 0.  1.
         12    1    3    3    0    0  0.32431607869E+01 -0.34728496380E+02 -0.27442103010E+02  0.44380801822E+02  0.00000000000E+00 0. -1.
</event>
<event>
 7    1  0.2232484E-015  0.9000763E+02  0.7816164E-02  0.1186339E+00
        -11   -1    0    0    0    0  0.00000000000E+00  0.00000000000E+00  0.45593999997E+02  0.45594000000E+02  0.51100000000E-03 0. -1.
         11   -1    0    0    0    0 -0.00000000000E+00 -0.00000000000E+00 -0.45593999997E+02  0.45594000000E+02  0.51100000000E-03 0.  1.
    9900012    2    1    2    0    0  0.29798570172E+00  0.10748147512E+01 -0.38632768778E+00  0.90007630858E+02  0.89999890786E+02 0.  0.
        -12    1    1    2    0    0 -0.29798570172E+00 -0.10748147512E+01  0.38632768778E+00  0.11803691415E+01  0.00000000000E+00 0.  1.
         11    1    3    3    0    0 -0.91641582293E+01 -0.33151859424E+01 -0.10961779666E+01  0.98068272280E+01  0.51100000000E-03 0. -1.
        -11    1    3    3    0    0  0.91900005659E+01 -0.87802541825E+01 -0.37599594238E+02  0.39689777790E+02  0.51100000000E-03 0.  1.
         12    1    3    3    0    0  0.27214336513E+00  0.13170254876E+02  0.38309444516E+02  0.40511025841E+02  0.00000000000E+00 0. -1.
</event>
<event>
 7    1  0.2232484E-015  0.9000770E+02  0.7816164E-02  0.1186339E+00
        -11   -1    0    0    0    0  0.00000000000E+00  0.00000000000E+00  0.45593999997E+02  0.45594000000E+02  0.51100000000E-03 0.  1.
         11   -1    0    0    0    0 -0.00000000000E+00 -0.00000000000E+00 -0.45593999997E+02  0.45594000000E+02  0.51100000000E-03 0. -1.
    9900012    2    1    2    0    0 -0.78898202998E+00 -0.21140718668E+00 -0.85200458747E+00  0.90007704503E+02  0.89999965403E+02 0.  0.
        -12    1    1    2    0    0  0.78898202998E+00  0.21140718668E+00  0.85200458747E+00  0.11802954966E+01  0.00000000000E+00 0.  1.
         11    1    3    3    0    0  0.32966147019E+01 -0.36142331304E+02  0.35674542768E+01  0.36467280003E+02  0.51100000000E-03 0. -1.
        -11    1    3    3    0    0 -0.87629296255E+01 -0.61640924509E+01  0.13372814519E+01  0.10796911286E+02  0.51100000000E-03 0.  1.
        -12    1    3    3    0    0  0.46773328936E+01  0.42095016568E+02 -0.57567403162E+01  0.42743513215E+02  0.00000000000E+00 0.  1.
</event>
<event>
 7    1  0.3322622E-015  0.9000771E+02  0.7816164E-02  0.1186339E+00
        -11   -1    0    0    0    0  0.00000000000E+00  0.00000000000E+00  0.45593999997E+02  0.45594000000E+02  0.51100000000E-03 0.  1.
         11   -1    0    0    0    0 -0.00000000000E+00 -0.00000000000E+00 -0.45593999997E+02  0.45594000000E+02  0.51100000000E-03 0. -1.
    9900012    2    1    2    0    0 -0.98584553452E+00  0.58336659729E+00 -0.28440279388E+00  0.90007706412E+02  0.89999967337E+02 0.  0.
        -12    1    1    2    0    0  0.98584553452E+00 -0.58336659729E+00  0.28440279388E+00  0.11802935880E+01  0.00000000000E+00 0.  1.
         11    1    3    3    0    0  0.44292218267E+01  0.30215611925E+00  0.83427761313E+01  0.94504612665E+01  0.51100000000E-03 0. -1.
        -11    1    3    3    0    0  0.32944994452E+02  0.16872466528E+02  0.31141650922E+01  0.37144997116E+02  0.51100000000E-03 0.  1.
         12    1    3    3    0    0 -0.38360061814E+02 -0.16591256050E+02 -0.11741344017E+02  0.43412248030E+02  0.00000000000E+00 0. -1.
</event>
<event>
 7    1  0.2232484E-015  0.9000768E+02  0.7816164E-02  0.1186339E+00
        -11   -1    0    0    0    0  0.00000000000E+00  0.00000000000E+00  0.45593999997E+02  0.45594000000E+02  0.51100000000E-03 0.  1.
         11   -1    0    0    0    0 -0.00000000000E+00 -0.00000000000E+00 -0.45593999997E+02  0.45594000000E+02  0.51100000000E-03 0. -1.
    9900012    2    1    2    0    0 -0.10380050952E-01 -0.96268875084E-01 -0.11763460685E+01  0.90007675674E+02  0.89999936193E+02 0.  0.
        -12    1    1    2    0    0  0.10380050952E-01  0.96268875084E-01  0.11763460685E+01  0.11803243261E+01  0.00000000000E+00 0.  1.
         11    1    3    3    0    0 -0.24582189247E+02  0.14711669575E+02 -0.24796526410E+02  0.37889114164E+02  0.51100000000E-03 0. -1.
        -11    1    3    3    0    0  0.65147153045E+00  0.94102722633E+01 -0.18400515235E+01  0.96105894250E+01  0.51100000000E-03 0.  1.
        -12    1    3    3    0    0  0.23920337666E+02 -0.24218210713E+02  0.25460231865E+02  0.42507972085E+02  0.00000000000E+00 0.  1.
</event>
<event>
 7    1  0.2232484E-015  0.9000768E+02  0.7816164E-02  0.1186339E+00
        -11   -1    0    0    0    0  0.00000000000E+00  0.00000000000E+00  0.45593999997E+02  0.45594000000E+02  0.51100000000E-03 0.  1.
         11   -1    0    0    0    0 -0.00000000000E+00 -0.00000000000E+00 -0.45593999997E+02  0.45594000000E+02  0.51100000000E-03 0. -1.
    9900012    2    1    2    0    0 -0.53936914933E+00  0.92267874162E+00 -0.50089938758E+00  0.90007679986E+02  0.89999940562E+02 0.  0.
        -12    1    1    2    0    0  0.53936914933E+00 -0.92267874162E+00  0.50089938758E+00  0.11803200142E+01  0.00000000000E+00 0.  1.
         11    1    3    3    0    0  0.35934820261E+01  0.93118439359E+01 -0.36422262905E+02  0.37765126584E+02  0.51100000000E-03 0. -1.
        -11    1    3    3    0    0  0.91716540337E+01 -0.70641014800E+01 -0.22534736189E+01  0.11794020139E+02  0.51100000000E-03 0.  1.
        -12    1    3    3    0    0 -0.13304505209E+02 -0.13250637143E+01  0.38174837136E+02  0.40448533262E+02  0.00000000000E+00 0.  1.
</event>
<event>
 7    1  0.2232484E-015  0.9000777E+02  0.7816164E-02  0.1186339E+00
        -11   -1    0    0    0    0  0.00000000000E+00  0.00000000000E+00  0.45593999997E+02  0.45594000000E+02  0.51100000000E-03 0. -1.
         11   -1    0    0    0    0 -0.00000000000E+00 -0.00000000000E+00 -0.45593999997E+02  0.45594000000E+02  0.51100000000E-03 0.  1.
    9900012    2    1    2    0    0  0.11450150517E+01  0.26081102419E+00  0.11770495156E+00  0.90007772770E+02  0.90000034570E+02 0.  0.
        -12    1    1    2    0    0 -0.11450150517E+01 -0.26081102419E+00 -0.11770495156E+00  0.11802272301E+01  0.00000000000E+00 0.  1.
         11    1    3    3    0    0  0.85835681032E+01 -0.18340888750E+01  0.52770882376E+01  0.10241542067E+02  0.51100000000E-03 0. -1.
        -11    1    3    3    0    0 -0.40020516890E+01 -0.19545180845E+02 -0.36458200154E+02  0.41559967164E+02  0.51100000000E-03 0.  1.
         12    1    3    3    0    0 -0.34365013625E+01  0.21640080744E+02  0.31298816868E+02  0.38206263538E+02  0.00000000000E+00 0. -1.
</event>
<event>
 7    1  0.2232484E-015  0.9000784E+02  0.7816164E-02  0.1186339E+00
        -11   -1    0    0    0    0  0.00000000000E+00  0.00000000000E+00  0.45593999997E+02  0.45594000000E+02  0.51100000000E-03 0. -1.
         11   -1    0    0    0    0 -0.00000000000E+00 -0.00000000000E+00 -0.45593999997E+02  0.45594000000E+02  0.51100000000E-03 0.  1.
    9900012    2    1    2    0    0  0.11540777499E+01 -0.16968662790E+00 -0.17915402884E+00  0.90007836803E+02  0.90000099449E+02 0.  0.
        -12    1    1    2    0    0 -0.11540777499E+01  0.16968662790E+00  0.17915402884E+00  0.11801631966E+01  0.00000000000E+00 0.  1.
         11    1    3    3    0    0 -0.21591092312E+01 -0.16289313865E+02  0.39013364423E+02  0.42332565511E+02  0.51100000000E-03 0. -1.
        -11    1    3    3    0    0 -0.28784376308E+01 -0.46505978185E+01 -0.76286999626E+01  0.93867207610E+01  0.51100000000E-03 0.  1.
        -12    1    3    3    0    0  0.61916246119E+01  0.20770225055E+02 -0.31563818489E+02  0.38288550532E+02  0.00000000000E+00 0.  1.
</event>
<event>
 7    1  0.2232484E-015  0.9000776E+02  0.7816164E-02  0.1186339E+00
        -11   -1    0    0    0    0  0.00000000000E+00  0.00000000000E+00  0.45593999997E+02  0.45594000000E+02  0.51100000000E-03 0.  1.
         11   -1    0    0    0    0 -0.00000000000E+00 -0.00000000000E+00 -0.45593999997E+02  0.45594000000E+02  0.51100000000E-03 0. -1.
    9900012    2    1    2    0    0 -0.72167041923E+00 -0.63227898590E+00 -0.68730575264E+00  0.90007756759E+02  0.90000018348E+02 0.  0.
        -12    1    1    2    0    0  0.72167041923E+00  0.63227898590E+00  0.68730575264E+00  0.11802432409E+01  0.00000000000E+00 0.  1.
         11    1    3    3    0    0  0.56035228342E+01  0.42975936492E+02 -0.43978338940E+01  0.43562271850E+02  0.51100000000E-03 0. -1.
        -11    1    3    3    0    0  0.17380712800E+01 -0.12843629904E+02 -0.42875987445E+01  0.13651491645E+02  0.51100000000E-03 0.  1.
        -12    1    3    3    0    0 -0.80632645334E+01 -0.30764585574E+02  0.79981268859E+01  0.32793993264E+02  0.00000000000E+00 0.  1.
</event>
<event>
 7    1  0.2232484E-015  0.9000771E+02  0.7816164E-02  0.1186339E+00
        -11   -1    0    0    0    0  0.00000000000E+00  0.00000000000E+00  0.45593999997E+02  0.45594000000E+02  0.51100000000E-03 0.  1.
         11   -1    0    0    0    0 -0.00000000000E+00 -0.00000000000E+00 -0.45593999997E+02  0.45594000000E+02  0.51100000000E-03 0. -1.
    9900012    2    1    2    0    0 -0.76690616872E-01 -0.99608965233E+00  0.62850265595E+00  0.90007706971E+02  0.89999967903E+02 0.  0.
        -12    1    1    2    0    0  0.76690616872E-01  0.99608965233E+00 -0.62850265595E+00  0.11802930292E+01  0.00000000000E+00 0.  1.
         11    1    3    3    0    0 -0.30635654490E+02 -0.21696869882E+02  0.15201496021E+02  0.40501641574E+02  0.51100000000E-03 0. -1.
        -11    1    3    3    0    0 -0.49524095744E+01  0.82402534042E+01 -0.19355905056E+01  0.98068673706E+01  0.51100000000E-03 0.  1.
        -12    1    3    3    0    0  0.35511373447E+02  0.12460526825E+02 -0.12637402860E+02  0.39699198026E+02  0.00000000000E+00 0.  1.
</event>
<event>
 7    1  0.2232484E-015  0.9000784E+02  0.7816164E-02  0.1186339E+00
        -11   -1    0    0    0    0  0.00000000000E+00  0.00000000000E+00  0.45593999997E+02  0.45594000000E+02  0.51100000000E-03 0.  1.
         11   -1    0    0    0    0 -0.00000000000E+00 -0.00000000000E+00 -0.45593999997E+02  0.45594000000E+02  0.51100000000E-03 0. -1.
    9900012    2    1    2    0    0  0.24083619078E+00  0.97771278328E+00 -0.61551559725E+00  0.90007837381E+02  0.90000100034E+02 0.  0.
        -12    1    1    2    0    0 -0.24083619078E+00 -0.97771278328E+00  0.61551559725E+00  0.11801626192E+01  0.00000000000E+00 0.  1.
         11    1    3    3    0    0 -0.38821952987E+02 -0.84808427560E+00  0.45329915635E+01  0.39094901119E+02  0.51100000000E-03 0. -1.
        -11    1    3    3    0    0 -0.13574073785E+01  0.92751589619E+01  0.69038439522E+00  0.93993488835E+01  0.51100000000E-03 0.  1.
        -12    1    3    3    0    0  0.40420196557E+02 -0.74493619030E+01 -0.58388915560E+01  0.41513587379E+02  0.00000000000E+00 0.  1.
</event>
<event>
 7    1  0.2232484E-015  0.9000773E+02  0.7816164E-02  0.1186339E+00
        -11   -1    0    0    0    0  0.00000000000E+00  0.00000000000E+00  0.45593999997E+02  0.45594000000E+02  0.51100000000E-03 0.  1.
         11   -1    0    0    0    0 -0.00000000000E+00 -0.00000000000E+00 -0.45593999997E+02  0.45594000000E+02  0.51100000000E-03 0. -1.
    9900012    2    1    2    0    0  0.38793891419E+00  0.12562463958E+00 -0.11075962921E+01  0.90007725584E+02  0.89999986762E+02 0.  0.
        -12    1    1    2    0    0 -0.38793891419E+00 -0.12562463958E+00  0.11075962921E+01  0.11802744162E+01  0.00000000000E+00 0.  1.
         11    1    3    3    0    0 -0.13532108360E+02  0.30716796274E+02  0.17098322939E+02  0.37669512574E+02  0.51100000000E-03 0. -1.
        -11    1    3    3    0    0 -0.13171920178E+01 -0.27073302979E+00  0.88419561201E+01  0.89436278699E+01  0.51100000000E-03 0.  1.
        -12    1    3    3    0    0  0.15237239292E+02 -0.30320438605E+02 -0.27047875351E+02  0.43394585139E+02  0.00000000000E+00 0.  1.
</event>
<event>
 7    1  0.2232484E-015  0.9000764E+02  0.7816164E-02  0.1186339E+00
        -11   -1    0    0    0    0  0.00000000000E+00  0.00000000000E+00  0.45593999997E+02  0.45594000000E+02  0.51100000000E-03 0.  1.
         11   -1    0    0    0    0 -0.00000000000E+00 -0.00000000000E+00 -0.45593999997E+02  0.45594000000E+02  0.51100000000E-03 0. -1.
    9900012    2    1    2    0    0  0.58559154433E+00 -0.70947901177E+00 -0.73957498927E+00  0.90007640271E+02  0.89999900323E+02 0.  0.
        -12    1    1    2    0    0 -0.58559154433E+00  0.70947901177E+00  0.73957498927E+00  0.11803597289E+01  0.00000000000E+00 0.  1.
         11    1    3    3    0    0  0.17730620516E+02 -0.26756975575E+02 -0.22101199065E+02  0.38971446550E+02  0.51100000000E-03 0. -1.
        -11    1    3    3    0    0 -0.15199158309E+02 -0.10762207738E+01 -0.17642570530E+01  0.15339011301E+02  0.51100000000E-03 0.  1.
        -12    1    3    3    0    0 -0.19458706619E+01  0.27123717337E+02  0.23125881129E+02  0.35697182421E+02  0.00000000000E+00 0.  1.
</event>
<event>
 7    1  0.2232484E-015  0.9000763E+02  0.7816164E-02  0.1186339E+00
        -11   -1    0    0    0    0  0.00000000000E+00  0.00000000000E+00  0.45593999997E+02  0.45594000000E+02  0.51100000000E-03 0. -1.
         11   -1    0    0    0    0 -0.00000000000E+00 -0.00000000000E+00 -0.45593999997E+02  0.45594000000E+02  0.51100000000E-03 0.  1.
    9900012    2    1    2    0    0 -0.15370068655E+00  0.64988201835E-01  0.11685169518E+01  0.90007627502E+02  0.89999887385E+02 0.  0.
        -12    1    1    2    0    0  0.15370068655E+00 -0.64988201835E-01 -0.11685169518E+01  0.11803724980E+01  0.00000000000E+00 0.  1.
         11    1    3    3    0    0  0.46605479650E+01 -0.26904535333E+01  0.82754555362E+01  0.98712923238E+01  0.51100000000E-03 0. -1.
        -11    1    3    3    0    0 -0.34397760843E+02  0.45270270076E+01  0.19937431482E+02  0.40015010920E+02  0.51100000000E-03 0.  1.
         12    1    3    3    0    0  0.29583512192E+02 -0.17715852725E+01 -0.27044370066E+02  0.40121324258E+02  0.00000000000E+00 0. -1.
</event>
<event>
 7    1  0.2688288E-015  0.9000769E+02  0.7816164E-02  0.1186339E+00
        -11   -1    0    0    0    0  0.00000000000E+00  0.00000000000E+00  0.45593999997E+02  0.45594000000E+02  0.51100000000E-03 0. -1.
         11   -1    0    0    0    0 -0.00000000000E+00 -0.00000000000E+00 -0.45593999997E+02  0.45594000000E+02  0.51100000000E-03 0.  1.
    9900012    2    1    2    0    0  0.66833859734E+00 -0.77195890951E+00  0.59206928473E+00  0.90007685179E+02  0.89999945823E+02 0.  0.
        -12    1    1    2    0    0 -0.66833859734E+00  0.77195890951E+00 -0.59206928473E+00  0.11803148210E+01  0.00000000000E+00 0.  1.
         11    1    3    3    0    0  0.50498114517E+01  0.82859199195E+01  0.19317813318E+01  0.98938791171E+01  0.51100000000E-03 0. -1.
        -11    1    3    3    0    0 -0.23758166710E+02 -0.64440679731E+01 -0.34043395280E+02  0.42011061161E+02  0.51100000000E-03 0.  1.
         12    1    3    3    0    0  0.19376693856E+02 -0.26138108558E+01  0.32703683233E+02  0.38102744901E+02  0.00000000000E+00 0. -1.
</event>
<event>
 7    1  0.2232484E-015  0.9000775E+02  0.7816164E-02  0.1186339E+00
        -11   -1    0    0    0    0  0.00000000000E+00  0.00000000000E+00  0.45593999997E+02  0.45594000000E+02  0.51100000000E-03 0.  1.
         11   -1    0    0    0    0 -0.00000000000E+00 -0.00000000000E+00 -0.45593999997E+02  0.45594000000E+02  0.51100000000E-03 0. -1.
    9900012    2    1    2    0    0  0.78420733308E+00  0.54363896567E+00 -0.69460167494E+00  0.90007747505E+02  0.90000008972E+02 0.  0.
        -12    1    1    2    0    0 -0.78420733308E+00 -0.54363896567E+00  0.69460167494E+00  0.11802524955E+01  0.00000000000E+00 0.  1.
         11    1    3    3    0    0  0.48952806492E+01  0.32660334477E+01 -0.10023370426E+02  0.11623196724E+02  0.51100000000E-03 0. -1.
        -11    1    3    3    0    0  0.25927160595E+02 -0.24937697078E+02  0.17707912361E+02  0.40095842085E+02  0.51100000000E-03 0.  1.
         12    1    3    3    0    0 -0.30038233911E+02  0.22215302595E+02 -0.83791436098E+01  0.38288708695E+02  0.00000000000E+00 0. -1.
</event>
<event>
 7    1  0.2232484E-015  0.9000776E+02  0.7816164E-02  0.1186339E+00
        -11   -1    0    0    0    0  0.00000000000E+00  0.00000000000E+00  0.45593999997E+02  0.45594000000E+02  0.51100000000E-03 0.  1.
         11   -1    0    0    0    0 -0.00000000000E+00 -0.00000000000E+00 -0.45593999997E+02  0.45594000000E+02  0.51100000000E-03 0. -1.
    9900012    2    1    2    0    0  0.10983298500E+01  0.12499841478E+00 -0.41354977804E+00  0.90007755753E+02  0.90000017329E+02 0.  0.
        -12    1    1    2    0    0 -0.10983298500E+01 -0.12499841478E+00  0.41354977804E+00  0.11802442467E+01  0.00000000000E+00 0.  1.
         11    1    3    3    0    0  0.26980636926E+02 -0.15510384977E+02 -0.25087726110E+02  0.39974001710E+02  0.51100000000E-03 0. -1.
        -11    1    3    3    0    0 -0.31541243700E+01 -0.89332663751E+01  0.90334712814E+01  0.13090277015E+02  0.51100000000E-03 0.  1.
        -12    1    3    3    0    0 -0.22728182706E+02  0.24568649767E+02  0.15640705050E+02  0.36943477029E+02  0.00000000000E+00 0.  1.
</event>
<event>
 7    1  0.2232484E-015  0.9000770E+02  0.7816164E-02  0.1186339E+00
        -11   -1    0    0    0    0  0.00000000000E+00  0.00000000000E+00  0.45593999997E+02  0.45594000000E+02  0.51100000000E-03 0.  1.
         11   -1    0    0    0    0 -0.00000000000E+00 -0.00000000000E+00 -0.45593999997E+02  0.45594000000E+02  0.51100000000E-03 0. -1.
    9900012    2    1    2    0    0 -0.96748134961E+00 -0.65325543587E+00 -0.17420313350E+00  0.90007699378E+02  0.89999960210E+02 0.  0.
        -12    1    1    2    0    0  0.96748134961E+00  0.65325543587E+00  0.17420313350E+00  0.11803006219E+01  0.00000000000E+00 0.  1.
         11    1    3    3    0    0 -0.29788678411E+01 -0.51498034595E+00 -0.62591599805E+01  0.69509670042E+01  0.51100000000E-03 0. -1.
        -11    1    3    3    0    0 -0.27989331618E+02  0.26115449531E+02  0.16755803721E+02  0.41787274944E+02  0.51100000000E-03 0.  1.
         12    1    3    3    0    0  0.30000718109E+02 -0.26253724621E+02 -0.10670846874E+02  0.41269457430E+02  0.00000000000E+00 0. -1.
</event>
<event>
 7    1  0.2232484E-015  0.9000778E+02  0.7816164E-02  0.1186339E+00
        -11   -1    0    0    0    0  0.00000000000E+00  0.00000000000E+00  0.45593999997E+02  0.45594000000E+02  0.51100000000E-03 0. -1.
         11   -1    0    0    0    0 -0.00000000000E+00 -0.00000000000E+00 -0.45593999997E+02  0.45594000000E+02  0.51100000000E-03 0.  1.
    9900012    2    1    2    0    0 -0.61228858082E+00 -0.35211080130E+00  0.94553389578E+00  0.90007782363E+02  0.90000044290E+02 0.  0.
        -12    1    1    2    0    0  0.61228858082E+00  0.35211080130E+00 -0.94553389578E+00  0.11802176370E+01  0.00000000000E+00 0.  1.
         11    1    3    3    0    0 -0.23996190867E+02  0.16182898458E+02 -0.55157746269E+00  0.28948361208E+02  0.51100000000E-03 0. -1.
        -11    1    3    3    0    0  0.59408518873E+01  0.14668027457E+02 -0.14895095388E+02  0.21732662458E+02  0.51100000000E-03 0.  1.
        -12    1    3    3    0    0  0.17443050399E+02 -0.31203036717E+02  0.16392206746E+02  0.39326758697E+02  0.00000000000E+00 0.  1.
</event>
<event>
 7    1  0.2232484E-015  0.9000781E+02  0.7816164E-02  0.1186339E+00
        -11   -1    0    0    0    0  0.00000000000E+00  0.00000000000E+00  0.45593999997E+02  0.45594000000E+02  0.51100000000E-03 0.  1.
         11   -1    0    0    0    0 -0.00000000000E+00 -0.00000000000E+00 -0.45593999997E+02  0.45594000000E+02  0.51100000000E-03 0. -1.
    9900012    2    1    2    0    0  0.82608272929E+00 -0.33125525961E-01 -0.84221647871E+00  0.90007814179E+02  0.90000076526E+02 0.  0.
        -12    1    1    2    0    0 -0.82608272929E+00  0.33125525961E-01  0.84221647871E+00  0.11801858214E+01  0.00000000000E+00 0.  1.
         11    1    3    3    0    0  0.41571359158E+01  0.39536828322E+01  0.59084732535E+01  0.82354989775E+01  0.51100000000E-03 0. -1.
        -11    1    3    3    0    0  0.34137525478E+02  0.18909445923E+01  0.15782412276E+02  0.37656750454E+02  0.51100000000E-03 0.  1.
         12    1    3    3    0    0 -0.37468578664E+02 -0.58777529505E+01 -0.22533102008E+02  0.44115564748E+02  0.00000000000E+00 0. -1.
</event>
<event>
 7    1  0.2300932E-015  0.9000775E+02  0.7816164E-02  0.1186339E+00
        -11   -1    0    0    0    0  0.00000000000E+00  0.00000000000E+00  0.45593999997E+02  0.45594000000E+02  0.51100000000E-03 0. -1.
         11   -1    0    0    0    0 -0.00000000000E+00 -0.00000000000E+00 -0.45593999997E+02  0.45594000000E+02  0.51100000000E-03 0.  1.
    9900012    2    1    2    0    0  0.75081179770E-01 -0.18694056296E+00  0.11629302740E+01  0.90007749696E+02  0.90000011192E+02 0.  0.
        -12    1    1    2    0    0 -0.75081179770E-01  0.18694056296E+00 -0.11629302740E+01  0.11802503039E+01  0.00000000000E+00 0.  1.
         11    1    3    3    0    0  0.88261222516E+01 -0.15827259729E+01 -0.35260394444E+01  0.96352690638E+01  0.51100000000E-03 0. -1.
        -11    1    3    3    0    0 -0.50457375955E+01  0.24423225166E+02 -0.29723960165E+02  0.38800350560E+02  0.51100000000E-03 0.  1.
         12    1    3    3    0    0 -0.37053034764E+01 -0.23027439756E+02  0.34412929884E+02  0.41572130072E+02  0.00000000000E+00 0. -1.
</event>
<event>
 7    1  0.2232484E-015  0.9000765E+02  0.7816164E-02  0.1186339E+00
        -11   -1    0    0    0    0  0.00000000000E+00  0.00000000000E+00  0.45593999997E+02  0.45594000000E+02  0.51100000000E-03 0.  1.
         11   -1    0    0    0    0 -0.00000000000E+00 -0.00000000000E+00 -0.45593999997E+02  0.45594000000E+02  0.51100000000E-03 0. -1.
    9900012    2    1    2    0    0  0.94637514440E+00  0.70493296435E+00 -0.25711970885E-01  0.90007653651E+02  0.89999913879E+02 0.  0.
        -12    1    1    2    0    0 -0.94637514440E+00 -0.70493296435E+00  0.25711970885E-01  0.11803463490E+01  0.00000000000E+00 0.  1.
         11    1    3    3    0    0 -0.65386151571E+01  0.16519354546E+01 -0.55943013408E+01  0.87623391097E+01  0.51100000000E-03 0. -1.
        -11    1    3    3    0    0 -0.96531942240E+01 -0.34613204525E+02 -0.14164009244E+02  0.38624826788E+02  0.51100000000E-03 0.  1.
         12    1    3    3    0    0  0.17138184525E+02  0.33666202035E+02  0.19732598614E+02  0.42620487754E+02  0.00000000000E+00 0. -1.
</event>
<event>
 7    1  0.2232484E-015  0.9000777E+02  0.7816164E-02  0.1186339E+00
        -11   -1    0    0    0    0  0.00000000000E+00  0.00000000000E+00  0.45593999997E+02  0.45594000000E+02  0.51100000000E-03 0.  1.
         11   -1    0    0    0    0 -0.00000000000E+00 -0.00000000000E+00 -0.45593999997E+02  0.45594000000E+02  0.51100000000E-03 0. -1.
    9900012    2    1    2    0    0 -0.23158611836E+00  0.74667790149E+00 -0.88418081316E+00  0.90007773018E+02  0.90000034822E+02 0.  0.
        -12    1    1    2    0    0  0.23158611836E+00 -0.74667790149E+00  0.88418081316E+00  0.11802269821E+01  0.00000000000E+00 0.  1.
         11    1    3    3    0    0  0.37229341559E+02 -0.10710441118E+02 -0.77180155521E+01  0.39500698553E+02  0.51100000000E-03 0. -1.
        -11    1    3    3    0    0  0.25326111058E+01  0.65648930064E+01  0.74001138696E+01  0.10211445771E+02  0.51100000000E-03 0.  1.
        -12    1    3    3    0    0 -0.39993538783E+02  0.48922260130E+01 -0.56627913066E+00  0.40295628694E+02  0.00000000000E+00 0.  1.
</event>
<event>
 7    1  0.2232484E-015  0.9000781E+02  0.7816164E-02  0.1186339E+00
        -11   -1    0    0    0    0  0.00000000000E+00  0.00000000000E+00  0.45593999997E+02  0.45594000000E+02  0.51100000000E-03 0.  1.
         11   -1    0    0    0    0 -0.00000000000E+00 -0.00000000000E+00 -0.45593999997E+02  0.45594000000E+02  0.51100000000E-03 0. -1.
    9900012    2    1    2    0    0  0.24121842078E+00 -0.20028418979E+00  0.11377831547E+01  0.90007809087E+02  0.90000071367E+02 0.  0.
        -12    1    1    2    0    0 -0.24121842078E+00  0.20028418979E+00 -0.11377831547E+01  0.11801909126E+01  0.00000000000E+00 0.  1.
         11    1    3    3    0    0 -0.12182865853E+01  0.74459607994E+01 -0.39475111446E+01  0.85152450891E+01  0.51100000000E-03 0. -1.
        -11    1    3    3    0    0 -0.26094954720E+02  0.26508621783E+02  0.55301671544E+01  0.37606335100E+02  0.51100000000E-03 0.  1.
         12    1    3    3    0    0  0.27554459726E+02 -0.34154866772E+02 -0.44487285518E+00  0.43886228898E+02  0.00000000000E+00 0. -1.
</event>
<event>
 7    1  0.2232484E-015  0.9000789E+02  0.7816164E-02  0.1186339E+00
        -11   -1    0    0    0    0  0.00000000000E+00  0.00000000000E+00  0.45593999997E+02  0.45594000000E+02  0.51100000000E-03 0.  1.
         11   -1    0    0    0    0 -0.00000000000E+00 -0.00000000000E+00 -0.45593999997E+02  0.45594000000E+02  0.51100000000E-03 0. -1.
    9900012    2    1    2    0    0 -0.11212107002E+01  0.10407571184E+00 -0.35315055387E+00  0.90007889623E+02  0.90000152966E+02 0.  0.
        -12    1    1    2    0    0  0.11212107002E+01 -0.10407571184E+00  0.35315055387E+00  0.11801103769E+01  0.00000000000E+00 0.  1.
         11    1    3    3    0    0 -0.13332355767E+02 -0.26653878427E+02 -0.25874007646E+02  0.39467014296E+02  0.51100000000E-03 0. -1.
        -11    1    3    3    0    0 -0.70204561230E+01  0.39974967398E+01 -0.36288438625E+01  0.88563701594E+01  0.51100000000E-03 0.  1.
        -12    1    3    3    0    0  0.19231601190E+02  0.22760457399E+02  0.29149700955E+02  0.41684505168E+02  0.00000000000E+00 0.  1.
</event>
<event>
 7    1  0.2232484E-015  0.9000781E+02  0.7816164E-02  0.1186339E+00
        -11   -1    0    0    0    0  0.00000000000E+00  0.00000000000E+00  0.45593999997E+02  0.45594000000E+02  0.51100000000E-03 0.  1.
         11   -1    0    0    0    0 -0.00000000000E+00 -0.00000000000E+00 -0.45593999997E+02  0.45594000000E+02  0.51100000000E-03 0. -1.
    9900012    2    1    2    0    0  0.23937716837E+00  0.62628967071E+00 -0.97124138692E+00  0.90007809332E+02  0.90000071615E+02 0.  0.
        -12    1    1    2    0    0 -0.23937716837E+00 -0.62628967071E+00  0.97124138692E+00  0.11801906677E+01  0.00000000000E+00 0.  1.
         11    1    3    3    0    0  0.17423594150E+02 -0.86049425711E+01 -0.32643828782E+02  0.37990080647E+02  0.51100000000E-03 0. -1.
        -11    1    3    3    0    0  0.44353565536E+01 -0.75449845896E+01 -0.16421944692E+01  0.89048292039E+01  0.51100000000E-03 0.  1.
        -12    1    3    3    0    0 -0.21619573536E+02  0.16776216831E+02  0.33314781864E+02  0.43112899481E+02  0.00000000000E+00 0.  1.
</event>
<event>
 7    1  0.2232484E-015  0.9000782E+02  0.7816164E-02  0.1186339E+00
        -11   -1    0    0    0    0  0.00000000000E+00  0.00000000000E+00  0.45593999997E+02  0.45594000000E+02  0.51100000000E-03 0.  1.
         11   -1    0    0    0    0 -0.00000000000E+00 -0.00000000000E+00 -0.45593999997E+02  0.45594000000E+02  0.51100000000E-03 0. -1.
    9900012    2    1    2    0    0  0.30664869403E+00  0.99719456235E-01 -0.11352720943E+01  0.90007821997E+02  0.90000084447E+02 0.  0.
        -12    1    1    2    0    0 -0.30664869403E+00 -0.99719456235E-01  0.11352720943E+01  0.11801780034E+01  0.00000000000E+00 0.  1.
         11    1    3    3    0    0 -0.43099596577E+01  0.52758870172E+01 -0.83027161838E+01  0.10739917707E+02  0.51100000000E-03 0. -1.
        -11    1    3    3    0    0 -0.18349746658E+02  0.29263914243E+02 -0.75088941508E+01  0.35347890614E+02  0.51100000000E-03 0.  1.
         12    1    3    3    0    0  0.22966355010E+02 -0.34440081804E+02  0.14676338240E+02  0.43920013675E+02  0.00000000000E+00 0. -1.
</event>
<event>
 7    1  0.2232484E-015  0.9000755E+02  0.7816164E-02  0.1186339E+00
        -11   -1    0    0    0    0  0.00000000000E+00  0.00000000000E+00  0.45593999997E+02  0.45594000000E+02  0.51100000000E-03 0. -1.
         11   -1    0    0    0    0 -0.00000000000E+00 -0.00000000000E+00 -0.45593999997E+02  0.45594000000E+02  0.51100000000E-03 0.  1.
    9900012    2    1    2    0    0 -0.66009125387E+00  0.30687797186E+00  0.92928392825E+00  0.90007549589E+02  0.89999808444E+02 0.  0.
        -12    1    1    2    0    0  0.66009125387E+00 -0.30687797186E+00 -0.92928392825E+00  0.11804504108E+01  0.00000000000E+00 0.  1.
         11    1    3    3    0    0  0.25368096473E+02 -0.45309106627E+01  0.15470244672E+02  0.30056578990E+02  0.51100000000E-03 0. -1.
        -11    1    3    3    0    0  0.61787222118E+01 -0.63451528233E+01  0.13269531666E+02  0.15953621639E+02  0.51100000000E-03 0.  1.
        -12    1    3    3    0    0 -0.32206909938E+02  0.11182941458E+02 -0.27810492410E+02  0.43997348960E+02  0.00000000000E+00 0.  1.
</event>
<event>
 7    1  0.2232484E-015  0.9000760E+02  0.7816164E-02  0.1186339E+00
        -11   -1    0    0    0    0  0.00000000000E+00  0.00000000000E+00  0.45593999997E+02  0.45594000000E+02  0.51100000000E-03 0. -1.
         11   -1    0    0    0    0 -0.00000000000E+00 -0.00000000000E+00 -0.45593999997E+02  0.45594000000E+02  0.51100000000E-03 0.  1.
    9900012    2    1    2    0    0 -0.45965108536E+00 -0.61644472834E+00  0.89557263632E+00  0.90007604486E+02  0.89999864065E+02 0.  0.
        -12    1    1    2    0    0  0.45965108536E+00  0.61644472834E+00 -0.89557263632E+00  0.11803955144E+01  0.00000000000E+00 0.  1.
         11    1    3    3    0    0  0.60242342509E+01 -0.18579897990E+00 -0.91829577643E+01  0.10984199249E+02  0.51100000000E-03 0. -1.
        -11    1    3    3    0    0 -0.37169568758E+02 -0.10071521531E+02 -0.11619175234E+02  0.40224589756E+02  0.51100000000E-03 0.  1.
         12    1    3    3    0    0  0.30685683422E+02  0.96408757827E+01  0.21697705635E+02  0.38798815481E+02  0.00000000000E+00 0. -1.
</event>
<event>
 7    1  0.2232484E-015  0.9000771E+02  0.7816164E-02  0.1186339E+00
        -11   -1    0    0    0    0  0.00000000000E+00  0.00000000000E+00  0.45593999997E+02  0.45594000000E+02  0.51100000000E-03 0. -1.
         11   -1    0    0    0    0 -0.00000000000E+00 -0.00000000000E+00 -0.45593999997E+02  0.45594000000E+02  0.51100000000E-03 0.  1.
    9900012    2    1    2    0    0  0.78278843721E+00  0.66893192431E+00  0.57693045796E+00  0.90007713420E+02  0.89999974437E+02 0.  0.
        -12    1    1    2    0    0 -0.78278843721E+00 -0.66893192431E+00 -0.57693045796E+00  0.11802865797E+01  0.00000000000E+00 0.  1.
         11    1    3    3    0    0 -0.33918127380E+02  0.39282804333E+01  0.12207101023E+02  0.36261330199E+02  0.51100000000E-03 0. -1.
        -11    1    3    3    0    0 -0.59266530458E+01  0.82721151701E+01 -0.33214132427E+01  0.10704433283E+02  0.51100000000E-03 0.  1.
        -12    1    3    3    0    0  0.40627568863E+02 -0.11531463679E+02 -0.83087573225E+01  0.43041949939E+02  0.00000000000E+00 0.  1.
</event>
<event>
 7    1  0.2232484E-015  0.9000776E+02  0.7816164E-02  0.1186339E+00
        -11   -1    0    0    0    0  0.00000000000E+00  0.00000000000E+00  0.45593999997E+02  0.45594000000E+02  0.51100000000E-03 0.  1.
         11   -1    0    0    0    0 -0.00000000000E+00 -0.00000000000E+00 -0.45593999997E+02  0.45594000000E+02  0.51100000000E-03 0. -1.
    9900012    2    1    2    0    0  0.56039852235E+00 -0.90186973727E+00 -0.51531246278E+00  0.90007761693E+02  0.90000023347E+02 0.  0.
        -12    1    1    2    0    0 -0.56039852235E+00  0.90186973727E+00  0.51531246278E+00  0.11802383069E+01  0.00000000000E+00 0.  1.
         11    1    3    3    0    0 -0.35667010839E+01  0.78416803196E+01 -0.34291253131E+01  0.92721199049E+01  0.51100000000E-03 0. -1.
        -11    1    3    3    0    0  0.10028607098E+02  0.29712448005E+02  0.21091681602E+02  0.37792347900E+02  0.51100000000E-03 0.  1.
         12    1    3    3    0    0 -0.59015074921E+01 -0.38455998061E+02 -0.18177868752E+02  0.42943293888E+02  0.00000000000E+00 0. -1.
</event>
<event>
 7    1  0.2232484E-015  0.9000765E+02  0.7816164E-02  0.1186339E+00
        -11   -1    0    0    0    0  0.00000000000E+00  0.00000000000E+00  0.45593999997E+02  0.45594000000E+02  0.51100000000E-03 0. -1.
         11   -1    0    0    0    0 -0.00000000000E+00 -0.00000000000E+00 -0.45593999997E+02  0.45594000000E+02  0.51100000000E-03 0.  1.
    9900012    2    1    2    0    0  0.87055784223E+00  0.78838172962E+00  0.11754906296E+00  0.90007646455E+02  0.89999906588E+02 0.  0.
        -12    1    1    2    0    0 -0.87055784223E+00 -0.78838172962E+00 -0.11754906296E+00  0.11803535447E+01  0.00000000000E+00 0.  1.
         11    1    3    3    0    0  0.16873327490E+02 -0.34327664208E+00  0.23784349653E+02  0.29163715608E+02  0.51100000000E-03 0. -1.
        -11    1    3    3    0    0  0.46450544728E+01  0.21496076668E+02  0.20442027295E+01  0.22087023525E+02  0.51100000000E-03 0.  1.
        -12    1    3    3    0    0 -0.20647824120E+02 -0.20364418296E+02 -0.25711003319E+02  0.38756907321E+02  0.00000000000E+00 0.  1.
</event>
<event>
 7    1  0.2232484E-015  0.9000793E+02  0.7816164E-02  0.1186339E+00
        -11   -1    0    0    0    0  0.00000000000E+00  0.00000000000E+00  0.45593999997E+02  0.45594000000E+02  0.51100000000E-03 0.  1.
         11   -1    0    0    0    0 -0.00000000000E+00 -0.00000000000E+00 -0.45593999997E+02  0.45594000000E+02  0.51100000000E-03 0. -1.
    9900012    2    1    2    0    0  0.71382054473E+00 -0.34047950491E+00 -0.87584322971E+00  0.90007929059E+02  0.90000192922E+02 0.  0.
        -12    1    1    2    0    0 -0.71382054473E+00  0.34047950491E+00  0.87584322971E+00  0.11800709412E+01  0.00000000000E+00 0.  1.
         11    1    3    3    0    0  0.31047322584E+02 -0.23776554359E+02 -0.24063672398E+01  0.39179731755E+02  0.51100000000E-03 0. -1.
        -11    1    3    3    0    0  0.68008411938E+01  0.80938992338E+01 -0.63649595852E+00  0.10590928813E+02  0.51100000000E-03 0.  1.
        -12    1    3    3    0    0 -0.37134343233E+02  0.15342175620E+02  0.21670199686E+01  0.40237268491E+02  0.00000000000E+00 0.  1.
</event>
<event>
 7    1  0.2232484E-015  0.9000771E+02  0.7816164E-02  0.1186339E+00
        -11   -1    0    0    0    0  0.00000000000E+00  0.00000000000E+00  0.45593999997E+02  0.45594000000E+02  0.51100000000E-03 0. -1.
         11   -1    0    0    0    0 -0.00000000000E+00 -0.00000000000E+00 -0.45593999997E+02  0.45594000000E+02  0.51100000000E-03 0.  1.
    9900012    2    1    2    0    0 -0.42249150048E+00 -0.83283166903E+00 -0.72178746532E+00  0.90007709865E+02  0.89999970836E+02 0.  0.
        -12    1    1    2    0    0  0.42249150048E+00  0.83283166903E+00  0.72178746532E+00  0.11802901347E+01  0.00000000000E+00 0.  1.
         11    1    3    3    0    0  0.28851007581E+01 -0.12099236469E+01  0.10552595809E+02  0.11006588944E+02  0.51100000000E-03 0. -1.
        -11    1    3    3    0    0 -0.13908275831E+02  0.26797330160E+02  0.20381845658E+02  0.36427416501E+02  0.51100000000E-03 0.  1.
         12    1    3    3    0    0  0.10600683572E+02 -0.26420238182E+02 -0.31656228932E+02  0.42573704420E+02  0.00000000000E+00 0. -1.
</event>
<event>
 7    1  0.2232484E-015  0.9000800E+02  0.7816164E-02  0.1186339E+00
        -11   -1    0    0    0    0  0.00000000000E+00  0.00000000000E+00  0.45593999997E+02  0.45594000000E+02  0.51100000000E-03 0.  1.
         11   -1    0    0    0    0 -0.00000000000E+00 -0.00000000000E+00 -0.45593999997E+02  0.45594000000E+02  0.51100000000E-03 0. -1.
    9900012    2    1    2    0    0 -0.54014976790E+00 -0.73899032541E+00 -0.74466194451E+00  0.90008004286E+02  0.90000269142E+02 0.  0.
        -12    1    1    2    0    0  0.54014976790E+00  0.73899032541E+00  0.74466194451E+00  0.11799957137E+01  0.00000000000E+00 0.  1.
         11    1    3    3    0    0  0.92940102502E+01 -0.23904931157E+01  0.49944902676E+01  0.10818411028E+02  0.51100000000E-03 0. -1.
        -11    1    3    3    0    0 -0.10504399913E+01 -0.73063404638E+01  0.35409607322E+02  0.36170793828E+02  0.51100000000E-03 0.  1.
         12    1    3    3    0    0 -0.87837200268E+01  0.89578432541E+01 -0.41148759534E+02  0.43018799431E+02  0.00000000000E+00 0. -1.
</event>
<event>
 7    1  0.2232484E-015  0.9000776E+02  0.7816164E-02  0.1186339E+00
        -11   -1    0    0    0    0  0.00000000000E+00  0.00000000000E+00  0.45593999997E+02  0.45594000000E+02  0.51100000000E-03 0.  1.
         11   -1    0    0    0    0 -0.00000000000E+00 -0.00000000000E+00 -0.45593999997E+02  0.45594000000E+02  0.51100000000E-03 0. -1.
    9900012    2    1    2    0    0 -0.76096002655E+00  0.34405320423E+00  0.83399306795E+00  0.90007755446E+02  0.90000017018E+02 0.  0.
        -12    1    1    2    0    0  0.76096002655E+00 -0.34405320423E+00 -0.83399306795E+00  0.11802445538E+01  0.00000000000E+00 0.  1.
         11    1    3    3    0    0 -0.10521703193E+02 -0.24513634352E+01  0.15875158272E+02  0.19202501691E+02  0.51100000000E-03 0. -1.
        -11    1    3    3    0    0 -0.48824635277E+01  0.12779632948E+02  0.24170917753E+02  0.27773921827E+02  0.51100000000E-03 0.  1.
         12    1    3    3    0    0  0.14643206694E+02 -0.99842163081E+01 -0.39212082958E+02  0.43031331927E+02  0.00000000000E+00 0. -1.
</event>
<event>
 7    1  0.2232484E-015  0.9000772E+02  0.7816164E-02  0.1186339E+00
        -11   -1    0    0    0    0  0.00000000000E+00  0.00000000000E+00  0.45593999997E+02  0.45594000000E+02  0.51100000000E-03 0.  1.
         11   -1    0    0    0    0 -0.00000000000E+00 -0.00000000000E+00 -0.45593999997E+02  0.45594000000E+02  0.51100000000E-03 0. -1.
    9900012    2    1    2    0    0  0.92096250061E+00 -0.35711626130E-01 -0.73729648968E+00  0.90007723184E+02  0.89999984330E+02 0.  0.
        -12    1    1    2    0    0 -0.92096250061E+00  0.35711626130E-01  0.73729648968E+00  0.11802768156E+01  0.00000000000E+00 0.  1.
         11    1    3    3    0    0  0.16826228325E+02  0.24888116380E+02  0.17564649149E+02  0.34800247076E+02  0.51100000000E-03 0. -1.
        -11    1    3    3    0    0  0.25124846240E+01  0.11166196278E+02 -0.56233804192E+01  0.12752212589E+02  0.51100000000E-03 0.  1.
        -12    1    3    3    0    0 -0.18417750449E+02 -0.36090024285E+02 -0.12678565219E+02  0.42455263519E+02  0.00000000000E+00 0.  1.
</event>
<event>
 7    1  0.2232484E-015  0.9000780E+02  0.7816164E-02  0.1186339E+00
        -11   -1    0    0    0    0  0.00000000000E+00  0.00000000000E+00  0.45593999997E+02  0.45594000000E+02  0.51100000000E-03 0. -1.
         11   -1    0    0    0    0 -0.00000000000E+00 -0.00000000000E+00 -0.45593999997E+02  0.45594000000E+02  0.51100000000E-03 0.  1.
    9900012    2    1    2    0    0  0.10204626891E+01 -0.33131419320E+00  0.49168330246E+00  0.90007802701E+02  0.90000064897E+02 0.  0.
        -12    1    1    2    0    0 -0.10204626891E+01  0.33131419320E+00 -0.49168330246E+00  0.11801972989E+01  0.00000000000E+00 0.  1.
         11    1    3    3    0    0 -0.53940054153E+01  0.35826775842E+01  0.19023893387E+02  0.20095755595E+02  0.51100000000E-03 0. -1.
        -11    1    3    3    0    0  0.60927478415E+00  0.27700783771E+02  0.73248988873E+01  0.28659357656E+02  0.51100000000E-03 0.  1.
         12    1    3    3    0    0  0.58051933203E+01 -0.31614775548E+02 -0.25857108972E+02  0.41252689450E+02  0.00000000000E+00 0. -1.
</event>
<event>
 7    1  0.2232484E-015  0.9000778E+02  0.7816164E-02  0.1186339E+00
        -11   -1    0    0    0    0  0.00000000000E+00  0.00000000000E+00  0.45593999997E+02  0.45594000000E+02  0.51100000000E-03 0.  1.
         11   -1    0    0    0    0 -0.00000000000E+00 -0.00000000000E+00 -0.45593999997E+02  0.45594000000E+02  0.51100000000E-03 0. -1.
    9900012    2    1    2    0    0 -0.61762455633E+00 -0.12938139951E+00 -0.99736074301E+00  0.90007776254E+02  0.90000038100E+02 0.  0.
        -12    1    1    2    0    0  0.61762455633E+00  0.12938139951E+00  0.99736074301E+00  0.11802237461E+01  0.00000000000E+00 0.  1.
         11    1    3    3    0    0  0.93181615497E+01  0.34209292662E+02 -0.12130786692E+02  0.37473454940E+02  0.51100000000E-03 0. -1.
        -11    1    3    3    0    0  0.64915483909E+01 -0.12428509762E+01 -0.84412127686E+01  0.10720958554E+02  0.51100000000E-03 0.  1.
        -12    1    3    3    0    0 -0.16427334497E+02 -0.33095823085E+02  0.19574638718E+02  0.41813362760E+02  0.00000000000E+00 0.  1.
</event>
<event>
 7    1  0.2232484E-015  0.9000773E+02  0.7816164E-02  0.1186339E+00
        -11   -1    0    0    0    0  0.00000000000E+00  0.00000000000E+00  0.45593999997E+02  0.45594000000E+02  0.51100000000E-03 0. -1.
         11   -1    0    0    0    0 -0.00000000000E+00 -0.00000000000E+00 -0.45593999997E+02  0.45594000000E+02  0.51100000000E-03 0.  1.
    9900012    2    1    2    0    0 -0.11319957458E+01 -0.90007621049E-01  0.32172971957E+00  0.90007734880E+02  0.89999996181E+02 0.  0.
        -12    1    1    2    0    0  0.11319957458E+01  0.90007621049E-01 -0.32172971957E+00  0.11802651197E+01  0.00000000000E+00 0.  1.
         11    1    3    3    0    0 -0.92461983621E+00 -0.31869330887E+01  0.87973990952E+01  0.94024302951E+01  0.51100000000E-03 0. -1.
        -11    1    3    3    0    0  0.10266790992E+01 -0.35551653896E+02  0.11107948627E+02  0.37260712389E+02  0.51100000000E-03 0.  1.
         12    1    3    3    0    0 -0.12340550088E+01  0.38648579364E+02 -0.19583618003E+02  0.43344592197E+02  0.00000000000E+00 0. -1.
</event>
<event>
 7    1  0.2232484E-015  0.9000760E+02  0.7816164E-02  0.1186339E+00
        -11   -1    0    0    0    0  0.00000000000E+00  0.00000000000E+00  0.45593999997E+02  0.45594000000E+02  0.51100000000E-03 0. -1.
         11   -1    0    0    0    0 -0.00000000000E+00 -0.00000000000E+00 -0.45593999997E+02  0.45594000000E+02  0.51100000000E-03 0.  1.
    9900012    2    1    2    0    0  0.71644185018E+00 -0.66041881154E+00  0.66625499507E+00  0.90007602758E+02  0.89999862314E+02 0.  0.
        -12    1    1    2    0    0 -0.71644185018E+00  0.66041881154E+00 -0.66625499507E+00  0.11803972424E+01  0.00000000000E+00 0.  1.
         11    1    3    3    0    0 -0.27353102660E+02 -0.60631834471E+01 -0.80817571593E+01  0.29159376154E+02  0.51100000000E-03 0. -1.
        -11    1    3    3    0    0 -0.97489692260E+01  0.17700726814E+02  0.39024615694E+00  0.20211640780E+02  0.51100000000E-03 0.  1.
        -12    1    3    3    0    0  0.37818513736E+02 -0.12297962178E+02  0.83577659974E+01  0.40636585824E+02  0.00000000000E+00 0.  1.
</event>
<event>
 7    1  0.2232484E-015  0.9000777E+02  0.7816164E-02  0.1186339E+00
        -11   -1    0    0    0    0  0.00000000000E+00  0.00000000000E+00  0.45593999997E+02  0.45594000000E+02  0.51100000000E-03 0.  1.
         11   -1    0    0    0    0 -0.00000000000E+00 -0.00000000000E+00 -0.45593999997E+02  0.45594000000E+02  0.51100000000E-03 0. -1.
    9900012    2    1    2    0    0  0.35699683326E+00 -0.10736490365E+01  0.33582242732E+00  0.90007768796E+02  0.90000030544E+02 0.  0.
        -12    1    1    2    0    0 -0.35699683326E+00  0.10736490365E+01 -0.33582242732E+00  0.11802312042E+01  0.00000000000E+00 0.  1.
         11    1    3    3    0    0  0.29442152634E+02  0.68422493202E+01 -0.13704589159E+02  0.33188439128E+02  0.51100000000E-03 0. -1.
        -11    1    3    3    0    0  0.12386782947E+02 -0.42457210638E+01  0.75082839001E+00  0.13115726539E+02  0.51100000000E-03 0.  1.
        -12    1    3    3    0    0 -0.41471938748E+02 -0.36701772929E+01  0.13289583196E+02  0.43703603128E+02  0.00000000000E+00 0.  1.
</event>
<event>
 7    1  0.2232484E-015  0.9000782E+02  0.7816164E-02  0.1186339E+00
        -11   -1    0    0    0    0  0.00000000000E+00  0.00000000000E+00  0.45593999997E+02  0.45594000000E+02  0.51100000000E-03 0. -1.
         11   -1    0    0    0    0 -0.00000000000E+00 -0.00000000000E+00 -0.45593999997E+02  0.45594000000E+02  0.51100000000E-03 0.  1.
    9900012    2    1    2    0    0  0.80901507394E+00  0.65875907238E+00  0.55169034776E+00  0.90007817326E+02  0.90000079714E+02 0.  0.
        -12    1    1    2    0    0 -0.80901507394E+00 -0.65875907238E+00 -0.55169034776E+00  0.11801826745E+01  0.00000000000E+00 0.  1.
         11    1    3    3    0    0  0.38165046360E+02  0.37786349762E+01 -0.11840330601E+02  0.40137791107E+02  0.51100000000E-03 0. -1.
        -11    1    3    3    0    0 -0.19423689274E+01 -0.55940204726E+01 -0.72001905250E+01  0.93224785307E+01  0.51100000000E-03 0.  1.
        -12    1    3    3    0    0 -0.35413662359E+02  0.24741445688E+01  0.19592211474E+02  0.40547547687E+02  0.00000000000E+00 0.  1.
</event>
<event>
 7    1  0.2232484E-015  0.9000773E+02  0.7816164E-02  0.1186339E+00
        -11   -1    0    0    0    0  0.00000000000E+00  0.00000000000E+00  0.45593999997E+02  0.45594000000E+02  0.51100000000E-03 0. -1.
         11   -1    0    0    0    0 -0.00000000000E+00 -0.00000000000E+00 -0.45593999997E+02  0.45594000000E+02  0.51100000000E-03 0.  1.
    9900012    2    1    2    0    0 -0.29298539326E-01 -0.22514239920E+00  0.11582248283E+01  0.90007732125E+02  0.89999993389E+02 0.  0.
        -12    1    1    2    0    0  0.29298539326E-01  0.22514239920E+00 -0.11582248283E+01  0.11802678752E+01  0.00000000000E+00 0.  1.
         11    1    3    3    0    0 -0.21202115805E+02  0.26545696732E+02 -0.29491609010E+01  0.34101338388E+02  0.51100000000E-03 0. -1.
        -11    1    3    3    0    0 -0.12295088046E+02 -0.52205104836E+01 -0.62907524481E+01  0.14764704074E+02  0.51100000000E-03 0.  1.
        -12    1    3    3    0    0  0.33467905312E+02 -0.21550328647E+02  0.10398138177E+02  0.41141689663E+02  0.00000000000E+00 0.  1.
</event>
<event>
 7    1  0.2232484E-015  0.9000770E+02  0.7816164E-02  0.1186339E+00
        -11   -1    0    0    0    0  0.00000000000E+00  0.00000000000E+00  0.45593999997E+02  0.45594000000E+02  0.51100000000E-03 0. -1.
         11   -1    0    0    0    0 -0.00000000000E+00 -0.00000000000E+00 -0.45593999997E+02  0.45594000000E+02  0.51100000000E-03 0.  1.
    9900012    2    1    2    0    0  0.11550260342E+01 -0.83391798719E-03 -0.24295753687E+00  0.90007697412E+02  0.89999958218E+02 0.  0.
        -12    1    1    2    0    0 -0.11550260342E+01  0.83391798719E-03  0.24295753687E+00  0.11803025883E+01  0.00000000000E+00 0.  1.
         11    1    3    3    0    0 -0.28991941211E+01  0.91271339181E+01  0.11163093201E+02  0.14707975734E+02  0.51100000000E-03 0. -1.
        -11    1    3    3    0    0 -0.57373779231E+01  0.30943028364E+02 -0.12926351131E+02  0.34021743982E+02  0.51100000000E-03 0.  1.
         12    1    3    3    0    0  0.97915980784E+01 -0.40070996200E+02  0.15203003936E+01  0.41277977696E+02  0.00000000000E+00 0. -1.
</event>
<event>
 7    1  0.2232484E-015  0.9000767E+02  0.7816164E-02  0.1186339E+00
        -11   -1    0    0    0    0  0.00000000000E+00  0.00000000000E+00  0.45593999997E+02  0.45594000000E+02  0.51100000000E-03 0.  1.
         11   -1    0    0    0    0 -0.00000000000E+00 -0.00000000000E+00 -0.45593999997E+02  0.45594000000E+02  0.51100000000E-03 0. -1.
    9900012    2    1    2    0    0 -0.65768364069E+00  0.48871643424E+00 -0.84958753484E+00  0.90007665088E+02  0.89999925467E+02 0.  0.
        -12    1    1    2    0    0  0.65768364069E+00 -0.48871643424E+00  0.84958753484E+00  0.11803349117E+01  0.00000000000E+00 0.  1.
         11    1    3    3    0    0 -0.20596547781E+02  0.13915106123E+02 -0.31135761684E+02  0.39840728091E+02  0.51100000000E-03 0. -1.
        -11    1    3    3    0    0 -0.82085306727E+01 -0.44298423919E+01  0.26239067838E+01  0.96896009460E+01  0.51100000000E-03 0.  1.
        -12    1    3    3    0    0  0.28147394813E+02 -0.89965472970E+01  0.27662267365E+02  0.40477336051E+02  0.00000000000E+00 0.  1.
</event>
<event>
 7    1  0.2232484E-015  0.9000772E+02  0.7816164E-02  0.1186339E+00
        -11   -1    0    0    0    0  0.00000000000E+00  0.00000000000E+00  0.45593999997E+02  0.45594000000E+02  0.51100000000E-03 0.  1.
         11   -1    0    0    0    0 -0.00000000000E+00 -0.00000000000E+00 -0.45593999997E+02  0.45594000000E+02  0.51100000000E-03 0. -1.
    9900012    2    1    2    0    0  0.58683952841E+00 -0.19590052652E+00 -0.10051430264E+01  0.90007716072E+02  0.89999977124E+02 0.  0.
        -12    1    1    2    0    0 -0.58683952841E+00  0.19590052652E+00  0.10051430264E+01  0.11802839285E+01  0.00000000000E+00 0.  1.
         11    1    3    3    0    0  0.79490141515E+01 -0.74556148447E+01 -0.22486205207E+01  0.11127862023E+02  0.51100000000E-03 0. -1.
        -11    1    3    3    0    0 -0.89287632990E+00  0.31557953471E+02  0.27974200533E+02  0.42181246439E+02  0.51100000000E-03 0.  1.
         12    1    3    3    0    0 -0.64692982931E+01 -0.24298239153E+02 -0.26730723038E+02  0.36698607610E+02  0.00000000000E+00 0. -1.
</event>
<event>
 7    1  0.2232484E-015  0.9000769E+02  0.7816164E-02  0.1186339E+00
        -11   -1    0    0    0    0  0.00000000000E+00  0.00000000000E+00  0.45593999997E+02  0.45594000000E+02  0.51100000000E-03 0.  1.
         11   -1    0    0    0    0 -0.00000000000E+00 -0.00000000000E+00 -0.45593999997E+02  0.45594000000E+02  0.51100000000E-03 0. -1.
    9900012    2    1    2    0    0 -0.89898732119E-01  0.10622268133E+01  0.50668425181E+00  0.90007687958E+02  0.89999948639E+02 0.  0.
        -12    1    1    2    0    0  0.89898732119E-01 -0.10622268133E+01 -0.50668425181E+00  0.11803120417E+01  0.00000000000E+00 0.  1.
         11    1    3    3    0    0 -0.27842989669E+01 -0.26162529816E+01 -0.86285197197E+01  0.94365487979E+01  0.51100000000E-03 0. -1.
        -11    1    3    3    0    0 -0.35758321642E+02 -0.28801335287E+00 -0.10424037923E+02  0.37247833295E+02  0.51100000000E-03 0.  1.
         12    1    3    3    0    0  0.38452721876E+02  0.39664931477E+01  0.19559241895E+02  0.43323305865E+02  0.00000000000E+00 0. -1.
</event>
<event>
 7    1  0.2232484E-015  0.9000772E+02  0.7816164E-02  0.1186339E+00
        -11   -1    0    0    0    0  0.00000000000E+00  0.00000000000E+00  0.45593999997E+02  0.45594000000E+02  0.51100000000E-03 0. -1.
         11   -1    0    0    0    0 -0.00000000000E+00 -0.00000000000E+00 -0.45593999997E+02  0.45594000000E+02  0.51100000000E-03 0.  1.
    9900012    2    1    2    0    0 -0.33269381348E+00  0.51618915627E+00  0.10079355433E+01  0.90007715933E+02  0.89999976984E+02 0.  0.
        -12    1    1    2    0    0  0.33269381348E+00 -0.51618915627E+00 -0.10079355433E+01  0.11802840667E+01  0.00000000000E+00 0.  1.
         11    1    3    3    0    0 -0.66103845488E+01 -0.61076049228E+01  0.19530301711E+01  0.92094706083E+01  0.51100000000E-03 0. -1.
        -11    1    3    3    0    0 -0.12323051951E+02  0.18298365572E+02  0.33402464656E+02  0.40030144109E+02  0.51100000000E-03 0.  1.
         12    1    3    3    0    0  0.18600742686E+02 -0.11674571493E+02 -0.34347559284E+02  0.40768101216E+02  0.00000000000E+00 0. -1.
</event>
<event>
 7    1  0.3263142E-015  0.9000770E+02  0.7816164E-02  0.1186339E+00
        -11   -1    0    0    0    0  0.00000000000E+00  0.00000000000E+00  0.45593999997E+02  0.45594000000E+02  0.51100000000E-03 0. -1.
         11   -1    0    0    0    0 -0.00000000000E+00 -0.00000000000E+00 -0.45593999997E+02  0.45594000000E+02  0.51100000000E-03 0.  1.
    9900012    2    1    2    0    0  0.81697915590E+00  0.24562155196E+00  0.81567234142E+00  0.90007700777E+02  0.89999961627E+02 0.  0.
        -12    1    1    2    0    0 -0.81697915590E+00 -0.24562155196E+00 -0.81567234142E+00  0.11802992233E+01  0.00000000000E+00 0.  1.
         11    1    3    3    0    0  0.54121152830E+01 -0.61009266342E+01  0.56118902513E+01  0.98997782847E+01  0.51100000000E-03 0. -1.
        -11    1    3    3    0    0  0.26535069374E+02 -0.22060296923E+02 -0.13537366451E+02  0.37067868805E+02  0.51100000000E-03 0.  1.
         12    1    3    3    0    0 -0.31130205502E+02  0.28406845109E+02  0.87411485414E+01  0.43040053687E+02  0.00000000000E+00 0. -1.
</event>
<event>
 7    1  0.2232484E-015  0.9000778E+02  0.7816164E-02  0.1186339E+00
        -11   -1    0    0    0    0  0.00000000000E+00  0.00000000000E+00  0.45593999997E+02  0.45594000000E+02  0.51100000000E-03 0.  1.
         11   -1    0    0    0    0 -0.00000000000E+00 -0.00000000000E+00 -0.45593999997E+02  0.45594000000E+02  0.51100000000E-03 0. -1.
    9900012    2    1    2    0    0 -0.45062643978E+00 -0.82841070028E-02 -0.10907767093E+01  0.90007776867E+02  0.90000038721E+02 0.  0.
        -12    1    1    2    0    0  0.45062643978E+00  0.82841070028E-02  0.10907767093E+01  0.11802231332E+01  0.00000000000E+00 0.  1.
         11    1    3    3    0    0 -0.11881558657E+02  0.11748241579E+02 -0.12933549846E+00  0.16709558470E+02  0.51100000000E-03 0. -1.
        -11    1    3    3    0    0  0.35291132793E+02  0.13172266566E+02 -0.68646190156E+01  0.38289628554E+02  0.51100000000E-03 0.  1.
         12    1    3    3    0    0 -0.23860200575E+02 -0.24928792252E+02  0.59031778048E+01  0.35008589843E+02  0.00000000000E+00 0. -1.
</event>
<event>
 7    1  0.2232484E-015  0.9000773E+02  0.7816164E-02  0.1186339E+00
        -11   -1    0    0    0    0  0.00000000000E+00  0.00000000000E+00  0.45593999997E+02  0.45594000000E+02  0.51100000000E-03 0.  1.
         11   -1    0    0    0    0 -0.00000000000E+00 -0.00000000000E+00 -0.45593999997E+02  0.45594000000E+02  0.51100000000E-03 0. -1.
    9900012    2    1    2    0    0 -0.35352618784E+00 -0.34052943518E+00 -0.10733568100E+01  0.90007730580E+02  0.89999991824E+02 0.  0.
        -12    1    1    2    0    0  0.35352618784E+00  0.34052943518E+00  0.10733568100E+01  0.11802694198E+01  0.00000000000E+00 0.  1.
         11    1    3    3    0    0 -0.24186088231E+01 -0.68245859422E+01 -0.38457589301E+02  0.39133244397E+02  0.51100000000E-03 0. -1.
        -11    1    3    3    0    0 -0.40460748269E+01  0.75925098360E+01 -0.36697981600E+01  0.93533066833E+01  0.51100000000E-03 0.  1.
        -12    1    3    3    0    0  0.61111574622E+01 -0.11084533290E+01  0.41054030651E+02  0.41521179500E+02  0.00000000000E+00 0.  1.
</event>
<event>
 7    1  0.2232484E-015  0.9000846E+02  0.7816164E-02  0.1186338E+00
        -11   -1    0    0    0    0  0.00000000000E+00  0.00000000000E+00  0.45593999997E+02  0.45594000000E+02  0.51100000000E-03 0. -1.
         11   -1    0    0    0    0 -0.00000000000E+00 -0.00000000000E+00 -0.45593999997E+02  0.45594000000E+02  0.51100000000E-03 0.  1.
    9900012    2    1    2    0    0  0.14430440439E+00 -0.54311803874E+00  0.10370704948E+01  0.90008459337E+02  0.90000730197E+02 0.  0.
        -12    1    1    2    0    0 -0.14430440439E+00  0.54311803874E+00 -0.10370704948E+01  0.11795406633E+01  0.00000000000E+00 0.  1.
         11    1    3    3    0    0 -0.14905796472E+02 -0.37291465951E+02 -0.50792914035E+01  0.40480061792E+02  0.51100000000E-03 0. -1.
        -11    1    3    3    0    0  0.23308038465E+00  0.18879851008E+01 -0.86624032982E+01  0.88688243510E+01  0.51100000000E-03 0.  1.
        -12    1    3    3    0    0  0.14817020491E+02  0.34860362811E+02  0.14778765197E+02  0.40659573194E+02  0.00000000000E+00 0.  1.
</event>
<event>
 7    1  0.2232484E-015  0.9000800E+02  0.7816164E-02  0.1186339E+00
        -11   -1    0    0    0    0  0.00000000000E+00  0.00000000000E+00  0.45593999997E+02  0.45594000000E+02  0.51100000000E-03 0. -1.
         11   -1    0    0    0    0 -0.00000000000E+00 -0.00000000000E+00 -0.45593999997E+02  0.45594000000E+02  0.51100000000E-03 0.  1.
    9900012    2    1    2    0    0  0.49550100171E+00 -0.51759371281E+00  0.93753316596E+00  0.90008002995E+02  0.90000267834E+02 0.  0.
        -12    1    1    2    0    0 -0.49550100171E+00  0.51759371281E+00 -0.93753316596E+00  0.11799970049E+01  0.00000000000E+00 0.  1.
         11    1    3    3    0    0  0.31205644177E+02  0.14906261707E+02 -0.18523321963E+02  0.39231394614E+02  0.51100000000E-03 0. -1.
        -11    1    3    3    0    0 -0.36166979706E+01 -0.44114134203E+01 -0.85514249857E+01  0.10279491336E+02  0.51100000000E-03 0.  1.
        -12    1    3    3    0    0 -0.27093445204E+02 -0.11012441999E+02  0.28012280114E+02  0.40497117046E+02  0.00000000000E+00 0.  1.
</event>
<event>
 7    1  0.2232484E-015  0.9000776E+02  0.7816164E-02  0.1186339E+00
        -11   -1    0    0    0    0  0.00000000000E+00  0.00000000000E+00  0.45593999997E+02  0.45594000000E+02  0.51100000000E-03 0.  1.
         11   -1    0    0    0    0 -0.00000000000E+00 -0.00000000000E+00 -0.45593999997E+02  0.45594000000E+02  0.51100000000E-03 0. -1.
    9900012    2    1    2    0    0  0.65028599837E+00 -0.84379420655E+00 -0.50803745906E+00  0.90007761633E+02  0.90000023287E+02 0.  0.
        -12    1    1    2    0    0 -0.65028599837E+00  0.84379420655E+00  0.50803745906E+00  0.11802383668E+01  0.00000000000E+00 0.  1.
         11    1    3    3    0    0 -0.27347798373E+02  0.16773395190E+02  0.26308552393E+02  0.41489622695E+02  0.51100000000E-03 0. -1.
        -11    1    3    3    0    0  0.21321468640E+01 -0.96694143600E+01  0.69908947223E+00  0.99263462898E+01  0.51100000000E-03 0.  1.
        -12    1    3    3    0    0  0.25865937508E+02 -0.79477750366E+01 -0.27515679324E+02  0.38591792649E+02  0.00000000000E+00 0.  1.
</event>
<event>
 7    1  0.2232484E-015  0.9000778E+02  0.7816164E-02  0.1186339E+00
        -11   -1    0    0    0    0  0.00000000000E+00  0.00000000000E+00  0.45593999997E+02  0.45594000000E+02  0.51100000000E-03 0. -1.
         11   -1    0    0    0    0 -0.00000000000E+00 -0.00000000000E+00 -0.45593999997E+02  0.45594000000E+02  0.51100000000E-03 0.  1.
    9900012    2    1    2    0    0  0.26365568269E+00  0.57800868518E+00  0.99464674310E+00  0.90007775232E+02  0.90000037065E+02 0.  0.
        -12    1    1    2    0    0 -0.26365568269E+00 -0.57800868518E+00 -0.99464674310E+00  0.11802247679E+01  0.00000000000E+00 0.  1.
         11    1    3    3    0    0 -0.30057930969E+02 -0.11148057039E+02  0.30001880634E+02  0.43907530467E+02  0.51100000000E-03 0. -1.
        -11    1    3    3    0    0  0.55648717011E+00  0.26374583281E+01 -0.82806500851E+01  0.87083310970E+01  0.51100000000E-03 0.  1.
        -12    1    3    3    0    0  0.29765099481E+02  0.90886073961E+01 -0.20726583806E+02  0.37391913668E+02  0.00000000000E+00 0.  1.
</event>
<event>
 7    1  0.3107383E-015  0.9000777E+02  0.7816164E-02  0.1186339E+00
        -11   -1    0    0    0    0  0.00000000000E+00  0.00000000000E+00  0.45593999997E+02  0.45594000000E+02  0.51100000000E-03 0.  1.
         11   -1    0    0    0    0 -0.00000000000E+00 -0.00000000000E+00 -0.45593999997E+02  0.45594000000E+02  0.51100000000E-03 0. -1.
    9900012    2    1    2    0    0 -0.10811675434E+00 -0.15955207741E+00 -0.11643870147E+01  0.90007769845E+02  0.90000031607E+02 0.  0.
        -12    1    1    2    0    0  0.10811675434E+00  0.15955207741E+00  0.11643870147E+01  0.11802301546E+01  0.00000000000E+00 0.  1.
         11    1    3    3    0    0 -0.87429874917E+01  0.22174020334E+01  0.38442874036E+01  0.98048583855E+01  0.51100000000E-03 0. -1.
        -11    1    3    3    0    0 -0.82636194254E+01 -0.27696923000E+02  0.24438020704E+02  0.37850017250E+02  0.51100000000E-03 0.  1.
         12    1    3    3    0    0  0.16898490163E+02  0.25319968889E+02 -0.29446695122E+02  0.42352894210E+02  0.00000000000E+00 0. -1.
</event>
<event>
 7    1  0.2232484E-015  0.9000763E+02  0.7816164E-02  0.1186339E+00
        -11   -1    0    0    0    0  0.00000000000E+00  0.00000000000E+00  0.45593999997E+02  0.45594000000E+02  0.51100000000E-03 0.  1.
         11   -1    0    0    0    0 -0.00000000000E+00 -0.00000000000E+00 -0.45593999997E+02  0.45594000000E+02  0.51100000000E-03 0. -1.
    9900012    2    1    2    0    0 -0.75017769367E-01 -0.52791789244E+00 -0.10530613073E+01  0.90007634343E+02  0.89999894316E+02 0.  0.
        -12    1    1    2    0    0  0.75017769367E-01  0.52791789244E+00  0.10530613073E+01  0.11803656569E+01  0.00000000000E+00 0.  1.
         11    1    3    3    0    0  0.25305153876E+01  0.84427029933E+01  0.43468484058E+00  0.88244939306E+01  0.51100000000E-03 0. -1.
        -11    1    3    3    0    0  0.34891315702E+02 -0.17184606144E+02  0.11666747856E+02  0.40605758281E+02  0.51100000000E-03 0.  1.
         12    1    3    3    0    0 -0.37496848859E+02  0.82139852578E+01 -0.13154494004E+02  0.40577382132E+02  0.00000000000E+00 0. -1.
</event>
<event>
 7    1  0.2232484E-015  0.9000786E+02  0.7816164E-02  0.1186339E+00
        -11   -1    0    0    0    0  0.00000000000E+00  0.00000000000E+00  0.45593999997E+02  0.45594000000E+02  0.51100000000E-03 0.  1.
         11   -1    0    0    0    0 -0.00000000000E+00 -0.00000000000E+00 -0.45593999997E+02  0.45594000000E+02  0.51100000000E-03 0. -1.
    9900012    2    1    2    0    0  0.12333459307E-02  0.11756054444E+01 -0.10336595311E+00  0.90007858397E+02  0.90000121328E+02 0.  0.
        -12    1    1    2    0    0 -0.12333459307E-02 -0.11756054444E+01  0.10336595311E+00  0.11801416026E+01  0.00000000000E+00 0.  1.
         11    1    3    3    0    0 -0.27205587479E+01 -0.74949369970E+01  0.41917359521E+01  0.90081169532E+01  0.51100000000E-03 0. -1.
        -11    1    3    3    0    0  0.39906630310E+02 -0.25137125444E+01  0.69246756267E+01  0.40580894843E+02  0.51100000000E-03 0.  1.
         12    1    3    3    0    0 -0.37184838216E+02  0.11184254986E+02 -0.11219777532E+02  0.40418846602E+02  0.00000000000E+00 0. -1.
</event>
<event>
 7    1  0.2232484E-015  0.9000775E+02  0.7816164E-02  0.1186339E+00
        -11   -1    0    0    0    0  0.00000000000E+00  0.00000000000E+00  0.45593999997E+02  0.45594000000E+02  0.51100000000E-03 0.  1.
         11   -1    0    0    0    0 -0.00000000000E+00 -0.00000000000E+00 -0.45593999997E+02  0.45594000000E+02  0.51100000000E-03 0. -1.
    9900012    2    1    2    0    0  0.10460082929E+01 -0.54473528090E+00  0.45992060910E-01  0.90007752083E+02  0.90000013611E+02 0.  0.
        -12    1    1    2    0    0 -0.10460082929E+01  0.54473528090E+00 -0.45992060910E-01  0.11802479166E+01  0.00000000000E+00 0.  1.
         11    1    3    3    0    0  0.65235733009E+01 -0.42141277295E+01 -0.30793039191E+01  0.83545193770E+01  0.51100000000E-03 0. -1.
        -11    1    3    3    0    0  0.14741087523E+02 -0.34946769288E+02 -0.30105469605E+00  0.37929763764E+02  0.51100000000E-03 0.  1.
         12    1    3    3    0    0 -0.20218652531E+02  0.38616161736E+02  0.34263506761E+01  0.43723468942E+02  0.00000000000E+00 0. -1.
</event>
<event>
 7    1  0.2232484E-015  0.9000785E+02  0.7816164E-02  0.1186339E+00
        -11   -1    0    0    0    0  0.00000000000E+00  0.00000000000E+00  0.45593999997E+02  0.45594000000E+02  0.51100000000E-03 0. -1.
         11   -1    0    0    0    0 -0.00000000000E+00 -0.00000000000E+00 -0.45593999997E+02  0.45594000000E+02  0.51100000000E-03 0.  1.
    9900012    2    1    2    0    0 -0.72743256862E-01  0.71551528998E+00  0.93568432264E+00  0.90007847949E+02  0.90000110742E+02 0.  0.
        -12    1    1    2    0    0  0.72743256862E-01 -0.71551528998E+00 -0.93568432264E+00  0.11801520509E+01  0.00000000000E+00 0.  1.
         11    1    3    3    0    0 -0.41015694602E+01 -0.13530890649E+02 -0.68005941746E+01  0.15689358023E+02  0.51100000000E-03 0. -1.
        -11    1    3    3    0    0  0.14385282025E+02  0.25861477313E+02 -0.24567481853E+02  0.38461844893E+02  0.51100000000E-03 0.  1.
         12    1    3    3    0    0 -0.10356455822E+02 -0.11615071374E+02  0.32303760351E+02  0.35856645033E+02  0.00000000000E+00 0. -1.
</event>
<event>
 7    1  0.2232484E-015  0.9000687E+02  0.7816164E-02  0.1186341E+00
        -11   -1    0    0    0    0  0.00000000000E+00  0.00000000000E+00  0.45593999997E+02  0.45594000000E+02  0.51100000000E-03 0. -1.
         11   -1    0    0    0    0 -0.00000000000E+00 -0.00000000000E+00 -0.45593999997E+02  0.45594000000E+02  0.51100000000E-03 0.  1.
    9900012    2    1    2    0    0  0.97048934879E+00 -0.34195548290E+00 -0.57989598714E+00  0.90006872367E+02  0.89999122278E+02 0.  0.
        -12    1    1    2    0    0 -0.97048934879E+00  0.34195548290E+00  0.57989598714E+00  0.11811276325E+01  0.00000000000E+00 0.  1.
         11    1    3    3    0    0  0.14614681755E+02 -0.29389646799E+02  0.24231724107E+02  0.40798489129E+02  0.51100000000E-03 0. -1.
        -11    1    3    3    0    0 -0.11023075831E+02  0.10029960784E+00 -0.47669632414E-01  0.11023635219E+02  0.51100000000E-03 0.  1.
        -12    1    3    3    0    0 -0.26211165752E+01  0.28947391708E+02 -0.24763950462E+02  0.38184748019E+02  0.00000000000E+00 0.  1.
</event>
<event>
 7    1  0.2232484E-015  0.9000773E+02  0.7816164E-02  0.1186339E+00
        -11   -1    0    0    0    0  0.00000000000E+00  0.00000000000E+00  0.45593999997E+02  0.45594000000E+02  0.51100000000E-03 0. -1.
         11   -1    0    0    0    0 -0.00000000000E+00 -0.00000000000E+00 -0.45593999997E+02  0.45594000000E+02  0.51100000000E-03 0.  1.
    9900012    2    1    2    0    0  0.96887339172E+00 -0.50699350103E+00  0.44415405318E+00  0.90007732707E+02  0.89999993979E+02 0.  0.
        -12    1    1    2    0    0 -0.96887339172E+00  0.50699350103E+00 -0.44415405318E+00  0.11802672927E+01  0.00000000000E+00 0.  1.
         11    1    3    3    0    0 -0.85698442590E+01 -0.37991529519E+02  0.47876144532E+00  0.38949040535E+02  0.51100000000E-03 0. -1.
        -11    1    3    3    0    0 -0.49090842701E+01  0.87677262330E+01  0.12947945179E+02  0.16389674075E+02  0.51100000000E-03 0.  1.
        -12    1    3    3    0    0  0.14447801921E+02  0.28716809785E+02 -0.12982552571E+02  0.34669018097E+02  0.00000000000E+00 0.  1.
</event>
<event>
 7    1  0.2418829E-015  0.9000769E+02  0.7816164E-02  0.1186339E+00
        -11   -1    0    0    0    0  0.00000000000E+00  0.00000000000E+00  0.45593999997E+02  0.45594000000E+02  0.51100000000E-03 0.  1.
         11   -1    0    0    0    0 -0.00000000000E+00 -0.00000000000E+00 -0.45593999997E+02  0.45594000000E+02  0.51100000000E-03 0. -1.
    9900012    2    1    2    0    0  0.44577522673E+00  0.72598064635E+00  0.81693003820E+00  0.90007687271E+02  0.89999947943E+02 0.  0.
        -12    1    1    2    0    0 -0.44577522673E+00 -0.72598064635E+00 -0.81693003820E+00  0.11803127293E+01  0.00000000000E+00 0.  1.
         11    1    3    3    0    0  0.56528617678E+01 -0.47127187055E+01 -0.58262577714E+01  0.93866843797E+01  0.51100000000E-03 0. -1.
        -11    1    3    3    0    0 -0.15148531463E+02  0.21108460410E+02 -0.29914942515E+02  0.39622580586E+02  0.51100000000E-03 0.  1.
         12    1    3    3    0    0  0.99414449218E+01 -0.15669761058E+02  0.36558130324E+02  0.40998422305E+02  0.00000000000E+00 0. -1.
</event>
<event>
 7    1  0.2232484E-015  0.9000767E+02  0.7816164E-02  0.1186339E+00
        -11   -1    0    0    0    0  0.00000000000E+00  0.00000000000E+00  0.45593999997E+02  0.45594000000E+02  0.51100000000E-03 0. -1.
         11   -1    0    0    0    0 -0.00000000000E+00 -0.00000000000E+00 -0.45593999997E+02  0.45594000000E+02  0.51100000000E-03 0.  1.
    9900012    2    1    2    0    0  0.74380012252E+00 -0.38866299182E-01 -0.91565972566E+00  0.90007668714E+02  0.89999929141E+02 0.  0.
        -12    1    1    2    0    0 -0.74380012252E+00  0.38866299182E-01  0.91565972566E+00  0.11803312860E+01  0.00000000000E+00 0.  1.
         11    1    3    3    0    0  0.65404301737E+01 -0.32521902909E+02  0.24093889741E+02  0.40999596569E+02  0.51100000000E-03 0. -1.
        -11    1    3    3    0    0  0.24218051152E+01  0.74142709178E+01  0.48334938877E+01  0.91760131147E+01  0.51100000000E-03 0.  1.
        -12    1    3    3    0    0 -0.82184351664E+01  0.25068765692E+02 -0.29843043355E+02  0.39832059030E+02  0.00000000000E+00 0.  1.
</event>
<event>
 7    1  0.2310777E-015  0.9000770E+02  0.7816164E-02  0.1186339E+00
        -11   -1    0    0    0    0  0.00000000000E+00  0.00000000000E+00  0.45593999997E+02  0.45594000000E+02  0.51100000000E-03 0. -1.
         11   -1    0    0    0    0 -0.00000000000E+00 -0.00000000000E+00 -0.45593999997E+02  0.45594000000E+02  0.51100000000E-03 0.  1.
    9900012    2    1    2    0    0 -0.25508504438E+00  0.10277961971E+00  0.11478100086E+01  0.90007703492E+02  0.89999964378E+02 0.  0.
        -12    1    1    2    0    0  0.25508504438E+00 -0.10277961971E+00 -0.11478100086E+01  0.11802965077E+01  0.00000000000E+00 0.  1.
         11    1    3    3    0    0  0.53882311269E+01 -0.30358966561E+01 -0.64736257010E+01  0.89530739504E+01  0.51100000000E-03 0. -1.
        -11    1    3    3    0    0 -0.32390557474E+02  0.43342813510E+01 -0.23313078451E+02  0.40142668514E+02  0.51100000000E-03 0.  1.
         12    1    3    3    0    0  0.26747241303E+02 -0.11956050752E+01  0.30934514160E+02  0.40911961028E+02  0.00000000000E+00 0. -1.
</event>
<event>
 7    1  0.2232484E-015  0.9000776E+02  0.7816164E-02  0.1186339E+00
        -11   -1    0    0    0    0  0.00000000000E+00  0.00000000000E+00  0.45593999997E+02  0.45594000000E+02  0.51100000000E-03 0.  1.
         11   -1    0    0    0    0 -0.00000000000E+00 -0.00000000000E+00 -0.45593999997E+02  0.45594000000E+02  0.51100000000E-03 0. -1.
    9900012    2    1    2    0    0  0.66338053127E+00 -0.62937755635E+00 -0.74616723161E+00  0.90007764695E+02  0.90000026389E+02 0.  0.
        -12    1    1    2    0    0 -0.66338053127E+00  0.62937755635E+00  0.74616723161E+00  0.11802353050E+01  0.00000000000E+00 0.  1.
         11    1    3    3    0    0  0.15635458942E+01 -0.47650240314E+01 -0.10134716451E+02  0.11307634925E+02  0.51100000000E-03 0. -1.
        -11    1    3    3    0    0 -0.21379288003E+02 -0.21196729570E+02 -0.18908114857E+02  0.35551260283E+02  0.51100000000E-03 0.  1.
         12    1    3    3    0    0  0.20479122640E+02  0.25332376045E+02  0.28296664077E+02  0.43148869488E+02  0.00000000000E+00 0. -1.
</event>
<event>
 7    1  0.2232484E-015  0.9000903E+02  0.7816164E-02  0.1186336E+00
        -11   -1    0    0    0    0  0.00000000000E+00  0.00000000000E+00  0.45593999997E+02  0.45594000000E+02  0.51100000000E-03 0.  1.
         11   -1    0    0    0    0 -0.00000000000E+00 -0.00000000000E+00 -0.45593999997E+02  0.45594000000E+02  0.51100000000E-03 0. -1.
    9900012    2    1    2    0    0  0.84418417822E-01 -0.42084864253E+00 -0.10980541373E+01  0.90009033106E+02  0.90001311533E+02 0.  0.
        -12    1    1    2    0    0 -0.84418417822E-01  0.42084864253E+00  0.10980541373E+01  0.11789668943E+01  0.00000000000E+00 0.  1.
         11    1    3    3    0    0  0.37007003822E+02  0.17141990596E+02  0.26233386564E+01  0.40868668677E+02  0.51100000000E-03 0. -1.
        -11    1    3    3    0    0 -0.77334821633E+01  0.69269932097E+01  0.21110283911E+01  0.10594641213E+02  0.51100000000E-03 0.  1.
        -12    1    3    3    0    0 -0.29189103241E+02 -0.24489832449E+02 -0.58324211849E+01  0.38545723216E+02  0.00000000000E+00 0.  1.
</event>
<event>
 7    1  0.2232484E-015  0.9000774E+02  0.7816164E-02  0.1186339E+00
        -11   -1    0    0    0    0  0.00000000000E+00  0.00000000000E+00  0.45593999997E+02  0.45594000000E+02  0.51100000000E-03 0. -1.
         11   -1    0    0    0    0 -0.00000000000E+00 -0.00000000000E+00 -0.45593999997E+02  0.45594000000E+02  0.51100000000E-03 0.  1.
    9900012    2    1    2    0    0  0.73927957970E+00  0.11536998068E+00 -0.91277892757E+00  0.90007741596E+02  0.90000002985E+02 0.  0.
        -12    1    1    2    0    0 -0.73927957970E+00 -0.11536998068E+00  0.91277892757E+00  0.11802584039E+01  0.00000000000E+00 0.  1.
         11    1    3    3    0    0  0.37189657523E+01 -0.12533493220E+02 -0.97850485157E+00  0.13110172790E+02  0.51100000000E-03 0. -1.
        -11    1    3    3    0    0 -0.26179966500E+02 -0.22181400848E+02 -0.52461765064E+01  0.34712066457E+02  0.51100000000E-03 0.  1.
         12    1    3    3    0    0  0.23200280327E+02  0.34830264049E+02  0.53119024304E+01  0.42185502349E+02  0.00000000000E+00 0. -1.
</event>
<event>
 7    1  0.2232484E-015  0.9000770E+02  0.7816164E-02  0.1186339E+00
        -11   -1    0    0    0    0  0.00000000000E+00  0.00000000000E+00  0.45593999997E+02  0.45594000000E+02  0.51100000000E-03 0.  1.
         11   -1    0    0    0    0 -0.00000000000E+00 -0.00000000000E+00 -0.45593999997E+02  0.45594000000E+02  0.51100000000E-03 0. -1.
    9900012    2    1    2    0    0  0.38771994793E+00 -0.10683392296E+01  0.31847707251E+00  0.90007702108E+02  0.89999962976E+02 0.  0.
        -12    1    1    2    0    0 -0.38771994793E+00  0.10683392296E+01 -0.31847707251E+00  0.11802978917E+01  0.00000000000E+00 0.  1.
         11    1    3    3    0    0  0.78974655443E+01 -0.10553198797E+02 -0.16673227816E+02  0.21254093557E+02  0.51100000000E-03 0. -1.
        -11    1    3    3    0    0  0.20397442993E+02 -0.14435557264E+02  0.19811849829E+02  0.31889659579E+02  0.51100000000E-03 0.  1.
         12    1    3    3    0    0 -0.27907188590E+02  0.23920416831E+02 -0.28201449405E+01  0.36863948972E+02  0.00000000000E+00 0. -1.
</event>
<event>
 7    1  0.2232484E-015  0.9000806E+02  0.7816164E-02  0.1186338E+00
        -11   -1    0    0    0    0  0.00000000000E+00  0.00000000000E+00  0.45593999997E+02  0.45594000000E+02  0.51100000000E-03 0. -1.
         11   -1    0    0    0    0 -0.00000000000E+00 -0.00000000000E+00 -0.45593999997E+02  0.45594000000E+02  0.51100000000E-03 0.  1.
    9900012    2    1    2    0    0  0.11912744248E+00 -0.93543534804E+00  0.70924998879E+00  0.90008056703E+02  0.90000322251E+02 0.  0.
        -12    1    1    2    0    0 -0.11912744248E+00  0.93543534804E+00 -0.70924998879E+00  0.11799432972E+01  0.00000000000E+00 0.  1.
         11    1    3    3    0    0  0.91903262606E+01 -0.94240905730E+01  0.31295695484E+02  0.33951379000E+02  0.51100000000E-03 0. -1.
        -11    1    3    3    0    0  0.11329648292E+02 -0.98241021686E+01 -0.17777716561E-01  0.14995807085E+02  0.51100000000E-03 0.  1.
        -12    1    3    3    0    0 -0.20400847110E+02  0.18312757394E+02 -0.30568667778E+02  0.41060870618E+02  0.00000000000E+00 0.  1.
</event>
<event>
 7    1  0.2232484E-015  0.9000770E+02  0.7816164E-02  0.1186339E+00
        -11   -1    0    0    0    0  0.00000000000E+00  0.00000000000E+00  0.45593999997E+02  0.45594000000E+02  0.51100000000E-03 0. -1.
         11   -1    0    0    0    0 -0.00000000000E+00 -0.00000000000E+00 -0.45593999997E+02  0.45594000000E+02  0.51100000000E-03 0.  1.
    9900012    2    1    2    0    0  0.19371538231E+00  0.80806575488E+00 -0.83821610370E+00  0.90007702516E+02  0.89999963389E+02 0.  0.
        -12    1    1    2    0    0 -0.19371538231E+00 -0.80806575488E+00  0.83821610370E+00  0.11802974837E+01  0.00000000000E+00 0.  1.
         11    1    3    3    0    0 -0.13910794308E+01  0.36533207719E+01 -0.88597936244E+01  0.96838937403E+01  0.51100000000E-03 0. -1.
        -11    1    3    3    0    0 -0.50143637574E+01  0.11305512765E+02 -0.33635215920E+02  0.35836939225E+02  0.51100000000E-03 0.  1.
         12    1    3    3    0    0  0.65991585705E+01 -0.14150767782E+02  0.41656793441E+02  0.44486869551E+02  0.00000000000E+00 0. -1.
</event>
<event>
 7    1  0.2232484E-015  0.9000775E+02  0.7816164E-02  0.1186339E+00
        -11   -1    0    0    0    0  0.00000000000E+00  0.00000000000E+00  0.45593999997E+02  0.45594000000E+02  0.51100000000E-03 0. -1.
         11   -1    0    0    0    0 -0.00000000000E+00 -0.00000000000E+00 -0.45593999997E+02  0.45594000000E+02  0.51100000000E-03 0.  1.
    9900012    2    1    2    0    0  0.31070956823E+00 -0.42224701155E+00  0.10574302662E+01  0.90007749288E+02  0.90000010779E+02 0.  0.
        -12    1    1    2    0    0 -0.31070956823E+00  0.42224701155E+00 -0.10574302662E+01  0.11802507117E+01  0.00000000000E+00 0.  1.
         11    1    3    3    0    0  0.40541894902E+01  0.10898844719E+02 -0.19221738114E+01  0.11786264084E+02  0.51100000000E-03 0. -1.
        -11    1    3    3    0    0  0.22801986420E+02  0.73749450916E+01 -0.25527802362E+02  0.35014127056E+02  0.51100000000E-03 0.  1.
         12    1    3    3    0    0 -0.26545466342E+02 -0.18696036822E+02  0.28507406440E+02  0.43207358148E+02  0.00000000000E+00 0. -1.
</event>
<event>
 7    1  0.2232484E-015  0.9000776E+02  0.7816164E-02  0.1186339E+00
        -11   -1    0    0    0    0  0.00000000000E+00  0.00000000000E+00  0.45593999997E+02  0.45594000000E+02  0.51100000000E-03 0. -1.
         11   -1    0    0    0    0 -0.00000000000E+00 -0.00000000000E+00 -0.45593999997E+02  0.45594000000E+02  0.51100000000E-03 0.  1.
    9900012    2    1    2    0    0 -0.24421114843E+00 -0.73209309539E+00  0.89295520064E+00  0.90007759187E+02  0.90000020809E+02 0.  0.
        -12    1    1    2    0    0  0.24421114843E+00  0.73209309539E+00 -0.89295520064E+00  0.11802408126E+01  0.00000000000E+00 0.  1.
         11    1    3    3    0    0  0.21571847047E+02  0.30682307358E+02  0.66703179393E+01  0.38095166511E+02  0.51100000000E-03 0. -1.
        -11    1    3    3    0    0 -0.33262141951E+01 -0.69560427861E-02  0.11216640754E+02  0.11699435000E+02  0.51100000000E-03 0.  1.
        -12    1    3    3    0    0 -0.18489844001E+02 -0.31407444411E+02 -0.16994003493E+02  0.40213157676E+02  0.00000000000E+00 0.  1.
</event>
<event>
 7    1  0.2232484E-015  0.9000781E+02  0.7816164E-02  0.1186339E+00
        -11   -1    0    0    0    0  0.00000000000E+00  0.00000000000E+00  0.45593999997E+02  0.45594000000E+02  0.51100000000E-03 0.  1.
         11   -1    0    0    0    0 -0.00000000000E+00 -0.00000000000E+00 -0.45593999997E+02  0.45594000000E+02  0.51100000000E-03 0. -1.
    9900012    2    1    2    0    0 -0.29978178589E+00  0.11254778700E+01  0.19045325364E+00  0.90007812728E+02  0.90000075056E+02 0.  0.
        -12    1    1    2    0    0  0.29978178589E+00 -0.11254778700E+01 -0.19045325364E+00  0.11801872719E+01  0.00000000000E+00 0.  1.
         11    1    3    3    0    0  0.23201574327E+01 -0.35809234759E+01 -0.85079261336E+01  0.95179278631E+01  0.51100000000E-03 0. -1.
        -11    1    3    3    0    0 -0.40380055060E+02  0.10367890569E+02  0.21077725856E+01  0.41743079750E+02  0.51100000000E-03 0.  1.
         12    1    3    3    0    0  0.37760115841E+02 -0.56614892233E+01  0.65906068016E+01  0.38746805115E+02  0.00000000000E+00 0. -1.
</event>
<event>
 7    1  0.2232484E-015  0.9000804E+02  0.7816164E-02  0.1186338E+00
        -11   -1    0    0    0    0  0.00000000000E+00  0.00000000000E+00  0.45593999997E+02  0.45594000000E+02  0.51100000000E-03 0.  1.
         11   -1    0    0    0    0 -0.00000000000E+00 -0.00000000000E+00 -0.45593999997E+02  0.45594000000E+02  0.51100000000E-03 0. -1.
    9900012    2    1    2    0    0  0.11680227895E+00  0.11737508512E+01 -0.31131446889E-01  0.90008041102E+02  0.90000306444E+02 0.  0.
        -12    1    1    2    0    0 -0.11680227895E+00 -0.11737508512E+01  0.31131446889E-01  0.11799588976E+01  0.00000000000E+00 0.  1.
         11    1    3    3    0    0  0.95846482375E+01  0.11119317307E+01  0.30842231016E+01  0.10129871984E+02  0.51100000000E-03 0. -1.
        -11    1    3    3    0    0 -0.11161551823E+02  0.29240837052E+02 -0.27615335417E+02  0.41739831588E+02  0.51100000000E-03 0.  1.
         12    1    3    3    0    0  0.16937058641E+01 -0.29179017931E+02  0.24499980868E+02  0.38138337530E+02  0.00000000000E+00 0. -1.
</event>
<event>
 7    1  0.2232484E-015  0.9000772E+02  0.7816164E-02  0.1186339E+00
        -11   -1    0    0    0    0  0.00000000000E+00  0.00000000000E+00  0.45593999997E+02  0.45594000000E+02  0.51100000000E-03 0. -1.
         11   -1    0    0    0    0 -0.00000000000E+00 -0.00000000000E+00 -0.45593999997E+02  0.45594000000E+02  0.51100000000E-03 0.  1.
    9900012    2    1    2    0    0  0.38772075120E+00 -0.11144336859E+01  0.27595274743E-01  0.90007724049E+02  0.89999985206E+02 0.  0.
        -12    1    1    2    0    0 -0.38772075120E+00  0.11144336859E+01 -0.27595274743E-01  0.11802759510E+01  0.00000000000E+00 0.  1.
         11    1    3    3    0    0 -0.84342900671E+01  0.38084368755E+01  0.42088184100E+01  0.10166395283E+02  0.51100000000E-03 0. -1.
        -11    1    3    3    0    0 -0.35244163823E+02  0.94512239430E+00 -0.27326692629E+01  0.35362576568E+02  0.51100000000E-03 0.  1.
         12    1    3    3    0    0  0.44066174641E+02 -0.58679929557E+01 -0.14485538724E+01  0.44478752199E+02  0.00000000000E+00 0. -1.
</event>
<event>
 7    1  0.2232484E-015  0.9000771E+02  0.7816164E-02  0.1186339E+00
        -11   -1    0    0    0    0  0.00000000000E+00  0.00000000000E+00  0.45593999997E+02  0.45594000000E+02  0.51100000000E-03 0. -1.
         11   -1    0    0    0    0 -0.00000000000E+00 -0.00000000000E+00 -0.45593999997E+02  0.45594000000E+02  0.51100000000E-03 0.  1.
    9900012    2    1    2    0    0 -0.53673643010E-01  0.11785326222E+01  0.35526228059E-01  0.90007711004E+02  0.89999971989E+02 0.  0.
        -12    1    1    2    0    0  0.53673643010E-01 -0.11785326222E+01 -0.35526228059E-01  0.11802889962E+01  0.00000000000E+00 0.  1.
         11    1    3    3    0    0  0.26935753734E+02 -0.22644204275E+01  0.92972664038E+01  0.28584988926E+02  0.51100000000E-03 0. -1.
        -11    1    3    3    0    0  0.13354590379E+02 -0.10059879352E+02 -0.87612875940E+01  0.18876080561E+02  0.51100000000E-03 0.  1.
         12    1    3    3    0    0 -0.40344017756E+02  0.13502832402E+02 -0.50045258174E+00  0.42546641517E+02  0.00000000000E+00 0. -1.
</event>
<event>
 7    1  0.2232484E-015  0.9000776E+02  0.7816164E-02  0.1186339E+00
        -11   -1    0    0    0    0  0.00000000000E+00  0.00000000000E+00  0.45593999997E+02  0.45594000000E+02  0.51100000000E-03 0.  1.
         11   -1    0    0    0    0 -0.00000000000E+00 -0.00000000000E+00 -0.45593999997E+02  0.45594000000E+02  0.51100000000E-03 0. -1.
    9900012    2    1    2    0    0 -0.10333494168E+01  0.39474752816E+00 -0.41148967544E+00  0.90007762574E+02  0.90000024240E+02 0.  0.
        -12    1    1    2    0    0  0.10333494168E+01 -0.39474752816E+00  0.41148967544E+00  0.11802374258E+01  0.00000000000E+00 0.  1.
         11    1    3    3    0    0  0.26038622475E+02  0.55256894987E+01 -0.25101183403E+02  0.36587053903E+02  0.51100000000E-03 0. -1.
        -11    1    3    3    0    0  0.87606943187E+01  0.20576243682E+01 -0.53371461145E+00  0.90149006947E+01  0.51100000000E-03 0.  1.
        -12    1    3    3    0    0 -0.35832666211E+02 -0.71885663387E+01  0.25223408339E+02  0.44405807976E+02  0.00000000000E+00 0.  1.
</event>
<event>
 7    1  0.2232484E-015  0.9000791E+02  0.7816164E-02  0.1186339E+00
        -11   -1    0    0    0    0  0.00000000000E+00  0.00000000000E+00  0.45593999997E+02  0.45594000000E+02  0.51100000000E-03 0.  1.
         11   -1    0    0    0    0 -0.00000000000E+00 -0.00000000000E+00 -0.45593999997E+02  0.45594000000E+02  0.51100000000E-03 0. -1.
    9900012    2    1    2    0    0 -0.98566536691E+00 -0.15172377629E+00 -0.63091836935E+00  0.90007909195E+02  0.90000172796E+02 0.  0.
        -12    1    1    2    0    0  0.98566536691E+00  0.15172377629E+00  0.63091836935E+00  0.11800908052E+01  0.00000000000E+00 0.  1.
         11    1    3    3    0    0  0.74299507020E+00 -0.12206258847E+02 -0.24309626002E+02  0.27212179504E+02  0.51100000000E-03 0. -1.
        -11    1    3    3    0    0 -0.53022953656E+01  0.11459760932E+02 -0.17432526204E+02  0.21525181228E+02  0.51100000000E-03 0.  1.
        -12    1    3    3    0    0  0.35736349285E+01  0.59477413901E+00  0.41111233837E+02  0.41270548463E+02  0.00000000000E+00 0.  1.
</event>
<event>
 7    1  0.2232484E-015  0.9000772E+02  0.7816164E-02  0.1186339E+00
        -11   -1    0    0    0    0  0.00000000000E+00  0.00000000000E+00  0.45593999997E+02  0.45594000000E+02  0.51100000000E-03 0. -1.
         11   -1    0    0    0    0 -0.00000000000E+00 -0.00000000000E+00 -0.45593999997E+02  0.45594000000E+02  0.51100000000E-03 0.  1.
    9900012    2    1    2    0    0 -0.10500000964E+01 -0.35335740140E-01  0.53788038964E+00  0.90007718622E+02  0.89999979708E+02 0.  0.
        -12    1    1    2    0    0  0.10500000964E+01  0.35335740140E-01 -0.53788038964E+00  0.11802813777E+01  0.00000000000E+00 0.  1.
         11    1    3    3    0    0 -0.14510727652E+02 -0.25659925583E+02  0.26103740943E+02  0.39375097326E+02  0.51100000000E-03 0. -1.
        -11    1    3    3    0    0  0.89500785162E+01 -0.42283560752E+01  0.15892823607E+01  0.10025403694E+02  0.51100000000E-03 0.  1.
        -12    1    3    3    0    0  0.45106490399E+01  0.29852945918E+02 -0.27155142914E+02  0.40607217603E+02  0.00000000000E+00 0.  1.
</event>
<event>
 7    1  0.2232484E-015  0.9000786E+02  0.7816164E-02  0.1186339E+00
        -11   -1    0    0    0    0  0.00000000000E+00  0.00000000000E+00  0.45593999997E+02  0.45594000000E+02  0.51100000000E-03 0. -1.
         11   -1    0    0    0    0 -0.00000000000E+00 -0.00000000000E+00 -0.45593999997E+02  0.45594000000E+02  0.51100000000E-03 0.  1.
    9900012    2    1    2    0    0  0.36879937477E+00  0.27965980302E+00  0.10855862454E+01  0.90007864381E+02  0.90000127390E+02 0.  0.
        -12    1    1    2    0    0 -0.36879937477E+00 -0.27965980302E+00 -0.10855862454E+01  0.11801356195E+01  0.00000000000E+00 0.  1.
         11    1    3    3    0    0  0.14846017194E+02  0.31422688453E+02  0.15094310494E+02  0.37889679145E+02  0.51100000000E-03 0. -1.
        -11    1    3    3    0    0  0.98204376213E+01  0.10185925178E+01 -0.21900561225E+01  0.10113103968E+02  0.51100000000E-03 0.  1.
        -12    1    3    3    0    0 -0.24297655441E+02 -0.32161621168E+02 -0.11818668126E+02  0.42005081268E+02  0.00000000000E+00 0.  1.
</event>
<event>
 7    1  0.2232484E-015  0.9000781E+02  0.7816164E-02  0.1186339E+00
        -11   -1    0    0    0    0  0.00000000000E+00  0.00000000000E+00  0.45593999997E+02  0.45594000000E+02  0.51100000000E-03 0.  1.
         11   -1    0    0    0    0 -0.00000000000E+00 -0.00000000000E+00 -0.45593999997E+02  0.45594000000E+02  0.51100000000E-03 0. -1.
    9900012    2    1    2    0    0 -0.38140689794E+00 -0.87460897851E+00 -0.69457481428E+00  0.90007810922E+02  0.90000073226E+02 0.  0.
        -12    1    1    2    0    0  0.38140689794E+00  0.87460897851E+00  0.69457481428E+00  0.11801890780E+01  0.00000000000E+00 0.  1.
         11    1    3    3    0    0  0.57597985063E+01 -0.51510630554E+01 -0.81051442014E+01  0.11198307561E+02  0.51100000000E-03 0. -1.
        -11    1    3    3    0    0 -0.29568176524E+02 -0.21891861864E+02 -0.11977432764E+02  0.38690949519E+02  0.51100000000E-03 0.  1.
         12    1    3    3    0    0  0.23426971119E+02  0.26168315941E+02  0.19388002151E+02  0.40118553843E+02  0.00000000000E+00 0. -1.
</event>
<event>
 7    1  0.2232484E-015  0.9000776E+02  0.7816164E-02  0.1186339E+00
        -11   -1    0    0    0    0  0.00000000000E+00  0.00000000000E+00  0.45593999997E+02  0.45594000000E+02  0.51100000000E-03 0.  1.
         11   -1    0    0    0    0 -0.00000000000E+00 -0.00000000000E+00 -0.45593999997E+02  0.45594000000E+02  0.51100000000E-03 0. -1.
    9900012    2    1    2    0    0  0.78982131844E+00  0.78965856203E+00  0.38155128828E+00  0.90007762844E+02  0.90000024513E+02 0.  0.
        -12    1    1    2    0    0 -0.78982131844E+00 -0.78965856203E+00 -0.38155128828E+00  0.11802371563E+01  0.00000000000E+00 0.  1.
         11    1    3    3    0    0  0.38707190915E+02  0.14287682324E+02 -0.35947856993E+01  0.41416264670E+02  0.51100000000E-03 0. -1.
        -11    1    3    3    0    0 -0.48696019006E+01  0.72919344694E+01  0.37780446497E+01  0.95477197598E+01  0.51100000000E-03 0.  1.
        -12    1    3    3    0    0 -0.33047767696E+02 -0.20789958231E+02  0.19829233796E+00  0.39043778414E+02  0.00000000000E+00 0.  1.
</event>
<event>
 7    1  0.2232484E-015  0.9000806E+02  0.7816164E-02  0.1186338E+00
        -11   -1    0    0    0    0  0.00000000000E+00  0.00000000000E+00  0.45593999997E+02  0.45594000000E+02  0.51100000000E-03 0. -1.
         11   -1    0    0    0    0 -0.00000000000E+00 -0.00000000000E+00 -0.45593999997E+02  0.45594000000E+02  0.51100000000E-03 0.  1.
    9900012    2    1    2    0    0 -0.97322016816E+00 -0.53282386826E+00 -0.40150016964E+00  0.90008058833E+02  0.90000324409E+02 0.  0.
        -12    1    1    2    0    0  0.97322016816E+00  0.53282386826E+00  0.40150016964E+00  0.11799411666E+01  0.00000000000E+00 0.  1.
         11    1    3    3    0    0 -0.28896666909E+01  0.11236269604E+01 -0.10787244105E+02  0.11223963060E+02  0.51100000000E-03 0. -1.
        -11    1    3    3    0    0  0.10090586662E+02  0.89286148654E+01 -0.31796016944E+02  0.34532981284E+02  0.51100000000E-03 0.  1.
         12    1    3    3    0    0 -0.81741401390E+01 -0.10585065694E+02  0.42181760879E+02  0.44251114490E+02  0.00000000000E+00 0. -1.
</event>
<event>
 7    1  0.2232484E-015  0.9000774E+02  0.7816164E-02  0.1186339E+00
        -11   -1    0    0    0    0  0.00000000000E+00  0.00000000000E+00  0.45593999997E+02  0.45594000000E+02  0.51100000000E-03 0. -1.
         11   -1    0    0    0    0 -0.00000000000E+00 -0.00000000000E+00 -0.45593999997E+02  0.45594000000E+02  0.51100000000E-03 0.  1.
    9900012    2    1    2    0    0  0.75626116950E+00  0.74679605026E+00  0.51320427829E+00  0.90007739890E+02  0.90000001256E+02 0.  0.
        -12    1    1    2    0    0 -0.75626116950E+00 -0.74679605026E+00 -0.51320427829E+00  0.11802601105E+01  0.00000000000E+00 0.  1.
         11    1    3    3    0    0 -0.17103844606E+02 -0.32072222538E+02  0.82562409690E+01  0.37273777298E+02  0.51100000000E-03 0. -1.
        -11    1    3    3    0    0 -0.81074420976E+01 -0.37029086391E+00  0.39143341917E+01  0.90105352291E+01  0.51100000000E-03 0.  1.
        -12    1    3    3    0    0  0.25967547873E+02  0.33189309452E+02 -0.11657370882E+02  0.43723427363E+02  0.00000000000E+00 0.  1.
</event>
<event>
 7    1  0.2232484E-015  0.9000783E+02  0.7816164E-02  0.1186339E+00
        -11   -1    0    0    0    0  0.00000000000E+00  0.00000000000E+00  0.45593999997E+02  0.45594000000E+02  0.51100000000E-03 0.  1.
         11   -1    0    0    0    0 -0.00000000000E+00 -0.00000000000E+00 -0.45593999997E+02  0.45594000000E+02  0.51100000000E-03 0. -1.
    9900012    2    1    2    0    0  0.16217959896E+00 -0.10493110122E+00 -0.11642518272E+01  0.90007832607E+02  0.90000095197E+02 0.  0.
        -12    1    1    2    0    0 -0.16217959896E+00  0.10493110122E+00  0.11642518272E+01  0.11801673930E+01  0.00000000000E+00 0.  1.
         11    1    3    3    0    0 -0.20291302602E+01 -0.81098275209E+01 -0.40923310937E+01  0.93077304469E+01  0.51100000000E-03 0. -1.
        -11    1    3    3    0    0  0.67646757509E+01 -0.35382923205E+02  0.76183406049E+01  0.36820526971E+02  0.51100000000E-03 0.  1.
         12    1    3    3    0    0 -0.45733658918E+01  0.43387819625E+02 -0.46902613385E+01  0.43879575189E+02  0.00000000000E+00 0. -1.
</event>
<event>
 7    1  0.2232484E-015  0.9000769E+02  0.7816164E-02  0.1186339E+00
        -11   -1    0    0    0    0  0.00000000000E+00  0.00000000000E+00  0.45593999997E+02  0.45594000000E+02  0.51100000000E-03 0.  1.
         11   -1    0    0    0    0 -0.00000000000E+00 -0.00000000000E+00 -0.45593999997E+02  0.45594000000E+02  0.51100000000E-03 0. -1.
    9900012    2    1    2    0    0  0.40392447347E+00 -0.10884194752E+01  0.21289234875E+00  0.90007688564E+02  0.89999949253E+02 0.  0.
        -12    1    1    2    0    0 -0.40392447347E+00  0.10884194752E+01 -0.21289234875E+00  0.11803114362E+01  0.00000000000E+00 0.  1.
         11    1    3    3    0    0  0.43259728062E+01  0.14595035093E+01 -0.69846420764E+01  0.83444242707E+01  0.51100000000E-03 0. -1.
        -11    1    3    3    0    0  0.18958143341E+02  0.19714691588E+01 -0.31303209341E+02  0.36649540309E+02  0.51100000000E-03 0.  1.
         12    1    3    3    0    0 -0.22880191674E+02 -0.45193921433E+01  0.38500743766E+02  0.45013723984E+02  0.00000000000E+00 0. -1.
</event>
<event>
 7    1  0.2232484E-015  0.9000780E+02  0.7816164E-02  0.1186339E+00
        -11   -1    0    0    0    0  0.00000000000E+00  0.00000000000E+00  0.45593999997E+02  0.45594000000E+02  0.51100000000E-03 0.  1.
         11   -1    0    0    0    0 -0.00000000000E+00 -0.00000000000E+00 -0.45593999997E+02  0.45594000000E+02  0.51100000000E-03 0. -1.
    9900012    2    1    2    0    0  0.10959585449E+01 -0.39766445799E+00  0.18334040120E+00  0.90007798383E+02  0.90000060522E+02 0.  0.
        -12    1    1    2    0    0 -0.10959585449E+01  0.39766445799E+00 -0.18334040120E+00  0.11802016166E+01  0.00000000000E+00 0.  1.
         11    1    3    3    0    0  0.16973961588E+01  0.32587676675E+01  0.12212590910E+02  0.12753356320E+02  0.51100000000E-03 0. -1.
        -11    1    3    3    0    0 -0.17965923032E+02  0.28082255906E+02  0.10113540821E+02  0.34837784019E+02  0.51100000000E-03 0.  1.
         12    1    3    3    0    0  0.17364485418E+02 -0.31738688032E+02 -0.22142791329E+02  0.42416658044E+02  0.00000000000E+00 0. -1.
</event>
<event>
 7    1  0.2365989E-015  0.9000753E+02  0.7816164E-02  0.1186339E+00
        -11   -1    0    0    0    0  0.00000000000E+00  0.00000000000E+00  0.45593999997E+02  0.45594000000E+02  0.51100000000E-03 0.  1.
         11   -1    0    0    0    0 -0.00000000000E+00 -0.00000000000E+00 -0.45593999997E+02  0.45594000000E+02  0.51100000000E-03 0. -1.
    9900012    2    1    2    0    0  0.90903525124E+00  0.74372404284E+00 -0.11846864141E+00  0.90007531721E+02  0.89999790339E+02 0.  0.
        -12    1    1    2    0    0 -0.90903525124E+00 -0.74372404284E+00  0.11846864141E+00  0.11804682795E+01  0.00000000000E+00 0.  1.
         11    1    3    3    0    0  0.98095819916E+01  0.74961298601E+00 -0.12649885045E+01  0.99191740914E+01  0.51100000000E-03 0. -1.
        -11    1    3    3    0    0 -0.10654109905E+02 -0.19210490780E+02  0.34886268961E+02  0.41226263184E+02  0.51100000000E-03 0.  1.
         12    1    3    3    0    0  0.17535631646E+01  0.19204601837E+02 -0.33739749098E+02  0.38862094445E+02  0.00000000000E+00 0. -1.
</event>
<event>
 7    1  0.2232484E-015  0.9000768E+02  0.7816164E-02  0.1186339E+00
        -11   -1    0    0    0    0  0.00000000000E+00  0.00000000000E+00  0.45593999997E+02  0.45594000000E+02  0.51100000000E-03 0.  1.
         11   -1    0    0    0    0 -0.00000000000E+00 -0.00000000000E+00 -0.45593999997E+02  0.45594000000E+02  0.51100000000E-03 0. -1.
    9900012    2    1    2    0    0  0.10346189389E+01 -0.54499218745E+00  0.16031599337E+00  0.90007680530E+02  0.89999941113E+02 0.  0.
        -12    1    1    2    0    0 -0.10346189389E+01  0.54499218745E+00 -0.16031599337E+00  0.11803194698E+01  0.00000000000E+00 0.  1.
         11    1    3    3    0    0 -0.19726422809E+02 -0.22720826484E+02  0.24520030158E+02  0.38814940322E+02  0.51100000000E-03 0. -1.
        -11    1    3    3    0    0  0.13230467352E+00  0.47251522015E+01  0.78421745792E+01  0.91566516940E+01  0.51100000000E-03 0.  1.
        -12    1    3    3    0    0  0.20628737074E+02  0.17450682095E+02 -0.32201888744E+02  0.42036088514E+02  0.00000000000E+00 0.  1.
</event>
<event>
 7    1  0.2232484E-015  0.9000776E+02  0.7816164E-02  0.1186339E+00
        -11   -1    0    0    0    0  0.00000000000E+00  0.00000000000E+00  0.45593999997E+02  0.45594000000E+02  0.51100000000E-03 0.  1.
         11   -1    0    0    0    0 -0.00000000000E+00 -0.00000000000E+00 -0.45593999997E+02  0.45594000000E+02  0.51100000000E-03 0. -1.
    9900012    2    1    2    0    0  0.63914108760E+00  0.99170196712E+00 -0.31443331846E-01  0.90007761548E+02  0.90000023200E+02 0.  0.
        -12    1    1    2    0    0 -0.63914108760E+00 -0.99170196712E+00  0.31443331846E-01  0.11802384524E+01  0.00000000000E+00 0.  1.
         11    1    3    3    0    0 -0.33189766882E+02 -0.11115693628E+02 -0.70860124780E+01  0.35711774580E+02  0.51100000000E-03 0. -1.
        -11    1    3    3    0    0 -0.31770072577E+01  0.18957580310E+00 -0.10985125543E+02  0.11436883210E+02  0.51100000000E-03 0.  1.
        -12    1    3    3    0    0  0.37005915228E+02  0.11917819792E+02  0.18039694689E+02  0.42859103758E+02  0.00000000000E+00 0.  1.
</event>
<event>
 7    1  0.2232484E-015  0.9000778E+02  0.7816164E-02  0.1186339E+00
        -11   -1    0    0    0    0  0.00000000000E+00  0.00000000000E+00  0.45593999997E+02  0.45594000000E+02  0.51100000000E-03 0.  1.
         11   -1    0    0    0    0 -0.00000000000E+00 -0.00000000000E+00 -0.45593999997E+02  0.45594000000E+02  0.51100000000E-03 0. -1.
    9900012    2    1    2    0    0 -0.46456517699E+00  0.10242156065E+01 -0.35788178666E+00  0.90007780620E+02  0.90000042524E+02 0.  0.
        -12    1    1    2    0    0  0.46456517699E+00 -0.10242156065E+01  0.35788178666E+00  0.11802193802E+01  0.00000000000E+00 0.  1.
         11    1    3    3    0    0 -0.12116914085E+01 -0.44169686247E+01 -0.10851178419E+02  0.11778195160E+02  0.51100000000E-03 0. -1.
        -11    1    3    3    0    0  0.14537921638E+02  0.37459980488E+02 -0.41924562010E+01  0.40400222685E+02  0.51100000000E-03 0.  1.
         12    1    3    3    0    0 -0.13790795406E+02 -0.32018796257E+02  0.14685752833E+02  0.37829362775E+02  0.00000000000E+00 0. -1.
</event>
<event>
 7    1  0.2232484E-015  0.9000778E+02  0.7816164E-02  0.1186339E+00
        -11   -1    0    0    0    0  0.00000000000E+00  0.00000000000E+00  0.45593999997E+02  0.45594000000E+02  0.51100000000E-03 0.  1.
         11   -1    0    0    0    0 -0.00000000000E+00 -0.00000000000E+00 -0.45593999997E+02  0.45594000000E+02  0.51100000000E-03 0. -1.
    9900012    2    1    2    0    0 -0.76381097497E+00  0.78037712006E+00 -0.44780186730E+00  0.90007778763E+02  0.90000040643E+02 0.  0.
        -12    1    1    2    0    0  0.76381097497E+00 -0.78037712006E+00  0.44780186730E+00  0.11802212366E+01  0.00000000000E+00 0.  1.
         11    1    3    3    0    0 -0.30656919130E+01  0.37069976403E+02  0.78584730189E+01  0.38017590874E+02  0.51100000000E-03 0. -1.
        -11    1    3    3    0    0 -0.67860114847E+01  0.44990118098E+01 -0.60443085127E+01  0.10140252699E+02  0.51100000000E-03 0.  1.
        -12    1    3    3    0    0  0.90878924228E+01 -0.40788611093E+02 -0.22619663735E+01  0.41849935190E+02  0.00000000000E+00 0.  1.
</event>
<event>
 7    1  0.2232484E-015  0.9000774E+02  0.7816164E-02  0.1186339E+00
        -11   -1    0    0    0    0  0.00000000000E+00  0.00000000000E+00  0.45593999997E+02  0.45594000000E+02  0.51100000000E-03 0. -1.
         11   -1    0    0    0    0 -0.00000000000E+00 -0.00000000000E+00 -0.45593999997E+02  0.45594000000E+02  0.51100000000E-03 0.  1.
    9900012    2    1    2    0    0 -0.36823226350E+00  0.10831805737E+01  0.29008193117E+00  0.90007736181E+02  0.89999997499E+02 0.  0.
        -12    1    1    2    0    0  0.36823226350E+00 -0.10831805737E+01 -0.29008193117E+00  0.11802638188E+01  0.00000000000E+00 0.  1.
         11    1    3    3    0    0  0.34919352367E+01  0.80392095957E+00  0.82917827264E+01  0.90329154568E+01  0.51100000000E-03 0. -1.
        -11    1    3    3    0    0  0.13240252644E+02  0.16737511115E+02  0.29610891139E+02  0.36500047160E+02  0.51100000000E-03 0.  1.
         12    1    3    3    0    0 -0.17100420144E+02 -0.16458251501E+02 -0.37612591934E+02  0.44474773564E+02  0.00000000000E+00 0. -1.
</event>
<event>
 7    1  0.2232484E-015  0.9000773E+02  0.7816164E-02  0.1186339E+00
        -11   -1    0    0    0    0  0.00000000000E+00  0.00000000000E+00  0.45593999997E+02  0.45594000000E+02  0.51100000000E-03 0.  1.
         11   -1    0    0    0    0 -0.00000000000E+00 -0.00000000000E+00 -0.45593999997E+02  0.45594000000E+02  0.51100000000E-03 0. -1.
    9900012    2    1    2    0    0  0.81126285395E+00  0.29937212754E-01 -0.85673627452E+00  0.90007728549E+02  0.89999989765E+02 0.  0.
        -12    1    1    2    0    0 -0.81126285395E+00 -0.29937212754E-01  0.85673627452E+00  0.11802714514E+01  0.00000000000E+00 0.  1.
         11    1    3    3    0    0  0.32528485936E+02 -0.10815375727E+02 -0.19268867144E+02  0.39323834893E+02  0.51100000000E-03 0. -1.
        -11    1    3    3    0    0 -0.58568881580E+01  0.22369241456E+01 -0.96862816727E+01  0.11538241696E+02  0.51100000000E-03 0.  1.
        -12    1    3    3    0    0 -0.25860334924E+02  0.86083887944E+01  0.28098412542E+02  0.39145651960E+02  0.00000000000E+00 0.  1.
</event>
<event>
 7    1  0.2232484E-015  0.9000777E+02  0.7816164E-02  0.1186339E+00
        -11   -1    0    0    0    0  0.00000000000E+00  0.00000000000E+00  0.45593999997E+02  0.45594000000E+02  0.51100000000E-03 0.  1.
         11   -1    0    0    0    0 -0.00000000000E+00 -0.00000000000E+00 -0.45593999997E+02  0.45594000000E+02  0.51100000000E-03 0. -1.
    9900012    2    1    2    0    0 -0.21744779235E+00 -0.10021978831E+01 -0.58417567580E+00  0.90007768938E+02  0.90000030688E+02 0.  0.
        -12    1    1    2    0    0  0.21744779235E+00  0.10021978831E+01  0.58417567580E+00  0.11802310619E+01  0.00000000000E+00 0.  1.
         11    1    3    3    0    0 -0.17060278102E+02 -0.29306164302E+02 -0.18455067769E+02  0.38606914946E+02  0.51100000000E-03 0. -1.
        -11    1    3    3    0    0  0.33827276624E+01 -0.18479907568E+01 -0.83758349103E+01  0.92202238032E+01  0.51100000000E-03 0.  1.
        -12    1    3    3    0    0  0.13460102647E+02  0.30151957176E+02  0.26246727003E+02  0.42180630189E+02  0.00000000000E+00 0.  1.
</event>
<event>
 7    1  0.2232484E-015  0.9000770E+02  0.7816164E-02  0.1186339E+00
        -11   -1    0    0    0    0  0.00000000000E+00  0.00000000000E+00  0.45593999997E+02  0.45594000000E+02  0.51100000000E-03 0. -1.
         11   -1    0    0    0    0 -0.00000000000E+00 -0.00000000000E+00 -0.45593999997E+02  0.45594000000E+02  0.51100000000E-03 0.  1.
    9900012    2    1    2    0    0 -0.28371296226E+00 -0.24218286699E+00  0.11198075411E+01  0.90007697278E+02  0.89999958082E+02 0.  0.
        -12    1    1    2    0    0  0.28371296226E+00  0.24218286699E+00 -0.11198075411E+01  0.11803027218E+01  0.00000000000E+00 0.  1.
         11    1    3    3    0    0  0.24510309855E+01  0.11729045867E+02 -0.20285095329E+01  0.12152897639E+02  0.51100000000E-03 0. -1.
        -11    1    3    3    0    0  0.24534996353E+02 -0.90036924713E+01 -0.26668487167E+02  0.37339533101E+02  0.51100000000E-03 0.  1.
         12    1    3    3    0    0 -0.27269740300E+02 -0.29675362625E+01  0.29816804241E+02  0.40515266538E+02  0.00000000000E+00 0. -1.
</event>
<event>
 7    1  0.2232484E-015  0.9000779E+02  0.7816164E-02  0.1186339E+00
        -11   -1    0    0    0    0  0.00000000000E+00  0.00000000000E+00  0.45593999997E+02  0.45594000000E+02  0.51100000000E-03 0.  1.
         11   -1    0    0    0    0 -0.00000000000E+00 -0.00000000000E+00 -0.45593999997E+02  0.45594000000E+02  0.51100000000E-03 0. -1.
    9900012    2    1    2    0    0  0.30050769534E+00 -0.58897638460E-01 -0.11397865127E+01  0.90007793619E+02  0.90000055695E+02 0.  0.
        -12    1    1    2    0    0 -0.30050769534E+00  0.58897638460E-01  0.11397865127E+01  0.11802063808E+01  0.00000000000E+00 0.  1.
         11    1    3    3    0    0 -0.27623054566E+02  0.10070642916E+02 -0.15317552753E+02  0.33152351574E+02  0.51100000000E-03 0. -1.
        -11    1    3    3    0    0  0.14143737653E+02 -0.19329389469E+02 -0.11284838718E+02  0.26476748236E+02  0.51100000000E-03 0.  1.
        -12    1    3    3    0    0  0.13779824609E+02  0.91998489142E+01  0.25462604958E+02  0.30378693809E+02  0.00000000000E+00 0.  1.
</event>
<event>
 7    1  0.2232484E-015  0.9000782E+02  0.7816164E-02  0.1186339E+00
        -11   -1    0    0    0    0  0.00000000000E+00  0.00000000000E+00  0.45593999997E+02  0.45594000000E+02  0.51100000000E-03 0.  1.
         11   -1    0    0    0    0 -0.00000000000E+00 -0.00000000000E+00 -0.45593999997E+02  0.45594000000E+02  0.51100000000E-03 0. -1.
    9900012    2    1    2    0    0 -0.10907487746E+01 -0.39924904789E+00  0.20903893168E+00  0.90007817825E+02  0.90000080220E+02 0.  0.
        -12    1    1    2    0    0  0.10907487746E+01  0.39924904789E+00 -0.20903893168E+00  0.11801821751E+01  0.00000000000E+00 0.  1.
         11    1    3    3    0    0  0.10664576674E+01 -0.61218111221E+01  0.74419927395E+01  0.96952132296E+01  0.51100000000E-03 0. -1.
        -11    1    3    3    0    0 -0.21699016276E+02  0.20564813571E+02  0.25575045387E+02  0.39342620799E+02  0.51100000000E-03 0.  1.
         12    1    3    3    0    0  0.19541809834E+02 -0.14842251497E+02 -0.32807999194E+02  0.40969983796E+02  0.00000000000E+00 0. -1.
</event>
<event>
 7    1  0.2232484E-015  0.9000771E+02  0.7816164E-02  0.1186339E+00
        -11   -1    0    0    0    0  0.00000000000E+00  0.00000000000E+00  0.45593999997E+02  0.45594000000E+02  0.51100000000E-03 0. -1.
         11   -1    0    0    0    0 -0.00000000000E+00 -0.00000000000E+00 -0.45593999997E+02  0.45594000000E+02  0.51100000000E-03 0.  1.
    9900012    2    1    2    0    0  0.10267341871E+01  0.56226630283E+00 -0.15089418880E+00  0.90007705315E+02  0.89999966226E+02 0.  0.
        -12    1    1    2    0    0 -0.10267341871E+01 -0.56226630283E+00  0.15089418880E+00  0.11802946846E+01  0.00000000000E+00 0.  1.
         11    1    3    3    0    0  0.21156034509E+01 -0.95277069188E+01 -0.11045895148E+02  0.14739904239E+02  0.51100000000E-03 0. -1.
        -11    1    3    3    0    0 -0.18520338784E+02 -0.19427519949E+02 -0.16394429992E+02  0.31451690178E+02  0.51100000000E-03 0.  1.
         12    1    3    3    0    0  0.17431469520E+02  0.29517493170E+02  0.27289430951E+02  0.43816110899E+02  0.00000000000E+00 0. -1.
</event>
<event>
 7    1  0.2232484E-015  0.9000773E+02  0.7816164E-02  0.1186339E+00
        -11   -1    0    0    0    0  0.00000000000E+00  0.00000000000E+00  0.45593999997E+02  0.45594000000E+02  0.51100000000E-03 0.  1.
         11   -1    0    0    0    0 -0.00000000000E+00 -0.00000000000E+00 -0.45593999997E+02  0.45594000000E+02  0.51100000000E-03 0. -1.
    9900012    2    1    2    0    0  0.77286676587E+00  0.19256625008E+00 -0.87100032435E+00  0.90007726149E+02  0.89999987334E+02 0.  0.
        -12    1    1    2    0    0 -0.77286676587E+00 -0.19256625008E+00  0.87100032435E+00  0.11802738511E+01  0.00000000000E+00 0.  1.
         11    1    3    3    0    0  0.52147080782E+00  0.66123905213E+01  0.75503295171E+01  0.10050030661E+02  0.51100000000E-03 0. -1.
        -11    1    3    3    0    0  0.35044502754E+02  0.64355951497E+01  0.12023202783E+02  0.37604407502E+02  0.51100000000E-03 0.  1.
         12    1    3    3    0    0 -0.34793106796E+02 -0.12855419421E+02 -0.20444532624E+02  0.42353287986E+02  0.00000000000E+00 0. -1.
</event>
<event>
 7    1  0.2232484E-015  0.9000772E+02  0.7816164E-02  0.1186339E+00
        -11   -1    0    0    0    0  0.00000000000E+00  0.00000000000E+00  0.45593999997E+02  0.45594000000E+02  0.51100000000E-03 0. -1.
         11   -1    0    0    0    0 -0.00000000000E+00 -0.00000000000E+00 -0.45593999997E+02  0.45594000000E+02  0.51100000000E-03 0.  1.
    9900012    2    1    2    0    0 -0.61940626821E+00 -0.10039326062E+01  0.39008415790E-01  0.90007717636E+02  0.89999978708E+02 0.  0.
        -12    1    1    2    0    0  0.61940626821E+00  0.10039326062E+01 -0.39008415790E-01  0.11802823643E+01  0.00000000000E+00 0.  1.
         11    1    3    3    0    0 -0.38456230568E+01  0.28568625865E+01 -0.86981826880E+01  0.99301995382E+01  0.51100000000E-03 0. -1.
        -11    1    3    3    0    0 -0.26308370237E+02 -0.16519096237E+02 -0.20018931377E+02  0.36956305264E+02  0.51100000000E-03 0.  1.
         12    1    3    3    0    0  0.29534587026E+02  0.12658301044E+02  0.28756122481E+02  0.43121212834E+02  0.00000000000E+00 0. -1.
</event>
<event>
 7    1  0.2232484E-015  0.9000780E+02  0.7816164E-02  0.1186339E+00
        -11   -1    0    0    0    0  0.00000000000E+00  0.00000000000E+00  0.45593999997E+02  0.45594000000E+02  0.51100000000E-03 0. -1.
         11   -1    0    0    0    0 -0.00000000000E+00 -0.00000000000E+00 -0.45593999997E+02  0.45594000000E+02  0.51100000000E-03 0.  1.
    9900012    2    1    2    0    0  0.14498616603E+00 -0.22333972949E-01  0.11710485063E+01  0.90007799001E+02  0.90000061147E+02 0.  0.
        -12    1    1    2    0    0 -0.14498616603E+00  0.22333972949E-01 -0.11710485063E+01  0.11802009994E+01  0.00000000000E+00 0.  1.
         11    1    3    3    0    0  0.18450603745E+01 -0.22275845067E+00 -0.15552958147E+02  0.15663600369E+02  0.51100000000E-03 0. -1.
        -11    1    3    3    0    0 -0.28981138216E+01  0.21118211117E+02 -0.21800962188E+02  0.30490323991E+02  0.51100000000E-03 0.  1.
         12    1    3    3    0    0  0.11980396131E+01 -0.20917786639E+02  0.38524968841E+02  0.43853874641E+02  0.00000000000E+00 0. -1.
</event>
<event>
 7    1  0.2232484E-015  0.9000765E+02  0.7816164E-02  0.1186339E+00
        -11   -1    0    0    0    0  0.00000000000E+00  0.00000000000E+00  0.45593999997E+02  0.45594000000E+02  0.51100000000E-03 0.  1.
         11   -1    0    0    0    0 -0.00000000000E+00 -0.00000000000E+00 -0.45593999997E+02  0.45594000000E+02  0.51100000000E-03 0. -1.
    9900012    2    1    2    0    0 -0.94797539643E+00  0.57477469717E+00  0.40523125579E+00  0.90007645953E+02  0.89999906080E+02 0.  0.
        -12    1    1    2    0    0  0.94797539643E+00 -0.57477469717E+00 -0.40523125579E+00  0.11803540466E+01  0.00000000000E+00 0.  1.
         11    1    3    3    0    0  0.10112024184E+02  0.57279686509E+01 -0.49559185765E+01  0.12634230771E+02  0.51100000000E-03 0. -1.
        -11    1    3    3    0    0  0.26070689479E+02 -0.21978332172E+02 -0.69300317223E+01  0.34795880142E+02  0.51100000000E-03 0.  1.
         12    1    3    3    0    0 -0.37130689060E+02  0.16825138218E+02  0.12291181555E+02  0.42577535040E+02  0.00000000000E+00 0. -1.
</event>
<event>
 7    1  0.2232484E-015  0.9000774E+02  0.7816164E-02  0.1186339E+00
        -11   -1    0    0    0    0  0.00000000000E+00  0.00000000000E+00  0.45593999997E+02  0.45594000000E+02  0.51100000000E-03 0.  1.
         11   -1    0    0    0    0 -0.00000000000E+00 -0.00000000000E+00 -0.45593999997E+02  0.45594000000E+02  0.51100000000E-03 0. -1.
    9900012    2    1    2    0    0 -0.73175400234E+00 -0.81678366384E+00  0.43635239715E+00  0.90007744567E+02  0.90000005995E+02 0.  0.
        -12    1    1    2    0    0  0.73175400234E+00  0.81678366384E+00 -0.43635239715E+00  0.11802554334E+01  0.00000000000E+00 0.  1.
         11    1    3    3    0    0  0.27073524507E+02 -0.88520939344E+01  0.29003318126E+02  0.40651294676E+02  0.51100000000E-03 0. -1.
        -11    1    3    3    0    0 -0.82514121019E+01 -0.47056701155E+01  0.31236793530E+01  0.99993252709E+01  0.51100000000E-03 0.  1.
        -12    1    3    3    0    0 -0.19553866407E+02  0.12740980386E+02 -0.31690645081E+02  0.39357124620E+02  0.00000000000E+00 0.  1.
</event>
<event>
 7    1  0.2232484E-015  0.9000849E+02  0.7816164E-02  0.1186338E+00
        -11   -1    0    0    0    0  0.00000000000E+00  0.00000000000E+00  0.45593999997E+02  0.45594000000E+02  0.51100000000E-03 0.  1.
         11   -1    0    0    0    0 -0.00000000000E+00 -0.00000000000E+00 -0.45593999997E+02  0.45594000000E+02  0.51100000000E-03 0. -1.
    9900012    2    1    2    0    0 -0.71001980123E+00 -0.94080763013E+00 -0.44586193624E-01  0.90008493729E+02  0.90000765043E+02 0.  0.
        -12    1    1    2    0    0  0.71001980123E+00  0.94080763013E+00  0.44586193624E-01  0.11795062712E+01  0.00000000000E+00 0.  1.
         11    1    3    3    0    0 -0.72845081292E+01 -0.45054272950E+01  0.62346920406E+01  0.10594069987E+02  0.51100000000E-03 0. -1.
        -11    1    3    3    0    0 -0.16219728737E+02  0.95930237919E+01  0.30425923208E+02  0.35788860125E+02  0.51100000000E-03 0.  1.
         12    1    3    3    0    0  0.22794217065E+02 -0.60284041270E+01 -0.36705201442E+02  0.43625563616E+02  0.00000000000E+00 0. -1.
</event>
<event>
 7    1  0.2232484E-015  0.9000773E+02  0.7816164E-02  0.1186339E+00
        -11   -1    0    0    0    0  0.00000000000E+00  0.00000000000E+00  0.45593999997E+02  0.45594000000E+02  0.51100000000E-03 0.  1.
         11   -1    0    0    0    0 -0.00000000000E+00 -0.00000000000E+00 -0.45593999997E+02  0.45594000000E+02  0.51100000000E-03 0. -1.
    9900012    2    1    2    0    0 -0.68916512537E+00 -0.57564208649E+00  0.76598155449E+00  0.90007728792E+02  0.89999990012E+02 0.  0.
        -12    1    1    2    0    0  0.68916512537E+00  0.57564208649E+00 -0.76598155449E+00  0.11802712076E+01  0.00000000000E+00 0.  1.
         11    1    3    3    0    0 -0.13709156288E+02 -0.14000210604E+02 -0.30919300595E+02  0.36605327653E+02  0.51100000000E-03 0. -1.
        -11    1    3    3    0    0 -0.98403550206E+01  0.11078331589E+01 -0.27466328818E+01  0.10276374540E+02  0.51100000000E-03 0.  1.
        -12    1    3    3    0    0  0.22860346183E+02  0.12316735359E+02  0.34431915031E+02  0.43126026599E+02  0.00000000000E+00 0.  1.
</event>
<event>
 7    1  0.2232484E-015  0.9000771E+02  0.7816164E-02  0.1186339E+00
        -11   -1    0    0    0    0  0.00000000000E+00  0.00000000000E+00  0.45593999997E+02  0.45594000000E+02  0.51100000000E-03 0. -1.
         11   -1    0    0    0    0 -0.00000000000E+00 -0.00000000000E+00 -0.45593999997E+02  0.45594000000E+02  0.51100000000E-03 0.  1.
    9900012    2    1    2    0    0  0.11065014692E+01 -0.12876990821E+00  0.39008272171E+00  0.90007706935E+02  0.89999967866E+02 0.  0.
        -12    1    1    2    0    0 -0.11065014692E+01  0.12876990821E+00 -0.39008272171E+00  0.11802930654E+01  0.00000000000E+00 0.  1.
         11    1    3    3    0    0  0.22012202559E+02 -0.81537007776E+01 -0.16160005227E+02  0.28498520436E+02  0.51100000000E-03 0. -1.
        -11    1    3    3    0    0 -0.91678320362E+01  0.65389324322E+01 -0.20076533037E+02  0.23018991304E+02  0.51100000000E-03 0.  1.
         12    1    3    3    0    0 -0.11737869054E+02  0.14859984372E+01  0.36626620986E+02  0.38490195194E+02  0.00000000000E+00 0. -1.
</event>
<event>
 7    1  0.2232484E-015  0.9000772E+02  0.7816164E-02  0.1186339E+00
        -11   -1    0    0    0    0  0.00000000000E+00  0.00000000000E+00  0.45593999997E+02  0.45594000000E+02  0.51100000000E-03 0.  1.
         11   -1    0    0    0    0 -0.00000000000E+00 -0.00000000000E+00 -0.45593999997E+02  0.45594000000E+02  0.51100000000E-03 0. -1.
    9900012    2    1    2    0    0 -0.92168244771E+00 -0.69689299396E+00  0.24062342417E+00  0.90007721214E+02  0.89999982334E+02 0.  0.
        -12    1    1    2    0    0  0.92168244771E+00  0.69689299396E+00 -0.24062342417E+00  0.11802787856E+01  0.00000000000E+00 0.  1.
         11    1    3    3    0    0 -0.30585605695E+02 -0.26418009051E+02  0.61768883312E+01  0.40884525529E+02  0.51100000000E-03 0. -1.
        -11    1    3    3    0    0  0.53159920116E+00 -0.42859559987E+00 -0.97653724860E+01  0.97892181480E+01  0.51100000000E-03 0.  1.
        -12    1    3    3    0    0  0.29132324047E+02  0.26149711657E+02  0.38291075789E+01  0.39333977538E+02  0.00000000000E+00 0.  1.
</event>
<event>
 7    1  0.2232484E-015  0.9000695E+02  0.7816164E-02  0.1186341E+00
        -11   -1    0    0    0    0  0.00000000000E+00  0.00000000000E+00  0.45593999997E+02  0.45594000000E+02  0.51100000000E-03 0. -1.
         11   -1    0    0    0    0 -0.00000000000E+00 -0.00000000000E+00 -0.45593999997E+02  0.45594000000E+02  0.51100000000E-03 0.  1.
    9900012    2    1    2    0    0 -0.87270209792E-01 -0.89982150074E+00  0.75999033899E+00  0.90006949562E+02  0.89999200492E+02 0.  0.
        -12    1    1    2    0    0  0.87270209792E-01  0.89982150074E+00 -0.75999033899E+00  0.11810504384E+01  0.00000000000E+00 0.  1.
         11    1    3    3    0    0 -0.11841784834E+02  0.55311588470E+01  0.41912838053E+02  0.43903389164E+02  0.51100000000E-03 0. -1.
        -11    1    3    3    0    0 -0.38094552895E+01 -0.28583598078E+01 -0.81270124206E+01  0.94196869130E+01  0.51100000000E-03 0.  1.
        -12    1    3    3    0    0  0.15563969913E+02 -0.35726205399E+01 -0.33025835293E+02  0.36683873484E+02  0.00000000000E+00 0.  1.
</event>
<event>
 7    1  0.2232484E-015  0.9000774E+02  0.7816164E-02  0.1186339E+00
        -11   -1    0    0    0    0  0.00000000000E+00  0.00000000000E+00  0.45593999997E+02  0.45594000000E+02  0.51100000000E-03 0.  1.
         11   -1    0    0    0    0 -0.00000000000E+00 -0.00000000000E+00 -0.45593999997E+02  0.45594000000E+02  0.51100000000E-03 0. -1.
    9900012    2    1    2    0    0 -0.69504067863E+00 -0.13831146375E+00 -0.94382282938E+00  0.90007740224E+02  0.90000001595E+02 0.  0.
        -12    1    1    2    0    0  0.69504067863E+00  0.13831146375E+00  0.94382282938E+00  0.11802597762E+01  0.00000000000E+00 0.  1.
         11    1    3    3    0    0 -0.12425003049E+02  0.10866192407E+02 -0.33852358951E+02  0.37662143394E+02  0.51100000000E-03 0. -1.
        -11    1    3    3    0    0 -0.76192701279E+00 -0.25928799643E+01 -0.81636943485E+01  0.85993874758E+01  0.51100000000E-03 0.  1.
        -12    1    3    3    0    0  0.12491889383E+02 -0.84116239067E+01  0.41072230470E+02  0.43746209354E+02  0.00000000000E+00 0.  1.
</event>
<event>
 7    1  0.2232484E-015  0.9000783E+02  0.7816164E-02  0.1186339E+00
        -11   -1    0    0    0    0  0.00000000000E+00  0.00000000000E+00  0.45593999997E+02  0.45594000000E+02  0.51100000000E-03 0. -1.
         11   -1    0    0    0    0 -0.00000000000E+00 -0.00000000000E+00 -0.45593999997E+02  0.45594000000E+02  0.51100000000E-03 0.  1.
    9900012    2    1    2    0    0 -0.78722493688E+00  0.59348201558E+00  0.64874322682E+00  0.90007825531E+02  0.90000088027E+02 0.  0.
        -12    1    1    2    0    0  0.78722493688E+00 -0.59348201558E+00 -0.64874322682E+00  0.11801744695E+01  0.00000000000E+00 0.  1.
         11    1    3    3    0    0  0.64120209008E+01  0.21687199254E+01 -0.87026721385E+01  0.11025146745E+02  0.51100000000E-03 0. -1.
        -11    1    3    3    0    0  0.90834763505E+01  0.24316566198E+02 -0.22841551284E+02  0.34576601909E+02  0.51100000000E-03 0.  1.
         12    1    3    3    0    0 -0.16282722188E+02 -0.25891804108E+02  0.32192966649E+02  0.44406076876E+02  0.00000000000E+00 0. -1.
</event>
<event>
 7    1  0.2232484E-015  0.9000772E+02  0.7816164E-02  0.1186339E+00
        -11   -1    0    0    0    0  0.00000000000E+00  0.00000000000E+00  0.45593999997E+02  0.45594000000E+02  0.51100000000E-03 0.  1.
         11   -1    0    0    0    0 -0.00000000000E+00 -0.00000000000E+00 -0.45593999997E+02  0.45594000000E+02  0.51100000000E-03 0. -1.
    9900012    2    1    2    0    0 -0.53076623275E+00 -0.92867265198E-01  0.10501050877E+01  0.90007721296E+02  0.89999982418E+02 0.  0.
        -12    1    1    2    0    0  0.53076623275E+00  0.92867265198E-01 -0.10501050877E+01  0.11802787035E+01  0.00000000000E+00 0.  1.
         11    1    3    3    0    0  0.39383280233E+01  0.22704941116E+02 -0.37041057818E+02  0.43624130286E+02  0.51100000000E-03 0. -1.
        -11    1    3    3    0    0 -0.48933425917E+00 -0.91500303071E+01  0.51627415497E+01  0.10517433299E+02  0.51100000000E-03 0.  1.
        -12    1    3    3    0    0 -0.39797599968E+01 -0.13647778074E+02  0.32928421356E+02  0.35866157711E+02  0.00000000000E+00 0.  1.
</event>
<event>
 7    1  0.2232484E-015  0.9000766E+02  0.7816164E-02  0.1186339E+00
        -11   -1    0    0    0    0  0.00000000000E+00  0.00000000000E+00  0.45593999997E+02  0.45594000000E+02  0.51100000000E-03 0. -1.
         11   -1    0    0    0    0 -0.00000000000E+00 -0.00000000000E+00 -0.45593999997E+02  0.45594000000E+02  0.51100000000E-03 0.  1.
    9900012    2    1    2    0    0  0.10672558763E+01  0.18578960449E+00  0.46866081542E+00  0.90007662827E+02  0.89999923176E+02 0.  0.
        -12    1    1    2    0    0 -0.10672558763E+01 -0.18578960449E+00 -0.46866081542E+00  0.11803371732E+01  0.00000000000E+00 0.  1.
         11    1    3    3    0    0  0.24348345210E+01 -0.78451005109E+01  0.46258471300E+01  0.94272203274E+01  0.51100000000E-03 0. -1.
        -11    1    3    3    0    0  0.20684799754E+02  0.37868872115E+02  0.73790798650E+00  0.43156192192E+02  0.51100000000E-03 0.  1.
         12    1    3    3    0    0 -0.22052378398E+02 -0.29837981999E+02 -0.48950943011E+01  0.37424250307E+02  0.00000000000E+00 0. -1.
</event>
<event>
 7    1  0.2232484E-015  0.9000778E+02  0.7816164E-02  0.1186339E+00
        -11   -1    0    0    0    0  0.00000000000E+00  0.00000000000E+00  0.45593999997E+02  0.45594000000E+02  0.51100000000E-03 0.  1.
         11   -1    0    0    0    0 -0.00000000000E+00 -0.00000000000E+00 -0.45593999997E+02  0.45594000000E+02  0.51100000000E-03 0. -1.
    9900012    2    1    2    0    0 -0.42910182059E+00 -0.83616137793E+00 -0.71387313685E+00  0.90007784309E+02  0.90000046262E+02 0.  0.
        -12    1    1    2    0    0  0.42910182059E+00  0.83616137793E+00  0.71387313685E+00  0.11802156913E+01  0.00000000000E+00 0.  1.
         11    1    3    3    0    0  0.49355842057E+00  0.97709920074E+01 -0.27385088009E+02  0.29080215444E+02  0.51100000000E-03 0. -1.
        -11    1    3    3    0    0  0.19932067915E+02  0.79465122010E+01 -0.11876796497E+01  0.21490578651E+02  0.51100000000E-03 0.  1.
        -12    1    3    3    0    0 -0.20854728156E+02 -0.18553665586E+02  0.27858894522E+02  0.39436990214E+02  0.00000000000E+00 0.  1.
</event>
<event>
 7    1  0.2232484E-015  0.9000781E+02  0.7816164E-02  0.1186339E+00
        -11   -1    0    0    0    0  0.00000000000E+00  0.00000000000E+00  0.45593999997E+02  0.45594000000E+02  0.51100000000E-03 0. -1.
         11   -1    0    0    0    0 -0.00000000000E+00 -0.00000000000E+00 -0.45593999997E+02  0.45594000000E+02  0.51100000000E-03 0.  1.
    9900012    2    1    2    0    0 -0.15067952708E+00  0.46294688718E-02  0.11705219442E+01  0.90007810450E+02  0.90000072748E+02 0.  0.
        -12    1    1    2    0    0  0.15067952708E+00 -0.46294688718E-02 -0.11705219442E+01  0.11801895499E+01  0.00000000000E+00 0.  1.
         11    1    3    3    0    0  0.36139016458E+02 -0.97973527058E+01  0.70858455257E+01  0.38108081002E+02  0.51100000000E-03 0. -1.
        -11    1    3    3    0    0  0.50630518556E+01 -0.36592791800E+00  0.58250176802E+01  0.77265275881E+01  0.51100000000E-03 0.  1.
        -12    1    3    3    0    0 -0.41352747841E+02  0.10167910093E+02 -0.11740341262E+02  0.44173201860E+02  0.00000000000E+00 0.  1.
</event>
<event>
 7    1  0.2232484E-015  0.9000783E+02  0.7816164E-02  0.1186339E+00
        -11   -1    0    0    0    0  0.00000000000E+00  0.00000000000E+00  0.45593999997E+02  0.45594000000E+02  0.51100000000E-03 0.  1.
         11   -1    0    0    0    0 -0.00000000000E+00 -0.00000000000E+00 -0.45593999997E+02  0.45594000000E+02  0.51100000000E-03 0. -1.
    9900012    2    1    2    0    0  0.11308436970E+01 -0.67534964585E-01 -0.33079927472E+00  0.90007831962E+02  0.90000094544E+02 0.  0.
        -12    1    1    2    0    0 -0.11308436970E+01  0.67534964585E-01  0.33079927472E+00  0.11801680383E+01  0.00000000000E+00 0.  1.
         11    1    3    3    0    0  0.28108107868E+02 -0.26547837459E+02 -0.18206168843E+02  0.42735441800E+02  0.51100000000E-03 0. -1.
        -11    1    3    3    0    0  0.24222624964E+01  0.64904063835E+01  0.75605800005E+01  0.10254516119E+02  0.51100000000E-03 0.  1.
        -12    1    3    3    0    0 -0.29399526668E+02  0.19989896110E+02  0.10314789568E+02  0.37017874043E+02  0.00000000000E+00 0.  1.
</event>
<event>
 7    1  0.2232484E-015  0.9000772E+02  0.7816164E-02  0.1186339E+00
        -11   -1    0    0    0    0  0.00000000000E+00  0.00000000000E+00  0.45593999997E+02  0.45594000000E+02  0.51100000000E-03 0. -1.
         11   -1    0    0    0    0 -0.00000000000E+00 -0.00000000000E+00 -0.45593999997E+02  0.45594000000E+02  0.51100000000E-03 0.  1.
    9900012    2    1    2    0    0  0.78803517737E+00  0.84758179279E+00  0.23164436278E+00  0.90007723148E+02  0.89999984294E+02 0.  0.
        -12    1    1    2    0    0 -0.78803517737E+00 -0.84758179279E+00 -0.23164436278E+00  0.11802768519E+01  0.00000000000E+00 0.  1.
         11    1    3    3    0    0  0.22727089984E+02  0.85618334394E+01 -0.21342969273E+02  0.32331841096E+02  0.51100000000E-03 0. -1.
        -11    1    3    3    0    0 -0.30807301623E+01  0.19849298635E+02  0.84606527292E+01  0.21796059266E+02  0.51100000000E-03 0.  1.
        -12    1    3    3    0    0 -0.18858324645E+02 -0.27563550282E+02  0.13113960906E+02  0.35879822787E+02  0.00000000000E+00 0.  1.
</event>
<event>
 7    1  0.2232484E-015  0.9000774E+02  0.7816164E-02  0.1186339E+00
        -11   -1    0    0    0    0  0.00000000000E+00  0.00000000000E+00  0.45593999997E+02  0.45594000000E+02  0.51100000000E-03 0.  1.
         11   -1    0    0    0    0 -0.00000000000E+00 -0.00000000000E+00 -0.45593999997E+02  0.45594000000E+02  0.51100000000E-03 0. -1.
    9900012    2    1    2    0    0 -0.69621496400E+00  0.57203033175E+00 -0.76228164793E+00  0.90007742703E+02  0.90000004107E+02 0.  0.
        -12    1    1    2    0    0  0.69621496400E+00 -0.57203033175E+00  0.76228164793E+00  0.11802572971E+01  0.00000000000E+00 0.  1.
         11    1    3    3    0    0 -0.22623478640E+02 -0.28742166606E+02 -0.11158056227E+02  0.38241811490E+02  0.51100000000E-03 0. -1.
        -11    1    3    3    0    0  0.28539796547E+01 -0.64093492228E+01 -0.48124989230E+01  0.85079435514E+01  0.51100000000E-03 0.  1.
        -12    1    3    3    0    0  0.19073284021E+02  0.35723546161E+02  0.15208273502E+02  0.43257987662E+02  0.00000000000E+00 0.  1.
</event>
<event>
 7    1  0.2232484E-015  0.9000764E+02  0.7816164E-02  0.1186339E+00
        -11   -1    0    0    0    0  0.00000000000E+00  0.00000000000E+00  0.45593999997E+02  0.45594000000E+02  0.51100000000E-03 0.  1.
         11   -1    0    0    0    0 -0.00000000000E+00 -0.00000000000E+00 -0.45593999997E+02  0.45594000000E+02  0.51100000000E-03 0. -1.
    9900012    2    1    2    0    0  0.64857226957E-01  0.81911535609E+00 -0.84739756491E+00  0.90007644520E+02  0.89999904627E+02 0.  0.
        -12    1    1    2    0    0 -0.64857226957E-01 -0.81911535609E+00  0.84739756491E+00  0.11803554801E+01  0.00000000000E+00 0.  1.
         11    1    3    3    0    0 -0.25337686969E+01 -0.44722902473E+01  0.80489975954E+01  0.95502736305E+01  0.51100000000E-03 0. -1.
        -11    1    3    3    0    0  0.24439025490E+02 -0.18848155601E+02 -0.28873180399E+02  0.42263216667E+02  0.51100000000E-03 0.  1.
         12    1    3    3    0    0 -0.21840399566E+02  0.24139561204E+02  0.19976785238E+02  0.38194154223E+02  0.00000000000E+00 0. -1.
</event>
<event>
 7    1  0.2232484E-015  0.9000769E+02  0.7816164E-02  0.1186339E+00
        -11   -1    0    0    0    0  0.00000000000E+00  0.00000000000E+00  0.45593999997E+02  0.45594000000E+02  0.51100000000E-03 0. -1.
         11   -1    0    0    0    0 -0.00000000000E+00 -0.00000000000E+00 -0.45593999997E+02  0.45594000000E+02  0.51100000000E-03 0.  1.
    9900012    2    1    2    0    0  0.10377782844E+01  0.92396154827E-01  0.55461957931E+00  0.90007693389E+02  0.89999954142E+02 0.  0.
        -12    1    1    2    0    0 -0.10377782844E+01 -0.92396154827E-01 -0.55461957931E+00  0.11803066105E+01  0.00000000000E+00 0.  1.
         11    1    3    3    0    0 -0.72416492660E+00  0.40768057947E+02 -0.11898857398E+02  0.42475190067E+02  0.51100000000E-03 0. -1.
        -11    1    3    3    0    0 -0.74845304128E+01 -0.50776117196E+01  0.33355522171E+01  0.96398259906E+01  0.51100000000E-03 0.  1.
        -12    1    3    3    0    0  0.92464736238E+01 -0.35598050072E+02  0.91179247605E+01  0.37892677332E+02  0.00000000000E+00 0.  1.
</event>
<event>
 7    1  0.2232484E-015  0.9000763E+02  0.7816164E-02  0.1186339E+00
        -11   -1    0    0    0    0  0.00000000000E+00  0.00000000000E+00  0.45593999997E+02  0.45594000000E+02  0.51100000000E-03 0. -1.
         11   -1    0    0    0    0 -0.00000000000E+00 -0.00000000000E+00 -0.45593999997E+02  0.45594000000E+02  0.51100000000E-03 0.  1.
    9900012    2    1    2    0    0 -0.84481375752E+00 -0.41641155449E+00 -0.71144799181E+00  0.90007632637E+02  0.89999892587E+02 0.  0.
        -12    1    1    2    0    0  0.84481375752E+00  0.41641155449E+00  0.71144799181E+00  0.11803673634E+01  0.00000000000E+00 0.  1.
         11    1    3    3    0    0 -0.27494825505E+02  0.22757366645E+02 -0.25171221437E+02  0.43674403888E+02  0.51100000000E-03 0. -1.
        -11    1    3    3    0    0  0.36320485292E+01 -0.49710244950E+01 -0.23452392650E+01  0.65880959708E+01  0.51100000000E-03 0.  1.
        -12    1    3    3    0    0  0.23017963218E+02 -0.18202753704E+02  0.26805012710E+02  0.39745132777E+02  0.00000000000E+00 0.  1.
</event>
<event>
 7    1  0.2232484E-015  0.9000774E+02  0.7816164E-02  0.1186339E+00
        -11   -1    0    0    0    0  0.00000000000E+00  0.00000000000E+00  0.45593999997E+02  0.45594000000E+02  0.51100000000E-03 0. -1.
         11   -1    0    0    0    0 -0.00000000000E+00 -0.00000000000E+00 -0.45593999997E+02  0.45594000000E+02  0.51100000000E-03 0.  1.
    9900012    2    1    2    0    0 -0.19885513945E+00  0.10760796003E+01 -0.44218215636E+00  0.90007739125E+02  0.90000000482E+02 0.  0.
        -12    1    1    2    0    0  0.19885513945E+00 -0.10760796003E+01  0.44218215636E+00  0.11802608746E+01  0.00000000000E+00 0.  1.
         11    1    3    3    0    0 -0.10905485875E+02  0.14224184167E+01 -0.50863031321E+01  0.12117069618E+02  0.51100000000E-03 0. -1.
        -11    1    3    3    0    0 -0.15123460954E+02  0.32454169263E+02  0.49083126815E+01  0.36139780124E+02  0.51100000000E-03 0.  1.
         12    1    3    3    0    0  0.25830091690E+02 -0.32800508079E+02 -0.26419170582E+00  0.41750889383E+02  0.00000000000E+00 0. -1.
</event>
<event>
 7    1  0.2232484E-015  0.9000770E+02  0.7816164E-02  0.1186339E+00
        -11   -1    0    0    0    0  0.00000000000E+00  0.00000000000E+00  0.45593999997E+02  0.45594000000E+02  0.51100000000E-03 0.  1.
         11   -1    0    0    0    0 -0.00000000000E+00 -0.00000000000E+00 -0.45593999997E+02  0.45594000000E+02  0.51100000000E-03 0. -1.
    9900012    2    1    2    0    0 -0.78496134745E-01  0.66651393217E+00 -0.97092465800E+00  0.90007704632E+02  0.89999965533E+02 0.  0.
        -12    1    1    2    0    0  0.78496134745E-01 -0.66651393217E+00  0.97092465800E+00  0.11802953683E+01  0.00000000000E+00 0.  1.
         11    1    3    3    0    0  0.14991830109E+02  0.19352844404E+02 -0.50110982916E+01  0.24987970363E+02  0.51100000000E-03 0. -1.
        -11    1    3    3    0    0  0.28324759491E+01  0.18016705239E+02 -0.11233882217E+02  0.21420193687E+02  0.51100000000E-03 0.  1.
        -12    1    3    3    0    0 -0.17902802193E+02 -0.36703035711E+02  0.15274055851E+02  0.43599540581E+02  0.00000000000E+00 0.  1.
</event>
<event>
 7    1  0.2232484E-015  0.9000776E+02  0.7816164E-02  0.1186339E+00
        -11   -1    0    0    0    0  0.00000000000E+00  0.00000000000E+00  0.45593999997E+02  0.45594000000E+02  0.51100000000E-03 0. -1.
         11   -1    0    0    0    0 -0.00000000000E+00 -0.00000000000E+00 -0.45593999997E+02  0.45594000000E+02  0.51100000000E-03 0.  1.
    9900012    2    1    2    0    0  0.11473728770E+01  0.22066777095E+00  0.16672894345E+00  0.90007763869E+02  0.90000025552E+02 0.  0.
        -12    1    1    2    0    0 -0.11473728770E+01 -0.22066777095E+00 -0.16672894345E+00  0.11802361308E+01  0.00000000000E+00 0.  1.
         11    1    3    3    0    0  0.95913063882E+01 -0.38618034394E+00 -0.34824483229E-01  0.95991409249E+01  0.51100000000E-03 0. -1.
        -11    1    3    3    0    0  0.22602620603E+02  0.19542821215E+02 -0.22619086984E+02  0.37475637625E+02  0.51100000000E-03 0.  1.
         12    1    3    3    0    0 -0.31046554115E+02 -0.18935973100E+02  0.22820640410E+02  0.42932985319E+02  0.00000000000E+00 0. -1.
</event>
<event>
 7    1  0.2232484E-015  0.9000772E+02  0.7816164E-02  0.1186339E+00
        -11   -1    0    0    0    0  0.00000000000E+00  0.00000000000E+00  0.45593999997E+02  0.45594000000E+02  0.51100000000E-03 0.  1.
         11   -1    0    0    0    0 -0.00000000000E+00 -0.00000000000E+00 -0.45593999997E+02  0.45594000000E+02  0.51100000000E-03 0. -1.
    9900012    2    1    2    0    0  0.10899446035E+01 -0.29199157841E+00 -0.34613791970E+00  0.90007724702E+02  0.89999985868E+02 0.  0.
        -12    1    1    2    0    0 -0.10899446035E+01  0.29199157841E+00  0.34613791970E+00  0.11802752984E+01  0.00000000000E+00 0.  1.
         11    1    3    3    0    0  0.24146058615E+01  0.12288078715E+01 -0.96934218768E+01  0.10064925146E+02  0.51100000000E-03 0. -1.
        -11    1    3    3    0    0 -0.12211151533E+02  0.35191605398E+02  0.16913410709E+02  0.40909959354E+02  0.51100000000E-03 0.  1.
         12    1    3    3    0    0  0.10886490275E+02 -0.36712404848E+02 -0.75661267520E+01  0.39032840202E+02  0.00000000000E+00 0. -1.
</event>
<event>
 7    1  0.2232484E-015  0.9000786E+02  0.7816164E-02  0.1186339E+00
        -11   -1    0    0    0    0  0.00000000000E+00  0.00000000000E+00  0.45593999997E+02  0.45594000000E+02  0.51100000000E-03 0.  1.
         11   -1    0    0    0    0 -0.00000000000E+00 -0.00000000000E+00 -0.45593999997E+02  0.45594000000E+02  0.51100000000E-03 0. -1.
    9900012    2    1    2    0    0 -0.47394856194E-01  0.11386698296E+01  0.30646640307E+00  0.90007857250E+02  0.90000120166E+02 0.  0.
        -12    1    1    2    0    0  0.47394856194E-01 -0.11386698296E+01 -0.30646640307E+00  0.11801427496E+01  0.00000000000E+00 0.  1.
         11    1    3    3    0    0 -0.29607379223E+01  0.68107585572E+01  0.67848728988E+01  0.10059170029E+02  0.51100000000E-03 0. -1.
        -11    1    3    3    0    0  0.37999048712E+02  0.40867106907E+01  0.10692918827E+02  0.39685859202E+02  0.51100000000E-03 0.  1.
         12    1    3    3    0    0 -0.35085705646E+02 -0.97587994183E+01 -0.17171325323E+02  0.40262828019E+02  0.00000000000E+00 0. -1.
</event>
<event>
 7    1  0.2232484E-015  0.9000771E+02  0.7816164E-02  0.1186339E+00
        -11   -1    0    0    0    0  0.00000000000E+00  0.00000000000E+00  0.45593999997E+02  0.45594000000E+02  0.51100000000E-03 0.  1.
         11   -1    0    0    0    0 -0.00000000000E+00 -0.00000000000E+00 -0.45593999997E+02  0.45594000000E+02  0.51100000000E-03 0. -1.
    9900012    2    1    2    0    0 -0.41681602556E+00  0.10853023284E+01 -0.20364404382E+00  0.90007708663E+02  0.89999969617E+02 0.  0.
        -12    1    1    2    0    0  0.41681602556E+00 -0.10853023284E+01  0.20364404382E+00  0.11802913369E+01  0.00000000000E+00 0.  1.
         11    1    3    3    0    0  0.31117516778E+02 -0.57401518721E+01  0.63692696008E+01  0.32277186827E+02  0.51100000000E-03 0. -1.
        -11    1    3    3    0    0  0.10388009455E+02  0.99256635790E+00  0.78024907375E+01  0.13029765554E+02  0.51100000000E-03 0.  1.
        -12    1    3    3    0    0 -0.41922342259E+02  0.58328878427E+01 -0.14375404382E+02  0.44700756282E+02  0.00000000000E+00 0.  1.
</event>
<event>
 7    1  0.2232484E-015  0.9000784E+02  0.7816164E-02  0.1186339E+00
        -11   -1    0    0    0    0  0.00000000000E+00  0.00000000000E+00  0.45593999997E+02  0.45594000000E+02  0.51100000000E-03 0. -1.
         11   -1    0    0    0    0 -0.00000000000E+00 -0.00000000000E+00 -0.45593999997E+02  0.45594000000E+02  0.51100000000E-03 0.  1.
    9900012    2    1    2    0    0 -0.57119050267E-01 -0.63724778560E+00  0.99167751333E+00  0.90007842546E+02  0.90000105267E+02 0.  0.
        -12    1    1    2    0    0  0.57119050267E-01  0.63724778560E+00 -0.99167751333E+00  0.11801574542E+01  0.00000000000E+00 0.  1.
         11    1    3    3    0    0 -0.32386738280E+00 -0.39438816123E+01  0.85068503209E+01  0.93821956330E+01  0.51100000000E-03 0. -1.
        -11    1    3    3    0    0 -0.31310951345E+01  0.17852897294E+02 -0.40524714827E+02  0.44393492886E+02  0.51100000000E-03 0.  1.
         12    1    3    3    0    0  0.33978434670E+01 -0.14546263468E+02  0.33009542019E+02  0.36232154027E+02  0.00000000000E+00 0. -1.
</event>
<event>
 7    1  0.2232484E-015  0.9000777E+02  0.7816164E-02  0.1186339E+00
        -11   -1    0    0    0    0  0.00000000000E+00  0.00000000000E+00  0.45593999997E+02  0.45594000000E+02  0.51100000000E-03 0. -1.
         11   -1    0    0    0    0 -0.00000000000E+00 -0.00000000000E+00 -0.45593999997E+02  0.45594000000E+02  0.51100000000E-03 0.  1.
    9900012    2    1    2    0    0 -0.85118223722E-01 -0.54118140757E+00  0.10453807605E+01  0.90007769784E+02  0.90000031545E+02 0.  0.
        -12    1    1    2    0    0  0.85118223722E-01  0.54118140757E+00 -0.10453807605E+01  0.11802302158E+01  0.00000000000E+00 0.  1.
         11    1    3    3    0    0 -0.25304944768E+01 -0.10459699055E+02 -0.22176895301E+01  0.10987577245E+02  0.51100000000E-03 0. -1.
        -11    1    3    3    0    0 -0.11949040793E+02  0.26877145957E+02 -0.28027526859E+02  0.40628842130E+02  0.51100000000E-03 0.  1.
         12    1    3    3    0    0  0.14394417046E+02 -0.16958628310E+02  0.31290597150E+02  0.38391350409E+02  0.00000000000E+00 0. -1.
</event>
<event>
 7    1  0.2232484E-015  0.9000776E+02  0.7816164E-02  0.1186339E+00
        -11   -1    0    0    0    0  0.00000000000E+00  0.00000000000E+00  0.45593999997E+02  0.45594000000E+02  0.51100000000E-03 0.  1.
         11   -1    0    0    0    0 -0.00000000000E+00 -0.00000000000E+00 -0.45593999997E+02  0.45594000000E+02  0.51100000000E-03 0. -1.
    9900012    2    1    2    0    0 -0.74550699673E+00  0.91118752429E+00 -0.83195332407E-01  0.90007760681E+02  0.90000022322E+02 0.  0.
        -12    1    1    2    0    0  0.74550699673E+00 -0.91118752429E+00  0.83195332407E-01  0.11802393189E+01  0.00000000000E+00 0.  1.
         11    1    3    3    0    0 -0.40919197536E+01 -0.59663137613E+01  0.77967701432E+01  0.10636274352E+02  0.51100000000E-03 0. -1.
        -11    1    3    3    0    0 -0.31891278254E+02  0.16445084295E+02 -0.19774094670E+02  0.40969613696E+02  0.51100000000E-03 0.  1.
         12    1    3    3    0    0  0.35237691011E+02 -0.95675830098E+01  0.11894129194E+02  0.38401872633E+02  0.00000000000E+00 0. -1.
</event>
<event>
 7    1  0.2232484E-015  0.9000775E+02  0.7816164E-02  0.1186339E+00
        -11   -1    0    0    0    0  0.00000000000E+00  0.00000000000E+00  0.45593999997E+02  0.45594000000E+02  0.51100000000E-03 0.  1.
         11   -1    0    0    0    0 -0.00000000000E+00 -0.00000000000E+00 -0.45593999997E+02  0.45594000000E+02  0.51100000000E-03 0. -1.
    9900012    2    1    2    0    0  0.75090712158E+00 -0.38283997928E+00 -0.82617828881E+00  0.90007746417E+02  0.90000007870E+02 0.  0.
        -12    1    1    2    0    0 -0.75090712158E+00  0.38283997928E+00  0.82617828881E+00  0.11802535829E+01  0.00000000000E+00 0.  1.
         11    1    3    3    0    0 -0.54624410275E+01 -0.57865590496E+01 -0.29697275529E+00  0.79630848729E+01  0.51100000000E-03 0. -1.
        -11    1    3    3    0    0  0.17452322815E+02 -0.29005169300E+02 -0.21605262675E+02  0.40158072580E+02  0.51100000000E-03 0.  1.
         12    1    3    3    0    0 -0.11238974666E+02  0.34408888371E+02  0.21076057142E+02  0.41886588965E+02  0.00000000000E+00 0. -1.
</event>
<event>
 7    1  0.2232484E-015  0.9000775E+02  0.7816164E-02  0.1186339E+00
        -11   -1    0    0    0    0  0.00000000000E+00  0.00000000000E+00  0.45593999997E+02  0.45594000000E+02  0.51100000000E-03 0.  1.
         11   -1    0    0    0    0 -0.00000000000E+00 -0.00000000000E+00 -0.45593999997E+02  0.45594000000E+02  0.51100000000E-03 0. -1.
    9900012    2    1    2    0    0  0.35238423912E+00  0.81928263763E+00 -0.77304290891E+00  0.90007748319E+02  0.90000009796E+02 0.  0.
        -12    1    1    2    0    0 -0.35238423912E+00 -0.81928263763E+00  0.77304290891E+00  0.11802516813E+01  0.00000000000E+00 0.  1.
         11    1    3    3    0    0 -0.36029034382E+02 -0.54236721727E+01  0.15890141940E+01  0.36469610701E+02  0.51100000000E-03 0. -1.
        -11    1    3    3    0    0 -0.48183261550E+01 -0.83763482369E+01  0.86885196662E+00  0.97022873964E+01  0.51100000000E-03 0.  1.
        -12    1    3    3    0    0  0.41199744776E+02  0.14619303047E+02 -0.32309090695E+01  0.43835850221E+02  0.00000000000E+00 0.  1.
</event>
<event>
 7    1  0.2232484E-015  0.9000775E+02  0.7816164E-02  0.1186339E+00
        -11   -1    0    0    0    0  0.00000000000E+00  0.00000000000E+00  0.45593999997E+02  0.45594000000E+02  0.51100000000E-03 0. -1.
         11   -1    0    0    0    0 -0.00000000000E+00 -0.00000000000E+00 -0.45593999997E+02  0.45594000000E+02  0.51100000000E-03 0.  1.
    9900012    2    1    2    0    0  0.33960453551E-02  0.11464305205E+01  0.28049624476E+00  0.90007748919E+02  0.90000010404E+02 0.  0.
        -12    1    1    2    0    0 -0.33960453551E-02 -0.11464305205E+01 -0.28049624476E+00  0.11802510812E+01  0.00000000000E+00 0.  1.
         11    1    3    3    0    0 -0.92488058509E+01  0.36224501424E+02  0.11162071505E+01  0.37403219537E+02  0.51100000000E-03 0. -1.
        -11    1    3    3    0    0  0.12110660751E+02 -0.11984702253E+02 -0.17158438592E+02  0.24180843805E+02  0.51100000000E-03 0.  1.
        -12    1    3    3    0    0 -0.28584588548E+01 -0.23093368650E+02  0.16322727686E+02  0.28423685577E+02  0.00000000000E+00 0.  1.
</event>
<event>
 7    1  0.2232484E-015  0.9000781E+02  0.7816164E-02  0.1186339E+00
        -11   -1    0    0    0    0  0.00000000000E+00  0.00000000000E+00  0.45593999997E+02  0.45594000000E+02  0.51100000000E-03 0. -1.
         11   -1    0    0    0    0 -0.00000000000E+00 -0.00000000000E+00 -0.45593999997E+02  0.45594000000E+02  0.51100000000E-03 0.  1.
    9900012    2    1    2    0    0 -0.11021621853E+01  0.41798036057E+00  0.58033862001E-01  0.90007814848E+02  0.90000077204E+02 0.  0.
        -12    1    1    2    0    0  0.11021621853E+01 -0.41798036057E+00 -0.58033862001E-01  0.11801851522E+01  0.00000000000E+00 0.  1.
         11    1    3    3    0    0  0.37197553122E+01 -0.74659609538E+01  0.20056307641E+02  0.21721708704E+02  0.51100000000E-03 0. -1.
        -11    1    3    3    0    0 -0.12975059388E+02 -0.24401514658E+02 -0.21406290552E+02  0.34957336271E+02  0.51100000000E-03 0.  1.
         12    1    3    3    0    0  0.81531418904E+01  0.32285455972E+02  0.14080167726E+01  0.33328769873E+02  0.00000000000E+00 0. -1.
</event>
<event>
 7    1  0.2232484E-015  0.9000781E+02  0.7816164E-02  0.1186339E+00
        -11   -1    0    0    0    0  0.00000000000E+00  0.00000000000E+00  0.45593999997E+02  0.45594000000E+02  0.51100000000E-03 0. -1.
         11   -1    0    0    0    0 -0.00000000000E+00 -0.00000000000E+00 -0.45593999997E+02  0.45594000000E+02  0.51100000000E-03 0.  1.
    9900012    2    1    2    0    0  0.30879829527E+00  0.10832738956E+01  0.35215770443E+00  0.90007807741E+02  0.90000070003E+02 0.  0.
        -12    1    1    2    0    0 -0.30879829527E+00 -0.10832738956E+01 -0.35215770443E+00  0.11801922593E+01  0.00000000000E+00 0.  1.
         11    1    3    3    0    0  0.26366134375E+01 -0.25916401764E+02  0.29842709225E+02  0.39613115315E+02  0.51100000000E-03 0. -1.
        -11    1    3    3    0    0 -0.38568409578E+01  0.62993954462E+01  0.58412879990E+01  0.94169130244E+01  0.51100000000E-03 0.  1.
        -12    1    3    3    0    0  0.15290258156E+01  0.20700280213E+02 -0.35331839520E+02  0.40977779402E+02  0.00000000000E+00 0.  1.
</event>
<event>
 7    1  0.2232484E-015  0.9000763E+02  0.7816164E-02  0.1186339E+00
        -11   -1    0    0    0    0  0.00000000000E+00  0.00000000000E+00  0.45593999997E+02  0.45594000000E+02  0.51100000000E-03 0. -1.
         11   -1    0    0    0    0 -0.00000000000E+00 -0.00000000000E+00 -0.45593999997E+02  0.45594000000E+02  0.51100000000E-03 0.  1.
    9900012    2    1    2    0    0 -0.30522012405E+00  0.75148659296E+00  0.85754325821E+00  0.90007630624E+02  0.89999890548E+02 0.  0.
        -12    1    1    2    0    0  0.30522012405E+00 -0.75148659296E+00 -0.85754325821E+00  0.11803693758E+01  0.00000000000E+00 0.  1.
         11    1    3    3    0    0  0.60668745025E+01  0.34443620182E+01  0.67207277836E+01  0.96870417643E+01  0.51100000000E-03 0. -1.
        -11    1    3    3    0    0 -0.30491270046E+00  0.36361033004E+02  0.10033224930E+02  0.37721125323E+02  0.51100000000E-03 0.  1.
         12    1    3    3    0    0 -0.60671819261E+01 -0.39053908429E+02 -0.15896409456E+02  0.42599463537E+02  0.00000000000E+00 0. -1.
</event>
<event>
 7    1  0.2232484E-015  0.9000772E+02  0.7816164E-02  0.1186339E+00
        -11   -1    0    0    0    0  0.00000000000E+00  0.00000000000E+00  0.45593999997E+02  0.45594000000E+02  0.51100000000E-03 0. -1.
         11   -1    0    0    0    0 -0.00000000000E+00 -0.00000000000E+00 -0.45593999997E+02  0.45594000000E+02  0.51100000000E-03 0.  1.
    9900012    2    1    2    0    0  0.71490389544E+00 -0.73598049837E+00  0.58336488712E+00  0.90007716362E+02  0.89999977418E+02 0.  0.
        -12    1    1    2    0    0 -0.71490389544E+00  0.73598049837E+00 -0.58336488712E+00  0.11802836376E+01  0.00000000000E+00 0.  1.
         11    1    3    3    0    0 -0.27880365196E+02 -0.27615866032E+02 -0.93463818009E+00  0.39253335768E+02  0.51100000000E-03 0. -1.
        -11    1    3    3    0    0  0.76970259662E+01 -0.63675768041E+01 -0.46226052324E+01  0.11007212294E+02  0.51100000000E-03 0.  1.
        -12    1    3    3    0    0  0.20898243125E+02  0.33247462338E+02  0.61406082996E+01  0.39747168300E+02  0.00000000000E+00 0.  1.
</event>
<event>
 7    1  0.2232484E-015  0.9000824E+02  0.7816164E-02  0.1186338E+00
        -11   -1    0    0    0    0  0.00000000000E+00  0.00000000000E+00  0.45593999997E+02  0.45594000000E+02  0.51100000000E-03 0. -1.
         11   -1    0    0    0    0 -0.00000000000E+00 -0.00000000000E+00 -0.45593999997E+02  0.45594000000E+02  0.51100000000E-03 0.  1.
    9900012    2    1    2    0    0  0.43209112121E+00 -0.47346378377E+00  0.99043641489E+00  0.90008239438E+02  0.90000507397E+02 0.  0.
        -12    1    1    2    0    0 -0.43209112121E+00  0.47346378377E+00 -0.99043641489E+00  0.11797605619E+01  0.00000000000E+00 0.  1.
         11    1    3    3    0    0 -0.77975522955E+01 -0.10009428913E+01 -0.69473385425E+01  0.10491387971E+02  0.51100000000E-03 0. -1.
        -11    1    3    3    0    0 -0.21179067362E+01 -0.21210266339E-01 -0.35143329734E+02  0.35207095931E+02  0.51100000000E-03 0.  1.
         12    1    3    3    0    0  0.10347550153E+02  0.54868937391E+00  0.43081104692E+02  0.44309755536E+02  0.00000000000E+00 0. -1.
</event>
<event>
 7    1  0.3408352E-015  0.9000767E+02  0.7816164E-02  0.1186339E+00
        -11   -1    0    0    0    0  0.00000000000E+00  0.00000000000E+00  0.45593999997E+02  0.45594000000E+02  0.51100000000E-03 0. -1.
         11   -1    0    0    0    0 -0.00000000000E+00 -0.00000000000E+00 -0.45593999997E+02  0.45594000000E+02  0.51100000000E-03 0.  1.
    9900012    2    1    2    0    0  0.38575311111E+00 -0.68092902093E+00  0.88358225475E+00  0.90007666405E+02  0.89999926802E+02 0.  0.
        -12    1    1    2    0    0 -0.38575311111E+00  0.68092902093E+00 -0.88358225475E+00  0.11803335949E+01  0.00000000000E+00 0.  1.
         11    1    3    3    0    0  0.75883017852E+01 -0.49438494689E+01  0.13334575630E+00  0.90576902633E+01  0.51100000000E-03 0. -1.
        -11    1    3    3    0    0  0.19645827379E+02  0.62619878331E+01 -0.32300885710E+02  0.38321250540E+02  0.51100000000E-03 0.  1.
         12    1    3    3    0    0 -0.26848376054E+02 -0.19990673851E+01  0.33051122209E+02  0.42628725601E+02  0.00000000000E+00 0. -1.
</event>
<event>
 7    1  0.2232484E-015  0.9000780E+02  0.7816164E-02  0.1186339E+00
        -11   -1    0    0    0    0  0.00000000000E+00  0.00000000000E+00  0.45593999997E+02  0.45594000000E+02  0.51100000000E-03 0.  1.
         11   -1    0    0    0    0 -0.00000000000E+00 -0.00000000000E+00 -0.45593999997E+02  0.45594000000E+02  0.51100000000E-03 0. -1.
    9900012    2    1    2    0    0 -0.18639284536E+00  0.10607112881E+01  0.48272614220E+00  0.90007798637E+02  0.90000060779E+02 0.  0.
        -12    1    1    2    0    0  0.18639284536E+00 -0.10607112881E+01 -0.48272614220E+00  0.11802013633E+01  0.00000000000E+00 0.  1.
         11    1    3    3    0    0 -0.98451605949E+01  0.28516609625E+01 -0.23408095377E+00  0.10252509524E+02  0.51100000000E-03 0. -1.
        -11    1    3    3    0    0 -0.20194064315E+02 -0.28645038010E+02 -0.12913590870E+02  0.37351027637E+02  0.51100000000E-03 0.  1.
         12    1    3    3    0    0  0.29852832065E+02  0.26854088335E+02  0.13630397966E+02  0.42404261476E+02  0.00000000000E+00 0. -1.
</event>
<event>
 7    1  0.2232484E-015  0.9000752E+02  0.7816164E-02  0.1186339E+00
        -11   -1    0    0    0    0  0.00000000000E+00  0.00000000000E+00  0.45593999997E+02  0.45594000000E+02  0.51100000000E-03 0. -1.
         11   -1    0    0    0    0 -0.00000000000E+00 -0.00000000000E+00 -0.45593999997E+02  0.45594000000E+02  0.51100000000E-03 0.  1.
    9900012    2    1    2    0    0  0.61257371166E+00  0.99013088345E+00  0.19474461202E+00  0.90007520783E+02  0.89999779257E+02 0.  0.
        -12    1    1    2    0    0 -0.61257371166E+00 -0.99013088345E+00 -0.19474461202E+00  0.11804792173E+01  0.00000000000E+00 0.  1.
         11    1    3    3    0    0  0.30941239725E+01  0.92187187343E+01  0.66980118483E+00  0.97471540538E+01  0.51100000000E-03 0. -1.
        -11    1    3    3    0    0 -0.57548235106E+01  0.31016824235E+02 -0.18907558503E+02  0.36778487572E+02  0.51100000000E-03 0.  1.
         12    1    3    3    0    0  0.32732732498E+01 -0.39245412086E+02  0.18432501930E+02  0.43481879157E+02  0.00000000000E+00 0. -1.
</event>
<event>
 7    1  0.2232484E-015  0.9000775E+02  0.7816164E-02  0.1186339E+00
        -11   -1    0    0    0    0  0.00000000000E+00  0.00000000000E+00  0.45593999997E+02  0.45594000000E+02  0.51100000000E-03 0.  1.
         11   -1    0    0    0    0 -0.00000000000E+00 -0.00000000000E+00 -0.45593999997E+02  0.45594000000E+02  0.51100000000E-03 0. -1.
    9900012    2    1    2    0    0  0.10069562140E+01  0.57602195451E+00 -0.21734110080E+00  0.90007746102E+02  0.90000007551E+02 0.  0.
        -12    1    1    2    0    0 -0.10069562140E+01 -0.57602195451E+00  0.21734110080E+00  0.11802538977E+01  0.00000000000E+00 0.  1.
         11    1    3    3    0    0 -0.19040375174E+01 -0.74211230660E+01 -0.47283408937E+01  0.90030902637E+01  0.51100000000E-03 0. -1.
        -11    1    3    3    0    0 -0.34116550196E+02  0.37595124662E+01  0.21014038012E+02  0.40245033546E+02  0.51100000000E-03 0.  1.
         12    1    3    3    0    0  0.37027543928E+02  0.42376325543E+01 -0.16503038219E+02  0.40759622293E+02  0.00000000000E+00 0. -1.
</event>
<event>
 7    1  0.2232484E-015  0.9000792E+02  0.7816164E-02  0.1186339E+00
        -11   -1    0    0    0    0  0.00000000000E+00  0.00000000000E+00  0.45593999997E+02  0.45594000000E+02  0.51100000000E-03 0.  1.
         11   -1    0    0    0    0 -0.00000000000E+00 -0.00000000000E+00 -0.45593999997E+02  0.45594000000E+02  0.51100000000E-03 0. -1.
    9900012    2    1    2    0    0 -0.52646188947E+00  0.10041076193E+01 -0.32741773480E+00  0.90007916696E+02  0.90000180396E+02 0.  0.
        -12    1    1    2    0    0  0.52646188947E+00 -0.10041076193E+01  0.32741773480E+00  0.11800833044E+01  0.00000000000E+00 0.  1.
         11    1    3    3    0    0 -0.17150346032E+02 -0.17097839677E+02 -0.29708349256E+02  0.38328272938E+02  0.51100000000E-03 0. -1.
        -11    1    3    3    0    0  0.83630028943E+01 -0.46624991067E+01 -0.40523466955E+01  0.10397126013E+02  0.51100000000E-03 0.  1.
        -12    1    3    3    0    0  0.82608812484E+01  0.22764446403E+02  0.33433278217E+02  0.41282517745E+02  0.00000000000E+00 0.  1.
</event>
<event>
 7    1  0.2232484E-015  0.9000776E+02  0.7816164E-02  0.1186339E+00
        -11   -1    0    0    0    0  0.00000000000E+00  0.00000000000E+00  0.45593999997E+02  0.45594000000E+02  0.51100000000E-03 0.  1.
         11   -1    0    0    0    0 -0.00000000000E+00 -0.00000000000E+00 -0.45593999997E+02  0.45594000000E+02  0.51100000000E-03 0. -1.
    9900012    2    1    2    0    0 -0.25515379115E+00 -0.43255024783E-01 -0.11515222969E+01  0.90007755087E+02  0.90000016654E+02 0.  0.
        -12    1    1    2    0    0  0.25515379115E+00  0.43255024783E-01  0.11515222969E+01  0.11802449130E+01  0.00000000000E+00 0.  1.
         11    1    3    3    0    0 -0.25657599300E+02  0.13532923225E+01 -0.28658918410E+02  0.38489965012E+02  0.51100000000E-03 0. -1.
        -11    1    3    3    0    0 -0.56429870523E+01  0.78904005413E+01  0.11916724054E+01  0.97735258202E+01  0.51100000000E-03 0.  1.
        -12    1    3    3    0    0  0.31045432561E+02 -0.92869478886E+01  0.26315723707E+02  0.41744264255E+02  0.00000000000E+00 0.  1.
</event>
<event>
 7    1  0.2232484E-015  0.9000745E+02  0.7816164E-02  0.1186340E+00
        -11   -1    0    0    0    0  0.00000000000E+00  0.00000000000E+00  0.45593999997E+02  0.45594000000E+02  0.51100000000E-03 0.  1.
         11   -1    0    0    0    0 -0.00000000000E+00 -0.00000000000E+00 -0.45593999997E+02  0.45594000000E+02  0.51100000000E-03 0. -1.
    9900012    2    1    2    0    0 -0.15038563186E+00 -0.58776265500E+00 -0.10127244319E+01  0.90007452859E+02  0.89999710436E+02 0.  0.
        -12    1    1    2    0    0  0.15038563186E+00  0.58776265500E+00  0.10127244319E+01  0.11805471409E+01  0.00000000000E+00 0.  1.
         11    1    3    3    0    0 -0.24429708056E+01 -0.94754589635E+01  0.47587705491E+01  0.10881099500E+02  0.51100000000E-03 0. -1.
        -11    1    3    3    0    0  0.56874983226E+01  0.85508016934E+01  0.35887469437E+02  0.37327929351E+02  0.51100000000E-03 0.  1.
         12    1    3    3    0    0 -0.33949131489E+01  0.33689461508E+00 -0.41658964418E+02  0.41798424009E+02  0.00000000000E+00 0. -1.
</event>
<event>
 7    1  0.2232484E-015  0.9000780E+02  0.7816164E-02  0.1186339E+00
        -11   -1    0    0    0    0  0.00000000000E+00  0.00000000000E+00  0.45593999997E+02  0.45594000000E+02  0.51100000000E-03 0. -1.
         11   -1    0    0    0    0 -0.00000000000E+00 -0.00000000000E+00 -0.45593999997E+02  0.45594000000E+02  0.51100000000E-03 0.  1.
    9900012    2    1    2    0    0 -0.11565445364E+00 -0.59497843007E+00  0.10126645999E+01  0.90007803035E+02  0.90000065235E+02 0.  0.
        -12    1    1    2    0    0  0.11565445364E+00  0.59497843007E+00 -0.10126645999E+01  0.11801969652E+01  0.00000000000E+00 0.  1.
         11    1    3    3    0    0  0.26985639337E+02 -0.19952680439E+02  0.10239237482E+02  0.35088120092E+02  0.51100000000E-03 0. -1.
        -11    1    3    3    0    0  0.10914164857E+02  0.18410619241E+01  0.27073823308E+01  0.11394666423E+02  0.51100000000E-03 0.  1.
        -12    1    3    3    0    0 -0.38015458648E+02  0.17516640084E+02 -0.11933955212E+02  0.43525016520E+02  0.00000000000E+00 0.  1.
</event>
<event>
 7    1  0.2232484E-015  0.9000891E+02  0.7816164E-02  0.1186337E+00
        -11   -1    0    0    0    0  0.00000000000E+00  0.00000000000E+00  0.45593999997E+02  0.45594000000E+02  0.51100000000E-03 0.  1.
         11   -1    0    0    0    0 -0.00000000000E+00 -0.00000000000E+00 -0.45593999997E+02  0.45594000000E+02  0.51100000000E-03 0. -1.
    9900012    2    1    2    0    0  0.39834432859E+00 -0.10420667472E+01  0.38168131685E+00  0.90008906307E+02  0.90001183062E+02 0.  0.
        -12    1    1    2    0    0 -0.39834432859E+00  0.10420667472E+01 -0.38168131685E+00  0.11790936933E+01  0.00000000000E+00 0.  1.
         11    1    3    3    0    0 -0.41865179003E+01 -0.35792029696E+02 -0.10975548427E+02  0.37670399327E+02  0.51100000000E-03 0. -1.
        -11    1    3    3    0    0 -0.39353910833E+01 -0.39722514516E+01 -0.67379708348E+01  0.87559314641E+01  0.51100000000E-03 0.  1.
        -12    1    3    3    0    0  0.85202533122E+01  0.38722214401E+02  0.18095200579E+02  0.43582575516E+02  0.00000000000E+00 0.  1.
</event>
<event>
 7    1  0.2232484E-015  0.9000759E+02  0.7816164E-02  0.1186339E+00
        -11   -1    0    0    0    0  0.00000000000E+00  0.00000000000E+00  0.45593999997E+02  0.45594000000E+02  0.51100000000E-03 0.  1.
         11   -1    0    0    0    0 -0.00000000000E+00 -0.00000000000E+00 -0.45593999997E+02  0.45594000000E+02  0.51100000000E-03 0. -1.
    9900012    2    1    2    0    0 -0.91726761532E+00 -0.19551359133E+00  0.71677108987E+00  0.90007590648E+02  0.89999850045E+02 0.  0.
        -12    1    1    2    0    0  0.91726761532E+00  0.19551359133E+00 -0.71677108987E+00  0.11804093518E+01  0.00000000000E+00 0.  1.
         11    1    3    3    0    0 -0.93580350841E+00 -0.29805191228E+01  0.95543393948E+01  0.10052095502E+02  0.51100000000E-03 0. -1.
        -11    1    3    3    0    0  0.29898052329E+02 -0.11146339534E+02  0.18713742669E+02  0.36991060853E+02  0.51100000000E-03 0.  1.
         12    1    3    3    0    0 -0.29879516436E+02  0.13931345065E+02 -0.27551310974E+02  0.42964434293E+02  0.00000000000E+00 0. -1.
</event>
<event>
 7    1  0.2232484E-015  0.9000774E+02  0.7816164E-02  0.1186339E+00
        -11   -1    0    0    0    0  0.00000000000E+00  0.00000000000E+00  0.45593999997E+02  0.45594000000E+02  0.51100000000E-03 0. -1.
         11   -1    0    0    0    0 -0.00000000000E+00 -0.00000000000E+00 -0.45593999997E+02  0.45594000000E+02  0.51100000000E-03 0.  1.
    9900012    2    1    2    0    0 -0.78796914627E+00  0.47444111356E+00  0.73961232293E+00  0.90007738955E+02  0.90000000309E+02 0.  0.
        -12    1    1    2    0    0  0.78796914627E+00 -0.47444111356E+00 -0.73961232293E+00  0.11802610448E+01  0.00000000000E+00 0.  1.
         11    1    3    3    0    0 -0.77248522844E+00  0.76984821250E+01 -0.62502756525E+01  0.99463212521E+01  0.51100000000E-03 0. -1.
        -11    1    3    3    0    0 -0.23976586728E+02  0.28118443596E+02  0.12103999075E+01  0.36972809598E+02  0.51100000000E-03 0.  1.
         12    1    3    3    0    0  0.23961102810E+02 -0.35342484607E+02  0.57794880680E+01  0.43088608105E+02  0.00000000000E+00 0. -1.
</event>
<event>
 7    1  0.2232484E-015  0.9000751E+02  0.7816164E-02  0.1186340E+00
        -11   -1    0    0    0    0  0.00000000000E+00  0.00000000000E+00  0.45593999997E+02  0.45594000000E+02  0.51100000000E-03 0.  1.
         11   -1    0    0    0    0 -0.00000000000E+00 -0.00000000000E+00 -0.45593999997E+02  0.45594000000E+02  0.51100000000E-03 0. -1.
    9900012    2    1    2    0    0 -0.10574759836E+01 -0.35195665956E+00 -0.38913372794E+00  0.90007511116E+02  0.89999769463E+02 0.  0.
        -12    1    1    2    0    0  0.10574759836E+01  0.35195665956E+00  0.38913372794E+00  0.11804888837E+01  0.00000000000E+00 0.  1.
         11    1    3    3    0    0  0.10671882888E+02  0.38693760614E+02 -0.10609799802E+02  0.41517033214E+02  0.51100000000E-03 0. -1.
        -11    1    3    3    0    0 -0.48341899055E+00 -0.15956599822E+01  0.92262502488E+01  0.93756876342E+01  0.51100000000E-03 0.  1.
        -12    1    3    3    0    0 -0.11245939881E+02 -0.37450057291E+02  0.99441582499E+00  0.39114790268E+02  0.00000000000E+00 0.  1.
</event>
<event>
 7    1  0.2232484E-015  0.9000776E+02  0.7816164E-02  0.1186339E+00
        -11   -1    0    0    0    0  0.00000000000E+00  0.00000000000E+00  0.45593999997E+02  0.45594000000E+02  0.51100000000E-03 0.  1.
         11   -1    0    0    0    0 -0.00000000000E+00 -0.00000000000E+00 -0.45593999997E+02  0.45594000000E+02  0.51100000000E-03 0. -1.
    9900012    2    1    2    0    0 -0.11737953092E+01  0.11245066027E+00 -0.50202168773E-01  0.90007762381E+02  0.90000024045E+02 0.  0.
        -12    1    1    2    0    0  0.11737953092E+01 -0.11245066027E+00  0.50202168773E-01  0.11802376187E+01  0.00000000000E+00 0.  1.
         11    1    3    3    0    0  0.24231787441E+02 -0.20121785807E+02 -0.19903495306E+02  0.37258756183E+02  0.51100000000E-03 0. -1.
        -11    1    3    3    0    0  0.21826892942E+01  0.13862089931E+01 -0.85271452553E+01  0.89105507346E+01  0.51100000000E-03 0.  1.
        -12    1    3    3    0    0 -0.27588272045E+02  0.18848027474E+02  0.28380438393E+02  0.43838455464E+02  0.00000000000E+00 0.  1.
</event>
<event>
 7    1  0.2232484E-015  0.9000767E+02  0.7816164E-02  0.1186339E+00
        -11   -1    0    0    0    0  0.00000000000E+00  0.00000000000E+00  0.45593999997E+02  0.45594000000E+02  0.51100000000E-03 0. -1.
         11   -1    0    0    0    0 -0.00000000000E+00 -0.00000000000E+00 -0.45593999997E+02  0.45594000000E+02  0.51100000000E-03 0.  1.
    9900012    2    1    2    0    0  0.48108030808E+00 -0.90390611154E+00  0.58710492190E+00  0.90007670931E+02  0.89999931387E+02 0.  0.
        -12    1    1    2    0    0 -0.48108030808E+00  0.90390611154E+00 -0.58710492190E+00  0.11803290688E+01  0.00000000000E+00 0.  1.
         11    1    3    3    0    0  0.58249816810E+01  0.12750640473E+01  0.40560008555E+02  0.40995981439E+02  0.51100000000E-03 0. -1.
        -11    1    3    3    0    0 -0.37738027685E+01 -0.96793445450E+01 -0.23964106081E+01  0.10661804829E+02  0.51100000000E-03 0.  1.
        -12    1    3    3    0    0 -0.15700986045E+01  0.75003743862E+01 -0.37576493025E+02  0.38349884663E+02  0.00000000000E+00 0.  1.
</event>
<event>
 7    1  0.2232484E-015  0.9000781E+02  0.7816164E-02  0.1186339E+00
        -11   -1    0    0    0    0  0.00000000000E+00  0.00000000000E+00  0.45593999997E+02  0.45594000000E+02  0.51100000000E-03 0. -1.
         11   -1    0    0    0    0 -0.00000000000E+00 -0.00000000000E+00 -0.45593999997E+02  0.45594000000E+02  0.51100000000E-03 0.  1.
    9900012    2    1    2    0    0 -0.47471486402E+00  0.71688762882E+00  0.80843431670E+00  0.90007810134E+02  0.90000072428E+02 0.  0.
        -12    1    1    2    0    0  0.47471486402E+00 -0.71688762882E+00 -0.80843431670E+00  0.11801898656E+01  0.00000000000E+00 0.  1.
         11    1    3    3    0    0  0.39396338361E+01  0.43708763295E+01 -0.99190058650E+01  0.11533080779E+02  0.51100000000E-03 0. -1.
        -11    1    3    3    0    0 -0.24251284688E+02  0.43741140691E+01 -0.26091139223E+02  0.35888789741E+02  0.51100000000E-03 0.  1.
         12    1    3    3    0    0  0.19836935987E+02 -0.80281027698E+01  0.36818579404E+02  0.42585939614E+02  0.00000000000E+00 0. -1.
</event>
<event>
 7    1  0.2232484E-015  0.9000765E+02  0.7816164E-02  0.1186339E+00
        -11   -1    0    0    0    0  0.00000000000E+00  0.00000000000E+00  0.45593999997E+02  0.45594000000E+02  0.51100000000E-03 0.  1.
         11   -1    0    0    0    0 -0.00000000000E+00 -0.00000000000E+00 -0.45593999997E+02  0.45594000000E+02  0.51100000000E-03 0. -1.
    9900012    2    1    2    0    0 -0.87796452921E+00 -0.70264196883E+00  0.35874942933E+00  0.90007648949E+02  0.89999909115E+02 0.  0.
        -12    1    1    2    0    0  0.87796452921E+00  0.70264196883E+00 -0.35874942933E+00  0.11803510512E+01  0.00000000000E+00 0.  1.
         11    1    3    3    0    0 -0.15089368858E+02 -0.14008766193E+02 -0.15479869854E+02  0.25759676895E+02  0.51100000000E-03 0. -1.
        -11    1    3    3    0    0 -0.11380595472E+02  0.13236711914E+02  0.30214369894E+02  0.34894650650E+02  0.51100000000E-03 0.  1.
         12    1    3    3    0    0  0.25591999800E+02  0.69412309898E-01 -0.14375750611E+02  0.29353321404E+02  0.00000000000E+00 0. -1.
</event>
<event>
 7    1  0.2232484E-015  0.9000763E+02  0.7816164E-02  0.1186339E+00
        -11   -1    0    0    0    0  0.00000000000E+00  0.00000000000E+00  0.45593999997E+02  0.45594000000E+02  0.51100000000E-03 0.  1.
         11   -1    0    0    0    0 -0.00000000000E+00 -0.00000000000E+00 -0.45593999997E+02  0.45594000000E+02  0.51100000000E-03 0. -1.
    9900012    2    1    2    0    0 -0.10617834311E+01 -0.53719325208E-01 -0.51282896466E+00  0.90007634223E+02  0.89999894195E+02 0.  0.
        -12    1    1    2    0    0  0.10617834311E+01  0.53719325208E-01  0.51282896466E+00  0.11803657770E+01  0.00000000000E+00 0.  1.
         11    1    3    3    0    0  0.95698050572E+01  0.52871142184E+01 -0.32886695793E+02  0.34656449703E+02  0.51100000000E-03 0. -1.
        -11    1    3    3    0    0  0.88536374828E+01 -0.86316584470E-01 -0.68802985632E+01  0.11213066298E+02  0.51100000000E-03 0.  1.
        -12    1    3    3    0    0 -0.19485225971E+02 -0.52545169591E+01  0.39254165391E+02  0.44138118222E+02  0.00000000000E+00 0.  1.
</event>
<event>
 7    1  0.2232484E-015  0.9000776E+02  0.7816164E-02  0.1186339E+00
        -11   -1    0    0    0    0  0.00000000000E+00  0.00000000000E+00  0.45593999997E+02  0.45594000000E+02  0.51100000000E-03 0.  1.
         11   -1    0    0    0    0 -0.00000000000E+00 -0.00000000000E+00 -0.45593999997E+02  0.45594000000E+02  0.51100000000E-03 0. -1.
    9900012    2    1    2    0    0  0.10983301782E+01  0.29624772272E+00 -0.31446109433E+00  0.90007755249E+02  0.90000016818E+02 0.  0.
        -12    1    1    2    0    0 -0.10983301782E+01 -0.29624772272E+00  0.31446109433E+00  0.11802447515E+01  0.00000000000E+00 0.  1.
         11    1    3    3    0    0 -0.10351531531E+02 -0.36631916078E+02  0.12623025880E+02  0.40104766091E+02  0.51100000000E-03 0. -1.
        -11    1    3    3    0    0 -0.70044163440E+01  0.74648829858E+01  0.42947897132E+01  0.11100970464E+02  0.51100000000E-03 0.  1.
        -12    1    3    3    0    0  0.18454278053E+02  0.29463280815E+02 -0.17232276687E+02  0.38802018693E+02  0.00000000000E+00 0.  1.
</event>
<event>
 7    1  0.2232484E-015  0.9000652E+02  0.7816164E-02  0.1186341E+00
        -11   -1    0    0    0    0  0.00000000000E+00  0.00000000000E+00  0.45593999997E+02  0.45594000000E+02  0.51100000000E-03 0.  1.
         11   -1    0    0    0    0 -0.00000000000E+00 -0.00000000000E+00 -0.45593999997E+02  0.45594000000E+02  0.51100000000E-03 0. -1.
    9900012    2    1    2    0    0 -0.10455684985E+01  0.38030063755E+00  0.39756518291E+00  0.90006517823E+02  0.89998763050E+02 0.  0.
        -12    1    1    2    0    0  0.10455684985E+01 -0.38030063755E+00 -0.39756518291E+00  0.11814821770E+01  0.00000000000E+00 0.  1.
         11    1    3    3    0    0 -0.48907839076E+01 -0.31998525705E+02 -0.25219304875E+02  0.41034604338E+02  0.51100000000E-03 0. -1.
        -11    1    3    3    0    0  0.34079840561E+01  0.84521115818E+01 -0.47756421766E+01  0.10288795069E+02  0.51100000000E-03 0.  1.
        -12    1    3    3    0    0  0.43723135306E+00  0.23926714760E+02  0.30392512234E+02  0.38683118416E+02  0.00000000000E+00 0.  1.
</event>
<event>
 7    1  0.2232484E-015  0.9000772E+02  0.7816164E-02  0.1186339E+00
        -11   -1    0    0    0    0  0.00000000000E+00  0.00000000000E+00  0.45593999997E+02  0.45594000000E+02  0.51100000000E-03 0.  1.
         11   -1    0    0    0    0 -0.00000000000E+00 -0.00000000000E+00 -0.45593999997E+02  0.45594000000E+02  0.51100000000E-03 0. -1.
    9900012    2    1    2    0    0  0.38039461684E+00 -0.11172747377E+01 -0.75812416376E-02  0.90007720211E+02  0.89999981318E+02 0.  0.
        -12    1    1    2    0    0 -0.38039461684E+00  0.11172747377E+01  0.75812416376E-02  0.11802797885E+01  0.00000000000E+00 0.  1.
         11    1    3    3    0    0 -0.11803866062E+02  0.38510136579E+02  0.10837723845E+02  0.41711127193E+02  0.51100000000E-03 0. -1.
        -11    1    3    3    0    0  0.43179261312E+01 -0.23000779504E+01 -0.88317706301E+01  0.10096287307E+02  0.51100000000E-03 0.  1.
        -12    1    3    3    0    0  0.78663345479E+01 -0.37327333366E+02 -0.20135344569E+01  0.38200305712E+02  0.00000000000E+00 0.  1.
</event>
<event>
 7    1  0.2232484E-015  0.9000769E+02  0.7816164E-02  0.1186339E+00
        -11   -1    0    0    0    0  0.00000000000E+00  0.00000000000E+00  0.45593999997E+02  0.45594000000E+02  0.51100000000E-03 0.  1.
         11   -1    0    0    0    0 -0.00000000000E+00 -0.00000000000E+00 -0.45593999997E+02  0.45594000000E+02  0.51100000000E-03 0. -1.
    9900012    2    1    2    0    0 -0.79779266951E+00 -0.61826607957E-01 -0.86766708555E+00  0.90007685701E+02  0.89999946352E+02 0.  0.
        -12    1    1    2    0    0  0.79779266951E+00  0.61826607957E-01  0.86766708555E+00  0.11803142990E+01  0.00000000000E+00 0.  1.
         11    1    3    3    0    0 -0.59488557339E+01  0.37452254314E+02  0.36368288958E+01  0.38095757801E+02  0.51100000000E-03 0. -1.
        -11    1    3    3    0    0 -0.75908413581E+01  0.22560420317E+01  0.46160072698E+01  0.91661399481E+01  0.51100000000E-03 0.  1.
        -12    1    3    3    0    0  0.12741904422E+02 -0.39770122954E+02 -0.91205032511E+01  0.42745787952E+02  0.00000000000E+00 0.  1.
</event>
<event>
 7    1  0.2232484E-015  0.9000772E+02  0.7816164E-02  0.1186339E+00
        -11   -1    0    0    0    0  0.00000000000E+00  0.00000000000E+00  0.45593999997E+02  0.45594000000E+02  0.51100000000E-03 0.  1.
         11   -1    0    0    0    0 -0.00000000000E+00 -0.00000000000E+00 -0.45593999997E+02  0.45594000000E+02  0.51100000000E-03 0. -1.
    9900012    2    1    2    0    0  0.13913256238E+00  0.10686444174E+01 -0.48134391397E+00  0.90007724302E+02  0.89999985462E+02 0.  0.
        -12    1    1    2    0    0 -0.13913256238E+00 -0.10686444174E+01  0.48134391397E+00  0.11802756985E+01  0.00000000000E+00 0.  1.
         11    1    3    3    0    0 -0.11431985024E+02  0.25344126421E+02  0.21536938800E+01  0.27886437980E+02  0.51100000000E-03 0. -1.
        -11    1    3    3    0    0 -0.13925121975E+02  0.54060172561E+00  0.16601014866E+02  0.21674754141E+02  0.51100000000E-03 0.  1.
         12    1    3    3    0    0  0.25496239561E+02 -0.24816083729E+02 -0.19236052660E+02  0.40446532180E+02  0.00000000000E+00 0. -1.
</event>
<event>
 7    1  0.2232484E-015  0.9000775E+02  0.7816164E-02  0.1186339E+00
        -11   -1    0    0    0    0  0.00000000000E+00  0.00000000000E+00  0.45593999997E+02  0.45594000000E+02  0.51100000000E-03 0. -1.
         11   -1    0    0    0    0 -0.00000000000E+00 -0.00000000000E+00 -0.45593999997E+02  0.45594000000E+02  0.51100000000E-03 0.  1.
    9900012    2    1    2    0    0 -0.37012489474E+00 -0.11182022725E+01  0.74983200333E-01  0.90007749501E+02  0.90000010994E+02 0.  0.
        -12    1    1    2    0    0  0.37012489474E+00  0.11182022725E+01 -0.74983200333E-01  0.11802504989E+01  0.00000000000E+00 0.  1.
         11    1    3    3    0    0  0.21628377190E+02 -0.60554698427E+01  0.34896848194E+02  0.41499944928E+02  0.51100000000E-03 0. -1.
        -11    1    3    3    0    0  0.27903521583E+01 -0.59604961980E+01 -0.53190742349E+01  0.84620405974E+01  0.51100000000E-03 0.  1.
        -12    1    3    3    0    0 -0.24788854243E+02  0.10897763768E+02 -0.29502790759E+02  0.40045763976E+02  0.00000000000E+00 0.  1.
</event>
<event>
 7    1  0.2232484E-015  0.9000752E+02  0.7816164E-02  0.1186339E+00
        -11   -1    0    0    0    0  0.00000000000E+00  0.00000000000E+00  0.45593999997E+02  0.45594000000E+02  0.51100000000E-03 0. -1.
         11   -1    0    0    0    0 -0.00000000000E+00 -0.00000000000E+00 -0.45593999997E+02  0.45594000000E+02  0.51100000000E-03 0.  1.
    9900012    2    1    2    0    0  0.10718991415E+01  0.35648925289E-01  0.49325470176E+00  0.90007517549E+02  0.89999775981E+02 0.  0.
        -12    1    1    2    0    0 -0.10718991415E+01 -0.35648925289E-01 -0.49325470176E+00  0.11804824506E+01  0.00000000000E+00 0.  1.
         11    1    3    3    0    0  0.49232247501E+00  0.37628360680E+02 -0.10829152546E+02  0.39158734071E+02  0.51100000000E-03 0. -1.
        -11    1    3    3    0    0 -0.95153918390E+01 -0.12776954173E+01 -0.36784846332E+01  0.10281363571E+02  0.51100000000E-03 0.  1.
        -12    1    3    3    0    0  0.10094968505E+02 -0.36315016337E+02  0.15000891881E+02  0.40567419907E+02  0.00000000000E+00 0.  1.
</event>
<event>
 7    1  0.2232484E-015  0.9000764E+02  0.7816164E-02  0.1186339E+00
        -11   -1    0    0    0    0  0.00000000000E+00  0.00000000000E+00  0.45593999997E+02  0.45594000000E+02  0.51100000000E-03 0. -1.
         11   -1    0    0    0    0 -0.00000000000E+00 -0.00000000000E+00 -0.45593999997E+02  0.45594000000E+02  0.51100000000E-03 0.  1.
    9900012    2    1    2    0    0 -0.33485272314E+00 -0.56847919186E-02  0.11318557434E+01  0.90007637307E+02  0.89999897319E+02 0.  0.
        -12    1    1    2    0    0  0.33485272314E+00  0.56847919186E-02 -0.11318557434E+01  0.11803626929E+01  0.00000000000E+00 0.  1.
         11    1    3    3    0    0 -0.10643344322E+02  0.33656920439E+02 -0.89160147285E+01  0.36408301123E+02  0.51100000000E-03 0. -1.
        -11    1    3    3    0    0 -0.93837089976E+01  0.39502970510E+01  0.23931389518E+01  0.10458774099E+02  0.51100000000E-03 0.  1.
        -12    1    3    3    0    0  0.19692200596E+02 -0.37612902282E+02  0.76547315200E+01  0.43140562085E+02  0.00000000000E+00 0.  1.
</event>
<event>
 7    1  0.2232484E-015  0.9000748E+02  0.7816164E-02  0.1186340E+00
        -11   -1    0    0    0    0  0.00000000000E+00  0.00000000000E+00  0.45593999997E+02  0.45594000000E+02  0.51100000000E-03 0.  1.
         11   -1    0    0    0    0 -0.00000000000E+00 -0.00000000000E+00 -0.45593999997E+02  0.45594000000E+02  0.51100000000E-03 0. -1.
    9900012    2    1    2    0    0  0.34112985336E+00 -0.88160988149E+00 -0.70712069280E+00  0.90007480947E+02  0.89999738895E+02 0.  0.
        -12    1    1    2    0    0 -0.34112985336E+00  0.88160988149E+00  0.70712069280E+00  0.11805190529E+01  0.00000000000E+00 0.  1.
         11    1    3    3    0    0  0.82188932194E+01 -0.38077770001E+02 -0.63423820750E+01  0.39467614378E+02  0.51100000000E-03 0. -1.
        -11    1    3    3    0    0 -0.36769246158E+01 -0.38869592216E+01  0.74854629498E+01  0.92011076754E+01  0.51100000000E-03 0.  1.
        -12    1    3    3    0    0 -0.42008387502E+01  0.41083119342E+02 -0.18502015677E+01  0.41338758894E+02  0.00000000000E+00 0.  1.
</event>
<event>
 7    1  0.2232484E-015  0.9000770E+02  0.7816164E-02  0.1186339E+00
        -11   -1    0    0    0    0  0.00000000000E+00  0.00000000000E+00  0.45593999997E+02  0.45594000000E+02  0.51100000000E-03 0. -1.
         11   -1    0    0    0    0 -0.00000000000E+00 -0.00000000000E+00 -0.45593999997E+02  0.45594000000E+02  0.51100000000E-03 0.  1.
    9900012    2    1    2    0    0 -0.41115125069E+00 -0.43150672050E+00  0.10187608380E+01  0.90007696206E+02  0.89999956996E+02 0.  0.
        -12    1    1    2    0    0  0.41115125069E+00  0.43150672050E+00 -0.10187608380E+01  0.11803037939E+01  0.00000000000E+00 0.  1.
         11    1    3    3    0    0  0.47064577021E+01  0.15117636838E+01  0.66510064975E+01  0.82868607584E+01  0.51100000000E-03 0. -1.
        -11    1    3    3    0    0  0.33575754368E+02  0.17750103204E+02 -0.31868478294E+00  0.37980244936E+02  0.51100000000E-03 0.  1.
         12    1    3    3    0    0 -0.38693363320E+02 -0.19693373609E+02 -0.53135608766E+01  0.43740590512E+02  0.00000000000E+00 0. -1.
</event>
<event>
 7    1  0.2232484E-015  0.9000772E+02  0.7816164E-02  0.1186339E+00
        -11   -1    0    0    0    0  0.00000000000E+00  0.00000000000E+00  0.45593999997E+02  0.45594000000E+02  0.51100000000E-03 0. -1.
         11   -1    0    0    0    0 -0.00000000000E+00 -0.00000000000E+00 -0.45593999997E+02  0.45594000000E+02  0.51100000000E-03 0.  1.
    9900012    2    1    2    0    0  0.19265656663E+00  0.10445337326E+01  0.51467491086E+00  0.90007721416E+02  0.89999982539E+02 0.  0.
        -12    1    1    2    0    0 -0.19265656663E+00 -0.10445337326E+01 -0.51467491086E+00  0.11802785836E+01  0.00000000000E+00 0.  1.
         11    1    3    3    0    0 -0.19022774034E+00 -0.35122254301E+00 -0.97112845171E+01  0.97194954139E+01  0.51100000000E-03 0. -1.
        -11    1    3    3    0    0 -0.32423522318E+02 -0.14429695743E+02 -0.12183741553E+02  0.37522586228E+02  0.51100000000E-03 0.  1.
         12    1    3    3    0    0  0.32806406625E+02  0.15825452019E+02  0.22409700981E+02  0.42765639774E+02  0.00000000000E+00 0. -1.
</event>
<event>
 7    1  0.2232484E-015  0.9000761E+02  0.7816164E-02  0.1186339E+00
        -11   -1    0    0    0    0  0.00000000000E+00  0.00000000000E+00  0.45593999997E+02  0.45594000000E+02  0.51100000000E-03 0.  1.
         11   -1    0    0    0    0 -0.00000000000E+00 -0.00000000000E+00 -0.45593999997E+02  0.45594000000E+02  0.51100000000E-03 0. -1.
    9900012    2    1    2    0    0 -0.11837579814E+00  0.88625489749E+00 -0.77061796491E+00  0.90007613360E+02  0.89999873056E+02 0.  0.
        -12    1    1    2    0    0  0.11837579814E+00 -0.88625489749E+00  0.77061796491E+00  0.11803866404E+01  0.00000000000E+00 0.  1.
         11    1    3    3    0    0 -0.37992757967E+02 -0.63207515590E+01 -0.65260777382E+01  0.39063937962E+02  0.51100000000E-03 0. -1.
        -11    1    3    3    0    0  0.23156239569E+00  0.81871425578E+01  0.10138911160E+02  0.13033819248E+02  0.51100000000E-03 0.  1.
        -12    1    3    3    0    0  0.37642819773E+02 -0.98013610132E+00 -0.43834513871E+01  0.37909856150E+02  0.00000000000E+00 0.  1.
</event>
<event>
 7    1  0.2232484E-015  0.9000776E+02  0.7816164E-02  0.1186339E+00
        -11   -1    0    0    0    0  0.00000000000E+00  0.00000000000E+00  0.45593999997E+02  0.45594000000E+02  0.51100000000E-03 0.  1.
         11   -1    0    0    0    0 -0.00000000000E+00 -0.00000000000E+00 -0.45593999997E+02  0.45594000000E+02  0.51100000000E-03 0. -1.
    9900012    2    1    2    0    0  0.11025902473E+01  0.67372966008E-01 -0.41561125365E+00  0.90007755498E+02  0.90000017071E+02 0.  0.
        -12    1    1    2    0    0 -0.11025902473E+01 -0.67372966008E-01  0.41561125365E+00  0.11802445019E+01  0.00000000000E+00 0.  1.
         11    1    3    3    0    0 -0.49359236823E+01  0.28382181872E+01  0.67830469567E+01  0.88559895750E+01  0.51100000000E-03 0. -1.
        -11    1    3    3    0    0 -0.15585960241E+02 -0.21644516761E+02  0.26012245218E+02  0.37256464727E+02  0.51100000000E-03 0.  1.
         12    1    3    3    0    0  0.21624474171E+02  0.18873671540E+02 -0.33210903428E+02  0.43895301196E+02  0.00000000000E+00 0. -1.
</event>
<event>
 7    1  0.2302258E-015  0.9000773E+02  0.7816164E-02  0.1186339E+00
        -11   -1    0    0    0    0  0.00000000000E+00  0.00000000000E+00  0.45593999997E+02  0.45594000000E+02  0.51100000000E-03 0.  1.
         11   -1    0    0    0    0 -0.00000000000E+00 -0.00000000000E+00 -0.45593999997E+02  0.45594000000E+02  0.51100000000E-03 0. -1.
    9900012    2    1    2    0    0  0.95840748564E+00  0.53636706601E+00 -0.43220728549E+00  0.90007729829E+02  0.89999991063E+02 0.  0.
        -12    1    1    2    0    0 -0.95840748564E+00 -0.53636706601E+00  0.43220728549E+00  0.11802701706E+01  0.00000000000E+00 0.  1.
         11    1    3    3    0    0 -0.13509901063E+01 -0.59265868133E+01  0.72505731831E+01  0.94615229887E+01  0.51100000000E-03 0. -1.
        -11    1    3    3    0    0 -0.34213682716E+02  0.19654564003E+02  0.48202254970E+01  0.39750629495E+02  0.51100000000E-03 0.  1.
         12    1    3    3    0    0  0.36523080307E+02 -0.13191610124E+02 -0.12503005966E+02  0.40795577346E+02  0.00000000000E+00 0. -1.
</event>
<event>
 7    1  0.2232484E-015  0.9000770E+02  0.7816164E-02  0.1186339E+00
        -11   -1    0    0    0    0  0.00000000000E+00  0.00000000000E+00  0.45593999997E+02  0.45594000000E+02  0.51100000000E-03 0.  1.
         11   -1    0    0    0    0 -0.00000000000E+00 -0.00000000000E+00 -0.45593999997E+02  0.45594000000E+02  0.51100000000E-03 0. -1.
    9900012    2    1    2    0    0  0.59164783953E+00 -0.48440418919E+00 -0.89911471686E+00  0.90007702640E+02  0.89999963515E+02 0.  0.
        -12    1    1    2    0    0 -0.59164783953E+00  0.48440418919E+00  0.89911471686E+00  0.11802973602E+01  0.00000000000E+00 0.  1.
         11    1    3    3    0    0  0.12007458663E+02  0.39656320854E+02 -0.16500458743E+02  0.44598968443E+02  0.51100000000E-03 0. -1.
        -11    1    3    3    0    0 -0.26620639816E+01 -0.73941204591E+01  0.67900632831E+01  0.10385786521E+02  0.51100000000E-03 0.  1.
        -12    1    3    3    0    0 -0.87537468422E+01 -0.32746604584E+02  0.88112807426E+01  0.35022947676E+02  0.00000000000E+00 0.  1.
</event>
<event>
 7    1  0.2232484E-015  0.9000774E+02  0.7816164E-02  0.1186339E+00
        -11   -1    0    0    0    0  0.00000000000E+00  0.00000000000E+00  0.45593999997E+02  0.45594000000E+02  0.51100000000E-03 0. -1.
         11   -1    0    0    0    0 -0.00000000000E+00 -0.00000000000E+00 -0.45593999997E+02  0.45594000000E+02  0.51100000000E-03 0.  1.
    9900012    2    1    2    0    0 -0.17330930178E+00 -0.10744307171E+01  0.45669412632E+00  0.90007742823E+02  0.90000004228E+02 0.  0.
        -12    1    1    2    0    0  0.17330930178E+00  0.10744307171E+01 -0.45669412632E+00  0.11802571774E+01  0.00000000000E+00 0.  1.
         11    1    3    3    0    0  0.25499413434E+01 -0.18791066782E+01 -0.75303930936E+01  0.81694591723E+01  0.51100000000E-03 0. -1.
        -11    1    3    3    0    0  0.17937173025E+02  0.33575360126E+02 -0.96532281298E+01  0.39271259177E+02  0.51100000000E-03 0.  1.
         12    1    3    3    0    0 -0.20660423670E+02 -0.32770684165E+02  0.17640315350E+02  0.42567024473E+02  0.00000000000E+00 0. -1.
</event>
<event>
 7    1  0.2232484E-015  0.9000774E+02  0.7816164E-02  0.1186339E+00
        -11   -1    0    0    0    0  0.00000000000E+00  0.00000000000E+00  0.45593999997E+02  0.45594000000E+02  0.51100000000E-03 0.  1.
         11   -1    0    0    0    0 -0.00000000000E+00 -0.00000000000E+00 -0.45593999997E+02  0.45594000000E+02  0.51100000000E-03 0. -1.
    9900012    2    1    2    0    0 -0.26260675569E+00  0.11458457722E+01  0.10528090625E+00  0.90007742015E+02  0.90000003410E+02 0.  0.
        -12    1    1    2    0    0  0.26260675569E+00 -0.11458457722E+01 -0.10528090625E+00  0.11802579850E+01  0.00000000000E+00 0.  1.
         11    1    3    3    0    0  0.91159399665E+01 -0.35686626646E+01 -0.19586668444E+01  0.99835910751E+01  0.51100000000E-03 0. -1.
        -11    1    3    3    0    0 -0.98844026812E+01 -0.34571812061E+02  0.14563158940E+02  0.38794293448E+02  0.51100000000E-03 0.  1.
         12    1    3    3    0    0  0.50585595901E+00  0.39286320497E+02 -0.12499211190E+02  0.41229857492E+02  0.00000000000E+00 0. -1.
</event>
<event>
 7    1  0.2232484E-015  0.9000774E+02  0.7816164E-02  0.1186339E+00
        -11   -1    0    0    0    0  0.00000000000E+00  0.00000000000E+00  0.45593999997E+02  0.45594000000E+02  0.51100000000E-03 0. -1.
         11   -1    0    0    0    0 -0.00000000000E+00 -0.00000000000E+00 -0.45593999997E+02  0.45594000000E+02  0.51100000000E-03 0.  1.
    9900012    2    1    2    0    0  0.48260298327E-01 -0.10634814257E+01  0.50960311834E+00  0.90007738530E+02  0.89999999879E+02 0.  0.
        -12    1    1    2    0    0 -0.48260298327E-01  0.10634814257E+01 -0.50960311834E+00  0.11802614699E+01  0.00000000000E+00 0.  1.
         11    1    3    3    0    0 -0.97977792815E+01  0.51924200024E+01 -0.90243549375E+01  0.14296736922E+02  0.51100000000E-03 0. -1.
        -11    1    3    3    0    0 -0.79628926083E+01  0.47454537840E+01 -0.29770238134E+02  0.31180026766E+02  0.51100000000E-03 0.  1.
         12    1    3    3    0    0  0.17808932188E+02 -0.11001355212E+02  0.39304196190E+02  0.44530974841E+02  0.00000000000E+00 0. -1.
</event>
<event>
 7    1  0.3089147E-015  0.9000760E+02  0.7816164E-02  0.1186339E+00
        -11   -1    0    0    0    0  0.00000000000E+00  0.00000000000E+00  0.45593999997E+02  0.45594000000E+02  0.51100000000E-03 0.  1.
         11   -1    0    0    0    0 -0.00000000000E+00 -0.00000000000E+00 -0.45593999997E+02  0.45594000000E+02  0.51100000000E-03 0. -1.
    9900012    2    1    2    0    0 -0.64406247384E+00 -0.81528839050E+00 -0.56019792194E+00  0.90007604583E+02  0.89999864163E+02 0.  0.
        -12    1    1    2    0    0  0.64406247384E+00  0.81528839050E+00  0.56019792194E+00  0.11803954175E+01  0.00000000000E+00 0.  1.
         11    1    3    3    0    0 -0.76273878812E+01 -0.20719541691E+01  0.56051753451E+01  0.96895836277E+01  0.51100000000E-03 0. -1.
        -11    1    3    3    0    0 -0.47389184186E+01 -0.48049633750E+00  0.36105072749E+02  0.36417914589E+02  0.51100000000E-03 0.  1.
         12    1    3    3    0    0  0.11722243826E+02  0.17371621161E+01 -0.42270446016E+02  0.43900106366E+02  0.00000000000E+00 0. -1.
</event>
<event>
 7    1  0.2232484E-015  0.9000779E+02  0.7816164E-02  0.1186339E+00
        -11   -1    0    0    0    0  0.00000000000E+00  0.00000000000E+00  0.45593999997E+02  0.45594000000E+02  0.51100000000E-03 0.  1.
         11   -1    0    0    0    0 -0.00000000000E+00 -0.00000000000E+00 -0.45593999997E+02  0.45594000000E+02  0.51100000000E-03 0. -1.
    9900012    2    1    2    0    0  0.52108907211E+00 -0.57573728912E+00 -0.88876317765E+00  0.90007785090E+02  0.90000047053E+02 0.  0.
        -12    1    1    2    0    0 -0.52108907211E+00  0.57573728912E+00  0.88876317765E+00  0.11802149097E+01  0.00000000000E+00 0.  1.
         11    1    3    3    0    0  0.32571416058E+01 -0.55485975844E+01  0.21353662106E+01  0.67790630406E+01  0.51100000000E-03 0. -1.
        -11    1    3    3    0    0  0.21373615202E+02 -0.32221720987E+02 -0.41585282581E+01  0.38889125571E+02  0.51100000000E-03 0.  1.
         12    1    3    3    0    0 -0.24109667735E+02  0.37194581282E+02  0.11343988698E+01  0.44339596478E+02  0.00000000000E+00 0. -1.
</event>
<event>
 7    1  0.2232484E-015  0.9000778E+02  0.7816164E-02  0.1186339E+00
        -11   -1    0    0    0    0  0.00000000000E+00  0.00000000000E+00  0.45593999997E+02  0.45594000000E+02  0.51100000000E-03 0.  1.
         11   -1    0    0    0    0 -0.00000000000E+00 -0.00000000000E+00 -0.45593999997E+02  0.45594000000E+02  0.51100000000E-03 0. -1.
    9900012    2    1    2    0    0 -0.96215237487E+00 -0.14447366171E+00 -0.66806307031E+00  0.90007780488E+02  0.90000042390E+02 0.  0.
        -12    1    1    2    0    0  0.96215237487E+00  0.14447366171E+00  0.66806307031E+00  0.11802195123E+01  0.00000000000E+00 0.  1.
         11    1    3    3    0    0 -0.62330106595E+01 -0.33017615670E+02 -0.15804154090E+02  0.37131989620E+02  0.51100000000E-03 0. -1.
        -11    1    3    3    0    0  0.89578595018E+00 -0.85367062450E+01  0.53051129423E+01  0.10090689252E+02  0.51100000000E-03 0.  1.
        -12    1    3    3    0    0  0.43750723344E+01  0.41409848253E+02  0.98309780777E+01  0.42785101615E+02  0.00000000000E+00 0.  1.
</event>
<event>
 7    1  0.2232484E-015  0.9000777E+02  0.7816164E-02  0.1186339E+00
        -11   -1    0    0    0    0  0.00000000000E+00  0.00000000000E+00  0.45593999997E+02  0.45594000000E+02  0.51100000000E-03 0.  1.
         11   -1    0    0    0    0 -0.00000000000E+00 -0.00000000000E+00 -0.45593999997E+02  0.45594000000E+02  0.51100000000E-03 0. -1.
    9900012    2    1    2    0    0  0.11635032063E+01 -0.17360462430E+00 -0.95221657158E-01  0.90007768904E+02  0.90000030653E+02 0.  0.
        -12    1    1    2    0    0 -0.11635032063E+01  0.17360462430E+00  0.95221657158E-01  0.11802310962E+01  0.00000000000E+00 0.  1.
         11    1    3    3    0    0  0.21237212403E+02  0.33563570246E+02 -0.15143106771E+02  0.42507012613E+02  0.51100000000E-03 0. -1.
        -11    1    3    3    0    0  0.27042713199E+00 -0.85905304961E+01 -0.45056820603E+01  0.97042009525E+01  0.51100000000E-03 0.  1.
        -12    1    3    3    0    0 -0.20344136328E+02 -0.25146644374E+02  0.19553567174E+02  0.37796555339E+02  0.00000000000E+00 0.  1.
</event>
<event>
 7    1  0.2232484E-015  0.9000801E+02  0.7816164E-02  0.1186339E+00
        -11   -1    0    0    0    0  0.00000000000E+00  0.00000000000E+00  0.45593999997E+02  0.45594000000E+02  0.51100000000E-03 0.  1.
         11   -1    0    0    0    0 -0.00000000000E+00 -0.00000000000E+00 -0.45593999997E+02  0.45594000000E+02  0.51100000000E-03 0. -1.
    9900012    2    1    2    0    0  0.29170846427E+00 -0.69728777217E+00 -0.90613540649E+00  0.90008006169E+02  0.90000271050E+02 0.  0.
        -12    1    1    2    0    0 -0.29170846427E+00  0.69728777217E+00  0.90613540649E+00  0.11799938306E+01  0.00000000000E+00 0.  1.
         11    1    3    3    0    0 -0.38447881147E+01  0.12768353873E+02  0.16074341993E+02  0.20885347185E+02  0.51100000000E-03 0. -1.
        -11    1    3    3    0    0  0.47587184532E+01 -0.31934911327E+02  0.12256074020E+02  0.34535421142E+02  0.51100000000E-03 0.  1.
         12    1    3    3    0    0 -0.62222187424E+00  0.18469269682E+02 -0.29236551420E+02  0.34587237842E+02  0.00000000000E+00 0. -1.
</event>
<event>
 7    1  0.2232484E-015  0.9000769E+02  0.7816164E-02  0.1186339E+00
        -11   -1    0    0    0    0  0.00000000000E+00  0.00000000000E+00  0.45593999997E+02  0.45594000000E+02  0.51100000000E-03 0.  1.
         11   -1    0    0    0    0 -0.00000000000E+00 -0.00000000000E+00 -0.45593999997E+02  0.45594000000E+02  0.51100000000E-03 0. -1.
    9900012    2    1    2    0    0 -0.56431782905E+00  0.98101211840E+00 -0.33510246736E+00  0.90007689426E+02  0.89999950126E+02 0.  0.
        -12    1    1    2    0    0  0.56431782905E+00 -0.98101211840E+00  0.33510246736E+00  0.11803105745E+01  0.00000000000E+00 0.  1.
         11    1    3    3    0    0  0.59798576434E+01  0.84736756418E+00  0.71661022868E+01  0.93717528494E+01  0.51100000000E-03 0. -1.
        -11    1    3    3    0    0 -0.30368793654E+02  0.19205181050E+02  0.18616221574E+02  0.40468090060E+02  0.51100000000E-03 0.  1.
         12    1    3    3    0    0  0.23824618181E+02 -0.19071536496E+02 -0.26117426328E+02  0.40167846516E+02  0.00000000000E+00 0. -1.
</event>
<event>
 7    1  0.2232484E-015  0.9000774E+02  0.7816164E-02  0.1186339E+00
        -11   -1    0    0    0    0  0.00000000000E+00  0.00000000000E+00  0.45593999997E+02  0.45594000000E+02  0.51100000000E-03 0. -1.
         11   -1    0    0    0    0 -0.00000000000E+00 -0.00000000000E+00 -0.45593999997E+02  0.45594000000E+02  0.51100000000E-03 0.  1.
    9900012    2    1    2    0    0 -0.92942865486E+00  0.42482158150E+00  0.59051079458E+00  0.90007739860E+02  0.90000001226E+02 0.  0.
        -12    1    1    2    0    0  0.92942865486E+00 -0.42482158150E+00 -0.59051079458E+00  0.11802601404E+01  0.00000000000E+00 0.  1.
         11    1    3    3    0    0  0.50034152523E+01 -0.69994225313E+01  0.48811199720E+01  0.98919872827E+01  0.51100000000E-03 0. -1.
        -11    1    3    3    0    0 -0.18369128654E+02 -0.32794464613E+02 -0.55683431453E+01  0.37998792644E+02  0.51100000000E-03 0.  1.
         12    1    3    3    0    0  0.12436284747E+02  0.40218708726E+02  0.12777339678E+01  0.42116959933E+02  0.00000000000E+00 0. -1.
</event>
<event>
 7    1  0.2232484E-015  0.9000771E+02  0.7816164E-02  0.1186339E+00
        -11   -1    0    0    0    0  0.00000000000E+00  0.00000000000E+00  0.45593999997E+02  0.45594000000E+02  0.51100000000E-03 0.  1.
         11   -1    0    0    0    0 -0.00000000000E+00 -0.00000000000E+00 -0.45593999997E+02  0.45594000000E+02  0.51100000000E-03 0. -1.
    9900012    2    1    2    0    0  0.27407327484E+00  0.40570193369E+00 -0.10739561383E+01  0.90007706814E+02  0.89999967743E+02 0.  0.
        -12    1    1    2    0    0 -0.27407327484E+00 -0.40570193369E+00  0.10739561383E+01  0.11802931865E+01  0.00000000000E+00 0.  1.
         11    1    3    3    0    0  0.74464672743E+01  0.11955200474E+02 -0.64175411272E+01  0.15477775280E+02  0.51100000000E-03 0. -1.
        -11    1    3    3    0    0  0.13696123835E+02  0.17101239872E+01  0.33992108580E+02  0.36687488032E+02  0.51100000000E-03 0.  1.
         12    1    3    3    0    0 -0.20868517835E+02 -0.13259622528E+02 -0.28648523591E+02  0.37842443501E+02  0.00000000000E+00 0. -1.
</event>
<event>
 7    1  0.2232484E-015  0.9000815E+02  0.7816164E-02  0.1186338E+00
        -11   -1    0    0    0    0  0.00000000000E+00  0.00000000000E+00  0.45593999997E+02  0.45594000000E+02  0.51100000000E-03 0.  1.
         11   -1    0    0    0    0 -0.00000000000E+00 -0.00000000000E+00 -0.45593999997E+02  0.45594000000E+02  0.51100000000E-03 0. -1.
    9900012    2    1    2    0    0  0.71268294851E+00  0.77760108798E+00  0.52863404597E+00  0.90008154929E+02  0.90000421773E+02 0.  0.
        -12    1    1    2    0    0 -0.71268294851E+00 -0.77760108798E+00 -0.52863404597E+00  0.11798450710E+01  0.00000000000E+00 0.  1.
         11    1    3    3    0    0 -0.54021637520E+00 -0.83713487128E+01 -0.65062730131E+01  0.10616162291E+02  0.51100000000E-03 0. -1.
        -11    1    3    3    0    0  0.11511383823E+02  0.40300355853E+02  0.16827667628E+02  0.45164156557E+02  0.51100000000E-03 0.  1.
         12    1    3    3    0    0 -0.10258484499E+02 -0.31151406052E+02 -0.97927605687E+01  0.34227836082E+02  0.00000000000E+00 0. -1.
</event>
<event>
 7    1  0.2232484E-015  0.9000785E+02  0.7816164E-02  0.1186339E+00
        -11   -1    0    0    0    0  0.00000000000E+00  0.00000000000E+00  0.45593999997E+02  0.45594000000E+02  0.51100000000E-03 0.  1.
         11   -1    0    0    0    0 -0.00000000000E+00 -0.00000000000E+00 -0.45593999997E+02  0.45594000000E+02  0.51100000000E-03 0. -1.
    9900012    2    1    2    0    0  0.64592966588E+00  0.26136000955E+00 -0.95248358145E+00  0.90007847823E+02  0.90000110614E+02 0.  0.
        -12    1    1    2    0    0 -0.64592966588E+00 -0.26136000955E+00  0.95248358145E+00  0.11801521770E+01  0.00000000000E+00 0.  1.
         11    1    3    3    0    0 -0.66092225769E+01 -0.37067433877E+02  0.76856243275E+01  0.38428443877E+02  0.51100000000E-03 0. -1.
        -11    1    3    3    0    0  0.18050449747E+01 -0.26456275693E+01 -0.10713338056E+02  0.11181822086E+02  0.51100000000E-03 0.  1.
        -12    1    3    3    0    0  0.54501072681E+01  0.39974421456E+02  0.20752301473E+01  0.40397581860E+02  0.00000000000E+00 0.  1.
</event>
<event>
 7    1  0.2232484E-015  0.9000775E+02  0.7816164E-02  0.1186339E+00
        -11   -1    0    0    0    0  0.00000000000E+00  0.00000000000E+00  0.45593999997E+02  0.45594000000E+02  0.51100000000E-03 0.  1.
         11   -1    0    0    0    0 -0.00000000000E+00 -0.00000000000E+00 -0.45593999997E+02  0.45594000000E+02  0.51100000000E-03 0. -1.
    9900012    2    1    2    0    0 -0.69819770992E+00 -0.48242637196E+00 -0.82022806820E+00  0.90007750310E+02  0.90000011814E+02 0.  0.
        -12    1    1    2    0    0  0.69819770992E+00  0.48242637196E+00  0.82022806820E+00  0.11802496898E+01  0.00000000000E+00 0.  1.
         11    1    3    3    0    0  0.13312063805E+02  0.38325402461E+02  0.54920255840E+01  0.40941542006E+02  0.51100000000E-03 0. -1.
        -11    1    3    3    0    0  0.31937429505E+01 -0.53358174432E+01  0.67983200104E+01  0.92134736688E+01  0.51100000000E-03 0.  1.
        -12    1    3    3    0    0 -0.17204004465E+02 -0.33472011390E+02 -0.13110573663E+02  0.39852734635E+02  0.00000000000E+00 0.  1.
</event>
<event>
 7    1  0.2232484E-015  0.9000772E+02  0.7816164E-02  0.1186339E+00
        -11   -1    0    0    0    0  0.00000000000E+00  0.00000000000E+00  0.45593999997E+02  0.45594000000E+02  0.51100000000E-03 0.  1.
         11   -1    0    0    0    0 -0.00000000000E+00 -0.00000000000E+00 -0.45593999997E+02  0.45594000000E+02  0.51100000000E-03 0. -1.
    9900012    2    1    2    0    0 -0.71921876575E+00  0.93424555859E+00  0.54539474204E-01  0.90007718275E+02  0.89999979356E+02 0.  0.
        -12    1    1    2    0    0  0.71921876575E+00 -0.93424555859E+00 -0.54539474204E-01  0.11802817253E+01  0.00000000000E+00 0.  1.
         11    1    3    3    0    0  0.47029803772E+01 -0.79621764738E+01 -0.52003524603E+01  0.10609332901E+02  0.51100000000E-03 0. -1.
        -11    1    3    3    0    0  0.18192220565E+02 -0.28513520117E+02  0.90024551899E+01  0.35000313117E+02  0.51100000000E-03 0.  1.
         12    1    3    3    0    0 -0.23614419708E+02  0.37409942150E+02 -0.37475632553E+01  0.44398072257E+02  0.00000000000E+00 0. -1.
</event>
<event>
 7    1  0.2232484E-015  0.9000777E+02  0.7816164E-02  0.1186339E+00
        -11   -1    0    0    0    0  0.00000000000E+00  0.00000000000E+00  0.45593999997E+02  0.45594000000E+02  0.51100000000E-03 0.  1.
         11   -1    0    0    0    0 -0.00000000000E+00 -0.00000000000E+00 -0.45593999997E+02  0.45594000000E+02  0.51100000000E-03 0. -1.
    9900012    2    1    2    0    0 -0.90649891117E-01  0.52587035404E-01 -0.11755708319E+01  0.90007767150E+02  0.90000028877E+02 0.  0.
        -12    1    1    2    0    0  0.90649891117E-01 -0.52587035404E-01  0.11755708319E+01  0.11802328498E+01  0.00000000000E+00 0.  1.
         11    1    3    3    0    0 -0.14219192798E+01 -0.12264966149E+02  0.87683757979E+00  0.12378210431E+02  0.51100000000E-03 0. -1.
        -11    1    3    3    0    0  0.10521187183E+02 -0.28350490528E+02  0.13517791242E+02  0.33123652776E+02  0.51100000000E-03 0.  1.
         12    1    3    3    0    0 -0.91899177943E+01  0.40668043713E+02 -0.15570199653E+02  0.44505903943E+02  0.00000000000E+00 0. -1.
</event>
<event>
 7    1  0.2232484E-015  0.9000773E+02  0.7816164E-02  0.1186339E+00
        -11   -1    0    0    0    0  0.00000000000E+00  0.00000000000E+00  0.45593999997E+02  0.45594000000E+02  0.51100000000E-03 0. -1.
         11   -1    0    0    0    0 -0.00000000000E+00 -0.00000000000E+00 -0.45593999997E+02  0.45594000000E+02  0.51100000000E-03 0.  1.
    9900012    2    1    2    0    0 -0.47580976309E+00  0.52145794345E+00  0.94590170585E+00  0.90007727424E+02  0.89999988626E+02 0.  0.
        -12    1    1    2    0    0  0.47580976309E+00 -0.52145794345E+00 -0.94590170585E+00  0.11802725764E+01  0.00000000000E+00 0.  1.
         11    1    3    3    0    0 -0.26942883585E-01  0.50916741833E+01  0.86902608427E+01  0.10072065612E+02  0.51100000000E-03 0. -1.
        -11    1    3    3    0    0 -0.33500106984E+02  0.33990898463E+01  0.17159100141E+02  0.37792138040E+02  0.51100000000E-03 0.  1.
         12    1    3    3    0    0  0.33051240104E+02 -0.79693060861E+01 -0.24903459278E+02  0.42143523772E+02  0.00000000000E+00 0. -1.
</event>
<event>
 7    1  0.2232484E-015  0.9000775E+02  0.7816164E-02  0.1186339E+00
        -11   -1    0    0    0    0  0.00000000000E+00  0.00000000000E+00  0.45593999997E+02  0.45594000000E+02  0.51100000000E-03 0.  1.
         11   -1    0    0    0    0 -0.00000000000E+00 -0.00000000000E+00 -0.45593999997E+02  0.45594000000E+02  0.51100000000E-03 0. -1.
    9900012    2    1    2    0    0  0.10276570760E+01 -0.34488713102E-01  0.57940730741E+00  0.90007753685E+02  0.90000015233E+02 0.  0.
        -12    1    1    2    0    0 -0.10276570760E+01  0.34488713102E-01 -0.57940730741E+00  0.11802463154E+01  0.00000000000E+00 0.  1.
         11    1    3    3    0    0 -0.27359677788E+02 -0.24058179627E+02 -0.56224940569E+01  0.36864080286E+02  0.51100000000E-03 0. -1.
        -11    1    3    3    0    0 -0.81616913456E+01  0.42491773411E+01  0.70302849453E+01  0.11579879981E+02  0.51100000000E-03 0.  1.
        -12    1    3    3    0    0  0.36549026210E+02  0.19774513573E+02 -0.82838358092E+00  0.41563793418E+02  0.00000000000E+00 0.  1.
</event>
<event>
 7    1  0.2232484E-015  0.9000775E+02  0.7816164E-02  0.1186339E+00
        -11   -1    0    0    0    0  0.00000000000E+00  0.00000000000E+00  0.45593999997E+02  0.45594000000E+02  0.51100000000E-03 0.  1.
         11   -1    0    0    0    0 -0.00000000000E+00 -0.00000000000E+00 -0.45593999997E+02  0.45594000000E+02  0.51100000000E-03 0. -1.
    9900012    2    1    2    0    0 -0.10130637602E+01 -0.60290257569E+00 -0.56563687850E-01  0.90007750387E+02  0.90000011892E+02 0.  0.
        -12    1    1    2    0    0  0.10130637602E+01  0.60290257569E+00  0.56563687850E-01  0.11802496129E+01  0.00000000000E+00 0.  1.
         11    1    3    3    0    0  0.68884026734E+00  0.34357812721E+02 -0.35571618792E+01  0.34548331317E+02  0.51100000000E-03 0. -1.
        -11    1    3    3    0    0 -0.12790925770E+01  0.80754342246E+01 -0.74376707442E+01  0.11052948118E+02  0.51100000000E-03 0.  1.
        -12    1    3    3    0    0 -0.42281145058E+00 -0.43036149521E+02  0.10938268935E+02  0.44406470952E+02  0.00000000000E+00 0.  1.
</event>
<event>
 7    1  0.2232484E-015  0.9000775E+02  0.7816164E-02  0.1186339E+00
        -11   -1    0    0    0    0  0.00000000000E+00  0.00000000000E+00  0.45593999997E+02  0.45594000000E+02  0.51100000000E-03 0.  1.
         11   -1    0    0    0    0 -0.00000000000E+00 -0.00000000000E+00 -0.45593999997E+02  0.45594000000E+02  0.51100000000E-03 0. -1.
    9900012    2    1    2    0    0 -0.11022350890E+01 -0.24900239277E+00 -0.34067541986E+00  0.90007752515E+02  0.90000014049E+02 0.  0.
        -12    1    1    2    0    0  0.11022350890E+01  0.24900239277E+00  0.34067541986E+00  0.11802474845E+01  0.00000000000E+00 0.  1.
         11    1    3    3    0    0  0.18973856284E+00 -0.68411916933E+01 -0.20890966711E+02  0.21983411812E+02  0.51100000000E-03 0. -1.
        -11    1    3    3    0    0  0.18303199888E+02 -0.11969620323E+02  0.31955595415E+02  0.38722590505E+02  0.51100000000E-03 0.  1.
         12    1    3    3    0    0 -0.19595173540E+02  0.18561809624E+02 -0.11405304125E+02  0.29301750199E+02  0.00000000000E+00 0. -1.
</event>
<event>
 7    1  0.2232484E-015  0.9000771E+02  0.7816164E-02  0.1186339E+00
        -11   -1    0    0    0    0  0.00000000000E+00  0.00000000000E+00  0.45593999997E+02  0.45594000000E+02  0.51100000000E-03 0.  1.
         11   -1    0    0    0    0 -0.00000000000E+00 -0.00000000000E+00 -0.45593999997E+02  0.45594000000E+02  0.51100000000E-03 0. -1.
    9900012    2    1    2    0    0 -0.51053563718E+00  0.10640398155E+01 -0.16180344432E-01  0.90007708015E+02  0.89999968961E+02 0.  0.
        -12    1    1    2    0    0  0.51053563718E+00 -0.10640398155E+01  0.16180344432E-01  0.11802919848E+01  0.00000000000E+00 0.  1.
         11    1    3    3    0    0  0.33818841868E+02 -0.90819079489E+00 -0.99059955461E+01  0.35251491087E+02  0.51100000000E-03 0. -1.
        -11    1    3    3    0    0  0.87185631234E+01  0.19667903517E+01 -0.36129137744E+01  0.96402672902E+01  0.51100000000E-03 0.  1.
        -12    1    3    3    0    0 -0.43047940629E+02  0.54402587497E-02  0.13502728976E+02  0.45115949638E+02  0.00000000000E+00 0.  1.
</event>
<event>
 7    1  0.2232484E-015  0.9000777E+02  0.7816164E-02  0.1186339E+00
        -11   -1    0    0    0    0  0.00000000000E+00  0.00000000000E+00  0.45593999997E+02  0.45594000000E+02  0.51100000000E-03 0.  1.
         11   -1    0    0    0    0 -0.00000000000E+00 -0.00000000000E+00 -0.45593999997E+02  0.45594000000E+02  0.51100000000E-03 0. -1.
    9900012    2    1    2    0    0  0.95335218535E+00  0.38999065706E+00 -0.57616259398E+00  0.90007772718E+02  0.90000034518E+02 0.  0.
        -12    1    1    2    0    0 -0.95335218535E+00 -0.38999065706E+00  0.57616259398E+00  0.11802272818E+01  0.00000000000E+00 0.  1.
         11    1    3    3    0    0  0.24186592769E+02 -0.30839107462E+02  0.56699957512E+01  0.39600387257E+02  0.51100000000E-03 0. -1.
        -11    1    3    3    0    0 -0.42684533042E+01 -0.36787156941E+01  0.65784017260E+01  0.86618711776E+01  0.51100000000E-03 0.  1.
        -12    1    3    3    0    0 -0.18964787280E+02  0.34907813813E+02 -0.12824560071E+02  0.41745514284E+02  0.00000000000E+00 0.  1.
</event>
<event>
 7    1  0.2240686E-015  0.9000771E+02  0.7816164E-02  0.1186339E+00
        -11   -1    0    0    0    0  0.00000000000E+00  0.00000000000E+00  0.45593999997E+02  0.45594000000E+02  0.51100000000E-03 0. -1.
         11   -1    0    0    0    0 -0.00000000000E+00 -0.00000000000E+00 -0.45593999997E+02  0.45594000000E+02  0.51100000000E-03 0.  1.
    9900012    2    1    2    0    0 -0.27954363672E+00 -0.12678150011E+00  0.11396731783E+01  0.90007714803E+02  0.89999975838E+02 0.  0.
        -12    1    1    2    0    0  0.27954363672E+00  0.12678150011E+00 -0.11396731783E+01  0.11802851973E+01  0.00000000000E+00 0.  1.
         11    1    3    3    0    0  0.32248105928E+01 -0.90140840541E+01  0.33050634970E+01  0.10128008673E+02  0.51100000000E-03 0. -1.
        -11    1    3    3    0    0  0.50920548296E+01 -0.33530747238E+02 -0.11102588808E+02  0.35686237000E+02  0.51100000000E-03 0.  1.
         12    1    3    3    0    0 -0.85964090591E+01  0.42418049792E+02  0.89371984888E+01  0.44193469130E+02  0.00000000000E+00 0. -1.
</event>
<event>
 7    1  0.2232484E-015  0.9000823E+02  0.7816164E-02  0.1186338E+00
        -11   -1    0    0    0    0  0.00000000000E+00  0.00000000000E+00  0.45593999997E+02  0.45594000000E+02  0.51100000000E-03 0.  1.
         11   -1    0    0    0    0 -0.00000000000E+00 -0.00000000000E+00 -0.45593999997E+02  0.45594000000E+02  0.51100000000E-03 0. -1.
    9900012    2    1    2    0    0  0.98656190177E+00  0.64291114925E+00 -0.72278952747E-01  0.90008227404E+02  0.90000495204E+02 0.  0.
        -12    1    1    2    0    0 -0.98656190177E+00 -0.64291114925E+00  0.72278952747E-01  0.11797725963E+01  0.00000000000E+00 0.  1.
         11    1    3    3    0    0  0.18580738834E+00 -0.34430622936E+02 -0.51481128655E+01  0.34813867732E+02  0.51100000000E-03 0. -1.
        -11    1    3    3    0    0  0.43774302649E+01 -0.87585828331E+01  0.54678426420E+01  0.11214810404E+02  0.51100000000E-03 0.  1.
        -12    1    3    3    0    0 -0.35766757515E+01  0.43832116918E+02 -0.39200872926E+00  0.43979549268E+02  0.00000000000E+00 0.  1.
</event>
<event>
 7    1  0.2232484E-015  0.9000776E+02  0.7816164E-02  0.1186339E+00
        -11   -1    0    0    0    0  0.00000000000E+00  0.00000000000E+00  0.45593999997E+02  0.45594000000E+02  0.51100000000E-03 0.  1.
         11   -1    0    0    0    0 -0.00000000000E+00 -0.00000000000E+00 -0.45593999997E+02  0.45594000000E+02  0.51100000000E-03 0. -1.
    9900012    2    1    2    0    0 -0.79175112344E+00  0.18800970148E+00 -0.85483764720E+00  0.90007760663E+02  0.90000022304E+02 0.  0.
        -12    1    1    2    0    0  0.79175112344E+00 -0.18800970148E+00  0.85483764720E+00  0.11802393369E+01  0.00000000000E+00 0.  1.
         11    1    3    3    0    0 -0.40446402978E+01  0.57874222904E+01 -0.86563355978E+01  0.11170743849E+02  0.51100000000E-03 0. -1.
        -11    1    3    3    0    0 -0.26858158090E+02  0.56781419167E+01 -0.21859537151E+02  0.35091898158E+02  0.51100000000E-03 0.  1.
         12    1    3    3    0    0  0.30111047264E+02 -0.11277554506E+02  0.29661035101E+02  0.43745118656E+02  0.00000000000E+00 0. -1.
</event>
<event>
 7    1  0.2232484E-015  0.9000785E+02  0.7816164E-02  0.1186339E+00
        -11   -1    0    0    0    0  0.00000000000E+00  0.00000000000E+00  0.45593999997E+02  0.45594000000E+02  0.51100000000E-03 0.  1.
         11   -1    0    0    0    0 -0.00000000000E+00 -0.00000000000E+00 -0.45593999997E+02  0.45594000000E+02  0.51100000000E-03 0. -1.
    9900012    2    1    2    0    0 -0.33007849454E+00 -0.96831268668E+00  0.58835823979E+00  0.90007853107E+02  0.90000115968E+02 0.  0.
        -12    1    1    2    0    0  0.33007849454E+00  0.96831268668E+00 -0.58835823979E+00  0.11801468934E+01  0.00000000000E+00 0.  1.
         11    1    3    3    0    0 -0.46992346329E+01  0.29663377083E+00 -0.84888033291E+01  0.97072436845E+01  0.51100000000E-03 0. -1.
        -11    1    3    3    0    0 -0.16693997926E+02  0.15933347431E+02  0.35528170340E+02  0.42365221763E+02  0.51100000000E-03 0.  1.
         12    1    3    3    0    0  0.21063154064E+02 -0.17198293888E+02 -0.26451008771E+02  0.37935387659E+02  0.00000000000E+00 0. -1.
</event>
<event>
 7    1  0.2232484E-015  0.9000761E+02  0.7816164E-02  0.1186339E+00
        -11   -1    0    0    0    0  0.00000000000E+00  0.00000000000E+00  0.45593999997E+02  0.45594000000E+02  0.51100000000E-03 0.  1.
         11   -1    0    0    0    0 -0.00000000000E+00 -0.00000000000E+00 -0.45593999997E+02  0.45594000000E+02  0.51100000000E-03 0. -1.
    9900012    2    1    2    0    0 -0.99015682159E+00  0.47071812110E+00 -0.43742812199E+00  0.90007606234E+02  0.89999865836E+02 0.  0.
        -12    1    1    2    0    0  0.99015682159E+00 -0.47071812110E+00  0.43742812199E+00  0.11803937660E+01  0.00000000000E+00 0.  1.
         11    1    3    3    0    0  0.20782300353E+02  0.37987415811E+01 -0.20907471021E+02  0.29723001031E+02  0.51100000000E-03 0. -1.
        -11    1    3    3    0    0  0.61259966792E+01 -0.20521557504E+02 -0.42189570645E+00  0.21420554474E+02  0.51100000000E-03 0.  1.
        -12    1    3    3    0    0 -0.27898453854E+02  0.17193534044E+02  0.20891938605E+02  0.38864050729E+02  0.00000000000E+00 0.  1.
</event>
<event>
 7    1  0.2232484E-015  0.9000766E+02  0.7816164E-02  0.1186339E+00
        -11   -1    0    0    0    0  0.00000000000E+00  0.00000000000E+00  0.45593999997E+02  0.45594000000E+02  0.51100000000E-03 0.  1.
         11   -1    0    0    0    0 -0.00000000000E+00 -0.00000000000E+00 -0.45593999997E+02  0.45594000000E+02  0.51100000000E-03 0. -1.
    9900012    2    1    2    0    0 -0.40813637937E+00  0.98826048123E+00  0.49996166494E+00  0.90007662866E+02  0.89999923216E+02 0.  0.
        -12    1    1    2    0    0  0.40813637937E+00 -0.98826048123E+00 -0.49996166494E+00  0.11803371338E+01  0.00000000000E+00 0.  1.
         11    1    3    3    0    0  0.14620345098E+02 -0.99357716215E+01 -0.29762964006E+02  0.34616586706E+02  0.51100000000E-03 0. -1.
        -11    1    3    3    0    0 -0.51912132139E+01 -0.76006508794E+00 -0.10567010444E+02  0.11797800793E+02  0.51100000000E-03 0.  1.
        -12    1    3    3    0    0 -0.98372682633E+01  0.11684097191E+02  0.40829936115E+02  0.43593275367E+02  0.00000000000E+00 0.  1.
</event>
<event>
 7    1  0.2232484E-015  0.9000757E+02  0.7816164E-02  0.1186339E+00
        -11   -1    0    0    0    0  0.00000000000E+00  0.00000000000E+00  0.45593999997E+02  0.45594000000E+02  0.51100000000E-03 0. -1.
         11   -1    0    0    0    0 -0.00000000000E+00 -0.00000000000E+00 -0.45593999997E+02  0.45594000000E+02  0.51100000000E-03 0.  1.
    9900012    2    1    2    0    0  0.31222043550E+00 -0.16664026078E+00  0.11261307332E+01  0.90007567450E+02  0.89999826540E+02 0.  0.
        -12    1    1    2    0    0 -0.31222043550E+00  0.16664026078E+00 -0.11261307332E+01  0.11804325500E+01  0.00000000000E+00 0.  1.
         11    1    3    3    0    0  0.85849505715E+00  0.77491677622E+00  0.43390508232E+02  0.43405917968E+02  0.51100000000E-03 0. -1.
        -11    1    3    3    0    0  0.28237819043E+00  0.75174347928E+01 -0.68252402580E+01  0.10157532582E+02  0.51100000000E-03 0.  1.
        -12    1    3    3    0    0 -0.82865281209E+00 -0.84589918298E+01 -0.35439137241E+02  0.36444116900E+02  0.00000000000E+00 0.  1.
</event>
<event>
 7    1  0.2232484E-015  0.9000776E+02  0.7816164E-02  0.1186339E+00
        -11   -1    0    0    0    0  0.00000000000E+00  0.00000000000E+00  0.45593999997E+02  0.45594000000E+02  0.51100000000E-03 0. -1.
         11   -1    0    0    0    0 -0.00000000000E+00 -0.00000000000E+00 -0.45593999997E+02  0.45594000000E+02  0.51100000000E-03 0.  1.
    9900012    2    1    2    0    0 -0.25658665756E+00  0.57104457784E+00  0.10005235211E+01  0.90007755983E+02  0.90000017562E+02 0.  0.
        -12    1    1    2    0    0  0.25658665756E+00 -0.57104457784E+00 -0.10005235211E+01  0.11802440167E+01  0.00000000000E+00 0.  1.
         11    1    3    3    0    0  0.84004391921E+01 -0.41493602978E+02 -0.77446554272E+00  0.42342487691E+02  0.51100000000E-03 0. -1.
        -11    1    3    3    0    0  0.34390343543E+01  0.66498708495E+01  0.65384740965E+01  0.99397878940E+01  0.51100000000E-03 0.  1.
        -12    1    3    3    0    0 -0.12096060204E+02  0.35414776706E+02 -0.47634850327E+01  0.37725480398E+02  0.00000000000E+00 0.  1.
</event>
<event>
 7    1  0.2232484E-015  0.9000773E+02  0.7816164E-02  0.1186339E+00
        -11   -1    0    0    0    0  0.00000000000E+00  0.00000000000E+00  0.45593999997E+02  0.45594000000E+02  0.51100000000E-03 0.  1.
         11   -1    0    0    0    0 -0.00000000000E+00 -0.00000000000E+00 -0.45593999997E+02  0.45594000000E+02  0.51100000000E-03 0. -1.
    9900012    2    1    2    0    0  0.14503637404E+00  0.58021499005E+00 -0.10175235887E+01  0.90007729168E+02  0.89999990393E+02 0.  0.
        -12    1    1    2    0    0 -0.14503637404E+00 -0.58021499005E+00  0.10175235887E+01  0.11802708325E+01  0.00000000000E+00 0.  1.
         11    1    3    3    0    0 -0.26047700596E+01  0.74552614120E+01  0.25290440195E+01  0.82922743381E+01  0.51100000000E-03 0. -1.
        -11    1    3    3    0    0 -0.29550989892E+02  0.89344078770E+01  0.21735195479E+02  0.37755838893E+02  0.51100000000E-03 0.  1.
         12    1    3    3    0    0  0.32300796326E+02 -0.15809454299E+02 -0.25281763087E+02  0.43959615937E+02  0.00000000000E+00 0. -1.
</event>
<event>
 7    1  0.3301955E-015  0.9000780E+02  0.7816164E-02  0.1186339E+00
        -11   -1    0    0    0    0  0.00000000000E+00  0.00000000000E+00  0.45593999997E+02  0.45594000000E+02  0.51100000000E-03 0. -1.
         11   -1    0    0    0    0 -0.00000000000E+00 -0.00000000000E+00 -0.45593999997E+02  0.45594000000E+02  0.51100000000E-03 0.  1.
    9900012    2    1    2    0    0 -0.97497041110E-01 -0.39265629016E+00  0.11086864948E+01  0.90007800704E+02  0.90000062873E+02 0.  0.
        -12    1    1    2    0    0  0.97497041110E-01  0.39265629016E+00 -0.11086864948E+01  0.11801992963E+01  0.00000000000E+00 0.  1.
         11    1    3    3    0    0  0.19684063063E+01  0.63332925052E+01  0.64074463649E+01  0.92217453078E+01  0.51100000000E-03 0. -1.
        -11    1    3    3    0    0  0.13232056144E+02  0.16597174951E+02 -0.34434695154E+02  0.40451226888E+02  0.51100000000E-03 0.  1.
         12    1    3    3    0    0 -0.15297959492E+02 -0.23323123746E+02  0.29135935284E+02  0.40334828508E+02  0.00000000000E+00 0. -1.
</event>
<event>
 7    1  0.2629013E-015  0.9000749E+02  0.7816164E-02  0.1186340E+00
        -11   -1    0    0    0    0  0.00000000000E+00  0.00000000000E+00  0.45593999997E+02  0.45594000000E+02  0.51100000000E-03 0.  1.
         11   -1    0    0    0    0 -0.00000000000E+00 -0.00000000000E+00 -0.45593999997E+02  0.45594000000E+02  0.51100000000E-03 0. -1.
    9900012    2    1    2    0    0 -0.38690819452E+00  0.73670505431E+00  0.83736270119E+00  0.90007488000E+02  0.89999746042E+02 0.  0.
        -12    1    1    2    0    0  0.38690819452E+00 -0.73670505431E+00 -0.83736270119E+00  0.11805119997E+01  0.00000000000E+00 0.  1.
         11    1    3    3    0    0 -0.57211352963E+01 -0.34728708627E+00  0.80977186521E+01  0.99209397250E+01  0.51100000000E-03 0. -1.
        -11    1    3    3    0    0 -0.18163833850E+02 -0.28881608531E+02 -0.20460776190E+02  0.39783357501E+02  0.51100000000E-03 0.  1.
         12    1    3    3    0    0  0.23498060952E+02  0.29965600671E+02  0.13200420239E+02  0.40303190774E+02  0.00000000000E+00 0. -1.
</event>
<event>
 7    1  0.2232484E-015  0.9000864E+02  0.7816164E-02  0.1186337E+00
        -11   -1    0    0    0    0  0.00000000000E+00  0.00000000000E+00  0.45593999997E+02  0.45594000000E+02  0.51100000000E-03 0. -1.
         11   -1    0    0    0    0 -0.00000000000E+00 -0.00000000000E+00 -0.45593999997E+02  0.45594000000E+02  0.51100000000E-03 0.  1.
    9900012    2    1    2    0    0  0.76471211885E+00  0.95463468923E-01  0.89274769778E+00  0.90008637312E+02  0.90000910520E+02 0.  0.
        -12    1    1    2    0    0 -0.76471211885E+00 -0.95463468923E-01 -0.89274769778E+00  0.11793626883E+01  0.00000000000E+00 0.  1.
         11    1    3    3    0    0 -0.42077259564E+01  0.27244129300E+01 -0.94847864629E+01  0.10727933540E+02  0.51100000000E-03 0. -1.
        -11    1    3    3    0    0  0.21127794632E+02  0.13962900010E+01 -0.29358613016E+02  0.36197534312E+02  0.51100000000E-03 0.  1.
         12    1    3    3    0    0 -0.16155356557E+02 -0.40252394621E+01  0.39736147177E+02  0.43083169459E+02  0.00000000000E+00 0. -1.
</event>
<event>
 7    1  0.2232484E-015  0.9000771E+02  0.7816164E-02  0.1186339E+00
        -11   -1    0    0    0    0  0.00000000000E+00  0.00000000000E+00  0.45593999997E+02  0.45594000000E+02  0.51100000000E-03 0. -1.
         11   -1    0    0    0    0 -0.00000000000E+00 -0.00000000000E+00 -0.45593999997E+02  0.45594000000E+02  0.51100000000E-03 0.  1.
    9900012    2    1    2    0    0  0.15003466966E+00  0.96614861442E+00  0.66116071797E+00  0.90007708916E+02  0.89999969874E+02 0.  0.
        -12    1    1    2    0    0 -0.15003466966E+00 -0.96614861442E+00 -0.66116071797E+00  0.11802910837E+01  0.00000000000E+00 0.  1.
         11    1    3    3    0    0  0.23013024669E+02  0.11300810886E+02  0.29000336396E+02  0.38708230939E+02  0.51100000000E-03 0. -1.
        -11    1    3    3    0    0  0.72668096184E+01 -0.62059541231E+01  0.25065302653E+00  0.95594568783E+01  0.51100000000E-03 0.  1.
        -12    1    3    3    0    0 -0.30129799618E+02 -0.41287081486E+01 -0.28589828705E+02  0.41740021099E+02  0.00000000000E+00 0.  1.
</event>
<event>
 7    1  0.2232484E-015  0.9000775E+02  0.7816164E-02  0.1186339E+00
        -11   -1    0    0    0    0  0.00000000000E+00  0.00000000000E+00  0.45593999997E+02  0.45594000000E+02  0.51100000000E-03 0.  1.
         11   -1    0    0    0    0 -0.00000000000E+00 -0.00000000000E+00 -0.45593999997E+02  0.45594000000E+02  0.51100000000E-03 0. -1.
    9900012    2    1    2    0    0 -0.28327170541E+00  0.19459269517E+00 -0.11291110257E+01  0.90007745415E+02  0.90000006855E+02 0.  0.
        -12    1    1    2    0    0  0.28327170541E+00 -0.19459269517E+00  0.11291110257E+01  0.11802545846E+01  0.00000000000E+00 0.  1.
         11    1    3    3    0    0  0.10392598993E+02 -0.28743235616E+01 -0.14379597434E+01  0.10878215766E+02  0.51100000000E-03 0. -1.
        -11    1    3    3    0    0  0.18032293621E+02  0.20236409028E+01 -0.31447828907E+02  0.36307363977E+02  0.51100000000E-03 0.  1.
         12    1    3    3    0    0 -0.28708164319E+02  0.10452753540E+01  0.31756677625E+02  0.42822165673E+02  0.00000000000E+00 0. -1.
</event>
<event>
 7    1  0.2501382E-015  0.9000765E+02  0.7816164E-02  0.1186339E+00
        -11   -1    0    0    0    0  0.00000000000E+00  0.00000000000E+00  0.45593999997E+02  0.45594000000E+02  0.51100000000E-03 0.  1.
         11   -1    0    0    0    0 -0.00000000000E+00 -0.00000000000E+00 -0.45593999997E+02  0.45594000000E+02  0.51100000000E-03 0. -1.
    9900012    2    1    2    0    0  0.10918581533E+01  0.41659695621E+00 -0.16589183285E+00  0.90007649480E+02  0.89999909653E+02 0.  0.
        -12    1    1    2    0    0 -0.10918581533E+01 -0.41659695621E+00  0.16589183285E+00  0.11803505204E+01  0.00000000000E+00 0.  1.
         11    1    3    3    0    0  0.80471041122E+00  0.83309526551E+01 -0.41247114547E+01  0.93308936246E+01  0.51100000000E-03 0. -1.
        -11    1    3    3    0    0 -0.17219972299E+02  0.27117758811E+02 -0.16908157185E+02  0.36301323235E+02  0.51100000000E-03 0.  1.
         12    1    3    3    0    0  0.17507120042E+02 -0.35032114510E+02  0.20866976807E+02  0.44375432620E+02  0.00000000000E+00 0. -1.
</event>
<event>
 7    1  0.2232484E-015  0.9000775E+02  0.7816164E-02  0.1186339E+00
        -11   -1    0    0    0    0  0.00000000000E+00  0.00000000000E+00  0.45593999997E+02  0.45594000000E+02  0.51100000000E-03 0.  1.
         11   -1    0    0    0    0 -0.00000000000E+00 -0.00000000000E+00 -0.45593999997E+02  0.45594000000E+02  0.51100000000E-03 0. -1.
    9900012    2    1    2    0    0  0.85173847075E+00  0.24016403265E+00 -0.78093165263E+00  0.90007749420E+02  0.90000010913E+02 0.  0.
        -12    1    1    2    0    0 -0.85173847075E+00 -0.24016403265E+00  0.78093165263E+00  0.11802505798E+01  0.00000000000E+00 0.  1.
         11    1    3    3    0    0  0.13778041908E+02  0.79408507661E+01 -0.26141788680E+02  0.30598769017E+02  0.51100000000E-03 0. -1.
        -11    1    3    3    0    0 -0.33982052926E+01  0.13498812192E+02 -0.99675529472E+01  0.17120684619E+02  0.51100000000E-03 0.  1.
        -12    1    3    3    0    0 -0.95280981443E+01 -0.21199498926E+02  0.35328409975E+02  0.42288295784E+02  0.00000000000E+00 0.  1.
</event>
<event>
 7    1  0.2232484E-015  0.9000781E+02  0.7816164E-02  0.1186339E+00
        -11   -1    0    0    0    0  0.00000000000E+00  0.00000000000E+00  0.45593999997E+02  0.45594000000E+02  0.51100000000E-03 0.  1.
         11   -1    0    0    0    0 -0.00000000000E+00 -0.00000000000E+00 -0.45593999997E+02  0.45594000000E+02  0.51100000000E-03 0. -1.
    9900012    2    1    2    0    0  0.10434072314E+01 -0.52628624688E+00 -0.16487018212E+00  0.90007805931E+02  0.90000068169E+02 0.  0.
        -12    1    1    2    0    0 -0.10434072314E+01  0.52628624688E+00  0.16487018212E+00  0.11801940692E+01  0.00000000000E+00 0.  1.
         11    1    3    3    0    0  0.23509613799E+02  0.15470814337E+02 -0.21802716702E+02  0.35600652986E+02  0.51100000000E-03 0. -1.
        -11    1    3    3    0    0  0.72763762668E+01  0.86115942566E+01  0.58349190661E+01  0.12694545600E+02  0.51100000000E-03 0.  1.
        -12    1    3    3    0    0 -0.29742582834E+02 -0.24608694840E+02  0.15802927454E+02  0.41712607345E+02  0.00000000000E+00 0.  1.
</event>
<event>
 7    1  0.2232484E-015  0.9000774E+02  0.7816164E-02  0.1186339E+00
        -11   -1    0    0    0    0  0.00000000000E+00  0.00000000000E+00  0.45593999997E+02  0.45594000000E+02  0.51100000000E-03 0.  1.
         11   -1    0    0    0    0 -0.00000000000E+00 -0.00000000000E+00 -0.45593999997E+02  0.45594000000E+02  0.51100000000E-03 0. -1.
    9900012    2    1    2    0    0  0.77516371116E+00  0.57245684850E-02 -0.88999892413E+00  0.90007741708E+02  0.90000003099E+02 0.  0.
        -12    1    1    2    0    0 -0.77516371116E+00 -0.57245684850E-02  0.88999892413E+00  0.11802582915E+01  0.00000000000E+00 0.  1.
         11    1    3    3    0    0  0.15515111498E+02 -0.27301222814E+02  0.17316835616E+02  0.35860120579E+02  0.51100000000E-03 0. -1.
        -11    1    3    3    0    0 -0.55249887776E+01 -0.80653823681E+01  0.48674746105E+01  0.10920998264E+02  0.51100000000E-03 0.  1.
        -12    1    3    3    0    0 -0.92149590096E+01  0.35372329751E+02 -0.23074309151E+02  0.43226622865E+02  0.00000000000E+00 0.  1.
</event>
<event>
 7    1  0.2232484E-015  0.9000778E+02  0.7816164E-02  0.1186339E+00
        -11   -1    0    0    0    0  0.00000000000E+00  0.00000000000E+00  0.45593999997E+02  0.45594000000E+02  0.51100000000E-03 0.  1.
         11   -1    0    0    0    0 -0.00000000000E+00 -0.00000000000E+00 -0.45593999997E+02  0.45594000000E+02  0.51100000000E-03 0. -1.
    9900012    2    1    2    0    0 -0.35078643732E+00 -0.90288973565E+00 -0.67428799805E+00  0.90007777435E+02  0.90000039297E+02 0.  0.
        -12    1    1    2    0    0  0.35078643732E+00  0.90288973565E+00  0.67428799805E+00  0.11802225653E+01  0.00000000000E+00 0.  1.
         11    1    3    3    0    0  0.14321505064E+01  0.61438362874E+00 -0.10235900668E+02  0.10353848804E+02  0.51100000000E-03 0. -1.
        -11    1    3    3    0    0  0.22206120882E+02 -0.13390049618E+02 -0.24946151760E+02  0.35982158375E+02  0.51100000000E-03 0.  1.
         12    1    3    3    0    0 -0.23989057826E+02  0.11872776254E+02  0.34507764430E+02  0.43671770256E+02  0.00000000000E+00 0. -1.
</event>
<event>
 7    1  0.2232484E-015  0.9000775E+02  0.7816164E-02  0.1186339E+00
        -11   -1    0    0    0    0  0.00000000000E+00  0.00000000000E+00  0.45593999997E+02  0.45594000000E+02  0.51100000000E-03 0.  1.
         11   -1    0    0    0    0 -0.00000000000E+00 -0.00000000000E+00 -0.45593999997E+02  0.45594000000E+02  0.51100000000E-03 0. -1.
    9900012    2    1    2    0    0  0.44045604072E-02  0.25338491882E+00 -0.11527258513E+01  0.90007745703E+02  0.90000007146E+02 0.  0.
        -12    1    1    2    0    0 -0.44045604072E-02 -0.25338491882E+00  0.11527258513E+01  0.11802542969E+01  0.00000000000E+00 0.  1.
         11    1    3    3    0    0  0.62397613397E+01  0.72378341283E+01  0.72636783109E+01  0.12003411486E+02  0.51100000000E-03 0. -1.
        -11    1    3    3    0    0 -0.54359075465E+00  0.88014816042E+01  0.32555781045E+02  0.33728925999E+02  0.51100000000E-03 0.  1.
         12    1    3    3    0    0 -0.56917660246E+01 -0.15785930814E+02 -0.40972185208E+02  0.44275408217E+02  0.00000000000E+00 0. -1.
</event>
<event>
 7    1  0.2232484E-015  0.9000773E+02  0.7816164E-02  0.1186339E+00
        -11   -1    0    0    0    0  0.00000000000E+00  0.00000000000E+00  0.45593999997E+02  0.45594000000E+02  0.51100000000E-03 0.  1.
         11   -1    0    0    0    0 -0.00000000000E+00 -0.00000000000E+00 -0.45593999997E+02  0.45594000000E+02  0.51100000000E-03 0. -1.
    9900012    2    1    2    0    0 -0.95886252731E+00  0.46793891281E+00 -0.50462435895E+00  0.90007733117E+02  0.89999994394E+02 0.  0.
        -12    1    1    2    0    0  0.95886252731E+00 -0.46793891281E+00  0.50462435895E+00  0.11802668834E+01  0.00000000000E+00 0.  1.
         11    1    3    3    0    0  0.16329236025E+02  0.14831789579E+02 -0.32658937390E+02  0.39411065997E+02  0.51100000000E-03 0. -1.
        -11    1    3    3    0    0 -0.11098199193E+02  0.29313400380E+01 -0.21548976430E+01  0.11679313501E+02  0.51100000000E-03 0.  1.
        -12    1    3    3    0    0 -0.61898993597E+01 -0.17295190704E+02  0.34309210674E+02  0.38917353619E+02  0.00000000000E+00 0.  1.
</event>
<event>
 7    1  0.3037393E-015  0.9000758E+02  0.7816164E-02  0.1186339E+00
        -11   -1    0    0    0    0  0.00000000000E+00  0.00000000000E+00  0.45593999997E+02  0.45594000000E+02  0.51100000000E-03 0.  1.
         11   -1    0    0    0    0 -0.00000000000E+00 -0.00000000000E+00 -0.45593999997E+02  0.45594000000E+02  0.51100000000E-03 0. -1.
    9900012    2    1    2    0    0  0.10563014237E+01  0.99101681420E-01 -0.51748417194E+00  0.90007583248E+02  0.89999842546E+02 0.  0.
        -12    1    1    2    0    0 -0.10563014237E+01 -0.99101681420E-01  0.51748417194E+00  0.11804167523E+01  0.00000000000E+00 0.  1.
         11    1    3    3    0    0 -0.64569846749E+01 -0.33931317987E+01  0.63084258562E+01  0.96437664602E+01  0.51100000000E-03 0. -1.
        -11    1    3    3    0    0  0.35301179542E+01  0.25919986214E+01  0.36542283558E+02  0.36803786184E+02  0.51100000000E-03 0.  1.
         12    1    3    3    0    0  0.39831681443E+01  0.90023485876E+00 -0.43368193586E+02  0.43560030603E+02  0.00000000000E+00 0. -1.
</event>
<event>
 7    1  0.2232484E-015  0.9000710E+02  0.7816164E-02  0.1186340E+00
        -11   -1    0    0    0    0  0.00000000000E+00  0.00000000000E+00  0.45593999997E+02  0.45594000000E+02  0.51100000000E-03 0. -1.
         11   -1    0    0    0    0 -0.00000000000E+00 -0.00000000000E+00 -0.45593999997E+02  0.45594000000E+02  0.51100000000E-03 0.  1.
    9900012    2    1    2    0    0  0.18155054046E+00 -0.95308103119E+00 -0.67320765465E+00  0.90007096703E+02  0.89999349577E+02 0.  0.
        -12    1    1    2    0    0 -0.18155054046E+00  0.95308103119E+00  0.67320765465E+00  0.11809032971E+01  0.00000000000E+00 0.  1.
         11    1    3    3    0    0  0.51769624825E+01 -0.22379130866E+01 -0.87083918214E+01  0.10375224523E+02  0.51100000000E-03 0. -1.
        -11    1    3    3    0    0 -0.24748369369E+02 -0.12768209134E+00 -0.28701062607E+02  0.37897877040E+02  0.51100000000E-03 0.  1.
         12    1    3    3    0    0  0.19752957427E+02  0.14125141468E+01  0.36736246774E+02  0.41733995140E+02  0.00000000000E+00 0. -1.
</event>
<event>
 7    1  0.2232484E-015  0.9000748E+02  0.7816164E-02  0.1186340E+00
        -11   -1    0    0    0    0  0.00000000000E+00  0.00000000000E+00  0.45593999997E+02  0.45594000000E+02  0.51100000000E-03 0. -1.
         11   -1    0    0    0    0 -0.00000000000E+00 -0.00000000000E+00 -0.45593999997E+02  0.45594000000E+02  0.51100000000E-03 0.  1.
    9900012    2    1    2    0    0 -0.21418235797E-01 -0.11720528632E+01 -0.13946122175E+00  0.90007484821E+02  0.89999742820E+02 0.  0.
        -12    1    1    2    0    0  0.21418235797E-01  0.11720528632E+01  0.13946122175E+00  0.11805151788E+01  0.00000000000E+00 0.  1.
         11    1    3    3    0    0 -0.10417779985E+02 -0.14226081971E+01  0.35272613663E+01  0.11090334842E+02  0.51100000000E-03 0. -1.
        -11    1    3    3    0    0 -0.16903431587E+02 -0.18159140927E+02 -0.28418848814E+02  0.37724148324E+02  0.51100000000E-03 0.  1.
         12    1    3    3    0    0  0.27299793337E+02  0.18409696260E+02  0.24752126226E+02  0.41193001655E+02  0.00000000000E+00 0. -1.
</event>
<event>
 7    1  0.2232484E-015  0.9000770E+02  0.7816164E-02  0.1186339E+00
        -11   -1    0    0    0    0  0.00000000000E+00  0.00000000000E+00  0.45593999997E+02  0.45594000000E+02  0.51100000000E-03 0. -1.
         11   -1    0    0    0    0 -0.00000000000E+00 -0.00000000000E+00 -0.45593999997E+02  0.45594000000E+02  0.51100000000E-03 0.  1.
    9900012    2    1    2    0    0 -0.67576759199E+00  0.41833373572E-01  0.96679782708E+00  0.90007699230E+02  0.89999960060E+02 0.  0.
        -12    1    1    2    0    0  0.67576759199E+00 -0.41833373572E-01 -0.96679782708E+00  0.11803007701E+01  0.00000000000E+00 0.  1.
         11    1    3    3    0    0  0.28981940234E+01 -0.30898193305E+01  0.76301938438E+01  0.87273346703E+01  0.51100000000E-03 0. -1.
        -11    1    3    3    0    0  0.22344344609E+01  0.40993353008E+02  0.47084598255E+01  0.41323326129E+02  0.51100000000E-03 0.  1.
         12    1    3    3    0    0 -0.58083960762E+01 -0.37861700303E+02 -0.11371855842E+02  0.39957038431E+02  0.00000000000E+00 0. -1.
</event>
<event>
 7    1  0.2232484E-015  0.9000796E+02  0.7816164E-02  0.1186339E+00
        -11   -1    0    0    0    0  0.00000000000E+00  0.00000000000E+00  0.45593999997E+02  0.45594000000E+02  0.51100000000E-03 0.  1.
         11   -1    0    0    0    0 -0.00000000000E+00 -0.00000000000E+00 -0.45593999997E+02  0.45594000000E+02  0.51100000000E-03 0. -1.
    9900012    2    1    2    0    0  0.51505792875E+00 -0.88748338898E+00 -0.58274580780E+00  0.90007955885E+02  0.90000220103E+02 0.  0.
        -12    1    1    2    0    0 -0.51505792875E+00  0.88748338898E+00  0.58274580780E+00  0.11800441145E+01  0.00000000000E+00 0.  1.
         11    1    3    3    0    0  0.48780056221E+01 -0.77324353243E+01  0.15878028217E+01  0.92793649004E+01  0.51100000000E-03 0. -1.
        -11    1    3    3    0    0  0.15500281749E+02  0.32554825027E+02  0.20155680144E+02  0.41307708835E+02  0.51100000000E-03 0.  1.
         12    1    3    3    0    0 -0.19863229442E+02 -0.25709873091E+02 -0.22326228774E+02  0.39420882150E+02  0.00000000000E+00 0. -1.
</event>
<event>
 7    1  0.2232484E-015  0.9000769E+02  0.7816164E-02  0.1186339E+00
        -11   -1    0    0    0    0  0.00000000000E+00  0.00000000000E+00  0.45593999997E+02  0.45594000000E+02  0.51100000000E-03 0.  1.
         11   -1    0    0    0    0 -0.00000000000E+00 -0.00000000000E+00 -0.45593999997E+02  0.45594000000E+02  0.51100000000E-03 0. -1.
    9900012    2    1    2    0    0  0.64523756260E+00  0.67170870919E+00  0.72498802288E+00  0.90007689983E+02  0.89999950691E+02 0.  0.
        -12    1    1    2    0    0 -0.64523756260E+00 -0.67170870919E+00 -0.72498802288E+00  0.11803100167E+01  0.00000000000E+00 0.  1.
         11    1    3    3    0    0  0.90258567089E+01 -0.65242636053E+01 -0.39836051506E+01  0.11827984409E+02  0.51100000000E-03 0. -1.
        -11    1    3    3    0    0  0.65601014369E+01  0.38749982359E+02  0.14547481090E+02  0.41907341481E+02  0.51100000000E-03 0.  1.
         12    1    3    3    0    0 -0.14940720583E+02 -0.31554010045E+02 -0.98388879168E+01  0.36272364093E+02  0.00000000000E+00 0. -1.
</event>
<event>
 7    1  0.2232484E-015  0.9000843E+02  0.7816164E-02  0.1186338E+00
        -11   -1    0    0    0    0  0.00000000000E+00  0.00000000000E+00  0.45593999997E+02  0.45594000000E+02  0.51100000000E-03 0.  1.
         11   -1    0    0    0    0 -0.00000000000E+00 -0.00000000000E+00 -0.45593999997E+02  0.45594000000E+02  0.51100000000E-03 0. -1.
    9900012    2    1    2    0    0 -0.68771713392E+00 -0.93411843726E+00  0.21413927308E+00  0.90008429002E+02  0.90000699462E+02 0.  0.
        -12    1    1    2    0    0  0.68771713392E+00  0.93411843726E+00 -0.21413927308E+00  0.11795709980E+01  0.00000000000E+00 0.  1.
         11    1    3    3    0    0 -0.20586967535E+02 -0.58349240025E+01  0.15745564897E+02  0.26566753369E+02  0.51100000000E-03 0. -1.
        -11    1    3    3    0    0 -0.57423990700E+01  0.25788148322E+02 -0.14966766739E+02  0.30364582129E+02  0.51100000000E-03 0.  1.
         12    1    3    3    0    0  0.25641649471E+02 -0.20887342757E+02 -0.56465888491E+00  0.33077093504E+02  0.00000000000E+00 0. -1.
</event>
<event>
 7    1  0.2232484E-015  0.9000763E+02  0.7816164E-02  0.1186339E+00
        -11   -1    0    0    0    0  0.00000000000E+00  0.00000000000E+00  0.45593999997E+02  0.45594000000E+02  0.51100000000E-03 0.  1.
         11   -1    0    0    0    0 -0.00000000000E+00 -0.00000000000E+00 -0.45593999997E+02  0.45594000000E+02  0.51100000000E-03 0. -1.
    9900012    2    1    2    0    0  0.67527191352E-01  0.10929958749E+01  0.44054743342E+00  0.90007626354E+02  0.89999886221E+02 0.  0.
        -12    1    1    2    0    0 -0.67527191352E-01 -0.10929958749E+01 -0.44054743342E+00  0.11803736465E+01  0.00000000000E+00 0.  1.
         11    1    3    3    0    0 -0.29694358708E+01  0.50920789802E+01 -0.20473513626E+01  0.62400693581E+01  0.51100000000E-03 0. -1.
        -11    1    3    3    0    0  0.32841549453E+02  0.19720125500E+02  0.18387184516E+02  0.42491637706E+02  0.51100000000E-03 0.  1.
         12    1    3    3    0    0 -0.29804586391E+02 -0.23719208606E+02 -0.15899285720E+02  0.41275919290E+02  0.00000000000E+00 0. -1.
</event>
<event>
 7    1  0.2232484E-015  0.9000764E+02  0.7816164E-02  0.1186339E+00
        -11   -1    0    0    0    0  0.00000000000E+00  0.00000000000E+00  0.45593999997E+02  0.45594000000E+02  0.51100000000E-03 0.  1.
         11   -1    0    0    0    0 -0.00000000000E+00 -0.00000000000E+00 -0.45593999997E+02  0.45594000000E+02  0.51100000000E-03 0. -1.
    9900012    2    1    2    0    0  0.80568498403E-01  0.11733923868E+01  0.99545891764E-01  0.90007639733E+02  0.89999899777E+02 0.  0.
        -12    1    1    2    0    0 -0.80568498403E-01 -0.11733923868E+01 -0.99545891764E-01  0.11803602674E+01  0.00000000000E+00 0.  1.
         11    1    3    3    0    0  0.89046055323E+01 -0.30443729266E+01  0.34361720550E+02  0.35627069002E+02  0.51100000000E-03 0. -1.
        -11    1    3    3    0    0 -0.24551933496E+01  0.32796812664E+01  0.93960028079E+01  0.10250324513E+02  0.51100000000E-03 0.  1.
        -12    1    3    3    0    0 -0.63688436844E+01  0.93808404697E+00 -0.43658177467E+02  0.44130246218E+02  0.00000000000E+00 0.  1.
</event>
<event>
 7    1  0.2232484E-015  0.9000767E+02  0.7816164E-02  0.1186339E+00
        -11   -1    0    0    0    0  0.00000000000E+00  0.00000000000E+00  0.45593999997E+02  0.45594000000E+02  0.51100000000E-03 0.  1.
         11   -1    0    0    0    0 -0.00000000000E+00 -0.00000000000E+00 -0.45593999997E+02  0.45594000000E+02  0.51100000000E-03 0. -1.
    9900012    2    1    2    0    0 -0.11543964872E+01 -0.14226301039E+00 -0.20079303313E+00  0.90007666210E+02  0.89999926604E+02 0.  0.
        -12    1    1    2    0    0  0.11543964872E+01  0.14226301039E+00  0.20079303313E+00  0.11803337900E+01  0.00000000000E+00 0.  1.
         11    1    3    3    0    0  0.37823201893E+02  0.31171465321E+01 -0.72315291316E+01  0.38634262226E+02  0.51100000000E-03 0. -1.
        -11    1    3    3    0    0 -0.63841186198E+00 -0.35766115037E+01 -0.90843056957E+01  0.97838811209E+01  0.51100000000E-03 0.  1.
        -12    1    3    3    0    0 -0.38339186518E+02  0.31720196116E+00  0.16115041794E+02  0.41589522863E+02  0.00000000000E+00 0.  1.
</event>
<event>
 7    1  0.2232484E-015  0.9000772E+02  0.7816164E-02  0.1186339E+00
        -11   -1    0    0    0    0  0.00000000000E+00  0.00000000000E+00  0.45593999997E+02  0.45594000000E+02  0.51100000000E-03 0. -1.
         11   -1    0    0    0    0 -0.00000000000E+00 -0.00000000000E+00 -0.45593999997E+02  0.45594000000E+02  0.51100000000E-03 0.  1.
    9900012    2    1    2    0    0 -0.11639059953E+01  0.37172629835E-01  0.19236431993E+00  0.90007719100E+02  0.89999980193E+02 0.  0.
        -12    1    1    2    0    0  0.11639059953E+01 -0.37172629835E-01 -0.19236431993E+00  0.11802808996E+01  0.00000000000E+00 0.  1.
         11    1    3    3    0    0  0.32082606502E+02  0.10568385837E+02  0.70884148305E+01  0.34514200617E+02  0.51100000000E-03 0. -1.
        -11    1    3    3    0    0  0.61575477109E+01  0.55525972147E+01  0.68643805168E+01  0.10764127915E+02  0.51100000000E-03 0.  1.
        -12    1    3    3    0    0 -0.39404060208E+02 -0.16083810422E+02 -0.13760431027E+02  0.44729390568E+02  0.00000000000E+00 0.  1.
</event>
<event>
 7    1  0.2232484E-015  0.9000771E+02  0.7816164E-02  0.1186339E+00
        -11   -1    0    0    0    0  0.00000000000E+00  0.00000000000E+00  0.45593999997E+02  0.45594000000E+02  0.51100000000E-03 0. -1.
         11   -1    0    0    0    0 -0.00000000000E+00 -0.00000000000E+00 -0.45593999997E+02  0.45594000000E+02  0.51100000000E-03 0.  1.
    9900012    2    1    2    0    0 -0.81579191358E+00 -0.20921915611E+00 -0.82691831719E+00  0.90007710627E+02  0.89999971607E+02 0.  0.
        -12    1    1    2    0    0  0.81579191358E+00  0.20921915611E+00  0.82691831719E+00  0.11802893733E+01  0.00000000000E+00 0.  1.
         11    1    3    3    0    0  0.27097893312E+02  0.19587070825E+02  0.17092852792E+02  0.37551495074E+02  0.51100000000E-03 0. -1.
        -11    1    3    3    0    0  0.66817387584E+01  0.27055372282E+01 -0.63215305521E+01  0.95878732423E+01  0.51100000000E-03 0.  1.
        -12    1    3    3    0    0 -0.34595423984E+02 -0.22501827209E+02 -0.11598240558E+02  0.42868342310E+02  0.00000000000E+00 0.  1.
</event>
<event>
 7    1  0.2232484E-015  0.9000714E+02  0.7816164E-02  0.1186340E+00
        -11   -1    0    0    0    0  0.00000000000E+00  0.00000000000E+00  0.45593999997E+02  0.45594000000E+02  0.51100000000E-03 0.  1.
         11   -1    0    0    0    0 -0.00000000000E+00 -0.00000000000E+00 -0.45593999997E+02  0.45594000000E+02  0.51100000000E-03 0. -1.
    9900012    2    1    2    0    0 -0.11455631543E+01 -0.14521858374E+00  0.24704673114E+00  0.90007137830E+02  0.89999391247E+02 0.  0.
        -12    1    1    2    0    0  0.11455631543E+01  0.14521858374E+00 -0.24704673114E+00  0.11808621702E+01  0.00000000000E+00 0.  1.
         11    1    3    3    0    0  0.20741391749E+01  0.85167605117E+01  0.57978783941E+00  0.87848401881E+01  0.51100000000E-03 0. -1.
        -11    1    3    3    0    0  0.14506387864E+02  0.23133808079E+02 -0.25183347108E+02  0.37145784915E+02  0.51100000000E-03 0.  1.
         12    1    3    3    0    0 -0.17726090193E+02 -0.31795787175E+02  0.24850606000E+02  0.44076512727E+02  0.00000000000E+00 0. -1.
</event>
<event>
 7    1  0.2232484E-015  0.9000759E+02  0.7816164E-02  0.1186339E+00
        -11   -1    0    0    0    0  0.00000000000E+00  0.00000000000E+00  0.45593999997E+02  0.45594000000E+02  0.51100000000E-03 0.  1.
         11   -1    0    0    0    0 -0.00000000000E+00 -0.00000000000E+00 -0.45593999997E+02  0.45594000000E+02  0.51100000000E-03 0. -1.
    9900012    2    1    2    0    0  0.11205794809E+01 -0.15196899446E+00  0.33849019341E+00  0.90007589665E+02  0.89999849048E+02 0.  0.
        -12    1    1    2    0    0 -0.11205794809E+01  0.15196899446E+00 -0.33849019341E+00  0.11804103351E+01  0.00000000000E+00 0.  1.
         11    1    3    3    0    0  0.37147736270E+01  0.81229658484E+01  0.42977917010E+01  0.99122717396E+01  0.51100000000E-03 0. -1.
        -11    1    3    3    0    0  0.17323639960E+02 -0.25496719197E+02  0.25916511085E+02  0.40272282507E+02  0.51100000000E-03 0.  1.
         12    1    3    3    0    0 -0.19917834106E+02  0.17221784355E+02 -0.29875812592E+02  0.39823035418E+02  0.00000000000E+00 0. -1.
</event>
<event>
 7    1  0.2232484E-015  0.9000774E+02  0.7816164E-02  0.1186339E+00
        -11   -1    0    0    0    0  0.00000000000E+00  0.00000000000E+00  0.45593999997E+02  0.45594000000E+02  0.51100000000E-03 0.  1.
         11   -1    0    0    0    0 -0.00000000000E+00 -0.00000000000E+00 -0.45593999997E+02  0.45594000000E+02  0.51100000000E-03 0. -1.
    9900012    2    1    2    0    0  0.93332064197E+00  0.67335913240E+00 -0.26176086976E+00  0.90007737870E+02  0.89999999210E+02 0.  0.
        -12    1    1    2    0    0 -0.93332064197E+00 -0.67335913240E+00  0.26176086976E+00  0.11802621297E+01  0.00000000000E+00 0.  1.
         11    1    3    3    0    0  0.55178651835E+01  0.40677001397E+01 -0.18352025482E+01  0.70965477004E+01  0.51100000000E-03 0. -1.
        -11    1    3    3    0    0  0.23536476244E+02 -0.14360252526E+02  0.30492854405E+02  0.41109569891E+02  0.51100000000E-03 0.  1.
         12    1    3    3    0    0 -0.28121020786E+02  0.10965911519E+02 -0.28919412726E+02  0.41801620279E+02  0.00000000000E+00 0. -1.
</event>
<event>
 7    1  0.2232484E-015  0.9000784E+02  0.7816164E-02  0.1186339E+00
        -11   -1    0    0    0    0  0.00000000000E+00  0.00000000000E+00  0.45593999997E+02  0.45594000000E+02  0.51100000000E-03 0.  1.
         11   -1    0    0    0    0 -0.00000000000E+00 -0.00000000000E+00 -0.45593999997E+02  0.45594000000E+02  0.51100000000E-03 0. -1.
    9900012    2    1    2    0    0 -0.41366738013E+00 -0.30738943437E+00 -0.10616838979E+01  0.90007838289E+02  0.90000100954E+02 0.  0.
        -12    1    1    2    0    0  0.41366738013E+00  0.30738943437E+00  0.10616838979E+01  0.11801617113E+01  0.00000000000E+00 0.  1.
         11    1    3    3    0    0  0.55142020428E+01 -0.54546540081E+01 -0.39946631805E+02  0.40692666014E+02  0.51100000000E-03 0. -1.
        -11    1    3    3    0    0  0.88913962952E+01  0.75966718373E+00  0.17517731513E+01  0.90941042298E+01  0.51100000000E-03 0.  1.
        -12    1    3    3    0    0 -0.14819265718E+02  0.43875973900E+01  0.37133174755E+02  0.40221068045E+02  0.00000000000E+00 0.  1.
</event>
<event>
 7    1  0.2232484E-015  0.9000781E+02  0.7816164E-02  0.1186339E+00
        -11   -1    0    0    0    0  0.00000000000E+00  0.00000000000E+00  0.45593999997E+02  0.45594000000E+02  0.51100000000E-03 0.  1.
         11   -1    0    0    0    0 -0.00000000000E+00 -0.00000000000E+00 -0.45593999997E+02  0.45594000000E+02  0.51100000000E-03 0. -1.
    9900012    2    1    2    0    0 -0.14571824510E+00  0.83079875036E+00 -0.82545853512E+00  0.90007812657E+02  0.90000074984E+02 0.  0.
        -12    1    1    2    0    0  0.14571824510E+00 -0.83079875036E+00  0.82545853512E+00  0.11801873427E+01  0.00000000000E+00 0.  1.
         11    1    3    3    0    0 -0.33303966347E+00  0.10022208705E+02 -0.16538893976E+01  0.10163214705E+02  0.51100000000E-03 0. -1.
        -11    1    3    3    0    0  0.10312391661E+02 -0.39174187385E+02  0.17440001278E+02  0.44103469522E+02  0.51100000000E-03 0.  1.
         12    1    3    3    0    0 -0.10125070243E+02  0.29982777430E+02 -0.16611570415E+02  0.35741128431E+02  0.00000000000E+00 0. -1.
</event>
<event>
 7    1  0.2232484E-015  0.9000785E+02  0.7816164E-02  0.1186339E+00
        -11   -1    0    0    0    0  0.00000000000E+00  0.00000000000E+00  0.45593999997E+02  0.45594000000E+02  0.51100000000E-03 0. -1.
         11   -1    0    0    0    0 -0.00000000000E+00 -0.00000000000E+00 -0.45593999997E+02  0.45594000000E+02  0.51100000000E-03 0.  1.
    9900012    2    1    2    0    0  0.10350925244E+01  0.53794895098E+00 -0.17875420003E+00  0.90007848030E+02  0.90000110824E+02 0.  0.
        -12    1    1    2    0    0 -0.10350925244E+01 -0.53794895098E+00  0.17875420003E+00  0.11801519699E+01  0.00000000000E+00 0.  1.
         11    1    3    3    0    0 -0.34811706083E+02  0.23264170065E+01  0.55945998743E+01  0.35335062537E+02  0.51100000000E-03 0. -1.
        -11    1    3    3    0    0 -0.74683380670E+01  0.64998122970E+01  0.13767021473E+01  0.99959463005E+01  0.51100000000E-03 0.  1.
        -12    1    3    3    0    0  0.43315136674E+02 -0.82882803525E+01 -0.71500562216E+01  0.44676839193E+02  0.00000000000E+00 0.  1.
</event>
<event>
 7    1  0.2232484E-015  0.9000770E+02  0.7816164E-02  0.1186339E+00
        -11   -1    0    0    0    0  0.00000000000E+00  0.00000000000E+00  0.45593999997E+02  0.45594000000E+02  0.51100000000E-03 0.  1.
         11   -1    0    0    0    0 -0.00000000000E+00 -0.00000000000E+00 -0.45593999997E+02  0.45594000000E+02  0.51100000000E-03 0. -1.
    9900012    2    1    2    0    0 -0.35040668535E+00 -0.81263359873E+00 -0.78099786357E+00  0.90007696703E+02  0.89999957499E+02 0.  0.
        -12    1    1    2    0    0  0.35040668535E+00  0.81263359873E+00  0.78099786357E+00  0.11803032974E+01  0.00000000000E+00 0.  1.
         11    1    3    3    0    0  0.91740946084E+01 -0.38712339226E+01  0.60126111401E+00  0.99755691144E+01  0.51100000000E-03 0. -1.
        -11    1    3    3    0    0  0.16752565490E+02  0.34349188044E+02  0.54531441352E+01  0.38603781564E+02  0.51100000000E-03 0.  1.
         12    1    3    3    0    0 -0.26277066784E+02 -0.31290587720E+02 -0.68354031128E+01  0.41428346025E+02  0.00000000000E+00 0. -1.
</event>
<event>
 7    1  0.2232484E-015  0.9000783E+02  0.7816164E-02  0.1186339E+00
        -11   -1    0    0    0    0  0.00000000000E+00  0.00000000000E+00  0.45593999997E+02  0.45594000000E+02  0.51100000000E-03 0.  1.
         11   -1    0    0    0    0 -0.00000000000E+00 -0.00000000000E+00 -0.45593999997E+02  0.45594000000E+02  0.51100000000E-03 0. -1.
    9900012    2    1    2    0    0 -0.48972901086E+00 -0.89705908827E+00 -0.59013683049E+00  0.90007825864E+02  0.90000088366E+02 0.  0.
        -12    1    1    2    0    0  0.48972901086E+00  0.89705908827E+00  0.59013683049E+00  0.11801741357E+01  0.00000000000E+00 0.  1.
         11    1    3    3    0    0  0.14319174900E+02 -0.20050483315E+02 -0.27147950745E+02  0.36661585903E+02  0.51100000000E-03 0. -1.
        -11    1    3    3    0    0  0.83484372315E+01 -0.40706465431E+01 -0.24020912087E+01  0.95935712810E+01  0.51100000000E-03 0.  1.
        -12    1    3    3    0    0 -0.23157341143E+02  0.23224070770E+02  0.28959905123E+02  0.43752668681E+02  0.00000000000E+00 0.  1.
</event>
<event>
 7    1  0.2232484E-015  0.9000794E+02  0.7816164E-02  0.1186339E+00
        -11   -1    0    0    0    0  0.00000000000E+00  0.00000000000E+00  0.45593999997E+02  0.45594000000E+02  0.51100000000E-03 0.  1.
         11   -1    0    0    0    0 -0.00000000000E+00 -0.00000000000E+00 -0.45593999997E+02  0.45594000000E+02  0.51100000000E-03 0. -1.
    9900012    2    1    2    0    0 -0.86937982454E+00 -0.27298356088E+00  0.74980678387E+00  0.90007935800E+02  0.90000199752E+02 0.  0.
        -12    1    1    2    0    0  0.86937982454E+00  0.27298356088E+00 -0.74980678387E+00  0.11800642004E+01  0.00000000000E+00 0.  1.
         11    1    3    3    0    0 -0.40533917405E+00  0.21970517676E+01  0.87343534362E+01  0.90155569170E+01  0.51100000000E-03 0. -1.
        -11    1    3    3    0    0  0.19851034672E+02 -0.24924317072E+02  0.21729910551E+02  0.38567786712E+02  0.51100000000E-03 0.  1.
         12    1    3    3    0    0 -0.20315075322E+02  0.22454281744E+02 -0.29714457203E+02  0.42424592171E+02  0.00000000000E+00 0. -1.
</event>
<event>
 7    1  0.2232484E-015  0.9000774E+02  0.7816164E-02  0.1186339E+00
        -11   -1    0    0    0    0  0.00000000000E+00  0.00000000000E+00  0.45593999997E+02  0.45594000000E+02  0.51100000000E-03 0. -1.
         11   -1    0    0    0    0 -0.00000000000E+00 -0.00000000000E+00 -0.45593999997E+02  0.45594000000E+02  0.51100000000E-03 0.  1.
    9900012    2    1    2    0    0  0.51251523460E-01 -0.11283288526E+01  0.34242421271E+00  0.90007742799E+02  0.90000004204E+02 0.  0.
        -12    1    1    2    0    0 -0.51251523460E-01  0.11283288526E+01 -0.34242421271E+00  0.11802572007E+01  0.00000000000E+00 0.  1.
         11    1    3    3    0    0 -0.60753912586E+01  0.10866902574E+02 -0.14426633824E+01  0.12533205033E+02  0.51100000000E-03 0. -1.
        -11    1    3    3    0    0  0.21268373654E+02  0.24116365045E+02 -0.14237012515E+02  0.35165825833E+02  0.51100000000E-03 0.  1.
         12    1    3    3    0    0 -0.15141730872E+02 -0.36111596472E+02  0.16022100110E+02  0.42308711934E+02  0.00000000000E+00 0. -1.
</event>
<event>
 7    1  0.2232484E-015  0.9000755E+02  0.7816164E-02  0.1186339E+00
        -11   -1    0    0    0    0  0.00000000000E+00  0.00000000000E+00  0.45593999997E+02  0.45594000000E+02  0.51100000000E-03 0.  1.
         11   -1    0    0    0    0 -0.00000000000E+00 -0.00000000000E+00 -0.45593999997E+02  0.45594000000E+02  0.51100000000E-03 0. -1.
    9900012    2    1    2    0    0  0.75858745284E+00  0.64838237267E+00 -0.63056140985E+00  0.90007549952E+02  0.89999808811E+02 0.  0.
        -12    1    1    2    0    0 -0.75858745284E+00 -0.64838237267E+00  0.63056140985E+00  0.11804500482E+01  0.00000000000E+00 0.  1.
         11    1    3    3    0    0 -0.37888974750E+02 -0.97193836966E+00 -0.21955145719E+02  0.43801227101E+02  0.51100000000E-03 0. -1.
        -11    1    3    3    0    0  0.57648639638E+01 -0.46999370917E+01  0.28657653995E+01  0.79709269708E+01  0.51100000000E-03 0.  1.
        -12    1    3    3    0    0  0.32882698239E+02  0.63202578340E+01  0.18458818910E+02  0.38235395880E+02  0.00000000000E+00 0.  1.
</event>
<event>
 7    1  0.2232484E-015  0.9000779E+02  0.7816164E-02  0.1186339E+00
        -11   -1    0    0    0    0  0.00000000000E+00  0.00000000000E+00  0.45593999997E+02  0.45594000000E+02  0.51100000000E-03 0.  1.
         11   -1    0    0    0    0 -0.00000000000E+00 -0.00000000000E+00 -0.45593999997E+02  0.45594000000E+02  0.51100000000E-03 0. -1.
    9900012    2    1    2    0    0 -0.36549893247E-01 -0.97317217521E+00 -0.66671297794E+00  0.90007785540E+02  0.90000047509E+02 0.  0.
        -12    1    1    2    0    0  0.36549893247E-01  0.97317217521E+00  0.66671297794E+00  0.11802144603E+01  0.00000000000E+00 0.  1.
         11    1    3    3    0    0 -0.31447828921E+02 -0.26626400453E+02 -0.34137404319E+00  0.41207374115E+02  0.51100000000E-03 0. -1.
        -11    1    3    3    0    0  0.38187106826E+01 -0.38728480207E+01  0.57721270637E+01  0.79308860898E+01  0.51100000000E-03 0.  1.
        -12    1    3    3    0    0  0.27592568345E+02  0.29526076299E+02 -0.60974659984E+01  0.40869525335E+02  0.00000000000E+00 0.  1.
</event>
<event>
 7    1  0.2232484E-015  0.9000771E+02  0.7816164E-02  0.1186339E+00
        -11   -1    0    0    0    0  0.00000000000E+00  0.00000000000E+00  0.45593999997E+02  0.45594000000E+02  0.51100000000E-03 0.  1.
         11   -1    0    0    0    0 -0.00000000000E+00 -0.00000000000E+00 -0.45593999997E+02  0.45594000000E+02  0.51100000000E-03 0. -1.
    9900012    2    1    2    0    0 -0.56942409773E+00  0.84432005417E+00 -0.59662915804E+00  0.90007709142E+02  0.89999970103E+02 0.  0.
        -12    1    1    2    0    0  0.56942409773E+00 -0.84432005417E+00  0.59662915804E+00  0.11802908579E+01  0.00000000000E+00 0.  1.
         11    1    3    3    0    0 -0.81724032451E+01 -0.33142264680E+01  0.32995710532E+01  0.94159142562E+01  0.51100000000E-03 0. -1.
        -11    1    3    3    0    0 -0.15019806966E+02  0.36090473449E+02 -0.11454904721E+02  0.40734895575E+02  0.51100000000E-03 0.  1.
         12    1    3    3    0    0  0.22622786113E+02 -0.31931926927E+02  0.75587045094E+01  0.39856899311E+02  0.00000000000E+00 0. -1.
</event>
<event>
 7    1  0.2232484E-015  0.9000774E+02  0.7816164E-02  0.1186339E+00
        -11   -1    0    0    0    0  0.00000000000E+00  0.00000000000E+00  0.45593999997E+02  0.45594000000E+02  0.51100000000E-03 0.  1.
         11   -1    0    0    0    0 -0.00000000000E+00 -0.00000000000E+00 -0.45593999997E+02  0.45594000000E+02  0.51100000000E-03 0. -1.
    9900012    2    1    2    0    0 -0.89648445528E+00  0.42306780816E+00 -0.64058113137E+00  0.90007739463E+02  0.90000000824E+02 0.  0.
        -12    1    1    2    0    0  0.89648445528E+00 -0.42306780816E+00  0.64058113137E+00  0.11802605368E+01  0.00000000000E+00 0.  1.
         11    1    3    3    0    0 -0.27040523018E+02  0.23777889350E+02 -0.16973881763E+02  0.39808172143E+02  0.51100000000E-03 0. -1.
        -11    1    3    3    0    0  0.43069422817E+01  0.46055628802E+01 -0.56473154303E+01  0.84648173691E+01  0.51100000000E-03 0.  1.
        -12    1    3    3    0    0  0.21837096281E+02 -0.27960384422E+02  0.21980616062E+02  0.41734749951E+02  0.00000000000E+00 0.  1.
</event>
<event>
 7    1  0.2232484E-015  0.9000776E+02  0.7816164E-02  0.1186339E+00
        -11   -1    0    0    0    0  0.00000000000E+00  0.00000000000E+00  0.45593999997E+02  0.45594000000E+02  0.51100000000E-03 0. -1.
         11   -1    0    0    0    0 -0.00000000000E+00 -0.00000000000E+00 -0.45593999997E+02  0.45594000000E+02  0.51100000000E-03 0.  1.
    9900012    2    1    2    0    0  0.24884343767E+00  0.92190946670E+00  0.69363640321E+00  0.90007757829E+02  0.90000019433E+02 0.  0.
        -12    1    1    2    0    0 -0.24884343767E+00 -0.92190946670E+00 -0.69363640321E+00  0.11802421705E+01  0.00000000000E+00 0.  1.
         11    1    3    3    0    0 -0.43247699095E-01  0.88182312650E+01 -0.53938887046E+01  0.10337171210E+02  0.51100000000E-03 0. -1.
        -11    1    3    3    0    0 -0.24859199611E+01  0.13843847669E+02 -0.32432966488E+02  0.35351509611E+02  0.51100000000E-03 0.  1.
         12    1    3    3    0    0  0.27780110978E+01 -0.21740169467E+02  0.38520491595E+02  0.44319077008E+02  0.00000000000E+00 0. -1.
</event>
<event>
 7    1  0.2232484E-015  0.9000773E+02  0.7816164E-02  0.1186339E+00
        -11   -1    0    0    0    0  0.00000000000E+00  0.00000000000E+00  0.45593999997E+02  0.45594000000E+02  0.51100000000E-03 0.  1.
         11   -1    0    0    0    0 -0.00000000000E+00 -0.00000000000E+00 -0.45593999997E+02  0.45594000000E+02  0.51100000000E-03 0. -1.
    9900012    2    1    2    0    0 -0.79842444920E-01  0.86688696852E+00 -0.79696852871E+00  0.90007734493E+02  0.89999995788E+02 0.  0.
        -12    1    1    2    0    0  0.79842444920E-01 -0.86688696852E+00  0.79696852871E+00  0.11802655074E+01  0.00000000000E+00 0.  1.
         11    1    3    3    0    0  0.13160658151E+02  0.27743064899E+01  0.78813694392E+01  0.15588960324E+02  0.51100000000E-03 0. -1.
        -11    1    3    3    0    0  0.40575141243E+01 -0.15798801020E+02  0.27503597595E+02  0.31976763680E+02  0.51100000000E-03 0.  1.
         12    1    3    3    0    0 -0.17298014721E+02  0.13891381498E+02 -0.36181935563E+02  0.42442010488E+02  0.00000000000E+00 0. -1.
</event>
<event>
 7    1  0.2232484E-015  0.9000787E+02  0.7816164E-02  0.1186339E+00
        -11   -1    0    0    0    0  0.00000000000E+00  0.00000000000E+00  0.45593999997E+02  0.45594000000E+02  0.51100000000E-03 0.  1.
         11   -1    0    0    0    0 -0.00000000000E+00 -0.00000000000E+00 -0.45593999997E+02  0.45594000000E+02  0.51100000000E-03 0. -1.
    9900012    2    1    2    0    0 -0.49786514821E+00  0.65603061227E+00 -0.84526370830E+00  0.90007865852E+02  0.90000128881E+02 0.  0.
        -12    1    1    2    0    0  0.49786514821E+00 -0.65603061227E+00  0.84526370830E+00  0.11801341477E+01  0.00000000000E+00 0.  1.
         11    1    3    3    0    0 -0.14894246400E+02  0.17444585497E+02 -0.28632363594E+02  0.36687387264E+02  0.51100000000E-03 0. -1.
        -11    1    3    3    0    0  0.26524697422E+01 -0.19217031645E+01 -0.10285486689E+02  0.10794432615E+02  0.51100000000E-03 0.  1.
        -12    1    3    3    0    0  0.11743911510E+02 -0.14866851720E+02  0.38072586575E+02  0.42526045973E+02  0.00000000000E+00 0.  1.
</event>
<event>
 7    1  0.2232484E-015  0.9000767E+02  0.7816164E-02  0.1186339E+00
        -11   -1    0    0    0    0  0.00000000000E+00  0.00000000000E+00  0.45593999997E+02  0.45594000000E+02  0.51100000000E-03 0.  1.
         11   -1    0    0    0    0 -0.00000000000E+00 -0.00000000000E+00 -0.45593999997E+02  0.45594000000E+02  0.51100000000E-03 0. -1.
    9900012    2    1    2    0    0 -0.20387569137E+00 -0.27377505189E+00 -0.11298946061E+01  0.90007669581E+02  0.89999930020E+02 0.  0.
        -12    1    1    2    0    0  0.20387569137E+00  0.27377505189E+00  0.11298946061E+01  0.11803304187E+01  0.00000000000E+00 0.  1.
         11    1    3    3    0    0 -0.13650926386E+01 -0.29648226096E+02 -0.21986553255E+02  0.36936287210E+02  0.51100000000E-03 0. -1.
        -11    1    3    3    0    0  0.54678895332E+01 -0.83646447156E+01  0.57025748980E+00  0.10009510030E+02  0.51100000000E-03 0.  1.
        -12    1    3    3    0    0 -0.43066725859E+01  0.37739095760E+02  0.20286401159E+02  0.43061872341E+02  0.00000000000E+00 0.  1.
</event>
<event>
 7    1  0.2232484E-015  0.9000776E+02  0.7816164E-02  0.1186339E+00
        -11   -1    0    0    0    0  0.00000000000E+00  0.00000000000E+00  0.45593999997E+02  0.45594000000E+02  0.51100000000E-03 0. -1.
         11   -1    0    0    0    0 -0.00000000000E+00 -0.00000000000E+00 -0.45593999997E+02  0.45594000000E+02  0.51100000000E-03 0.  1.
    9900012    2    1    2    0    0  0.52785434742E+00  0.10066356607E+01 -0.31784638718E+00  0.90007757698E+02  0.90000019300E+02 0.  0.
        -12    1    1    2    0    0 -0.52785434742E+00 -0.10066356607E+01  0.31784638718E+00  0.11802423020E+01  0.00000000000E+00 0.  1.
         11    1    3    3    0    0 -0.81646593960E+01  0.51662857866E+01 -0.31665170072E-01  0.96619446710E+01  0.51100000000E-03 0. -1.
        -11    1    3    3    0    0 -0.43486801264E+01 -0.32398448093E+02 -0.24562714967E+02  0.40888842298E+02  0.51100000000E-03 0.  1.
         12    1    3    3    0    0  0.13041193870E+02  0.28238797967E+02  0.24276533750E+02  0.39456970729E+02  0.00000000000E+00 0. -1.
</event>
<event>
 7    1  0.2232484E-015  0.9000768E+02  0.7816164E-02  0.1186339E+00
        -11   -1    0    0    0    0  0.00000000000E+00  0.00000000000E+00  0.45593999997E+02  0.45594000000E+02  0.51100000000E-03 0.  1.
         11   -1    0    0    0    0 -0.00000000000E+00 -0.00000000000E+00 -0.45593999997E+02  0.45594000000E+02  0.51100000000E-03 0. -1.
    9900012    2    1    2    0    0 -0.19695096796E+00  0.57094681497E+00 -0.10140887955E+01  0.90007683926E+02  0.89999944554E+02 0.  0.
        -12    1    1    2    0    0  0.19695096796E+00 -0.57094681497E+00  0.10140887955E+01  0.11803160739E+01  0.00000000000E+00 0.  1.
         11    1    3    3    0    0  0.15187954200E+02 -0.36469909903E+02  0.28045543633E+01  0.39605476977E+02  0.51100000000E-03 0. -1.
        -11    1    3    3    0    0  0.40863943642E+01  0.54666555438E+01  0.88743474846E+01  0.11195400184E+02  0.51100000000E-03 0.  1.
        -12    1    3    3    0    0 -0.19471299532E+02  0.31574201175E+02 -0.12692990643E+02  0.39206806765E+02  0.00000000000E+00 0.  1.
</event>
<event>
 7    1  0.2232484E-015  0.9000772E+02  0.7816164E-02  0.1186339E+00
        -11   -1    0    0    0    0  0.00000000000E+00  0.00000000000E+00  0.45593999997E+02  0.45594000000E+02  0.51100000000E-03 0. -1.
         11   -1    0    0    0    0 -0.00000000000E+00 -0.00000000000E+00 -0.45593999997E+02  0.45594000000E+02  0.51100000000E-03 0.  1.
    9900012    2    1    2    0    0 -0.71583578734E+00 -0.86474118354E+00 -0.36450471543E+00  0.90007719577E+02  0.89999980676E+02 0.  0.
        -12    1    1    2    0    0  0.71583578734E+00  0.86474118354E+00  0.36450471543E+00  0.11802804228E+01  0.00000000000E+00 0.  1.
         11    1    3    3    0    0 -0.41202015100E+02  0.11692497641E+02 -0.42027399297E+01  0.43034678720E+02  0.51100000000E-03 0. -1.
        -11    1    3    3    0    0  0.31459105171E+01 -0.45683127322E+01 -0.53407519942E+01  0.76999913198E+01  0.51100000000E-03 0.  1.
        -12    1    3    3    0    0  0.37340268795E+02 -0.79889260921E+01  0.91789872085E+01  0.39273049537E+02  0.00000000000E+00 0.  1.
</event>
<event>
 7    1  0.2232484E-015  0.9000767E+02  0.7816164E-02  0.1186339E+00
        -11   -1    0    0    0    0  0.00000000000E+00  0.00000000000E+00  0.45593999997E+02  0.45594000000E+02  0.51100000000E-03 0.  1.
         11   -1    0    0    0    0 -0.00000000000E+00 -0.00000000000E+00 -0.45593999997E+02  0.45594000000E+02  0.51100000000E-03 0. -1.
    9900012    2    1    2    0    0  0.73491450427E+00 -0.53229750555E+00  0.75480730303E+00  0.90007672068E+02  0.89999932539E+02 0.  0.
        -12    1    1    2    0    0 -0.73491450427E+00  0.53229750555E+00 -0.75480730303E+00  0.11803279323E+01  0.00000000000E+00 0.  1.
         11    1    3    3    0    0 -0.76025132753E+00  0.15070014961E+02 -0.64114252342E+01  0.16394807312E+02  0.51100000000E-03 0. -1.
        -11    1    3    3    0    0  0.20427263958E+02  0.20464696757E+02  0.14301877362E+02  0.32258651902E+02  0.51100000000E-03 0.  1.
         12    1    3    3    0    0 -0.18932098127E+02 -0.36067009223E+02 -0.71356448247E+01  0.41354212854E+02  0.00000000000E+00 0. -1.
</event>
<event>
 7    1  0.2232484E-015  0.9000779E+02  0.7816164E-02  0.1186339E+00
        -11   -1    0    0    0    0  0.00000000000E+00  0.00000000000E+00  0.45593999997E+02  0.45594000000E+02  0.51100000000E-03 0. -1.
         11   -1    0    0    0    0 -0.00000000000E+00 -0.00000000000E+00 -0.45593999997E+02  0.45594000000E+02  0.51100000000E-03 0.  1.
    9900012    2    1    2    0    0  0.72359876298E+00 -0.92761026471E+00 -0.93992809480E-01  0.90007792128E+02  0.90000054184E+02 0.  0.
        -12    1    1    2    0    0 -0.72359876298E+00  0.92761026471E+00  0.93992809480E-01  0.11802078720E+01  0.00000000000E+00 0.  1.
         11    1    3    3    0    0 -0.24067539014E+02  0.72127492213E+01  0.18667659331E+02  0.31300985459E+02  0.51100000000E-03 0. -1.
        -11    1    3    3    0    0 -0.60019596341E+01  0.14234449392E+02 -0.13038999163E+02  0.20215305300E+02  0.51100000000E-03 0.  1.
         12    1    3    3    0    0  0.30793097411E+02 -0.22374808878E+02 -0.57226529774E+01  0.38491501369E+02  0.00000000000E+00 0. -1.
</event>
<event>
 7    1  0.2232484E-015  0.9000781E+02  0.7816164E-02  0.1186339E+00
        -11   -1    0    0    0    0  0.00000000000E+00  0.00000000000E+00  0.45593999997E+02  0.45594000000E+02  0.51100000000E-03 0. -1.
         11   -1    0    0    0    0 -0.00000000000E+00 -0.00000000000E+00 -0.45593999997E+02  0.45594000000E+02  0.51100000000E-03 0.  1.
    9900012    2    1    2    0    0 -0.25411352762E+00  0.11520607674E+01 -0.32281360898E-01  0.90007805193E+02  0.90000067421E+02 0.  0.
        -12    1    1    2    0    0  0.25411352762E+00 -0.11520607674E+01  0.32281360898E-01  0.11801948072E+01  0.00000000000E+00 0.  1.
         11    1    3    3    0    0 -0.38967605780E+02 -0.88132434559E+01  0.87107248459E+01  0.40890393591E+02  0.51100000000E-03 0. -1.
        -11    1    3    3    0    0  0.43584862163E+01  0.72014106306E+01  0.72613401521E+01  0.11116824107E+02  0.51100000000E-03 0.  1.
        -12    1    3    3    0    0  0.34355006036E+02  0.27638935927E+01 -0.16004346359E+02  0.38000587494E+02  0.00000000000E+00 0.  1.
</event>
<event>
 7    1  0.2232484E-015  0.9000789E+02  0.7816164E-02  0.1186339E+00
        -11   -1    0    0    0    0  0.00000000000E+00  0.00000000000E+00  0.45593999997E+02  0.45594000000E+02  0.51100000000E-03 0. -1.
         11   -1    0    0    0    0 -0.00000000000E+00 -0.00000000000E+00 -0.45593999997E+02  0.45594000000E+02  0.51100000000E-03 0.  1.
    9900012    2    1    2    0    0 -0.42098931950E+00  0.92302919843E+00 -0.60285888662E+00  0.90007892486E+02  0.90000155866E+02 0.  0.
        -12    1    1    2    0    0  0.42098931950E+00 -0.92302919843E+00  0.60285888662E+00  0.11801075144E+01  0.00000000000E+00 0.  1.
         11    1    3    3    0    0  0.69124998591E+01 -0.43057075175E+00 -0.64758864903E+01  0.94818327116E+01  0.51100000000E-03 0. -1.
        -11    1    3    3    0    0  0.25365719361E+02 -0.55021214852E+01 -0.24264801809E+02  0.35531305445E+02  0.51100000000E-03 0.  1.
         12    1    3    3    0    0 -0.32699208539E+02  0.68557214353E+01  0.30137829412E+02  0.44994754330E+02  0.00000000000E+00 0. -1.
</event>
<event>
 7    1  0.2232484E-015  0.9000795E+02  0.7816164E-02  0.1186339E+00
        -11   -1    0    0    0    0  0.00000000000E+00  0.00000000000E+00  0.45593999997E+02  0.45594000000E+02  0.51100000000E-03 0.  1.
         11   -1    0    0    0    0 -0.00000000000E+00 -0.00000000000E+00 -0.45593999997E+02  0.45594000000E+02  0.51100000000E-03 0. -1.
    9900012    2    1    2    0    0  0.20805535411E+00 -0.10204896304E+01 -0.55482773350E+00  0.90007949183E+02  0.90000213312E+02 0.  0.
        -12    1    1    2    0    0 -0.20805535411E+00  0.10204896304E+01  0.55482773350E+00  0.11800508167E+01  0.00000000000E+00 0.  1.
         11    1    3    3    0    0  0.24233249735E+02 -0.26969347212E+02 -0.35003283207E+01  0.36425930056E+02  0.51100000000E-03 0. -1.
        -11    1    3    3    0    0  0.87751453810E+01 -0.31665980791E+01  0.27397122775E+01  0.97229904596E+01  0.51100000000E-03 0.  1.
        -12    1    3    3    0    0 -0.32800339762E+02  0.29115455661E+02  0.20578830970E+00  0.43859028668E+02  0.00000000000E+00 0.  1.
</event>
<event>
 7    1  0.2232484E-015  0.9000746E+02  0.7816164E-02  0.1186340E+00
        -11   -1    0    0    0    0  0.00000000000E+00  0.00000000000E+00  0.45593999997E+02  0.45594000000E+02  0.51100000000E-03 0.  1.
         11   -1    0    0    0    0 -0.00000000000E+00 -0.00000000000E+00 -0.45593999997E+02  0.45594000000E+02  0.51100000000E-03 0. -1.
    9900012    2    1    2    0    0 -0.14737418485E+00 -0.10309331008E+01 -0.55600578148E+00  0.90007455787E+02  0.89999713403E+02 0.  0.
        -12    1    1    2    0    0  0.14737418485E+00  0.10309331008E+01  0.55600578148E+00  0.11805442125E+01  0.00000000000E+00 0.  1.
         11    1    3    3    0    0  0.66088405471E+01 -0.83239176777E+01 -0.24844121056E+01  0.10914975156E+02  0.51100000000E-03 0. -1.
        -11    1    3    3    0    0  0.19372493990E+02 -0.25175245496E+02  0.15387838908E+02  0.35296913402E+02  0.51100000000E-03 0.  1.
         12    1    3    3    0    0 -0.26128708722E+02  0.32468230073E+02 -0.13459432584E+02  0.43795567230E+02  0.00000000000E+00 0. -1.
</event>
<event>
 7    1  0.2232484E-015  0.9000781E+02  0.7816164E-02  0.1186339E+00
        -11   -1    0    0    0    0  0.00000000000E+00  0.00000000000E+00  0.45593999997E+02  0.45594000000E+02  0.51100000000E-03 0.  1.
         11   -1    0    0    0    0 -0.00000000000E+00 -0.00000000000E+00 -0.45593999997E+02  0.45594000000E+02  0.51100000000E-03 0. -1.
    9900012    2    1    2    0    0 -0.54166077223E+00  0.85151096865E+00 -0.61187184587E+00  0.90007807440E+02  0.90000069699E+02 0.  0.
        -12    1    1    2    0    0  0.54166077223E+00 -0.85151096865E+00  0.61187184587E+00  0.11801925596E+01  0.00000000000E+00 0.  1.
         11    1    3    3    0    0 -0.88526354397E+01 -0.65002856564E+01 -0.12250989227E+02  0.16453255153E+02  0.51100000000E-03 0. -1.
        -11    1    3    3    0    0 -0.24561773712E+02 -0.18181276402E+02  0.89562032202E+01  0.31844200663E+02  0.51100000000E-03 0.  1.
         12    1    3    3    0    0  0.32872748379E+02  0.25533073027E+02  0.26829141610E+01  0.41710351624E+02  0.00000000000E+00 0. -1.
</event>
<event>
 7    1  0.2232484E-015  0.9000769E+02  0.7816164E-02  0.1186339E+00
        -11   -1    0    0    0    0  0.00000000000E+00  0.00000000000E+00  0.45593999997E+02  0.45594000000E+02  0.51100000000E-03 0.  1.
         11   -1    0    0    0    0 -0.00000000000E+00 -0.00000000000E+00 -0.45593999997E+02  0.45594000000E+02  0.51100000000E-03 0. -1.
    9900012    2    1    2    0    0  0.80739608609E+00  0.58411545729E+00 -0.63250559244E+00  0.90007685367E+02  0.89999946014E+02 0.  0.
        -12    1    1    2    0    0 -0.80739608609E+00 -0.58411545729E+00  0.63250559244E+00  0.11803146325E+01  0.00000000000E+00 0.  1.
         11    1    3    3    0    0  0.47139134803E+01 -0.76624250684E+01 -0.59174196567E+01  0.10767989315E+02  0.51100000000E-03 0. -1.
        -11    1    3    3    0    0 -0.51222372018E+01 -0.32494253170E+02  0.16728604567E+02  0.36904742433E+02  0.51100000000E-03 0.  1.
         12    1    3    3    0    0  0.12157198076E+01  0.40740793696E+02 -0.11443690503E+02  0.42334953619E+02  0.00000000000E+00 0. -1.
</event>
<event>
 7    1  0.2232484E-015  0.9000757E+02  0.7816164E-02  0.1186339E+00
        -11   -1    0    0    0    0  0.00000000000E+00  0.00000000000E+00  0.45593999997E+02  0.45594000000E+02  0.51100000000E-03 0.  1.
         11   -1    0    0    0    0 -0.00000000000E+00 -0.00000000000E+00 -0.45593999997E+02  0.45594000000E+02  0.51100000000E-03 0. -1.
    9900012    2    1    2    0    0 -0.39067746626E+00 -0.39877056362E+00 -0.10400782778E+01  0.90007572252E+02  0.89999831405E+02 0.  0.
        -12    1    1    2    0    0  0.39067746626E+00  0.39877056362E+00  0.10400782778E+01  0.11804277483E+01  0.00000000000E+00 0.  1.
         11    1    3    3    0    0 -0.22960672323E+02  0.36202934312E+02  0.53041692341E+01  0.43196980657E+02  0.51100000000E-03 0. -1.
        -11    1    3    3    0    0  0.58388924168E+01 -0.59252479635E+01 -0.83813379561E+01  0.11808812569E+02  0.51100000000E-03 0.  1.
        -12    1    3    3    0    0  0.16731102440E+02 -0.30676456912E+02  0.20370904442E+01  0.35001779026E+02  0.00000000000E+00 0.  1.
</event>
<event>
 7    1  0.2232484E-015  0.9000778E+02  0.7816164E-02  0.1186339E+00
        -11   -1    0    0    0    0  0.00000000000E+00  0.00000000000E+00  0.45593999997E+02  0.45594000000E+02  0.51100000000E-03 0. -1.
         11   -1    0    0    0    0 -0.00000000000E+00 -0.00000000000E+00 -0.45593999997E+02  0.45594000000E+02  0.51100000000E-03 0.  1.
    9900012    2    1    2    0    0  0.17301792074E+00 -0.10369137393E+01  0.53646012433E+00  0.90007781898E+02  0.90000043819E+02 0.  0.
        -12    1    1    2    0    0 -0.17301792074E+00  0.10369137393E+01 -0.53646012433E+00  0.11802181022E+01  0.00000000000E+00 0.  1.
         11    1    3    3    0    0 -0.64714127444E+01 -0.38757160811E+01 -0.70522740966E+01  0.10326418946E+02  0.51100000000E-03 0. -1.
        -11    1    3    3    0    0  0.28235910712E+02  0.22653892401E+02 -0.18313678993E+02  0.40569154948E+02  0.51100000000E-03 0.  1.
         12    1    3    3    0    0 -0.21591480047E+02 -0.19815090059E+02  0.25902413214E+02  0.39112208004E+02  0.00000000000E+00 0. -1.
</event>
<event>
 7    1  0.2232484E-015  0.9000776E+02  0.7816164E-02  0.1186339E+00
        -11   -1    0    0    0    0  0.00000000000E+00  0.00000000000E+00  0.45593999997E+02  0.45594000000E+02  0.51100000000E-03 0.  1.
         11   -1    0    0    0    0 -0.00000000000E+00 -0.00000000000E+00 -0.45593999997E+02  0.45594000000E+02  0.51100000000E-03 0. -1.
    9900012    2    1    2    0    0  0.44252129153E+00  0.94646720261E+00 -0.54894767804E+00  0.90007759002E+02  0.90000020621E+02 0.  0.
        -12    1    1    2    0    0 -0.44252129153E+00 -0.94646720261E+00  0.54894767804E+00  0.11802409976E+01  0.00000000000E+00 0.  1.
         11    1    3    3    0    0  0.27040118698E+02  0.83078993561E+01  0.11382057750E+01  0.28310505533E+02  0.51100000000E-03 0. -1.
        -11    1    3    3    0    0  0.14716672704E+02 -0.80425417553E+01 -0.10033091979E+02  0.19542923740E+02  0.51100000000E-03 0.  1.
        -12    1    3    3    0    0 -0.41314270111E+02  0.68110960185E+00  0.83459385261E+01  0.42154329729E+02  0.00000000000E+00 0.  1.
</event>
<event>
 7    1  0.2232484E-015  0.9000776E+02  0.7816164E-02  0.1186339E+00
        -11   -1    0    0    0    0  0.00000000000E+00  0.00000000000E+00  0.45593999997E+02  0.45594000000E+02  0.51100000000E-03 0.  1.
         11   -1    0    0    0    0 -0.00000000000E+00 -0.00000000000E+00 -0.45593999997E+02  0.45594000000E+02  0.51100000000E-03 0. -1.
    9900012    2    1    2    0    0 -0.73605730574E+00 -0.24417177286E+00 -0.88970069732E+00  0.90007759540E+02  0.90000021166E+02 0.  0.
        -12    1    1    2    0    0  0.73605730574E+00  0.24417177286E+00  0.88970069732E+00  0.11802404597E+01  0.00000000000E+00 0.  1.
         11    1    3    3    0    0 -0.18657582663E+02  0.16787765902E+02 -0.29913072588E+02  0.39047744963E+02  0.51100000000E-03 0. -1.
        -11    1    3    3    0    0 -0.26963029987E+01 -0.40225437323E+01 -0.63583841790E+01  0.79924938266E+01  0.51100000000E-03 0.  1.
        -12    1    3    3    0    0  0.20617828356E+02 -0.13009393942E+02  0.35381756070E+02  0.42967520750E+02  0.00000000000E+00 0.  1.
</event>
<event>
 7    1  0.2232484E-015  0.9000774E+02  0.7816164E-02  0.1186339E+00
        -11   -1    0    0    0    0  0.00000000000E+00  0.00000000000E+00  0.45593999997E+02  0.45594000000E+02  0.51100000000E-03 0.  1.
         11   -1    0    0    0    0 -0.00000000000E+00 -0.00000000000E+00 -0.45593999997E+02  0.45594000000E+02  0.51100000000E-03 0. -1.
    9900012    2    1    2    0    0 -0.47875805303E-01  0.11458777447E+01  0.27873272421E+00  0.90007737389E+02  0.89999998723E+02 0.  0.
        -12    1    1    2    0    0  0.47875805303E-01 -0.11458777447E+01 -0.27873272421E+00  0.11802626106E+01  0.00000000000E+00 0.  1.
         11    1    3    3    0    0 -0.97146621142E+01 -0.10002269211E+01 -0.16902158193E+01  0.99112029373E+01  0.51100000000E-03 0. -1.
        -11    1    3    3    0    0 -0.20207656828E+02  0.30925391600E+02 -0.71415022114E+01  0.37626191598E+02  0.51100000000E-03 0.  1.
         12    1    3    3    0    0  0.29874443137E+02 -0.28779286934E+02  0.91104507549E+01  0.42470342854E+02  0.00000000000E+00 0. -1.
</event>
<event>
 7    1  0.2232484E-015  0.9000771E+02  0.7816164E-02  0.1186339E+00
        -11   -1    0    0    0    0  0.00000000000E+00  0.00000000000E+00  0.45593999997E+02  0.45594000000E+02  0.51100000000E-03 0. -1.
         11   -1    0    0    0    0 -0.00000000000E+00 -0.00000000000E+00 -0.45593999997E+02  0.45594000000E+02  0.51100000000E-03 0.  1.
    9900012    2    1    2    0    0  0.15442426152E-02 -0.42805432922E+00  0.10999296529E+01  0.90007712690E+02  0.89999973697E+02 0.  0.
        -12    1    1    2    0    0 -0.15442426153E-02  0.42805432922E+00 -0.10999296529E+01  0.11802873103E+01  0.00000000000E+00 0.  1.
         11    1    3    3    0    0  0.38458650402E+00 -0.50073605532E+00  0.10843707738E+02  0.10862073520E+02  0.51100000000E-03 0. -1.
        -11    1    3    3    0    0 -0.32793580102E+02 -0.14513484727E+02  0.11595916385E+02  0.37689858210E+02  0.51100000000E-03 0.  1.
         12    1    3    3    0    0  0.32410537841E+02  0.14586166453E+02 -0.21339694471E+02  0.41455780960E+02  0.00000000000E+00 0. -1.
</event>
<event>
 7    1  0.2232484E-015  0.9000776E+02  0.7816164E-02  0.1186339E+00
        -11   -1    0    0    0    0  0.00000000000E+00  0.00000000000E+00  0.45593999997E+02  0.45594000000E+02  0.51100000000E-03 0.  1.
         11   -1    0    0    0    0 -0.00000000000E+00 -0.00000000000E+00 -0.45593999997E+02  0.45594000000E+02  0.51100000000E-03 0. -1.
    9900012    2    1    2    0    0 -0.28143626156E+00 -0.47629537736E+00 -0.10425444855E+01  0.90007761609E+02  0.90000023262E+02 0.  0.
        -12    1    1    2    0    0  0.28143626156E+00  0.47629537736E+00  0.10425444855E+01  0.11802383912E+01  0.00000000000E+00 0.  1.
         11    1    3    3    0    0 -0.87653830357E+01  0.29239335284E+02  0.20900581595E+02  0.36994661492E+02  0.51100000000E-03 0. -1.
        -11    1    3    3    0    0 -0.10732545045E+02 -0.18162614005E+01  0.25860542444E+01  0.11188118941E+02  0.51100000000E-03 0.  1.
        -12    1    3    3    0    0  0.19216491819E+02 -0.27899369261E+02 -0.24529180325E+02  0.41824981176E+02  0.00000000000E+00 0.  1.
</event>
<event>
 7    1  0.2232484E-015  0.9000798E+02  0.7816164E-02  0.1186339E+00
        -11   -1    0    0    0    0  0.00000000000E+00  0.00000000000E+00  0.45593999997E+02  0.45594000000E+02  0.51100000000E-03 0.  1.
         11   -1    0    0    0    0 -0.00000000000E+00 -0.00000000000E+00 -0.45593999997E+02  0.45594000000E+02  0.51100000000E-03 0. -1.
    9900012    2    1    2    0    0  0.71873599604E-01 -0.19038936891E+00 -0.11623397461E+01  0.90007979826E+02  0.90000244359E+02 0.  0.
        -12    1    1    2    0    0 -0.71873599604E-01  0.19038936891E+00  0.11623397461E+01  0.11800201742E+01  0.00000000000E+00 0.  1.
         11    1    3    3    0    0 -0.17697029068E+02  0.27254081995E+02  0.23204182199E+02  0.39929987416E+02  0.51100000000E-03 0. -1.
        -11    1    3    3    0    0  0.94720296440E+01 -0.44140991207E+00  0.37728757368E+01  0.10205330954E+02  0.51100000000E-03 0.  1.
        -12    1    3    3    0    0  0.82968730240E+01 -0.27003061452E+02 -0.28139397682E+02  0.39872661457E+02  0.00000000000E+00 0.  1.
</event>
<event>
 7    1  0.2232484E-015  0.9000778E+02  0.7816164E-02  0.1186339E+00
        -11   -1    0    0    0    0  0.00000000000E+00  0.00000000000E+00  0.45593999997E+02  0.45594000000E+02  0.51100000000E-03 0.  1.
         11   -1    0    0    0    0 -0.00000000000E+00 -0.00000000000E+00 -0.45593999997E+02  0.45594000000E+02  0.51100000000E-03 0. -1.
    9900012    2    1    2    0    0 -0.10117216333E+01 -0.25918113800E+00  0.54969154023E+00  0.90007781243E+02  0.90000043155E+02 0.  0.
        -12    1    1    2    0    0  0.10117216333E+01  0.25918113800E+00 -0.54969154023E+00  0.11802187572E+01  0.00000000000E+00 0.  1.
         11    1    3    3    0    0  0.11731022958E+02 -0.29232151687E+02  0.12743974623E+01  0.31523954083E+02  0.51100000000E-03 0. -1.
        -11    1    3    3    0    0 -0.11143612616E+02 -0.10675466604E+02 -0.91191211942E+01  0.17924956373E+02  0.51100000000E-03 0.  1.
        -12    1    3    3    0    0 -0.15991319753E+01  0.39648437153E+02  0.83944152721E+01  0.40558870787E+02  0.00000000000E+00 0.  1.
</event>
<event>
 7    1  0.2232484E-015  0.9000780E+02  0.7816164E-02  0.1186339E+00
        -11   -1    0    0    0    0  0.00000000000E+00  0.00000000000E+00  0.45593999997E+02  0.45594000000E+02  0.51100000000E-03 0. -1.
         11   -1    0    0    0    0 -0.00000000000E+00 -0.00000000000E+00 -0.45593999997E+02  0.45594000000E+02  0.51100000000E-03 0.  1.
    9900012    2    1    2    0    0 -0.15154152515E+00  0.11188919773E+01 -0.34348854914E+00  0.90007801511E+02  0.90000063691E+02 0.  0.
        -12    1    1    2    0    0  0.15154152515E+00 -0.11188919773E+01  0.34348854914E+00  0.11801984892E+01  0.00000000000E+00 0.  1.
         11    1    3    3    0    0 -0.36043144298E+01 -0.26001113007E+02  0.11327370536E+02  0.28589478548E+02  0.51100000000E-03 0. -1.
        -11    1    3    3    0    0 -0.28244073608E+01 -0.12318848820E+02  0.98774251572E+01  0.16040412750E+02  0.51100000000E-03 0.  1.
        -12    1    3    3    0    0  0.62771802654E+01  0.39438853804E+02 -0.21548284243E+02  0.45377910213E+02  0.00000000000E+00 0.  1.
</event>
<event>
 7    1  0.2232484E-015  0.9000778E+02  0.7816164E-02  0.1186339E+00
        -11   -1    0    0    0    0  0.00000000000E+00  0.00000000000E+00  0.45593999997E+02  0.45594000000E+02  0.51100000000E-03 0.  1.
         11   -1    0    0    0    0 -0.00000000000E+00 -0.00000000000E+00 -0.45593999997E+02  0.45594000000E+02  0.51100000000E-03 0. -1.
    9900012    2    1    2    0    0  0.10287787393E+01  0.49898245441E+00 -0.29250232532E+00  0.90007776803E+02  0.90000038657E+02 0.  0.
        -12    1    1    2    0    0 -0.10287787393E+01 -0.49898245441E+00  0.29250232532E+00  0.11802231969E+01  0.00000000000E+00 0.  1.
         11    1    3    3    0    0 -0.32841509156E+02  0.11589484778E+02 -0.12390543999E+02  0.36964935573E+02  0.51100000000E-03 0. -1.
        -11    1    3    3    0    0 -0.11189978132E+01  0.38014556030E+01 -0.88008007240E+01  0.96518036891E+01  0.51100000000E-03 0.  1.
        -12    1    3    3    0    0  0.34989285709E+02 -0.14891957927E+02  0.20898842398E+02  0.43391037541E+02  0.00000000000E+00 0.  1.
</event>
<event>
 7    1  0.2232484E-015  0.9000777E+02  0.7816164E-02  0.1186339E+00
        -11   -1    0    0    0    0  0.00000000000E+00  0.00000000000E+00  0.45593999997E+02  0.45594000000E+02  0.51100000000E-03 0. -1.
         11   -1    0    0    0    0 -0.00000000000E+00 -0.00000000000E+00 -0.45593999997E+02  0.45594000000E+02  0.51100000000E-03 0.  1.
    9900012    2    1    2    0    0  0.87864598924E-01 -0.11767770265E+01  0.20725326918E-01  0.90007765321E+02  0.90000027023E+02 0.  0.
        -12    1    1    2    0    0 -0.87864598924E-01  0.11767770265E+01 -0.20725326918E-01  0.11802346788E+01  0.00000000000E+00 0.  1.
         11    1    3    3    0    0 -0.27807539392E+01  0.39772575513E+02 -0.50401550018E+01  0.40186981948E+02  0.51100000000E-03 0. -1.
        -11    1    3    3    0    0 -0.67606951311E+00  0.17597917486E+01  0.66733021384E+01  0.69344717662E+01  0.51100000000E-03 0.  1.
        -12    1    3    3    0    0  0.35446880512E+01 -0.42709144288E+02 -0.16124218096E+01  0.42886311607E+02  0.00000000000E+00 0.  1.
</event>
<event>
 7    1  0.2232484E-015  0.9000779E+02  0.7816164E-02  0.1186339E+00
        -11   -1    0    0    0    0  0.00000000000E+00  0.00000000000E+00  0.45593999997E+02  0.45594000000E+02  0.51100000000E-03 0.  1.
         11   -1    0    0    0    0 -0.00000000000E+00 -0.00000000000E+00 -0.45593999997E+02  0.45594000000E+02  0.51100000000E-03 0. -1.
    9900012    2    1    2    0    0  0.10125146566E+01 -0.58710494172E+00 -0.15170268307E+00  0.90007791609E+02  0.90000053658E+02 0.  0.
        -12    1    1    2    0    0 -0.10125146566E+01  0.58710494172E+00  0.15170268307E+00  0.11802083912E+01  0.00000000000E+00 0.  1.
         11    1    3    3    0    0 -0.25831578027E+02  0.15800303589E+01 -0.10982847073E+02  0.28113872899E+02  0.51100000000E-03 0. -1.
        -11    1    3    3    0    0 -0.16942954426E+02 -0.15796326267E+01  0.12164378741E+01  0.17059855371E+02  0.51100000000E-03 0.  1.
        -12    1    3    3    0    0  0.43787047110E+02 -0.58750267393E+00  0.96147065155E+01  0.44834063338E+02  0.00000000000E+00 0.  1.
</event>
<event>
 7    1  0.2232484E-015  0.9000784E+02  0.7816164E-02  0.1186339E+00
        -11   -1    0    0    0    0  0.00000000000E+00  0.00000000000E+00  0.45593999997E+02  0.45594000000E+02  0.51100000000E-03 0. -1.
         11   -1    0    0    0    0 -0.00000000000E+00 -0.00000000000E+00 -0.45593999997E+02  0.45594000000E+02  0.51100000000E-03 0.  1.
    9900012    2    1    2    0    0  0.44914920394E+00 -0.10436755495E+01  0.31904874134E+00  0.90007836554E+02  0.90000099196E+02 0.  0.
        -12    1    1    2    0    0 -0.44914920394E+00  0.10436755495E+01 -0.31904874134E+00  0.11801634460E+01  0.00000000000E+00 0.  1.
         11    1    3    3    0    0 -0.61946178358E+01 -0.46183913724E+01  0.36976198541E+02  0.37774887000E+02  0.51100000000E-03 0. -1.
        -11    1    3    3    0    0 -0.42485098664E+01  0.89344117411E+01  0.33340799238E+01  0.10439810269E+02  0.51100000000E-03 0.  1.
        -12    1    3    3    0    0  0.10892276906E+02 -0.53596959182E+01 -0.39991229724E+02  0.41793139286E+02  0.00000000000E+00 0.  1.
</event>
<event>
 7    1  0.2232484E-015  0.9000774E+02  0.7816164E-02  0.1186339E+00
        -11   -1    0    0    0    0  0.00000000000E+00  0.00000000000E+00  0.45593999997E+02  0.45594000000E+02  0.51100000000E-03 0.  1.
         11   -1    0    0    0    0 -0.00000000000E+00 -0.00000000000E+00 -0.45593999997E+02  0.45594000000E+02  0.51100000000E-03 0. -1.
    9900012    2    1    2    0    0  0.79641979090E+00 -0.86776628389E+00  0.75521853674E-01  0.90007743097E+02  0.90000004506E+02 0.  0.
        -12    1    1    2    0    0 -0.79641979090E+00  0.86776628389E+00 -0.75521853674E-01  0.11802569030E+01  0.00000000000E+00 0.  1.
         11    1    3    3    0    0  0.36210821741E+01 -0.35213622154E+02 -0.10916358320E+02  0.37044274869E+02  0.51100000000E-03 0. -1.
        -11    1    3    3    0    0 -0.22523871714E+01 -0.84521722364E+01  0.39035968630E+01  0.95786498116E+01  0.51100000000E-03 0.  1.
        -12    1    3    3    0    0 -0.57227521182E+00  0.42798028107E+02  0.70882833110E+01  0.43384818416E+02  0.00000000000E+00 0.  1.
</event>
<event>
 7    1  0.2232484E-015  0.9000783E+02  0.7816164E-02  0.1186339E+00
        -11   -1    0    0    0    0  0.00000000000E+00  0.00000000000E+00  0.45593999997E+02  0.45594000000E+02  0.51100000000E-03 0. -1.
         11   -1    0    0    0    0 -0.00000000000E+00 -0.00000000000E+00 -0.45593999997E+02  0.45594000000E+02  0.51100000000E-03 0.  1.
    9900012    2    1    2    0    0 -0.97882140596E+00 -0.49937559010E+00 -0.43049184444E+00  0.90007834523E+02  0.90000097139E+02 0.  0.
        -12    1    1    2    0    0  0.97882140596E+00  0.49937559010E+00  0.43049184444E+00  0.11801654769E+01  0.00000000000E+00 0.  1.
         11    1    3    3    0    0 -0.51159267376E+01  0.59823197636E+01  0.50020752675E+01  0.93263933748E+01  0.51100000000E-03 0. -1.
        -11    1    3    3    0    0  0.47616023912E+01  0.13044867598E+02 -0.39245710862E+02  0.41630124301E+02  0.51100000000E-03 0.  1.
         12    1    3    3    0    0 -0.62449705960E+00 -0.19526562952E+02  0.33813143750E+02  0.39051316848E+02  0.00000000000E+00 0. -1.
</event>
<event>
 7    1  0.2232484E-015  0.9000780E+02  0.7816164E-02  0.1186339E+00
        -11   -1    0    0    0    0  0.00000000000E+00  0.00000000000E+00  0.45593999997E+02  0.45594000000E+02  0.51100000000E-03 0. -1.
         11   -1    0    0    0    0 -0.00000000000E+00 -0.00000000000E+00 -0.45593999997E+02  0.45594000000E+02  0.51100000000E-03 0.  1.
    9900012    2    1    2    0    0  0.29657313175E+00 -0.44070433867E+00  0.10539003258E+01  0.90007795851E+02  0.90000057956E+02 0.  0.
        -12    1    1    2    0    0 -0.29657313175E+00  0.44070433867E+00 -0.10539003258E+01  0.11802041490E+01  0.00000000000E+00 0.  1.
         11    1    3    3    0    0 -0.26095728383E+01  0.65347035775E+01 -0.95855925748E+01  0.11890996868E+02  0.51100000000E-03 0. -1.
        -11    1    3    3    0    0 -0.88138866654E+01 -0.22278338439E+02 -0.26836029986E+02  0.35974733737E+02  0.51100000000E-03 0.  1.
         12    1    3    3    0    0  0.11720032635E+02  0.15302930523E+02  0.37475522887E+02  0.42142065246E+02  0.00000000000E+00 0. -1.
</event>
<event>
 7    1  0.2232484E-015  0.9000773E+02  0.7816164E-02  0.1186339E+00
        -11   -1    0    0    0    0  0.00000000000E+00  0.00000000000E+00  0.45593999997E+02  0.45594000000E+02  0.51100000000E-03 0.  1.
         11   -1    0    0    0    0 -0.00000000000E+00 -0.00000000000E+00 -0.45593999997E+02  0.45594000000E+02  0.51100000000E-03 0. -1.
    9900012    2    1    2    0    0  0.32001859115E-01  0.82823592835E+00 -0.84026381836E+00  0.90007727931E+02  0.89999989140E+02 0.  0.
        -12    1    1    2    0    0 -0.32001859115E-01 -0.82823592835E+00  0.84026381836E+00  0.11802720688E+01  0.00000000000E+00 0.  1.
         11    1    3    3    0    0 -0.79023707159E+01  0.10540591040E+02 -0.98036778158E-01  0.13174260278E+02  0.51100000000E-03 0. -1.
        -11    1    3    3    0    0 -0.26923568590E+02 -0.20945543469E+02  0.14627987806E+02  0.37115661982E+02  0.51100000000E-03 0.  1.
         12    1    3    3    0    0  0.34857941165E+02  0.11233188357E+02 -0.15370214846E+02  0.39717805671E+02  0.00000000000E+00 0. -1.
</event>
<event>
 7    1  0.2232484E-015  0.9000774E+02  0.7816164E-02  0.1186339E+00
        -11   -1    0    0    0    0  0.00000000000E+00  0.00000000000E+00  0.45593999997E+02  0.45594000000E+02  0.51100000000E-03 0.  1.
         11   -1    0    0    0    0 -0.00000000000E+00 -0.00000000000E+00 -0.45593999997E+02  0.45594000000E+02  0.51100000000E-03 0. -1.
    9900012    2    1    2    0    0 -0.90120370306E+00 -0.70375565615E+00  0.29253155199E+00  0.90007739500E+02  0.90000000862E+02 0.  0.
        -12    1    1    2    0    0  0.90120370306E+00  0.70375565615E+00 -0.29253155199E+00  0.11802604996E+01  0.00000000000E+00 0.  1.
         11    1    3    3    0    0  0.29275386815E+01 -0.23070766015E+01  0.61840390638E+01  0.72204864504E+01  0.51100000000E-03 0. -1.
        -11    1    3    3    0    0 -0.10385301927E+02 -0.29814302051E+02  0.23429847666E+02  0.39315453257E+02  0.51100000000E-03 0.  1.
         12    1    3    3    0    0  0.65565595426E+01  0.31417622996E+02 -0.29321355178E+02  0.43471799793E+02  0.00000000000E+00 0. -1.
</event>
<event>
 7    1  0.2232484E-015  0.9000772E+02  0.7816164E-02  0.1186339E+00
        -11   -1    0    0    0    0  0.00000000000E+00  0.00000000000E+00  0.45593999997E+02  0.45594000000E+02  0.51100000000E-03 0.  1.
         11   -1    0    0    0    0 -0.00000000000E+00 -0.00000000000E+00 -0.45593999997E+02  0.45594000000E+02  0.51100000000E-03 0. -1.
    9900012    2    1    2    0    0 -0.12553262453E+00 -0.17392145137E+00 -0.11606300340E+01  0.90007716480E+02  0.89999977538E+02 0.  0.
        -12    1    1    2    0    0  0.12553262453E+00  0.17392145137E+00  0.11606300340E+01  0.11802835198E+01  0.00000000000E+00 0.  1.
         11    1    3    3    0    0 -0.20993279558E+02 -0.11166076971E+02 -0.34221790992E+02  0.41671693515E+02  0.51100000000E-03 0. -1.
        -11    1    3    3    0    0 -0.49102932065E+01 -0.27605772390E+01  0.83367457151E+01  0.10061465870E+02  0.51100000000E-03 0.  1.
        -12    1    3    3    0    0  0.25778040140E+02  0.13752732758E+02  0.24724415243E+02  0.38274557095E+02  0.00000000000E+00 0.  1.
</event>
<event>
 7    1  0.2232484E-015  0.9000810E+02  0.7816164E-02  0.1186338E+00
        -11   -1    0    0    0    0  0.00000000000E+00  0.00000000000E+00  0.45593999997E+02  0.45594000000E+02  0.51100000000E-03 0.  1.
         11   -1    0    0    0    0 -0.00000000000E+00 -0.00000000000E+00 -0.45593999997E+02  0.45594000000E+02  0.51100000000E-03 0. -1.
    9900012    2    1    2    0    0 -0.56175687726E+00 -0.10370990903E+01 -0.32074956254E-01  0.90008095718E+02  0.90000361781E+02 0.  0.
        -12    1    1    2    0    0  0.56175687726E+00  0.10370990903E+01  0.32074956254E-01  0.11799042821E+01  0.00000000000E+00 0.  1.
         11    1    3    3    0    0  0.15506959753E+00 -0.77096033488E+01  0.43430087986E+01  0.88500709636E+01  0.51100000000E-03 0. -1.
        -11    1    3    3    0    0 -0.33629443474E+01  0.17343873537E+02 -0.40078767861E+02  0.43799851340E+02  0.51100000000E-03 0.  1.
         12    1    3    3    0    0  0.26461178726E+01 -0.10671369278E+02  0.35703684106E+02  0.37358173414E+02  0.00000000000E+00 0. -1.
</event>
<event>
 7    1  0.2232484E-015  0.9000772E+02  0.7816164E-02  0.1186339E+00
        -11   -1    0    0    0    0  0.00000000000E+00  0.00000000000E+00  0.45593999997E+02  0.45594000000E+02  0.51100000000E-03 0.  1.
         11   -1    0    0    0    0 -0.00000000000E+00 -0.00000000000E+00 -0.45593999997E+02  0.45594000000E+02  0.51100000000E-03 0. -1.
    9900012    2    1    2    0    0 -0.97662983064E+00  0.49010801401E+00 -0.44613762925E+00  0.90007724407E+02  0.89999985569E+02 0.  0.
        -12    1    1    2    0    0  0.97662983064E+00 -0.49010801401E+00  0.44613762925E+00  0.11802755931E+01  0.00000000000E+00 0.  1.
         11    1    3    3    0    0  0.11667558696E+02 -0.19567572385E+00 -0.11421330047E+02  0.16328410676E+02  0.51100000000E-03 0. -1.
        -11    1    3    3    0    0  0.18323019601E+02  0.20247473031E+02  0.22390719296E+02  0.35313418445E+02  0.51100000000E-03 0.  1.
         12    1    3    3    0    0 -0.30967208127E+02 -0.19561689293E+02 -0.11415526878E+02  0.38365895286E+02  0.00000000000E+00 0. -1.
</event>
<event>
 7    1  0.2232484E-015  0.9000777E+02  0.7816164E-02  0.1186339E+00
        -11   -1    0    0    0    0  0.00000000000E+00  0.00000000000E+00  0.45593999997E+02  0.45594000000E+02  0.51100000000E-03 0.  1.
         11   -1    0    0    0    0 -0.00000000000E+00 -0.00000000000E+00 -0.45593999997E+02  0.45594000000E+02  0.51100000000E-03 0. -1.
    9900012    2    1    2    0    0  0.65994445102E+00 -0.91067958636E+00  0.35787340504E+00  0.90007772326E+02  0.90000034121E+02 0.  0.
        -12    1    1    2    0    0 -0.65994445102E+00  0.91067958636E+00 -0.35787340504E+00  0.11802276736E+01  0.00000000000E+00 0.  1.
         11    1    3    3    0    0 -0.16932616053E+01 -0.73705940153E+01  0.54277953313E+01  0.93087997842E+01  0.51100000000E-03 0. -1.
        -11    1    3    3    0    0 -0.36613596517E+02 -0.71369000909E+01  0.64369161128E+01  0.37853991628E+02  0.51100000000E-03 0.  1.
         12    1    3    3    0    0  0.38966802574E+02  0.13596814520E+02 -0.11506838039E+02  0.42844980915E+02  0.00000000000E+00 0. -1.
</event>
<event>
 7    1  0.2232484E-015  0.9000780E+02  0.7816164E-02  0.1186339E+00
        -11   -1    0    0    0    0  0.00000000000E+00  0.00000000000E+00  0.45593999997E+02  0.45594000000E+02  0.51100000000E-03 0.  1.
         11   -1    0    0    0    0 -0.00000000000E+00 -0.00000000000E+00 -0.45593999997E+02  0.45594000000E+02  0.51100000000E-03 0. -1.
    9900012    2    1    2    0    0  0.62340417373E-01  0.92414421141E-01 -0.11749241942E+01  0.90007799333E+02  0.90000061484E+02 0.  0.
        -12    1    1    2    0    0 -0.62340417373E-01 -0.92414421141E-01  0.11749241942E+01  0.11802006672E+01  0.00000000000E+00 0.  1.
         11    1    3    3    0    0 -0.56458489275E+01 -0.35570746224E+02  0.14803829355E+02  0.38939786349E+02  0.51100000000E-03 0. -1.
        -11    1    3    3    0    0 -0.70970021779E+01 -0.26249529783E+01 -0.55090734152E+01  0.93598989421E+01  0.51100000000E-03 0.  1.
        -12    1    3    3    0    0  0.12805191523E+02  0.38288113624E+02 -0.10469680134E+02  0.41708114042E+02  0.00000000000E+00 0.  1.
</event>
<event>
 7    1  0.2232484E-015  0.9000775E+02  0.7816164E-02  0.1186339E+00
        -11   -1    0    0    0    0  0.00000000000E+00  0.00000000000E+00  0.45593999997E+02  0.45594000000E+02  0.51100000000E-03 0.  1.
         11   -1    0    0    0    0 -0.00000000000E+00 -0.00000000000E+00 -0.45593999997E+02  0.45594000000E+02  0.51100000000E-03 0. -1.
    9900012    2    1    2    0    0  0.97802668584E+00  0.50534831013E+00  0.42554052978E+00  0.90007746699E+02  0.90000008155E+02 0.  0.
        -12    1    1    2    0    0 -0.97802668584E+00 -0.50534831013E+00 -0.42554052978E+00  0.11802533013E+01  0.00000000000E+00 0.  1.
         11    1    3    3    0    0 -0.24476839056E+02  0.14462008182E+02  0.27236856608E+02  0.39371457796E+02  0.51100000000E-03 0. -1.
        -11    1    3    3    0    0  0.33538157135E+01  0.31873537758E+01  0.59638589905E+01  0.75481731731E+01  0.51100000000E-03 0.  1.
        -12    1    3    3    0    0  0.22101050028E+02 -0.17144013648E+02 -0.32775175069E+02  0.43088115729E+02  0.00000000000E+00 0.  1.
</event>
<event>
 7    1  0.2232484E-015  0.9000778E+02  0.7816164E-02  0.1186339E+00
        -11   -1    0    0    0    0  0.00000000000E+00  0.00000000000E+00  0.45593999997E+02  0.45594000000E+02  0.51100000000E-03 0.  1.
         11   -1    0    0    0    0 -0.00000000000E+00 -0.00000000000E+00 -0.45593999997E+02  0.45594000000E+02  0.51100000000E-03 0. -1.
    9900012    2    1    2    0    0  0.11731126749E+01  0.97131021987E-01  0.85353817715E-01  0.90007782623E+02  0.90000044553E+02 0.  0.
        -12    1    1    2    0    0 -0.11731126749E+01 -0.97131021987E-01 -0.85353817715E-01  0.11802173773E+01  0.00000000000E+00 0.  1.
         11    1    3    3    0    0  0.97479975305E+01  0.48797767707E+01  0.90387767412E+00  0.10938586394E+02  0.51100000000E-03 0. -1.
        -11    1    3    3    0    0 -0.11823323937E+02  0.35665608072E+02  0.55898580066E+01  0.37987802001E+02  0.51100000000E-03 0.  1.
         12    1    3    3    0    0  0.32484390809E+01 -0.40448253821E+02 -0.64083818631E+01  0.41081394228E+02  0.00000000000E+00 0. -1.
</event>
<event>
 7    1  0.2232484E-015  0.9000773E+02  0.7816164E-02  0.1186339E+00
        -11   -1    0    0    0    0  0.00000000000E+00  0.00000000000E+00  0.45593999997E+02  0.45594000000E+02  0.51100000000E-03 0.  1.
         11   -1    0    0    0    0 -0.00000000000E+00 -0.00000000000E+00 -0.45593999997E+02  0.45594000000E+02  0.51100000000E-03 0. -1.
    9900012    2    1    2    0    0 -0.45046047064E+00  0.10868699818E+01  0.94040113474E-01  0.90007726923E+02  0.89999988119E+02 0.  0.
        -12    1    1    2    0    0  0.45046047064E+00 -0.10868699818E+01 -0.94040113474E-01  0.11802730768E+01  0.00000000000E+00 0.  1.
         11    1    3    3    0    0 -0.28891107053E+02  0.17897253013E+02 -0.13641936614E+02  0.36621171021E+02  0.51100000000E-03 0. -1.
        -11    1    3    3    0    0  0.60802120578E+01  0.49648022146E+01 -0.11033503900E+02  0.13540917557E+02  0.51100000000E-03 0.  1.
        -12    1    3    3    0    0  0.22360434524E+02 -0.21775185246E+02  0.24769480627E+02  0.39845638345E+02  0.00000000000E+00 0.  1.
</event>
<event>
 7    1  0.2232484E-015  0.9000771E+02  0.7816164E-02  0.1186339E+00
        -11   -1    0    0    0    0  0.00000000000E+00  0.00000000000E+00  0.45593999997E+02  0.45594000000E+02  0.51100000000E-03 0. -1.
         11   -1    0    0    0    0 -0.00000000000E+00 -0.00000000000E+00 -0.45593999997E+02  0.45594000000E+02  0.51100000000E-03 0.  1.
    9900012    2    1    2    0    0 -0.49714369174E-01 -0.39407919718E+00  0.11114492865E+01  0.90007707897E+02  0.89999968841E+02 0.  0.
        -12    1    1    2    0    0  0.49714369174E-01  0.39407919718E+00 -0.11114492865E+01  0.11802921031E+01  0.00000000000E+00 0.  1.
         11    1    3    3    0    0  0.23410864220E+02 -0.19081356829E+02 -0.20201447117E+02  0.36335453869E+02  0.51100000000E-03 0. -1.
        -11    1    3    3    0    0  0.51881279298E+01  0.25954860913E+01 -0.78347653667E+01  0.97486803250E+01  0.51100000000E-03 0.  1.
        -12    1    3    3    0    0 -0.28648706519E+02  0.16091791541E+02  0.29147661770E+02  0.43923573703E+02  0.00000000000E+00 0.  1.
</event>
<event>
 7    1  0.2232484E-015  0.9000769E+02  0.7816164E-02  0.1186339E+00
        -11   -1    0    0    0    0  0.00000000000E+00  0.00000000000E+00  0.45593999997E+02  0.45594000000E+02  0.51100000000E-03 0. -1.
         11   -1    0    0    0    0 -0.00000000000E+00 -0.00000000000E+00 -0.45593999997E+02  0.45594000000E+02  0.51100000000E-03 0.  1.
    9900012    2    1    2    0    0 -0.99444841211E+00  0.40329169154E+00  0.49149091544E+00  0.90007688536E+02  0.89999949224E+02 0.  0.
        -12    1    1    2    0    0  0.99444841211E+00 -0.40329169154E+00 -0.49149091544E+00  0.11803114643E+01  0.00000000000E+00 0.  1.
         11    1    3    3    0    0 -0.13154177263E+02  0.31640733418E+02  0.72361604882E+01  0.35021856169E+02  0.51100000000E-03 0. -1.
        -11    1    3    3    0    0 -0.10678284856E+02  0.48086514075E+01  0.41000667397E+00  0.11718233722E+02  0.51100000000E-03 0.  1.
        -12    1    3    3    0    0  0.22838013707E+02 -0.36046093134E+02 -0.71546762467E+01  0.43267598645E+02  0.00000000000E+00 0.  1.
</event>
<event>
 7    1  0.2232484E-015  0.9000775E+02  0.7816164E-02  0.1186339E+00
        -11   -1    0    0    0    0  0.00000000000E+00  0.00000000000E+00  0.45593999997E+02  0.45594000000E+02  0.51100000000E-03 0. -1.
         11   -1    0    0    0    0 -0.00000000000E+00 -0.00000000000E+00 -0.45593999997E+02  0.45594000000E+02  0.51100000000E-03 0.  1.
    9900012    2    1    2    0    0  0.41498217274E+00  0.10344515979E+01  0.38818708591E+00  0.90007750227E+02  0.90000011730E+02 0.  0.
        -12    1    1    2    0    0 -0.41498217274E+00 -0.10344515979E+01 -0.38818708591E+00  0.11802497726E+01  0.00000000000E+00 0.  1.
         11    1    3    3    0    0 -0.19781913969E+01 -0.19307752333E+02 -0.14189990977E+02  0.24042844789E+02  0.51100000000E-03 0. -1.
        -11    1    3    3    0    0 -0.25317436032E+02 -0.31755995544E+01  0.15036806616E+02  0.29616930179E+02  0.51100000000E-03 0.  1.
         12    1    3    3    0    0  0.27710609602E+02  0.23517803486E+02 -0.45862855276E+00  0.36347975259E+02  0.00000000000E+00 0. -1.
</event>
<event>
 7    1  0.2232484E-015  0.9000773E+02  0.7816164E-02  0.1186339E+00
        -11   -1    0    0    0    0  0.00000000000E+00  0.00000000000E+00  0.45593999997E+02  0.45594000000E+02  0.51100000000E-03 0.  1.
         11   -1    0    0    0    0 -0.00000000000E+00 -0.00000000000E+00 -0.45593999997E+02  0.45594000000E+02  0.51100000000E-03 0. -1.
    9900012    2    1    2    0    0  0.45963390277E+00  0.80297396129E+00 -0.73280367361E+00  0.90007732348E+02  0.89999993615E+02 0.  0.
        -12    1    1    2    0    0 -0.45963390277E+00 -0.80297396129E+00  0.73280367361E+00  0.11802676523E+01  0.00000000000E+00 0.  1.
         11    1    3    3    0    0 -0.38865525359E+01  0.40386946383E+02 -0.69504199569E+01  0.41164536516E+02  0.51100000000E-03 0. -1.
        -11    1    3    3    0    0 -0.60305543948E+00  0.39710666821E+01  0.27564030315E+01  0.48714273463E+01  0.51100000000E-03 0.  1.
        -12    1    3    3    0    0  0.49492418781E+01 -0.43555039104E+02  0.34612132518E+01  0.43971768485E+02  0.00000000000E+00 0.  1.
</event>
<event>
 7    1  0.2232484E-015  0.9000779E+02  0.7816164E-02  0.1186339E+00
        -11   -1    0    0    0    0  0.00000000000E+00  0.00000000000E+00  0.45593999997E+02  0.45594000000E+02  0.51100000000E-03 0. -1.
         11   -1    0    0    0    0 -0.00000000000E+00 -0.00000000000E+00 -0.45593999997E+02  0.45594000000E+02  0.51100000000E-03 0.  1.
    9900012    2    1    2    0    0 -0.48408616571E+00 -0.97028590410E+00  0.46595213103E+00  0.90007785808E+02  0.90000047780E+02 0.  0.
        -12    1    1    2    0    0  0.48408616571E+00  0.97028590410E+00 -0.46595213103E+00  0.11802141924E+01  0.00000000000E+00 0.  1.
         11    1    3    3    0    0 -0.24518697202E+02  0.26752208756E+02  0.21592200096E+02  0.42226416981E+02  0.51100000000E-03 0. -1.
        -11    1    3    3    0    0  0.70657740800E+01 -0.18669512150E+01  0.36361436442E+01  0.81628555696E+01  0.51100000000E-03 0.  1.
        -12    1    3    3    0    0  0.16968836956E+02 -0.25855543445E+02 -0.24762391609E+02  0.39618513257E+02  0.00000000000E+00 0.  1.
</event>
<event>
 7    1  0.2232484E-015  0.9000772E+02  0.7816164E-02  0.1186339E+00
        -11   -1    0    0    0    0  0.00000000000E+00  0.00000000000E+00  0.45593999997E+02  0.45594000000E+02  0.51100000000E-03 0.  1.
         11   -1    0    0    0    0 -0.00000000000E+00 -0.00000000000E+00 -0.45593999997E+02  0.45594000000E+02  0.51100000000E-03 0. -1.
    9900012    2    1    2    0    0  0.91480360919E+00 -0.40078421866E+00 -0.62893769430E+00  0.90007721958E+02  0.89999983088E+02 0.  0.
        -12    1    1    2    0    0 -0.91480360919E+00  0.40078421866E+00  0.62893769430E+00  0.11802780421E+01  0.00000000000E+00 0.  1.
         11    1    3    3    0    0  0.18831318727E+02  0.23099971091E+02  0.52588877843E+01  0.30263561099E+02  0.51100000000E-03 0. -1.
        -11    1    3    3    0    0  0.76815566949E+01  0.47672252333E+01  0.14052769923E+02  0.16709670627E+02  0.51100000000E-03 0.  1.
        -12    1    3    3    0    0 -0.25598071813E+02 -0.28267980543E+02 -0.19940595402E+02  0.43034490232E+02  0.00000000000E+00 0.  1.
</event>
<event>
 7    1  0.2232484E-015  0.9000739E+02  0.7816164E-02  0.1186340E+00
        -11   -1    0    0    0    0  0.00000000000E+00  0.00000000000E+00  0.45593999997E+02  0.45594000000E+02  0.51100000000E-03 0.  1.
         11   -1    0    0    0    0 -0.00000000000E+00 -0.00000000000E+00 -0.45593999997E+02  0.45594000000E+02  0.51100000000E-03 0. -1.
    9900012    2    1    2    0    0  0.97735808128E+00  0.65871930958E+00 -0.68499797467E-01  0.90007393304E+02  0.89999650095E+02 0.  0.
        -12    1    1    2    0    0 -0.97735808128E+00 -0.65871930958E+00  0.68499797467E-01  0.11806066958E+01  0.00000000000E+00 0.  1.
         11    1    3    3    0    0 -0.83673178563E+01  0.23450351496E+01  0.14597721607E+01  0.88114773440E+01  0.51100000000E-03 0. -1.
        -11    1    3    3    0    0 -0.17303675799E+02  0.22262228976E+02  0.24142889498E+02  0.37120117844E+02  0.51100000000E-03 0.  1.
         12    1    3    3    0    0  0.26648351737E+02 -0.23948544816E+02 -0.25671161456E+02  0.44075798117E+02  0.00000000000E+00 0. -1.
</event>
<event>
 7    1  0.2232484E-015  0.9000787E+02  0.7816164E-02  0.1186339E+00
        -11   -1    0    0    0    0  0.00000000000E+00  0.00000000000E+00  0.45593999997E+02  0.45594000000E+02  0.51100000000E-03 0. -1.
         11   -1    0    0    0    0 -0.00000000000E+00 -0.00000000000E+00 -0.45593999997E+02  0.45594000000E+02  0.51100000000E-03 0.  1.
    9900012    2    1    2    0    0 -0.34035933163E+00 -0.10474066504E+01  0.42402655892E+00  0.90007871325E+02  0.90000134427E+02 0.  0.
        -12    1    1    2    0    0  0.34035933163E+00  0.10474066504E+01 -0.42402655892E+00  0.11801286746E+01  0.00000000000E+00 0.  1.
         11    1    3    3    0    0  0.92398672706E+01  0.13055042778E+02 -0.44121668878E+01  0.16591458827E+02  0.51100000000E-03 0. -1.
        -11    1    3    3    0    0 -0.17136367960E+02  0.24396421794E+02 -0.10038238500E+02  0.31458015444E+02  0.51100000000E-03 0.  1.
         12    1    3    3    0    0  0.75561413581E+01 -0.38498871222E+02  0.14874431947E+02  0.41958397054E+02  0.00000000000E+00 0. -1.
</event>
<event>
 7    1  0.2232484E-015  0.9000789E+02  0.7816164E-02  0.1186339E+00
        -11   -1    0    0    0    0  0.00000000000E+00  0.00000000000E+00  0.45593999997E+02  0.45594000000E+02  0.51100000000E-03 0.  1.
         11   -1    0    0    0    0 -0.00000000000E+00 -0.00000000000E+00 -0.45593999997E+02  0.45594000000E+02  0.51100000000E-03 0. -1.
    9900012    2    1    2    0    0 -0.10686907663E+01  0.50035842813E+00 -0.14313197582E-01  0.90007888404E+02  0.90000151731E+02 0.  0.
        -12    1    1    2    0    0  0.10686907663E+01 -0.50035842813E+00  0.14313197582E-01  0.11801115956E+01  0.00000000000E+00 0.  1.
         11    1    3    3    0    0  0.18147478918E+02  0.13612394974E+02  0.76411135892E+01  0.23937729741E+02  0.51100000000E-03 0. -1.
        -11    1    3    3    0    0  0.18139317540E+02 -0.15471836518E+02  0.84880083997E+01  0.25307288533E+02  0.51100000000E-03 0.  1.
         12    1    3    3    0    0 -0.37355487224E+02  0.23597999725E+01 -0.16143435186E+02  0.40762870130E+02  0.00000000000E+00 0. -1.
</event>
<event>
 7    1  0.2232484E-015  0.9000775E+02  0.7816164E-02  0.1186339E+00
        -11   -1    0    0    0    0  0.00000000000E+00  0.00000000000E+00  0.45593999997E+02  0.45594000000E+02  0.51100000000E-03 0.  1.
         11   -1    0    0    0    0 -0.00000000000E+00 -0.00000000000E+00 -0.45593999997E+02  0.45594000000E+02  0.51100000000E-03 0. -1.
    9900012    2    1    2    0    0 -0.27533212794E+00 -0.33069486152E+00 -0.10990068354E+01  0.90007753036E+02  0.90000014576E+02 0.  0.
        -12    1    1    2    0    0  0.27533212794E+00  0.33069486152E+00  0.10990068354E+01  0.11802469641E+01  0.00000000000E+00 0.  1.
         11    1    3    3    0    0  0.78206157259E+01  0.29599466385E+02 -0.20418689725E+02  0.36799637646E+02  0.51100000000E-03 0. -1.
        -11    1    3    3    0    0  0.63107297889E+01  0.69613877092E+00 -0.76426808574E+01  0.99358185675E+01  0.51100000000E-03 0.  1.
        -12    1    3    3    0    0 -0.14406677643E+02 -0.30626300017E+02  0.26962363747E+02  0.43272296822E+02  0.00000000000E+00 0.  1.
</event>
<event>
 7    1  0.2232484E-015  0.9000778E+02  0.7816164E-02  0.1186339E+00
        -11   -1    0    0    0    0  0.00000000000E+00  0.00000000000E+00  0.45593999997E+02  0.45594000000E+02  0.51100000000E-03 0. -1.
         11   -1    0    0    0    0 -0.00000000000E+00 -0.00000000000E+00 -0.45593999997E+02  0.45594000000E+02  0.51100000000E-03 0.  1.
    9900012    2    1    2    0    0 -0.13079042400E+00  0.74610261557E+00  0.90506274402E+00  0.90007782300E+02  0.90000044227E+02 0.  0.
        -12    1    1    2    0    0  0.13079042400E+00 -0.74610261557E+00 -0.90506274402E+00  0.11802176997E+01  0.00000000000E+00 0.  1.
         11    1    3    3    0    0  0.18114356528E+01  0.68031908892E+01 -0.38155217512E+01  0.80076783086E+01  0.51100000000E-03 0. -1.
        -11    1    3    3    0    0  0.39595716965E+02  0.75695790524E+00  0.49129793713E+01  0.39906530215E+02  0.51100000000E-03 0.  1.
         12    1    3    3    0    0 -0.41537943042E+02 -0.68140461789E+01 -0.19239487611E+00  0.42093573776E+02  0.00000000000E+00 0. -1.
</event>
<event>
 7    1  0.2232484E-015  0.9000770E+02  0.7816164E-02  0.1186339E+00
        -11   -1    0    0    0    0  0.00000000000E+00  0.00000000000E+00  0.45593999997E+02  0.45594000000E+02  0.51100000000E-03 0. -1.
         11   -1    0    0    0    0 -0.00000000000E+00 -0.00000000000E+00 -0.45593999997E+02  0.45594000000E+02  0.51100000000E-03 0.  1.
    9900012    2    1    2    0    0  0.18524921992E+00 -0.58699238248E+00  0.10070933433E+01  0.90007697355E+02  0.89999958161E+02 0.  0.
        -12    1    1    2    0    0 -0.18524921992E+00  0.58699238248E+00 -0.10070933433E+01  0.11803026446E+01  0.00000000000E+00 0.  1.
         11    1    3    3    0    0  0.60776700004E+01  0.43430031689E+01 -0.69290624691E+01  0.10188800524E+02  0.51100000000E-03 0. -1.
        -11    1    3    3    0    0 -0.67417863374E+01 -0.26769234571E+02 -0.26997113361E+02  0.38612015392E+02  0.51100000000E-03 0.  1.
         12    1    3    3    0    0  0.84936555696E+00  0.21839239020E+02  0.34933269173E+02  0.41206881439E+02  0.00000000000E+00 0. -1.
</event>
<event>
 7    1  0.2232484E-015  0.9000774E+02  0.7816164E-02  0.1186339E+00
        -11   -1    0    0    0    0  0.00000000000E+00  0.00000000000E+00  0.45593999997E+02  0.45594000000E+02  0.51100000000E-03 0.  1.
         11   -1    0    0    0    0 -0.00000000000E+00 -0.00000000000E+00 -0.45593999997E+02  0.45594000000E+02  0.51100000000E-03 0. -1.
    9900012    2    1    2    0    0  0.75851983105E+00  0.20313106206E+00 -0.88113863106E+00  0.90007737381E+02  0.89999998715E+02 0.  0.
        -12    1    1    2    0    0 -0.75851983105E+00 -0.20313106206E+00  0.88113863106E+00  0.11802626189E+01  0.00000000000E+00 0.  1.
         11    1    3    3    0    0 -0.49698834317E+01  0.20478617629E+02  0.32483486340E+02  0.38720155041E+02  0.51100000000E-03 0. -1.
        -11    1    3    3    0    0  0.76772115849E+01  0.57888339788E+01 -0.97049519257E+00  0.96639555946E+01  0.51100000000E-03 0.  1.
        -12    1    3    3    0    0 -0.19488083221E+01 -0.26064320546E+02 -0.32394129778E+02  0.41623626746E+02  0.00000000000E+00 0.  1.
</event>
<event>
 7    1  0.2232484E-015  0.9000765E+02  0.7816164E-02  0.1186339E+00
        -11   -1    0    0    0    0  0.00000000000E+00  0.00000000000E+00  0.45593999997E+02  0.45594000000E+02  0.51100000000E-03 0.  1.
         11   -1    0    0    0    0 -0.00000000000E+00 -0.00000000000E+00 -0.45593999997E+02  0.45594000000E+02  0.51100000000E-03 0. -1.
    9900012    2    1    2    0    0  0.49187155060E+00  0.72797793122E+00 -0.78825108349E+00  0.90007648670E+02  0.89999908833E+02 0.  0.
        -12    1    1    2    0    0 -0.49187155060E+00 -0.72797793122E+00  0.78825108349E+00  0.11803513296E+01  0.00000000000E+00 0.  1.
         11    1    3    3    0    0  0.23496897830E+01 -0.36102052345E+00 -0.80190640290E+01  0.83640161440E+01  0.51100000000E-03 0. -1.
        -11    1    3    3    0    0  0.31410438050E+02 -0.15284288036E+02  0.22492154999E+02  0.41546625807E+02  0.51100000000E-03 0.  1.
         12    1    3    3    0    0 -0.33268256282E+02  0.16373286490E+02 -0.15261342053E+02  0.40097006719E+02  0.00000000000E+00 0. -1.
</event>
<event>
 7    1  0.2232484E-015  0.9000773E+02  0.7816164E-02  0.1186339E+00
        -11   -1    0    0    0    0  0.00000000000E+00  0.00000000000E+00  0.45593999997E+02  0.45594000000E+02  0.51100000000E-03 0.  1.
         11   -1    0    0    0    0 -0.00000000000E+00 -0.00000000000E+00 -0.45593999997E+02  0.45594000000E+02  0.51100000000E-03 0. -1.
    9900012    2    1    2    0    0 -0.44086918687E+00  0.10918211820E+01 -0.81193131443E-01  0.90007732463E+02  0.89999993732E+02 0.  0.
        -12    1    1    2    0    0  0.44086918687E+00 -0.10918211820E+01  0.81193131443E-01  0.11802675367E+01  0.00000000000E+00 0.  1.
         11    1    3    3    0    0  0.73541516363E+01  0.98776353725E+01  0.12555454947E+02  0.17586661878E+02  0.51100000000E-03 0. -1.
        -11    1    3    3    0    0 -0.23779084519E+01 -0.12461737845E+02  0.28274067066E+02  0.30989872982E+02  0.51100000000E-03 0.  1.
         12    1    3    3    0    0 -0.54171123713E+01  0.36759236550E+01 -0.40910715144E+02  0.41431197603E+02  0.00000000000E+00 0. -1.
</event>
<event>
 7    1  0.2232484E-015  0.9000769E+02  0.7816164E-02  0.1186339E+00
        -11   -1    0    0    0    0  0.00000000000E+00  0.00000000000E+00  0.45593999997E+02  0.45594000000E+02  0.51100000000E-03 0. -1.
         11   -1    0    0    0    0 -0.00000000000E+00 -0.00000000000E+00 -0.45593999997E+02  0.45594000000E+02  0.51100000000E-03 0.  1.
    9900012    2    1    2    0    0  0.66613958887E+00 -0.79258650840E+00  0.56673202757E+00  0.90007694736E+02  0.89999955507E+02 0.  0.
        -12    1    1    2    0    0 -0.66613958887E+00  0.79258650840E+00 -0.56673202757E+00  0.11803052640E+01  0.00000000000E+00 0.  1.
         11    1    3    3    0    0  0.10480710405E+02  0.34124384111E+02  0.11521947304E+02  0.37510987076E+02  0.51100000000E-03 0. -1.
        -11    1    3    3    0    0  0.81163821746E+01 -0.14519203690E+01  0.67019424556E+01  0.10625430123E+02  0.51100000000E-03 0.  1.
        -12    1    3    3    0    0 -0.17930952991E+02 -0.33465050250E+02 -0.17657157732E+02  0.41871277537E+02  0.00000000000E+00 0.  1.
</event>
<event>
 7    1  0.2232484E-015  0.9000731E+02  0.7816164E-02  0.1186340E+00
        -11   -1    0    0    0    0  0.00000000000E+00  0.00000000000E+00  0.45593999997E+02  0.45594000000E+02  0.51100000000E-03 0. -1.
         11   -1    0    0    0    0 -0.00000000000E+00 -0.00000000000E+00 -0.45593999997E+02  0.45594000000E+02  0.51100000000E-03 0.  1.
    9900012    2    1    2    0    0 -0.64504035305E+00  0.36161432847E+00  0.92043317714E+00  0.90007305622E+02  0.89999561256E+02 0.  0.
        -12    1    1    2    0    0  0.64504035305E+00 -0.36161432847E+00 -0.92043317714E+00  0.11806943776E+01  0.00000000000E+00 0.  1.
         11    1    3    3    0    0 -0.35125108445E+02  0.12136076159E+02 -0.30548165023E+01  0.37287926892E+02  0.51100000000E-03 0. -1.
        -11    1    3    3    0    0 -0.49974280797E+01 -0.18377919665E+01 -0.85978709015E+01  0.10113117770E+02  0.51100000000E-03 0.  1.
        -12    1    3    3    0    0  0.39477496171E+02 -0.99366698636E+01  0.12573120581E+02  0.42606260961E+02  0.00000000000E+00 0.  1.
</event>
<event>
 7    1  0.2232484E-015  0.9000779E+02  0.7816164E-02  0.1186339E+00
        -11   -1    0    0    0    0  0.00000000000E+00  0.00000000000E+00  0.45593999997E+02  0.45594000000E+02  0.51100000000E-03 0.  1.
         11   -1    0    0    0    0 -0.00000000000E+00 -0.00000000000E+00 -0.45593999997E+02  0.45594000000E+02  0.51100000000E-03 0. -1.
    9900012    2    1    2    0    0 -0.35122961951E+00 -0.11258639260E+01  0.44437471595E-01  0.90007785395E+02  0.90000047362E+02 0.  0.
        -12    1    1    2    0    0  0.35122961951E+00  0.11258639260E+01 -0.44437471595E-01  0.11802146052E+01  0.00000000000E+00 0.  1.
         11    1    3    3    0    0 -0.78902858876E+01  0.42557440868E+01  0.24033459737E+01  0.92813814301E+01  0.51100000000E-03 0. -1.
        -11    1    3    3    0    0  0.20431439490E+02  0.20154322987E+02  0.27236451154E+02  0.39565954133E+02  0.51100000000E-03 0.  1.
         12    1    3    3    0    0 -0.12892383222E+02 -0.25535931000E+02 -0.29595359656E+02  0.41160449832E+02  0.00000000000E+00 0. -1.
</event>
<event>
 7    1  0.2232484E-015  0.9000819E+02  0.7816164E-02  0.1186338E+00
        -11   -1    0    0    0    0  0.00000000000E+00  0.00000000000E+00  0.45593999997E+02  0.45594000000E+02  0.51100000000E-03 0. -1.
         11   -1    0    0    0    0 -0.00000000000E+00 -0.00000000000E+00 -0.45593999997E+02  0.45594000000E+02  0.51100000000E-03 0.  1.
    9900012    2    1    2    0    0 -0.71218808883E+00  0.68358852058E+00  0.64610275802E+00  0.90008189035E+02  0.90000456329E+02 0.  0.
        -12    1    1    2    0    0  0.71218808883E+00 -0.68358852058E+00 -0.64610275802E+00  0.11798109650E+01  0.00000000000E+00 0.  1.
         11    1    3    3    0    0 -0.94793063037E+01  0.11059836536E+01  0.35467411279E+02  0.36728976448E+02  0.51100000000E-03 0. -1.
        -11    1    3    3    0    0 -0.71542387654E+01 -0.21265629759E+01  0.59057366829E+01  0.95175169257E+01  0.51100000000E-03 0.  1.
        -12    1    3    3    0    0  0.15921356980E+02  0.17041678428E+01 -0.40727045204E+02  0.43761695661E+02  0.00000000000E+00 0.  1.
</event>
<event>
 7    1  0.2232484E-015  0.9000779E+02  0.7816164E-02  0.1186339E+00
        -11   -1    0    0    0    0  0.00000000000E+00  0.00000000000E+00  0.45593999997E+02  0.45594000000E+02  0.51100000000E-03 0. -1.
         11   -1    0    0    0    0 -0.00000000000E+00 -0.00000000000E+00 -0.45593999997E+02  0.45594000000E+02  0.51100000000E-03 0.  1.
    9900012    2    1    2    0    0 -0.75314193046E+00  0.87222767798E+00 -0.25473498276E+00  0.90007790781E+02  0.90000052819E+02 0.  0.
        -12    1    1    2    0    0  0.75314193046E+00 -0.87222767798E+00  0.25473498276E+00  0.11802092192E+01  0.00000000000E+00 0.  1.
         11    1    3    3    0    0  0.26064607366E+01  0.62309585528E+01  0.78576535236E+01  0.10361525043E+02  0.51100000000E-03 0. -1.
        -11    1    3    3    0    0 -0.20718233939E+02  0.31867084869E+02 -0.63304956605E+01  0.38533511275E+02  0.51100000000E-03 0.  1.
         12    1    3    3    0    0  0.17358631272E+02 -0.37225815744E+02 -0.17818928458E+01  0.41112754463E+02  0.00000000000E+00 0. -1.
</event>
<event>
 7    1  0.2232484E-015  0.9000786E+02  0.7816164E-02  0.1186339E+00
        -11   -1    0    0    0    0  0.00000000000E+00  0.00000000000E+00  0.45593999997E+02  0.45594000000E+02  0.51100000000E-03 0.  1.
         11   -1    0    0    0    0 -0.00000000000E+00 -0.00000000000E+00 -0.45593999997E+02  0.45594000000E+02  0.51100000000E-03 0. -1.
    9900012    2    1    2    0    0 -0.89808063944E+00 -0.65221729518E+00 -0.40100534601E+00  0.90007855296E+02  0.90000118186E+02 0.  0.
        -12    1    1    2    0    0  0.89808063944E+00  0.65221729518E+00  0.40100534601E+00  0.11801447041E+01  0.00000000000E+00 0.  1.
         11    1    3    3    0    0  0.73666475128E+01 -0.10538913329E+02 -0.10973392392E+02  0.16904186777E+02  0.51100000000E-03 0. -1.
        -11    1    3    3    0    0 -0.34785519174E+01  0.45849538429E+01  0.41227599542E+02  0.41627359867E+02  0.51100000000E-03 0.  1.
         12    1    3    3    0    0 -0.47861762348E+01  0.53017421909E+01 -0.30655212496E+02  0.31476308653E+02  0.00000000000E+00 0. -1.
</event>
<event>
 7    1  0.2232484E-015  0.9000774E+02  0.7816164E-02  0.1186339E+00
        -11   -1    0    0    0    0  0.00000000000E+00  0.00000000000E+00  0.45593999997E+02  0.45594000000E+02  0.51100000000E-03 0. -1.
         11   -1    0    0    0    0 -0.00000000000E+00 -0.00000000000E+00 -0.45593999997E+02  0.45594000000E+02  0.51100000000E-03 0.  1.
    9900012    2    1    2    0    0  0.63629109151E+00 -0.27335383021E+00  0.95573703766E+00  0.90007736489E+02  0.89999997811E+02 0.  0.
        -12    1    1    2    0    0 -0.63629109151E+00  0.27335383021E+00 -0.95573703766E+00  0.11802635107E+01  0.00000000000E+00 0.  1.
         11    1    3    3    0    0  0.15296623185E+02  0.21168144986E+02  0.28640673076E+02  0.38760356003E+02  0.51100000000E-03 0. -1.
        -11    1    3    3    0    0  0.85538521355E+01 -0.52887832299E+01  0.19930018012E+01  0.10252398297E+02  0.51100000000E-03 0.  1.
        -12    1    3    3    0    0 -0.23214184229E+02 -0.16152715586E+02 -0.29677937839E+02  0.40994982188E+02  0.00000000000E+00 0.  1.
</event>
<event>
 7    1  0.2232484E-015  0.9000771E+02  0.7816164E-02  0.1186339E+00
        -11   -1    0    0    0    0  0.00000000000E+00  0.00000000000E+00  0.45593999997E+02  0.45594000000E+02  0.51100000000E-03 0. -1.
         11   -1    0    0    0    0 -0.00000000000E+00 -0.00000000000E+00 -0.45593999997E+02  0.45594000000E+02  0.51100000000E-03 0.  1.
    9900012    2    1    2    0    0  0.46090281768E+00  0.91020252260E+00  0.59344818865E+00  0.90007711564E+02  0.89999972557E+02 0.  0.
        -12    1    1    2    0    0 -0.46090281768E+00 -0.91020252260E+00 -0.59344818865E+00  0.11802884360E+01  0.00000000000E+00 0.  1.
         11    1    3    3    0    0  0.28590959103E+02 -0.26645936985E+02  0.11961869056E+02  0.40872181393E+02  0.51100000000E-03 0. -1.
        -11    1    3    3    0    0  0.23817210514E+01  0.82751662807E+01  0.44907176526E+01  0.97117206218E+01  0.51100000000E-03 0.  1.
        -12    1    3    3    0    0 -0.30511777337E+02  0.19280973227E+02 -0.15859138520E+02  0.39423809550E+02  0.00000000000E+00 0.  1.
</event>
<event>
 7    1  0.2232484E-015  0.9000762E+02  0.7816164E-02  0.1186339E+00
        -11   -1    0    0    0    0  0.00000000000E+00  0.00000000000E+00  0.45593999997E+02  0.45594000000E+02  0.51100000000E-03 0. -1.
         11   -1    0    0    0    0 -0.00000000000E+00 -0.00000000000E+00 -0.45593999997E+02  0.45594000000E+02  0.51100000000E-03 0.  1.
    9900012    2    1    2    0    0  0.91716349835E+00 -0.53628441240E+00  0.51430223958E+00  0.90007620126E+02  0.89999879911E+02 0.  0.
        -12    1    1    2    0    0 -0.91716349835E+00  0.53628441240E+00 -0.51430223958E+00  0.11803798742E+01  0.00000000000E+00 0.  1.
         11    1    3    3    0    0 -0.90298317347E+00 -0.72074129848E+01  0.74971392064E+01  0.10438835044E+02  0.51100000000E-03 0. -1.
        -11    1    3    3    0    0 -0.36168648896E+02  0.23029276814E+01 -0.17012479895E+02  0.40036222491E+02  0.51100000000E-03 0.  1.
         12    1    3    3    0    0  0.37988795568E+02  0.43682008910E+01  0.10029642928E+02  0.39532562591E+02  0.00000000000E+00 0. -1.
</event>
<event>
 7    1  0.2232484E-015  0.9000745E+02  0.7816164E-02  0.1186340E+00
        -11   -1    0    0    0    0  0.00000000000E+00  0.00000000000E+00  0.45593999997E+02  0.45594000000E+02  0.51100000000E-03 0.  1.
         11   -1    0    0    0    0 -0.00000000000E+00 -0.00000000000E+00 -0.45593999997E+02  0.45594000000E+02  0.51100000000E-03 0. -1.
    9900012    2    1    2    0    0 -0.23827997893E+00  0.10367004345E+01 -0.51202630999E+00  0.90007450941E+02  0.89999708493E+02 0.  0.
        -12    1    1    2    0    0  0.23827997893E+00 -0.10367004345E+01  0.51202630999E+00  0.11805490593E+01  0.00000000000E+00 0.  1.
         11    1    3    3    0    0  0.43814966970E+01 -0.17063626163E+02 -0.35755782569E+02  0.39860266413E+02  0.51100000000E-03 0. -1.
        -11    1    3    3    0    0  0.95711284168E+01 -0.25780602212E+00  0.22912363331E+01  0.98449340938E+01  0.51100000000E-03 0.  1.
        -12    1    3    3    0    0 -0.14190905093E+02  0.18358132619E+02  0.32952519926E+02  0.40302250434E+02  0.00000000000E+00 0.  1.
</event>
<event>
 7    1  0.2232484E-015  0.9000769E+02  0.7816164E-02  0.1186339E+00
        -11   -1    0    0    0    0  0.00000000000E+00  0.00000000000E+00  0.45593999997E+02  0.45594000000E+02  0.51100000000E-03 0.  1.
         11   -1    0    0    0    0 -0.00000000000E+00 -0.00000000000E+00 -0.45593999997E+02  0.45594000000E+02  0.51100000000E-03 0. -1.
    9900012    2    1    2    0    0  0.11198757539E+01 -0.28976213856E+00 -0.23464113455E+00  0.90007686371E+02  0.89999947031E+02 0.  0.
        -12    1    1    2    0    0 -0.11198757539E+01  0.28976213856E+00  0.23464113455E+00  0.11803136291E+01  0.00000000000E+00 0.  1.
         11    1    3    3    0    0 -0.21360634551E+02  0.17368848808E+02 -0.23558183354E+02  0.36234536295E+02  0.51100000000E-03 0. -1.
        -11    1    3    3    0    0 -0.10327667009E+02 -0.65074499090E+01  0.37692275447E+00  0.12212685257E+02  0.51100000000E-03 0.  1.
        -12    1    3    3    0    0  0.32808177313E+02 -0.11151161037E+02  0.22946619465E+02  0.41560464819E+02  0.00000000000E+00 0.  1.
</event>
<event>
 7    1  0.2232484E-015  0.9000787E+02  0.7816164E-02  0.1186339E+00
        -11   -1    0    0    0    0  0.00000000000E+00  0.00000000000E+00  0.45593999997E+02  0.45594000000E+02  0.51100000000E-03 0.  1.
         11   -1    0    0    0    0 -0.00000000000E+00 -0.00000000000E+00 -0.45593999997E+02  0.45594000000E+02  0.51100000000E-03 0. -1.
    9900012    2    1    2    0    0 -0.78146245027E+00 -0.77423795934E+00 -0.42729892519E+00  0.90007867656E+02  0.90000130709E+02 0.  0.
        -12    1    1    2    0    0  0.78146245027E+00  0.77423795934E+00  0.42729892519E+00  0.11801323444E+01  0.00000000000E+00 0.  1.
         11    1    3    3    0    0  0.17577134991E+02  0.22012899201E+02 -0.22256121795E+02  0.35900673577E+02  0.51100000000E-03 0. -1.
        -11    1    3    3    0    0 -0.24320225542E+01  0.49862379845E+01 -0.84057645071E+01  0.10071453726E+02  0.51100000000E-03 0.  1.
        -12    1    3    3    0    0 -0.15926574887E+02 -0.27773375145E+02  0.30234587377E+02  0.44035740352E+02  0.00000000000E+00 0.  1.
</event>
<event>
 7    1  0.2232484E-015  0.9000772E+02  0.7816164E-02  0.1186339E+00
        -11   -1    0    0    0    0  0.00000000000E+00  0.00000000000E+00  0.45593999997E+02  0.45594000000E+02  0.51100000000E-03 0.  1.
         11   -1    0    0    0    0 -0.00000000000E+00 -0.00000000000E+00 -0.45593999997E+02  0.45594000000E+02  0.51100000000E-03 0. -1.
    9900012    2    1    2    0    0 -0.11112687419E+01  0.48972543001E-01 -0.39465393756E+00  0.90007716874E+02  0.89999977937E+02 0.  0.
        -12    1    1    2    0    0  0.11112687419E+01 -0.48972543001E-01  0.39465393756E+00  0.11802831258E+01  0.00000000000E+00 0.  1.
         11    1    3    3    0    0 -0.20457075094E+02 -0.30041229529E+02 -0.74897152992E+01  0.37108802575E+02  0.51100000000E-03 0. -1.
        -11    1    3    3    0    0 -0.99158049532E+01  0.17690154709E+01 -0.37650476093E+01  0.10753054792E+02  0.51100000000E-03 0.  1.
        -12    1    3    3    0    0  0.29261611306E+02  0.28321186601E+02  0.10860108971E+02  0.42145859507E+02  0.00000000000E+00 0.  1.
</event>
<event>
 7    1  0.2439650E-015  0.9000748E+02  0.7816164E-02  0.1186340E+00
        -11   -1    0    0    0    0  0.00000000000E+00  0.00000000000E+00  0.45593999997E+02  0.45594000000E+02  0.51100000000E-03 0.  1.
         11   -1    0    0    0    0 -0.00000000000E+00 -0.00000000000E+00 -0.45593999997E+02  0.45594000000E+02  0.51100000000E-03 0. -1.
    9900012    2    1    2    0    0 -0.73282704099E+00  0.73891419883E+00 -0.55731445464E+00  0.90007479324E+02  0.89999737251E+02 0.  0.
        -12    1    1    2    0    0  0.73282704099E+00 -0.73891419883E+00  0.55731445464E+00  0.11805206761E+01  0.00000000000E+00 0.  1.
         11    1    3    3    0    0  0.67380051393E+01 -0.48827981194E+01  0.35759495502E+01  0.90570329677E+01  0.51100000000E-03 0. -1.
        -11    1    3    3    0    0 -0.31258642468E+01 -0.22118448219E+02  0.29585563301E+02  0.37071583929E+02  0.51100000000E-03 0.  1.
         12    1    3    3    0    0 -0.43449679335E+01  0.27740160537E+02 -0.33718827306E+02  0.43878862427E+02  0.00000000000E+00 0. -1.
</event>
<event>
 7    1  0.2232484E-015  0.9000778E+02  0.7816164E-02  0.1186339E+00
        -11   -1    0    0    0    0  0.00000000000E+00  0.00000000000E+00  0.45593999997E+02  0.45594000000E+02  0.51100000000E-03 0.  1.
         11   -1    0    0    0    0 -0.00000000000E+00 -0.00000000000E+00 -0.45593999997E+02  0.45594000000E+02  0.51100000000E-03 0. -1.
    9900012    2    1    2    0    0  0.58918655070E+00  0.10226229575E+01  0.32429741617E-02  0.90007784333E+02  0.90000046286E+02 0.  0.
        -12    1    1    2    0    0 -0.58918655070E+00 -0.10226229575E+01 -0.32429741617E-02  0.11802156674E+01  0.00000000000E+00 0.  1.
         11    1    3    3    0    0  0.87491139487E+01  0.31997702317E+01 -0.37364147139E+00  0.93233648772E+01  0.51100000000E-03 0. -1.
        -11    1    3    3    0    0  0.20999020633E+02 -0.29357389936E+02  0.13770426352E+02  0.38632109100E+02  0.51100000000E-03 0.  1.
         12    1    3    3    0    0 -0.29158948031E+02  0.27180242662E+02 -0.13393541906E+02  0.42052310355E+02  0.00000000000E+00 0. -1.
</event>
<event>
 7    1  0.2232484E-015  0.9000780E+02  0.7816164E-02  0.1186339E+00
        -11   -1    0    0    0    0  0.00000000000E+00  0.00000000000E+00  0.45593999997E+02  0.45594000000E+02  0.51100000000E-03 0. -1.
         11   -1    0    0    0    0 -0.00000000000E+00 -0.00000000000E+00 -0.45593999997E+02  0.45594000000E+02  0.51100000000E-03 0.  1.
    9900012    2    1    2    0    0 -0.13601732659E+00  0.10700217094E+01 -0.47899128311E+00  0.90007796703E+02  0.90000058820E+02 0.  0.
        -12    1    1    2    0    0  0.13601732659E+00 -0.10700217094E+01  0.47899128311E+00  0.11802032965E+01  0.00000000000E+00 0.  1.
         11    1    3    3    0    0  0.27468196711E+02 -0.30606901119E+02  0.30178111601E+01  0.41235802540E+02  0.51100000000E-03 0. -1.
        -11    1    3    3    0    0 -0.70254929906E+01 -0.13513520608E+01 -0.66002152573E+01  0.97337837379E+01  0.51100000000E-03 0.  1.
        -12    1    3    3    0    0 -0.20578721048E+02  0.33028274889E+02  0.31034128140E+01  0.39038210425E+02  0.00000000000E+00 0.  1.
</event>
<event>
 7    1  0.2232484E-015  0.9000770E+02  0.7816164E-02  0.1186339E+00
        -11   -1    0    0    0    0  0.00000000000E+00  0.00000000000E+00  0.45593999997E+02  0.45594000000E+02  0.51100000000E-03 0.  1.
         11   -1    0    0    0    0 -0.00000000000E+00 -0.00000000000E+00 -0.45593999997E+02  0.45594000000E+02  0.51100000000E-03 0. -1.
    9900012    2    1    2    0    0  0.64065570827E+00 -0.85611694662E+00 -0.49974222182E+00  0.90007695696E+02  0.89999956479E+02 0.  0.
        -12    1    1    2    0    0 -0.64065570827E+00  0.85611694662E+00  0.49974222182E+00  0.11803043044E+01  0.00000000000E+00 0.  1.
         11    1    3    3    0    0  0.84672206655E+00  0.42352023545E+00  0.96951226628E+01  0.97412376706E+01  0.51100000000E-03 0. -1.
        -11    1    3    3    0    0  0.81252884115E+01 -0.35684956283E+02 -0.22296710865E+02  0.42855334935E+02  0.51100000000E-03 0.  1.
         12    1    3    3    0    0 -0.83313547698E+01  0.34405319101E+02  0.12101845980E+02  0.37411123090E+02  0.00000000000E+00 0. -1.
</event>
<event>
 7    1  0.2232484E-015  0.9000775E+02  0.7816164E-02  0.1186339E+00
        -11   -1    0    0    0    0  0.00000000000E+00  0.00000000000E+00  0.45593999997E+02  0.45594000000E+02  0.51100000000E-03 0.  1.
         11   -1    0    0    0    0 -0.00000000000E+00 -0.00000000000E+00 -0.45593999997E+02  0.45594000000E+02  0.51100000000E-03 0. -1.
    9900012    2    1    2    0    0  0.83442587528E-02 -0.36559020837E+00 -0.11221695726E+01  0.90007749867E+02  0.90000011365E+02 0.  0.
        -12    1    1    2    0    0 -0.83442587528E-02  0.36559020837E+00  0.11221695726E+01  0.11802501331E+01  0.00000000000E+00 0.  1.
         11    1    3    3    0    0 -0.22151573909E+02 -0.23918858792E+00  0.12287138342E+02  0.25332256250E+02  0.51100000000E-03 0. -1.
        -11    1    3    3    0    0 -0.23930020380E+00 -0.12530415490E+02  0.19376471104E+02  0.23076312740E+02  0.51100000000E-03 0.  1.
        -12    1    3    3    0    0  0.22399218372E+02  0.12404013870E+02 -0.32785779019E+02  0.41599180877E+02  0.00000000000E+00 0.  1.
</event>
<event>
 7    1  0.2467957E-015  0.9000787E+02  0.7816164E-02  0.1186339E+00
        -11   -1    0    0    0    0  0.00000000000E+00  0.00000000000E+00  0.45593999997E+02  0.45594000000E+02  0.51100000000E-03 0. -1.
         11   -1    0    0    0    0 -0.00000000000E+00 -0.00000000000E+00 -0.45593999997E+02  0.45594000000E+02  0.51100000000E-03 0.  1.
    9900012    2    1    2    0    0  0.89407099923E+00  0.74848500219E+00  0.18197043891E+00  0.90007870350E+02  0.90000133439E+02 0.  0.
        -12    1    1    2    0    0 -0.89407099923E+00 -0.74848500219E+00 -0.18197043891E+00  0.11801296500E+01  0.00000000000E+00 0.  1.
         11    1    3    3    0    0  0.46703045640E+00 -0.34860824675E+00  0.91298394739E+01  0.91484214068E+01  0.51100000000E-03 0. -1.
        -11    1    3    3    0    0 -0.29814817150E+02 -0.23569504249E+02 -0.15938288785E+02  0.41212545443E+02  0.51100000000E-03 0.  1.
         12    1    3    3    0    0  0.30241857693E+02  0.24666597498E+02  0.69904197499E+01  0.39646903500E+02  0.00000000000E+00 0. -1.
</event>
<event>
 7    1  0.2232484E-015  0.9000777E+02  0.7816164E-02  0.1186339E+00
        -11   -1    0    0    0    0  0.00000000000E+00  0.00000000000E+00  0.45593999997E+02  0.45594000000E+02  0.51100000000E-03 0.  1.
         11   -1    0    0    0    0 -0.00000000000E+00 -0.00000000000E+00 -0.45593999997E+02  0.45594000000E+02  0.51100000000E-03 0. -1.
    9900012    2    1    2    0    0 -0.26833887772E+00 -0.14364095499E+00 -0.11403105510E+01  0.90007768400E+02  0.90000030143E+02 0.  0.
        -12    1    1    2    0    0  0.26833887772E+00  0.14364095499E+00  0.11403105510E+01  0.11802316002E+01  0.00000000000E+00 0.  1.
         11    1    3    3    0    0  0.31821384535E+01  0.37594380781E+02 -0.93429126723E+01  0.38868412482E+02  0.51100000000E-03 0. -1.
        -11    1    3    3    0    0  0.10232893339E+02 -0.40193795456E+00  0.45542754724E+01  0.11207813594E+02  0.51100000000E-03 0.  1.
        -12    1    3    3    0    0 -0.13683370670E+02 -0.37336083781E+02  0.36483266489E+01  0.39931542324E+02  0.00000000000E+00 0.  1.
</event>
<event>
 7    1  0.2232484E-015  0.9000825E+02  0.7816164E-02  0.1186338E+00
        -11   -1    0    0    0    0  0.00000000000E+00  0.00000000000E+00  0.45593999997E+02  0.45594000000E+02  0.51100000000E-03 0.  1.
         11   -1    0    0    0    0 -0.00000000000E+00 -0.00000000000E+00 -0.45593999997E+02  0.45594000000E+02  0.51100000000E-03 0. -1.
    9900012    2    1    2    0    0  0.24346449770E+00  0.89852090425E+00 -0.72471120164E+00  0.90008245321E+02  0.90000513358E+02 0.  0.
        -12    1    1    2    0    0 -0.24346449770E+00 -0.89852090425E+00  0.72471120164E+00  0.11797546791E+01  0.00000000000E+00 0.  1.
         11    1    3    3    0    0 -0.12212873762E+02  0.22873246324E+01 -0.53916149785E+01  0.13544580165E+02  0.51100000000E-03 0. -1.
        -11    1    3    3    0    0 -0.15146114731E+02 -0.99829559637E+01  0.31932248264E+02  0.36725096061E+02  0.51100000000E-03 0.  1.
         12    1    3    3    0    0  0.27602452991E+02  0.85941522355E+01 -0.27265344487E+02  0.39738569095E+02  0.00000000000E+00 0. -1.
</event>
<event>
 7    1  0.2232484E-015  0.9000769E+02  0.7816164E-02  0.1186339E+00
        -11   -1    0    0    0    0  0.00000000000E+00  0.00000000000E+00  0.45593999997E+02  0.45594000000E+02  0.51100000000E-03 0.  1.
         11   -1    0    0    0    0 -0.00000000000E+00 -0.00000000000E+00 -0.45593999997E+02  0.45594000000E+02  0.51100000000E-03 0. -1.
    9900012    2    1    2    0    0 -0.29472326467E+00  0.36141908036E+00 -0.10842667381E+01  0.90007694991E+02  0.89999955765E+02 0.  0.
        -12    1    1    2    0    0  0.29472326467E+00 -0.36141908036E+00  0.10842667381E+01  0.11803050087E+01  0.00000000000E+00 0.  1.
         11    1    3    3    0    0  0.13200977501E+02 -0.77565570425E+01 -0.32123470741E+02  0.35585774642E+02  0.51100000000E-03 0. -1.
        -11    1    3    3    0    0  0.38621833856E+01  0.42604579334E+01 -0.89610927609E+01  0.10647494824E+02  0.51100000000E-03 0.  1.
        -12    1    3    3    0    0 -0.17357884151E+02  0.38575181895E+01  0.40000296764E+02  0.43774425525E+02  0.00000000000E+00 0.  1.
</event>
<event>
 7    1  0.2232484E-015  0.9000763E+02  0.7816164E-02  0.1186339E+00
        -11   -1    0    0    0    0  0.00000000000E+00  0.00000000000E+00  0.45593999997E+02  0.45594000000E+02  0.51100000000E-03 0. -1.
         11   -1    0    0    0    0 -0.00000000000E+00 -0.00000000000E+00 -0.45593999997E+02  0.45594000000E+02  0.51100000000E-03 0.  1.
    9900012    2    1    2    0    0 -0.18594722264E+00  0.11246332049E+01  0.30641286838E+00  0.90007633506E+02  0.89999893468E+02 0.  0.
        -12    1    1    2    0    0  0.18594722264E+00 -0.11246332049E+01 -0.30641286838E+00  0.11803664944E+01  0.00000000000E+00 0.  1.
         11    1    3    3    0    0  0.36460401616E+02  0.13488698586E+02 -0.41179836678E+01  0.39093012998E+02  0.51100000000E-03 0. -1.
        -11    1    3    3    0    0  0.18587437218E+01 -0.41434634903E+01 -0.83637101940E+01  0.95170828718E+01  0.51100000000E-03 0.  1.
        -12    1    3    3    0    0 -0.38505092560E+02 -0.82206018906E+01  0.12788106730E+02  0.41397537635E+02  0.00000000000E+00 0.  1.
</event>
<event>
 7    1  0.2232484E-015  0.9000836E+02  0.7816164E-02  0.1186338E+00
        -11   -1    0    0    0    0  0.00000000000E+00  0.00000000000E+00  0.45593999997E+02  0.45594000000E+02  0.51100000000E-03 0. -1.
         11   -1    0    0    0    0 -0.00000000000E+00 -0.00000000000E+00 -0.45593999997E+02  0.45594000000E+02  0.51100000000E-03 0.  1.
    9900012    2    1    2    0    0  0.13430789696E+00 -0.15956320707E+00  0.11610598802E+01  0.90008356378E+02  0.90000625881E+02 0.  0.
        -12    1    1    2    0    0 -0.13430789696E+00  0.15956320707E+00 -0.11610598802E+01  0.11796436215E+01  0.00000000000E+00 0.  1.
         11    1    3    3    0    0  0.21033705325E+01 -0.35209752974E+02  0.24464039707E+02  0.42925984102E+02  0.51100000000E-03 0. -1.
        -11    1    3    3    0    0  0.44458939142E+01 -0.19951190756E+00 -0.54981100974E+01  0.70735417297E+01  0.51100000000E-03 0.  1.
        -12    1    3    3    0    0 -0.64149565498E+01  0.35249701674E+02 -0.17804869729E+02  0.40008830547E+02  0.00000000000E+00 0.  1.
</event>
<event>
 7    1  0.2232484E-015  0.9000779E+02  0.7816164E-02  0.1186339E+00
        -11   -1    0    0    0    0  0.00000000000E+00  0.00000000000E+00  0.45593999997E+02  0.45594000000E+02  0.51100000000E-03 0.  1.
         11   -1    0    0    0    0 -0.00000000000E+00 -0.00000000000E+00 -0.45593999997E+02  0.45594000000E+02  0.51100000000E-03 0. -1.
    9900012    2    1    2    0    0 -0.10965203008E+01  0.40859208870E+00  0.15357690989E+00  0.90007792335E+02  0.90000054394E+02 0.  0.
        -12    1    1    2    0    0  0.10965203008E+01 -0.40859208870E+00 -0.15357690989E+00  0.11802076649E+01  0.00000000000E+00 0.  1.
         11    1    3    3    0    0  0.61530227319E+00 -0.26240537568E+02 -0.25437702397E+02  0.36551622567E+02  0.51100000000E-03 0. -1.
        -11    1    3    3    0    0  0.75493092002E+00 -0.16647452889E+01 -0.87160144589E+01  0.89056277645E+01  0.51100000000E-03 0.  1.
        -12    1    3    3    0    0 -0.24667534940E+01  0.28313874946E+02  0.34307293766E+02  0.44550542004E+02  0.00000000000E+00 0.  1.
</event>
<event>
 7    1  0.2232484E-015  0.9000771E+02  0.7816164E-02  0.1186339E+00
        -11   -1    0    0    0    0  0.00000000000E+00  0.00000000000E+00  0.45593999997E+02  0.45594000000E+02  0.51100000000E-03 0. -1.
         11   -1    0    0    0    0 -0.00000000000E+00 -0.00000000000E+00 -0.45593999997E+02  0.45594000000E+02  0.51100000000E-03 0.  1.
    9900012    2    1    2    0    0 -0.70885472082E+00  0.63987188718E+00  0.69366587469E+00  0.90007710462E+02  0.89999971440E+02 0.  0.
        -12    1    1    2    0    0  0.70885472082E+00 -0.63987188718E+00 -0.69366587469E+00  0.11802895378E+01  0.00000000000E+00 0.  1.
         11    1    3    3    0    0  0.83759670884E+00 -0.13597621928E+00 -0.81320475104E+01  0.81762005083E+01  0.51100000000E-03 0. -1.
        -11    1    3    3    0    0 -0.88606298521E+01  0.22299258282E+02 -0.29037229316E+02  0.37668665598E+02  0.51100000000E-03 0.  1.
         12    1    3    3    0    0  0.73141784224E+01 -0.21523410176E+02  0.37862942701E+02  0.44162844356E+02  0.00000000000E+00 0. -1.
</event>
<event>
 7    1  0.2232484E-015  0.9000796E+02  0.7816164E-02  0.1186339E+00
        -11   -1    0    0    0    0  0.00000000000E+00  0.00000000000E+00  0.45593999997E+02  0.45594000000E+02  0.51100000000E-03 0.  1.
         11   -1    0    0    0    0 -0.00000000000E+00 -0.00000000000E+00 -0.45593999997E+02  0.45594000000E+02  0.51100000000E-03 0. -1.
    9900012    2    1    2    0    0 -0.19558204916E+00  0.10981207555E+01 -0.38520337921E+00  0.90007956283E+02  0.90000220505E+02 0.  0.
        -12    1    1    2    0    0  0.19558204916E+00 -0.10981207555E+01  0.38520337921E+00  0.11800437174E+01  0.00000000000E+00 0.  1.
         11    1    3    3    0    0  0.37260666376E+02 -0.55923164939E+01  0.16047525856E+02  0.40953074963E+02  0.51100000000E-03 0. -1.
        -11    1    3    3    0    0 -0.32239410468E+00  0.90081500797E+01 -0.31058228076E+01  0.95339835006E+01  0.51100000000E-03 0.  1.
        -12    1    3    3    0    0 -0.37133854321E+02 -0.23177128303E+01 -0.13326906427E+02  0.39520897819E+02  0.00000000000E+00 0.  1.
</event>
<event>
 7    1  0.2232484E-015  0.9000769E+02  0.7816164E-02  0.1186339E+00
        -11   -1    0    0    0    0  0.00000000000E+00  0.00000000000E+00  0.45593999997E+02  0.45594000000E+02  0.51100000000E-03 0. -1.
         11   -1    0    0    0    0 -0.00000000000E+00 -0.00000000000E+00 -0.45593999997E+02  0.45594000000E+02  0.51100000000E-03 0.  1.
    9900012    2    1    2    0    0 -0.34902214050E+00 -0.29053468281E+00  0.10894491676E+01  0.90007692267E+02  0.89999953005E+02 0.  0.
        -12    1    1    2    0    0  0.34902214050E+00  0.29053468281E+00 -0.10894491676E+01  0.11803077333E+01  0.00000000000E+00 0.  1.
         11    1    3    3    0    0 -0.37667390271E+01  0.50040152838E+01  0.48060925070E+01  0.78947461837E+01  0.51100000000E-03 0. -1.
        -11    1    3    3    0    0  0.29219118056E+01  0.36902405531E+02  0.88897247142E+01  0.38070359971E+02  0.51100000000E-03 0.  1.
         12    1    3    3    0    0  0.49580508099E+00 -0.42196955497E+02 -0.12606368054E+02  0.44042586112E+02  0.00000000000E+00 0. -1.
</event>
<event>
 7    1  0.2232484E-015  0.9000780E+02  0.7816164E-02  0.1186339E+00
        -11   -1    0    0    0    0  0.00000000000E+00  0.00000000000E+00  0.45593999997E+02  0.45594000000E+02  0.51100000000E-03 0. -1.
         11   -1    0    0    0    0 -0.00000000000E+00 -0.00000000000E+00 -0.45593999997E+02  0.45594000000E+02  0.51100000000E-03 0.  1.
    9900012    2    1    2    0    0 -0.74596126703E+00 -0.91155264475E+00  0.74103905302E-01  0.90007797549E+02  0.90000059677E+02 0.  0.
        -12    1    1    2    0    0  0.74596126703E+00  0.91155264475E+00 -0.74103905302E-01  0.11802024508E+01  0.00000000000E+00 0.  1.
         11    1    3    3    0    0 -0.15589561534E+02  0.32257757102E+02  0.59736502237E+01  0.36321919268E+02  0.51100000000E-03 0. -1.
        -11    1    3    3    0    0 -0.28135544028E+01  0.80439288786E+01 -0.11334117959E+01  0.85968309709E+01  0.51100000000E-03 0.  1.
        -12    1    3    3    0    0  0.17657154670E+02 -0.41213238625E+02 -0.47661345224E+01  0.45089047310E+02  0.00000000000E+00 0.  1.
</event>
<event>
 7    1  0.2232484E-015  0.9000783E+02  0.7816164E-02  0.1186339E+00
        -11   -1    0    0    0    0  0.00000000000E+00  0.00000000000E+00  0.45593999997E+02  0.45594000000E+02  0.51100000000E-03 0. -1.
         11   -1    0    0    0    0 -0.00000000000E+00 -0.00000000000E+00 -0.45593999997E+02  0.45594000000E+02  0.51100000000E-03 0.  1.
    9900012    2    1    2    0    0  0.10645922825E+01 -0.49886378632E+00  0.10281100351E+00  0.90007833949E+02  0.90000096557E+02 0.  0.
        -12    1    1    2    0    0 -0.10645922825E+01  0.49886378632E+00 -0.10281100351E+00  0.11801660509E+01  0.00000000000E+00 0.  1.
         11    1    3    3    0    0 -0.25080380861E+02 -0.19751968880E+02  0.29193880777E+02  0.43260241029E+02  0.51100000000E-03 0. -1.
        -11    1    3    3    0    0  0.66264313830E+01 -0.26129988792E+01 -0.74985376508E+01  0.10342408964E+02  0.51100000000E-03 0.  1.
        -12    1    3    3    0    0  0.19518541761E+02  0.21866103973E+02 -0.21592532123E+02  0.36405183956E+02  0.00000000000E+00 0.  1.
</event>
<event>
 7    1  0.2232484E-015  0.9000773E+02  0.7816164E-02  0.1186339E+00
        -11   -1    0    0    0    0  0.00000000000E+00  0.00000000000E+00  0.45593999997E+02  0.45594000000E+02  0.51100000000E-03 0. -1.
         11   -1    0    0    0    0 -0.00000000000E+00 -0.00000000000E+00 -0.45593999997E+02  0.45594000000E+02  0.51100000000E-03 0.  1.
    9900012    2    1    2    0    0 -0.73047078867E+00 -0.66661491251E+00  0.64425725439E+00  0.90007732901E+02  0.89999994175E+02 0.  0.
        -12    1    1    2    0    0  0.73047078867E+00  0.66661491251E+00 -0.64425725439E+00  0.11802670988E+01  0.00000000000E+00 0.  1.
         11    1    3    3    0    0 -0.11624083723E+02  0.66926068534E+01  0.66963095724E+01  0.14991693402E+02  0.51100000000E-03 0. -1.
        -11    1    3    3    0    0 -0.66241747221E+01  0.28961927601E+02  0.10381109559E+02  0.31471262717E+02  0.51100000000E-03 0.  1.
         12    1    3    3    0    0  0.17517787657E+02 -0.36321149367E+02 -0.16433161877E+02  0.43544776782E+02  0.00000000000E+00 0. -1.
</event>
<event>
 7    1  0.2232484E-015  0.9000764E+02  0.7816164E-02  0.1186339E+00
        -11   -1    0    0    0    0  0.00000000000E+00  0.00000000000E+00  0.45593999997E+02  0.45594000000E+02  0.51100000000E-03 0.  1.
         11   -1    0    0    0    0 -0.00000000000E+00 -0.00000000000E+00 -0.45593999997E+02  0.45594000000E+02  0.51100000000E-03 0. -1.
    9900012    2    1    2    0    0  0.50916217721E+00 -0.38126811615E+00 -0.99429710437E+00  0.90007644871E+02  0.89999904983E+02 0.  0.
        -12    1    1    2    0    0 -0.50916217721E+00  0.38126811615E+00  0.99429710437E+00  0.11803551291E+01  0.00000000000E+00 0.  1.
         11    1    3    3    0    0 -0.12532496057E+02  0.26059353021E+02 -0.24698834618E+02  0.38028749244E+02  0.51100000000E-03 0. -1.
        -11    1    3    3    0    0  0.28354270913E+01  0.83247545739E+01  0.21236554749E+00  0.87969474758E+01  0.51100000000E-03 0.  1.
        -12    1    3    3    0    0  0.10206231143E+02 -0.34765375711E+02  0.23492171966E+02  0.43181948151E+02  0.00000000000E+00 0.  1.
</event>
<event>
 7    1  0.2232484E-015  0.9000742E+02  0.7816164E-02  0.1186340E+00
        -11   -1    0    0    0    0  0.00000000000E+00  0.00000000000E+00  0.45593999997E+02  0.45594000000E+02  0.51100000000E-03 0. -1.
         11   -1    0    0    0    0 -0.00000000000E+00 -0.00000000000E+00 -0.45593999997E+02  0.45594000000E+02  0.51100000000E-03 0.  1.
    9900012    2    1    2    0    0  0.25235067500E+00  0.10175397354E+01  0.54286501223E+00  0.90007419466E+02  0.89999676602E+02 0.  0.
        -12    1    1    2    0    0 -0.25235067500E+00 -0.10175397354E+01 -0.54286501223E+00  0.11805805342E+01  0.00000000000E+00 0.  1.
         11    1    3    3    0    0  0.14979716505E+02 -0.60459862380E+01  0.14517423893E+02  0.21718689024E+02  0.51100000000E-03 0. -1.
        -11    1    3    3    0    0 -0.18240436568E+02 -0.26912562147E+02 -0.92827115016E+01  0.33810771369E+02  0.51100000000E-03 0.  1.
         12    1    3    3    0    0  0.35130707371E+01  0.33976088121E+02 -0.46918473790E+01  0.34477959073E+02  0.00000000000E+00 0. -1.
</event>
<event>
 7    1  0.2232484E-015  0.9000795E+02  0.7816164E-02  0.1186339E+00
        -11   -1    0    0    0    0  0.00000000000E+00  0.00000000000E+00  0.45593999997E+02  0.45594000000E+02  0.51100000000E-03 0.  1.
         11   -1    0    0    0    0 -0.00000000000E+00 -0.00000000000E+00 -0.45593999997E+02  0.45594000000E+02  0.51100000000E-03 0. -1.
    9900012    2    1    2    0    0 -0.72123066623E+00  0.88636062793E+00 -0.29446790648E+00  0.90007949075E+02  0.90000213203E+02 0.  0.
        -12    1    1    2    0    0  0.72123066623E+00 -0.88636062793E+00  0.29446790648E+00  0.11800509246E+01  0.00000000000E+00 0.  1.
         11    1    3    3    0    0 -0.31197003492E+02 -0.10486261227E+02 -0.23865371655E+02  0.40654282258E+02  0.51100000000E-03 0. -1.
        -11    1    3    3    0    0  0.10835671302E+02 -0.31759638141E+01 -0.44803444502E+01  0.12147921854E+02  0.51100000000E-03 0.  1.
        -12    1    3    3    0    0  0.19640101523E+02  0.14548585669E+02  0.28051248198E+02  0.37205744964E+02  0.00000000000E+00 0.  1.
</event>
<event>
 7    1  0.2232484E-015  0.9000778E+02  0.7816164E-02  0.1186339E+00
        -11   -1    0    0    0    0  0.00000000000E+00  0.00000000000E+00  0.45593999997E+02  0.45594000000E+02  0.51100000000E-03 0.  1.
         11   -1    0    0    0    0 -0.00000000000E+00 -0.00000000000E+00 -0.45593999997E+02  0.45594000000E+02  0.51100000000E-03 0. -1.
    9900012    2    1    2    0    0  0.10191753272E+01 -0.13236011897E+00 -0.58023700392E+00  0.90007782847E+02  0.90000044780E+02 0.  0.
        -12    1    1    2    0    0 -0.10191753272E+01  0.13236011897E+00  0.58023700392E+00  0.11802171535E+01  0.00000000000E+00 0.  1.
         11    1    3    3    0    0  0.22762579140E+02 -0.78900933536E+01 -0.23767886577E+02  0.33842296241E+02  0.51100000000E-03 0. -1.
        -11    1    3    3    0    0  0.88339528271E+00 -0.31718317385E+01 -0.12271426962E+02  0.12705464326E+02  0.51100000000E-03 0.  1.
        -12    1    3    3    0    0 -0.22626799096E+02  0.10929564973E+02  0.35459076535E+02  0.43460022280E+02  0.00000000000E+00 0.  1.
</event>
<event>
 7    1  0.2232484E-015  0.9000849E+02  0.7816164E-02  0.1186338E+00
        -11   -1    0    0    0    0  0.00000000000E+00  0.00000000000E+00  0.45593999997E+02  0.45594000000E+02  0.51100000000E-03 0.  1.
         11   -1    0    0    0    0 -0.00000000000E+00 -0.00000000000E+00 -0.45593999997E+02  0.45594000000E+02  0.51100000000E-03 0. -1.
    9900012    2    1    2    0    0  0.12498080247E-01 -0.17019375479E+00 -0.11670965970E+01  0.90008493076E+02  0.90000764382E+02 0.  0.
        -12    1    1    2    0    0 -0.12498080247E-01  0.17019375479E+00  0.11670965970E+01  0.11795069236E+01  0.00000000000E+00 0.  1.
         11    1    3    3    0    0 -0.92896574850E+01  0.29344089036E+02 -0.24231793569E+02  0.39173372555E+02  0.51100000000E-03 0. -1.
        -11    1    3    3    0    0  0.99846626514E+00 -0.34703264644E+01 -0.84067440706E+01  0.91495052753E+01  0.51100000000E-03 0.  1.
        -12    1    3    3    0    0  0.83036893001E+01 -0.26043956327E+02  0.31471441042E+02  0.41685615246E+02  0.00000000000E+00 0.  1.
</event>
<event>
 7    1  0.2232484E-015  0.9000707E+02  0.7816164E-02  0.1186340E+00
        -11   -1    0    0    0    0  0.00000000000E+00  0.00000000000E+00  0.45593999997E+02  0.45594000000E+02  0.51100000000E-03 0.  1.
         11   -1    0    0    0    0 -0.00000000000E+00 -0.00000000000E+00 -0.45593999997E+02  0.45594000000E+02  0.51100000000E-03 0. -1.
    9900012    2    1    2    0    0 -0.74579242115E+00  0.64013140273E+00 -0.65469378481E+00  0.90007068800E+02  0.89999321305E+02 0.  0.
        -12    1    1    2    0    0  0.74579242115E+00 -0.64013140273E+00  0.65469378481E+00  0.11809312004E+01  0.00000000000E+00 0.  1.
         11    1    3    3    0    0  0.27780579056E+02  0.95311264398E+01 -0.23593921725E+02  0.37673280804E+02  0.51100000000E-03 0. -1.
        -11    1    3    3    0    0  0.95111899441E+00  0.88003130227E+01 -0.29138479850E+01  0.93188329194E+01  0.51100000000E-03 0.  1.
        -12    1    3    3    0    0 -0.29477490472E+02 -0.17691308060E+02  0.25853075925E+02  0.43014955076E+02  0.00000000000E+00 0.  1.
</event>
<event>
 7    1  0.2232484E-015  0.9000768E+02  0.7816164E-02  0.1186339E+00
        -11   -1    0    0    0    0  0.00000000000E+00  0.00000000000E+00  0.45593999997E+02  0.45594000000E+02  0.51100000000E-03 0. -1.
         11   -1    0    0    0    0 -0.00000000000E+00 -0.00000000000E+00 -0.45593999997E+02  0.45594000000E+02  0.51100000000E-03 0.  1.
    9900012    2    1    2    0    0  0.78666972115E+00 -0.54533115895E+00 -0.69059044958E+00  0.90007682038E+02  0.89999942641E+02 0.  0.
        -12    1    1    2    0    0 -0.78666972115E+00  0.54533115895E+00  0.69059044958E+00  0.11803179623E+01  0.00000000000E+00 0.  1.
         11    1    3    3    0    0  0.25904362763E-01  0.10303725961E+02 -0.38872980114E+01  0.11012652987E+02  0.51100000000E-03 0. -1.
        -11    1    3    3    0    0 -0.49405831858E+01  0.85729443413E+01 -0.34671881389E+02  0.36056124254E+02  0.51100000000E-03 0.  1.
         12    1    3    3    0    0  0.57013485442E+01 -0.19422001462E+02  0.37868588951E+02  0.42938904797E+02  0.00000000000E+00 0. -1.
</event>
<event>
 7    1  0.2232484E-015  0.9000774E+02  0.7816164E-02  0.1186339E+00
        -11   -1    0    0    0    0  0.00000000000E+00  0.00000000000E+00  0.45593999997E+02  0.45594000000E+02  0.51100000000E-03 0.  1.
         11   -1    0    0    0    0 -0.00000000000E+00 -0.00000000000E+00 -0.45593999997E+02  0.45594000000E+02  0.51100000000E-03 0. -1.
    9900012    2    1    2    0    0 -0.87451001487E+00 -0.62900241900E+00 -0.48228721505E+00  0.90007740382E+02  0.90000001755E+02 0.  0.
        -12    1    1    2    0    0  0.87451001487E+00  0.62900241900E+00  0.48228721505E+00  0.11802596185E+01  0.00000000000E+00 0.  1.
         11    1    3    3    0    0 -0.21457904398E+00  0.10073072123E+02 -0.38203703757E+02  0.39509945674E+02  0.51100000000E-03 0. -1.
        -11    1    3    3    0    0  0.42170100646E+01  0.72280847976E+00 -0.46642032763E+01  0.63293300157E+01  0.51100000000E-03 0.  1.
        -12    1    3    3    0    0 -0.48769410355E+01 -0.11424883022E+02  0.42385619818E+02  0.44168464692E+02  0.00000000000E+00 0.  1.
</event>
<event>
 7    1  0.2232484E-015  0.9000767E+02  0.7816164E-02  0.1186339E+00
        -11   -1    0    0    0    0  0.00000000000E+00  0.00000000000E+00  0.45593999997E+02  0.45594000000E+02  0.51100000000E-03 0. -1.
         11   -1    0    0    0    0 -0.00000000000E+00 -0.00000000000E+00 -0.45593999997E+02  0.45594000000E+02  0.51100000000E-03 0.  1.
    9900012    2    1    2    0    0  0.11688729242E+01 -0.16345270645E+00 -0.14214037097E-01  0.90007668378E+02  0.89999928800E+02 0.  0.
        -12    1    1    2    0    0 -0.11688729242E+01  0.16345270645E+00  0.14214037097E-01  0.11803316225E+01  0.00000000000E+00 0.  1.
         11    1    3    3    0    0  0.75600085948E+01  0.23062920292E+01 -0.69099951025E+01  0.10498606834E+02  0.51100000000E-03 0. -1.
        -11    1    3    3    0    0 -0.71794464743E+01  0.12491945911E+02 -0.33477011966E+02  0.36445898189E+02  0.51100000000E-03 0.  1.
         12    1    3    3    0    0  0.78831080370E+00 -0.14961690647E+02  0.40372793032E+02  0.43063163355E+02  0.00000000000E+00 0. -1.
</event>
<event>
 7    1  0.2232484E-015  0.9000774E+02  0.7816164E-02  0.1186339E+00
        -11   -1    0    0    0    0  0.00000000000E+00  0.00000000000E+00  0.45593999997E+02  0.45594000000E+02  0.51100000000E-03 0. -1.
         11   -1    0    0    0    0 -0.00000000000E+00 -0.00000000000E+00 -0.45593999997E+02  0.45594000000E+02  0.51100000000E-03 0.  1.
    9900012    2    1    2    0    0  0.93506804506E+00 -0.48073649542E+00  0.53624026420E+00  0.90007740093E+02  0.90000001462E+02 0.  0.
        -12    1    1    2    0    0 -0.93506804506E+00  0.48073649542E+00 -0.53624026420E+00  0.11802599069E+01  0.00000000000E+00 0.  1.
         11    1    3    3    0    0  0.76173962210E+01  0.70154212213E+01 -0.46183984952E+01  0.11338891702E+02  0.51100000000E-03 0. -1.
        -11    1    3    3    0    0  0.20215610668E+02 -0.19470589404E+02 -0.24224298512E+02  0.37075482533E+02  0.51100000000E-03 0.  1.
         12    1    3    3    0    0 -0.26897938844E+02  0.11974431687E+02  0.29378937271E+02  0.41593365859E+02  0.00000000000E+00 0. -1.
</event>
<event>
 7    1  0.2232484E-015  0.9000776E+02  0.7816164E-02  0.1186339E+00
        -11   -1    0    0    0    0  0.00000000000E+00  0.00000000000E+00  0.45593999997E+02  0.45594000000E+02  0.51100000000E-03 0.  1.
         11   -1    0    0    0    0 -0.00000000000E+00 -0.00000000000E+00 -0.45593999997E+02  0.45594000000E+02  0.51100000000E-03 0. -1.
    9900012    2    1    2    0    0 -0.13108534242E+00 -0.77209869071E+00  0.88298257245E+00  0.90007755119E+02  0.90000016687E+02 0.  0.
        -12    1    1    2    0    0  0.13108534242E+00  0.77209869071E+00 -0.88298257245E+00  0.11802448807E+01  0.00000000000E+00 0.  1.
         11    1    3    3    0    0 -0.12099068053E+02  0.46274546772E+00 -0.97197462636E+01  0.15526591667E+02  0.51100000000E-03 0. -1.
        -11    1    3    3    0    0 -0.22194914699E+02 -0.19783868793E+02  0.18216030389E+02  0.34868889662E+02  0.51100000000E-03 0.  1.
         12    1    3    3    0    0  0.34162897409E+02  0.18549024634E+02 -0.76133015534E+01  0.39612273790E+02  0.00000000000E+00 0. -1.
</event>
<event>
 7    1  0.2232484E-015  0.9000767E+02  0.7816164E-02  0.1186339E+00
        -11   -1    0    0    0    0  0.00000000000E+00  0.00000000000E+00  0.45593999997E+02  0.45594000000E+02  0.51100000000E-03 0. -1.
         11   -1    0    0    0    0 -0.00000000000E+00 -0.00000000000E+00 -0.45593999997E+02  0.45594000000E+02  0.51100000000E-03 0.  1.
    9900012    2    1    2    0    0 -0.11043093498E+00 -0.31613471577E+00  0.11318284174E+01  0.90007673047E+02  0.89999933531E+02 0.  0.
        -12    1    1    2    0    0  0.11043093498E+00  0.31613471577E+00 -0.11318284174E+01  0.11803269531E+01  0.00000000000E+00 0.  1.
         11    1    3    3    0    0  0.29102168337E+02  0.26051372143E+02 -0.34579438224E+01  0.39211829442E+02  0.51100000000E-03 0. -1.
        -11    1    3    3    0    0 -0.33092241904E+01  0.62748145864E+01  0.57144076432E+01  0.91092654924E+01  0.51100000000E-03 0.  1.
        -12    1    3    3    0    0 -0.25903375082E+02 -0.32642321445E+02 -0.11246354034E+01  0.41686578113E+02  0.00000000000E+00 0.  1.
</event>
<event>
 7    1  0.2232484E-015  0.9000767E+02  0.7816164E-02  0.1186339E+00
        -11   -1    0    0    0    0  0.00000000000E+00  0.00000000000E+00  0.45593999997E+02  0.45594000000E+02  0.51100000000E-03 0.  1.
         11   -1    0    0    0    0 -0.00000000000E+00 -0.00000000000E+00 -0.45593999997E+02  0.45594000000E+02  0.51100000000E-03 0. -1.
    9900012    2    1    2    0    0 -0.57441346709E+00 -0.75172937206E+00  0.70578038193E+00  0.90007672153E+02  0.89999932625E+02 0.  0.
        -12    1    1    2    0    0  0.57441346709E+00  0.75172937206E+00 -0.70578038193E+00  0.11803278475E+01  0.00000000000E+00 0.  1.
         11    1    3    3    0    0 -0.71002677461E+01 -0.57682047549E+00 -0.41376862097E+01  0.82381412563E+01  0.51100000000E-03 0. -1.
        -11    1    3    3    0    0  0.23147138202E+02  0.32994366605E+02  0.15479236986E+02  0.43174355959E+02  0.51100000000E-03 0.  1.
         12    1    3    3    0    0 -0.16621283923E+02 -0.33169275501E+02 -0.10635770394E+02  0.38595174937E+02  0.00000000000E+00 0. -1.
</event>
<event>
 7    1  0.2232484E-015  0.9000784E+02  0.7816164E-02  0.1186339E+00
        -11   -1    0    0    0    0  0.00000000000E+00  0.00000000000E+00  0.45593999997E+02  0.45594000000E+02  0.51100000000E-03 0. -1.
         11   -1    0    0    0    0 -0.00000000000E+00 -0.00000000000E+00 -0.45593999997E+02  0.45594000000E+02  0.51100000000E-03 0.  1.
    9900012    2    1    2    0    0 -0.34408640263E+00 -0.71307646401E+00  0.87515895511E+00  0.90007840395E+02  0.90000103088E+02 0.  0.
        -12    1    1    2    0    0  0.34408640263E+00  0.71307646401E+00 -0.87515895511E+00  0.11801596048E+01  0.00000000000E+00 0.  1.
         11    1    3    3    0    0 -0.11134589941E+01  0.30328484857E+01 -0.85173715799E+01  0.91095323568E+01  0.51100000000E-03 0. -1.
        -11    1    3    3    0    0 -0.31715244346E+02 -0.23653267490E+02  0.15151468723E+02  0.42366269503E+02  0.51100000000E-03 0.  1.
         12    1    3    3    0    0  0.32484616937E+02  0.19907342541E+02 -0.57589381883E+01  0.38532038535E+02  0.00000000000E+00 0. -1.
</event>
<event>
 7    1  0.2232484E-015  0.9000775E+02  0.7816164E-02  0.1186339E+00
        -11   -1    0    0    0    0  0.00000000000E+00  0.00000000000E+00  0.45593999997E+02  0.45594000000E+02  0.51100000000E-03 0. -1.
         11   -1    0    0    0    0 -0.00000000000E+00 -0.00000000000E+00 -0.45593999997E+02  0.45594000000E+02  0.51100000000E-03 0.  1.
    9900012    2    1    2    0    0  0.16718932389E-01  0.11746593194E+01  0.11355306791E+00  0.90007746494E+02  0.90000007948E+02 0.  0.
        -12    1    1    2    0    0 -0.16718932389E-01 -0.11746593194E+01 -0.11355306791E+00  0.11802535061E+01  0.00000000000E+00 0.  1.
         11    1    3    3    0    0 -0.32949115973E+02  0.10410022536E+02 -0.79024890438E+01  0.35446609795E+02  0.51100000000E-03 0. -1.
        -11    1    3    3    0    0 -0.41034617786E+01 -0.15040406288E+02 -0.20215084559E+01  0.15720646188E+02  0.51100000000E-03 0.  1.
        -12    1    3    3    0    0  0.37069296684E+02  0.58050430711E+01  0.10037550568E+02  0.38840490511E+02  0.00000000000E+00 0.  1.
</event>
<event>
 7    1  0.2232484E-015  0.9000779E+02  0.7816164E-02  0.1186339E+00
        -11   -1    0    0    0    0  0.00000000000E+00  0.00000000000E+00  0.45593999997E+02  0.45594000000E+02  0.51100000000E-03 0.  1.
         11   -1    0    0    0    0 -0.00000000000E+00 -0.00000000000E+00 -0.45593999997E+02  0.45594000000E+02  0.51100000000E-03 0. -1.
    9900012    2    1    2    0    0  0.13177308931E+00 -0.16942489883E+00 -0.11605282833E+01  0.90007790341E+02  0.90000052373E+02 0.  0.
        -12    1    1    2    0    0 -0.13177308931E+00  0.16942489883E+00  0.11605282833E+01  0.11802096593E+01  0.00000000000E+00 0.  1.
         11    1    3    3    0    0 -0.63455531337E+01 -0.78510742760E+01  0.19648854933E+01  0.10284268915E+02  0.51100000000E-03 0. -1.
        -11    1    3    3    0    0  0.39222381461E+02 -0.70026216046E+01  0.10718223330E+02  0.41259086617E+02  0.51100000000E-03 0.  1.
         12    1    3    3    0    0 -0.32745055238E+02  0.14684270982E+02 -0.13843637107E+02  0.38464434809E+02  0.00000000000E+00 0. -1.
</event>
<event>
 7    1  0.2232484E-015  0.9000818E+02  0.7816164E-02  0.1186338E+00
        -11   -1    0    0    0    0  0.00000000000E+00  0.00000000000E+00  0.45593999997E+02  0.45594000000E+02  0.51100000000E-03 0.  1.
         11   -1    0    0    0    0 -0.00000000000E+00 -0.00000000000E+00 -0.45593999997E+02  0.45594000000E+02  0.51100000000E-03 0. -1.
    9900012    2    1    2    0    0  0.32909247216E+00  0.38570155668E+00 -0.10653204266E+01  0.90008180032E+02  0.90000447207E+02 0.  0.
        -12    1    1    2    0    0 -0.32909247216E+00 -0.38570155668E+00  0.10653204266E+01  0.11798199682E+01  0.00000000000E+00 0.  1.
         11    1    3    3    0    0  0.46201227042E-01 -0.53983695533E+01  0.62890259595E+01  0.82883277064E+01  0.51100000000E-03 0. -1.
        -11    1    3    3    0    0 -0.80579085353E+01 -0.36646438010E+02  0.16161532833E+01  0.37556667324E+02  0.51100000000E-03 0.  1.
         12    1    3    3    0    0  0.83407997804E+01  0.42430509120E+02 -0.89704996694E+01  0.44163185002E+02  0.00000000000E+00 0. -1.
</event>
<event>
 7    1  0.2232484E-015  0.9000778E+02  0.7816164E-02  0.1186339E+00
        -11   -1    0    0    0    0  0.00000000000E+00  0.00000000000E+00  0.45593999997E+02  0.45594000000E+02  0.51100000000E-03 0.  1.
         11   -1    0    0    0    0 -0.00000000000E+00 -0.00000000000E+00 -0.45593999997E+02  0.45594000000E+02  0.51100000000E-03 0. -1.
    9900012    2    1    2    0    0  0.27782880147E+00 -0.92270077012E+00  0.68142681810E+00  0.90007784739E+02  0.90000046697E+02 0.  0.
        -12    1    1    2    0    0 -0.27782880147E+00  0.92270077012E+00 -0.68142681810E+00  0.11802152611E+01  0.00000000000E+00 0.  1.
         11    1    3    3    0    0  0.35305901866E+01 -0.63243513946E+01 -0.40741036954E+02  0.41379881343E+02  0.51100000000E-03 0. -1.
        -11    1    3    3    0    0 -0.12418344202E+00  0.97773112646E+01  0.35920926523E+01  0.10417022942E+02  0.51100000000E-03 0.  1.
        -12    1    3    3    0    0 -0.31285779431E+01 -0.43756606401E+01  0.37830371120E+02  0.38210880454E+02  0.00000000000E+00 0.  1.
</event>
<event>
 7    1  0.3000845E-015  0.9000735E+02  0.7816164E-02  0.1186340E+00
        -11   -1    0    0    0    0  0.00000000000E+00  0.00000000000E+00  0.45593999997E+02  0.45594000000E+02  0.51100000000E-03 0. -1.
         11   -1    0    0    0    0 -0.00000000000E+00 -0.00000000000E+00 -0.45593999997E+02  0.45594000000E+02  0.51100000000E-03 0.  1.
    9900012    2    1    2    0    0  0.80343830199E+00  0.30567714051E+00  0.80931289678E+00  0.90007348068E+02  0.89999604262E+02 0.  0.
        -12    1    1    2    0    0 -0.80343830199E+00 -0.30567714051E+00 -0.80931289678E+00  0.11806519319E+01  0.00000000000E+00 0.  1.
         11    1    3    3    0    0 -0.16721283034E+01  0.91887353953E+01 -0.36365130398E+01  0.10022629325E+02  0.51100000000E-03 0. -1.
        -11    1    3    3    0    0  0.12140596823E+01  0.74298130360E+01 -0.35777521753E+02  0.36561005535E+02  0.51100000000E-03 0.  1.
         12    1    3    3    0    0  0.12615069231E+01 -0.16312871291E+02  0.40223347690E+02  0.43423713209E+02  0.00000000000E+00 0. -1.
</event>
<event>
 7    1  0.2232484E-015  0.9000771E+02  0.7816164E-02  0.1186339E+00
        -11   -1    0    0    0    0  0.00000000000E+00  0.00000000000E+00  0.45593999997E+02  0.45594000000E+02  0.51100000000E-03 0.  1.
         11   -1    0    0    0    0 -0.00000000000E+00 -0.00000000000E+00 -0.45593999997E+02  0.45594000000E+02  0.51100000000E-03 0. -1.
    9900012    2    1    2    0    0  0.98227546632E+00  0.77505889829E-02 -0.65433553590E+00  0.90007711833E+02  0.89999972829E+02 0.  0.
        -12    1    1    2    0    0 -0.98227546632E+00 -0.77505889829E-02  0.65433553590E+00  0.11802881669E+01  0.00000000000E+00 0.  1.
         11    1    3    3    0    0 -0.20603534113E+02  0.10875826642E+02  0.58869083959E+01  0.24030083517E+02  0.51100000000E-03 0. -1.
        -11    1    3    3    0    0 -0.15583111549E+02  0.88973613024E+01  0.10237906548E+02  0.20659407891E+02  0.51100000000E-03 0.  1.
        -12    1    3    3    0    0  0.37168921128E+02 -0.19765437356E+02 -0.16779150480E+02  0.45318220425E+02  0.00000000000E+00 0.  1.
</event>
<event>
 7    1  0.2232484E-015  0.9000777E+02  0.7816164E-02  0.1186339E+00
        -11   -1    0    0    0    0  0.00000000000E+00  0.00000000000E+00  0.45593999997E+02  0.45594000000E+02  0.51100000000E-03 0.  1.
         11   -1    0    0    0    0 -0.00000000000E+00 -0.00000000000E+00 -0.45593999997E+02  0.45594000000E+02  0.51100000000E-03 0. -1.
    9900012    2    1    2    0    0  0.11767195492E+01 -0.47212816151E-01  0.77735336352E-01  0.90007770899E+02  0.90000032675E+02 0.  0.
        -12    1    1    2    0    0 -0.11767195492E+01  0.47212816151E-01 -0.77735336352E-01  0.11802291006E+01  0.00000000000E+00 0.  1.
         11    1    3    3    0    0  0.31913065907E+02  0.10120369430E+02  0.20301626180E+02  0.39153820743E+02  0.51100000000E-03 0. -1.
        -11    1    3    3    0    0 -0.48134820287E+01  0.65613675635E+01  0.62019383053E+01  0.10231578204E+02  0.51100000000E-03 0.  1.
        -12    1    3    3    0    0 -0.25922864329E+02 -0.16728949810E+02 -0.26425829149E+02  0.40622371952E+02  0.00000000000E+00 0.  1.
</event>
<event>
 7    1  0.2232484E-015  0.9000773E+02  0.7816164E-02  0.1186339E+00
        -11   -1    0    0    0    0  0.00000000000E+00  0.00000000000E+00  0.45593999997E+02  0.45594000000E+02  0.51100000000E-03 0. -1.
         11   -1    0    0    0    0 -0.00000000000E+00 -0.00000000000E+00 -0.45593999997E+02  0.45594000000E+02  0.51100000000E-03 0.  1.
    9900012    2    1    2    0    0  0.92054762039E+00  0.10109130824E+00  0.73171053305E+00  0.90007734065E+02  0.89999995354E+02 0.  0.
        -12    1    1    2    0    0 -0.92054762039E+00 -0.10109130824E+00 -0.73171053305E+00  0.11802659354E+01  0.00000000000E+00 0.  1.
         11    1    3    3    0    0 -0.30085637667E+01 -0.82344253445E+01 -0.35437451725E+01  0.94559688452E+01  0.51100000000E-03 0. -1.
        -11    1    3    3    0    0 -0.34539942018E+02 -0.12406551859E+02  0.31002577130E+01  0.36831260117E+02  0.51100000000E-03 0.  1.
         12    1    3    3    0    0  0.38469053406E+02  0.20742068512E+02  0.11751979925E+01  0.43720505102E+02  0.00000000000E+00 0. -1.
</event>
<event>
 7    1  0.2232484E-015  0.9000768E+02  0.7816164E-02  0.1186339E+00
        -11   -1    0    0    0    0  0.00000000000E+00  0.00000000000E+00  0.45593999997E+02  0.45594000000E+02  0.51100000000E-03 0. -1.
         11   -1    0    0    0    0 -0.00000000000E+00 -0.00000000000E+00 -0.45593999997E+02  0.45594000000E+02  0.51100000000E-03 0.  1.
    9900012    2    1    2    0    0 -0.21489712006E-01 -0.11175034629E+01  0.37931893241E+00  0.90007678582E+02  0.89999939139E+02 0.  0.
        -12    1    1    2    0    0  0.21489712006E-01  0.11175034629E+01 -0.37931893241E+00  0.11803214180E+01  0.00000000000E+00 0.  1.
         11    1    3    3    0    0  0.21030822139E+00 -0.81589143339E+01  0.86797502940E-01  0.81620859297E+01  0.51100000000E-03 0. -1.
        -11    1    3    3    0    0  0.37301604119E+02 -0.65475425835E+01 -0.12575433477E+02  0.39905156447E+02  0.51100000000E-03 0.  1.
         12    1    3    3    0    0 -0.37533402052E+02  0.13588953454E+02  0.12867954906E+02  0.41940436205E+02  0.00000000000E+00 0. -1.
</event>
<event>
 7    1  0.2232484E-015  0.9000781E+02  0.7816164E-02  0.1186339E+00
        -11   -1    0    0    0    0  0.00000000000E+00  0.00000000000E+00  0.45593999997E+02  0.45594000000E+02  0.51100000000E-03 0. -1.
         11   -1    0    0    0    0 -0.00000000000E+00 -0.00000000000E+00 -0.45593999997E+02  0.45594000000E+02  0.51100000000E-03 0.  1.
    9900012    2    1    2    0    0  0.48474904770E+00 -0.10272988370E+01  0.32020863021E+00  0.90007805903E+02  0.90000068141E+02 0.  0.
        -12    1    1    2    0    0 -0.48474904770E+00  0.10272988370E+01 -0.32020863021E+00  0.11801940970E+01  0.00000000000E+00 0.  1.
         11    1    3    3    0    0  0.26121529333E+02  0.33927635320E+01  0.25818560562E+02  0.36884186433E+02  0.51100000000E-03 0. -1.
        -11    1    3    3    0    0  0.97146536593E+01  0.30417045482E+01 -0.32198695123E+01  0.10676798313E+02  0.51100000000E-03 0.  1.
        -12    1    3    3    0    0 -0.35351433944E+02 -0.74617669173E+01 -0.22278482419E+02  0.42446821157E+02  0.00000000000E+00 0.  1.
</event>
<event>
 7    1  0.2232484E-015  0.9000764E+02  0.7816164E-02  0.1186339E+00
        -11   -1    0    0    0    0  0.00000000000E+00  0.00000000000E+00  0.45593999997E+02  0.45594000000E+02  0.51100000000E-03 0.  1.
         11   -1    0    0    0    0 -0.00000000000E+00 -0.00000000000E+00 -0.45593999997E+02  0.45594000000E+02  0.51100000000E-03 0. -1.
    9900012    2    1    2    0    0 -0.10830032419E+01  0.70965729908E-01 -0.46401325961E+00  0.90007643926E+02  0.89999904026E+02 0.  0.
        -12    1    1    2    0    0  0.10830032419E+01 -0.70965729908E-01  0.46401325961E+00  0.11803560742E+01  0.00000000000E+00 0.  1.
         11    1    3    3    0    0  0.16922825496E+02 -0.10748057331E+02 -0.32060337971E+01  0.20302251405E+02  0.51100000000E-03 0. -1.
        -11    1    3    3    0    0 -0.25597124142E+02  0.95746802913E+01  0.30469753775E+02  0.40930345251E+02  0.51100000000E-03 0.  1.
         12    1    3    3    0    0  0.75912954044E+01  0.12443427698E+01 -0.27727733237E+02  0.28775047269E+02  0.00000000000E+00 0. -1.
</event>
<event>
 7    1  0.2232484E-015  0.9000773E+02  0.7816164E-02  0.1186339E+00
        -11   -1    0    0    0    0  0.00000000000E+00  0.00000000000E+00  0.45593999997E+02  0.45594000000E+02  0.51100000000E-03 0. -1.
         11   -1    0    0    0    0 -0.00000000000E+00 -0.00000000000E+00 -0.45593999997E+02  0.45594000000E+02  0.51100000000E-03 0.  1.
    9900012    2    1    2    0    0 -0.10807217446E+01  0.20606823819E+00 -0.42732168117E+00  0.90007734171E+02  0.89999995462E+02 0.  0.
        -12    1    1    2    0    0  0.10807217446E+01 -0.20606823819E+00  0.42732168117E+00  0.11802658290E+01  0.00000000000E+00 0.  1.
         11    1    3    3    0    0 -0.66128880848E+01  0.52993075022E+01  0.39160788979E+02  0.40067197837E+02  0.51100000000E-03 0. -1.
        -11    1    3    3    0    0 -0.96014890318E+01 -0.27679248230E+01 -0.32489044059E+01  0.10507396421E+02  0.51100000000E-03 0.  1.
        -12    1    3    3    0    0  0.15133655372E+02 -0.23253144410E+01 -0.36339206254E+02  0.39433139912E+02  0.00000000000E+00 0.  1.
</event>
<event>
 7    1  0.2232484E-015  0.9000773E+02  0.7816164E-02  0.1186339E+00
        -11   -1    0    0    0    0  0.00000000000E+00  0.00000000000E+00  0.45593999997E+02  0.45594000000E+02  0.51100000000E-03 0. -1.
         11   -1    0    0    0    0 -0.00000000000E+00 -0.00000000000E+00 -0.45593999997E+02  0.45594000000E+02  0.51100000000E-03 0.  1.
    9900012    2    1    2    0    0  0.11184040349E+01  0.27405600310E+00  0.25902247419E+00  0.90007734386E+02  0.89999995680E+02 0.  0.
        -12    1    1    2    0    0 -0.11184040349E+01 -0.27405600310E+00 -0.25902247419E+00  0.11802656143E+01  0.00000000000E+00 0.  1.
         11    1    3    3    0    0 -0.47932251183E+01  0.85227852001E+01  0.18695100413E+01  0.99552972159E+01  0.51100000000E-03 0. -1.
        -11    1    3    3    0    0 -0.28542890308E+02 -0.17253052769E+02  0.19519176466E+02  0.38644050864E+02  0.51100000000E-03 0.  1.
         12    1    3    3    0    0  0.34454519461E+02  0.90043235718E+01 -0.21129664033E+02  0.41408386306E+02  0.00000000000E+00 0. -1.
</event>
<event>
 7    1  0.2232484E-015  0.9000769E+02  0.7816164E-02  0.1186339E+00
        -11   -1    0    0    0    0  0.00000000000E+00  0.00000000000E+00  0.45593999997E+02  0.45594000000E+02  0.51100000000E-03 0.  1.
         11   -1    0    0    0    0 -0.00000000000E+00 -0.00000000000E+00 -0.45593999997E+02  0.45594000000E+02  0.51100000000E-03 0. -1.
    9900012    2    1    2    0    0 -0.96176457403E+00 -0.56923030109E+00 -0.37961378551E+00  0.90007694591E+02  0.89999955360E+02 0.  0.
        -12    1    1    2    0    0  0.96176457403E+00  0.56923030109E+00  0.37961378551E+00  0.11803054086E+01  0.00000000000E+00 0.  1.
         11    1    3    3    0    0  0.98749190107E+01  0.34637442332E+01  0.12246693679E+01  0.10536193093E+02  0.51100000000E-03 0. -1.
        -11    1    3    3    0    0  0.13810045637E+02  0.29974225882E+02  0.12315299495E+02  0.35225533064E+02  0.51100000000E-03 0.  1.
         12    1    3    3    0    0 -0.24646729222E+02 -0.34007200417E+02 -0.13919582648E+02  0.44245968434E+02  0.00000000000E+00 0. -1.
</event>
<event>
 7    1  0.2232484E-015  0.9000714E+02  0.7816164E-02  0.1186340E+00
        -11   -1    0    0    0    0  0.00000000000E+00  0.00000000000E+00  0.45593999997E+02  0.45594000000E+02  0.51100000000E-03 0. -1.
         11   -1    0    0    0    0 -0.00000000000E+00 -0.00000000000E+00 -0.45593999997E+02  0.45594000000E+02  0.51100000000E-03 0.  1.
    9900012    2    1    2    0    0 -0.22675156325E+00  0.10431899837E+01  0.50475458651E+00  0.90007136415E+02  0.89999389814E+02 0.  0.
        -12    1    1    2    0    0  0.22675156325E+00 -0.10431899837E+01 -0.50475458651E+00  0.11808635849E+01  0.00000000000E+00 0.  1.
         11    1    3    3    0    0  0.16295150226E+01  0.53131024077E+01 -0.62339498798E+01  0.83514374672E+01  0.51100000000E-03 0. -1.
        -11    1    3    3    0    0 -0.15731678319E+02  0.31206313966E+02 -0.14735123044E+02  0.37926818816E+02  0.51100000000E-03 0.  1.
         12    1    3    3    0    0  0.13875411733E+02 -0.35476226390E+02  0.21473827510E+02  0.43728880132E+02  0.00000000000E+00 0. -1.
</event>
<event>
 7    1  0.2232484E-015  0.9000770E+02  0.7816164E-02  0.1186339E+00
        -11   -1    0    0    0    0  0.00000000000E+00  0.00000000000E+00  0.45593999997E+02  0.45594000000E+02  0.51100000000E-03 0.  1.
         11   -1    0    0    0    0 -0.00000000000E+00 -0.00000000000E+00 -0.45593999997E+02  0.45594000000E+02  0.51100000000E-03 0. -1.
    9900012    2    1    2    0    0  0.10821491435E+01 -0.38766505579E+00 -0.26793123726E+00  0.90007695754E+02  0.89999956538E+02 0.  0.
        -12    1    1    2    0    0 -0.10821491435E+01  0.38766505579E+00  0.26793123726E+00  0.11803042456E+01  0.00000000000E+00 0.  1.
         11    1    3    3    0    0  0.66100705755E+01  0.75206714450E+01 -0.31569288729E+01  0.10498558576E+02  0.51100000000E-03 0. -1.
        -11    1    3    3    0    0 -0.98157490306E+01  0.28757558933E+02  0.22403665626E+02  0.37752752993E+02  0.51100000000E-03 0.  1.
         12    1    3    3    0    0  0.42878275986E+01 -0.36665895434E+02 -0.19514667990E+02  0.41756384186E+02  0.00000000000E+00 0. -1.
</event>
<event>
 7    1  0.2232484E-015  0.9000769E+02  0.7816164E-02  0.1186339E+00
        -11   -1    0    0    0    0  0.00000000000E+00  0.00000000000E+00  0.45593999997E+02  0.45594000000E+02  0.51100000000E-03 0.  1.
         11   -1    0    0    0    0 -0.00000000000E+00 -0.00000000000E+00 -0.45593999997E+02  0.45594000000E+02  0.51100000000E-03 0. -1.
    9900012    2    1    2    0    0  0.64843277864E+00 -0.97357095799E+00 -0.15758618672E+00  0.90007686955E+02  0.89999947622E+02 0.  0.
        -12    1    1    2    0    0 -0.64843277864E+00  0.97357095799E+00  0.15758618672E+00  0.11803130453E+01  0.00000000000E+00 0.  1.
         11    1    3    3    0    0  0.83419008882E+01  0.31393635057E+01  0.25620065038E+01  0.92739846472E+01  0.51100000000E-03 0. -1.
        -11    1    3    3    0    0 -0.22355480326E+01  0.14330815584E+02  0.35279092465E+02  0.38144256655E+02  0.51100000000E-03 0.  1.
         12    1    3    3    0    0 -0.54579200770E+01 -0.18443750048E+02 -0.37998685156E+02  0.42589445652E+02  0.00000000000E+00 0. -1.
</event>
<event>
 7    1  0.2232484E-015  0.9000775E+02  0.7816164E-02  0.1186339E+00
        -11   -1    0    0    0    0  0.00000000000E+00  0.00000000000E+00  0.45593999997E+02  0.45594000000E+02  0.51100000000E-03 0.  1.
         11   -1    0    0    0    0 -0.00000000000E+00 -0.00000000000E+00 -0.45593999997E+02  0.45594000000E+02  0.51100000000E-03 0. -1.
    9900012    2    1    2    0    0  0.56418402518E+00  0.55888416116E+00 -0.87311359748E+00  0.90007753215E+02  0.90000014757E+02 0.  0.
        -12    1    1    2    0    0 -0.56418402518E+00 -0.55888416116E+00  0.87311359748E+00  0.11802467852E+01  0.00000000000E+00 0.  1.
         11    1    3    3    0    0 -0.62790953515E+01  0.78058642691E+01  0.50636372544E+00  0.10030700868E+02  0.51100000000E-03 0. -1.
        -11    1    3    3    0    0 -0.13813672331E+02 -0.38755139915E+02  0.60197892251E+01  0.41581441481E+02  0.51100000000E-03 0.  1.
         12    1    3    3    0    0  0.20656951707E+02  0.31508159807E+02 -0.73992665481E+01  0.38395610865E+02  0.00000000000E+00 0. -1.
</event>
<event>
 7    1  0.2232484E-015  0.9000770E+02  0.7816164E-02  0.1186339E+00
        -11   -1    0    0    0    0  0.00000000000E+00  0.00000000000E+00  0.45593999997E+02  0.45594000000E+02  0.51100000000E-03 0.  1.
         11   -1    0    0    0    0 -0.00000000000E+00 -0.00000000000E+00 -0.45593999997E+02  0.45594000000E+02  0.51100000000E-03 0. -1.
    9900012    2    1    2    0    0 -0.10790700247E+01  0.23262772140E+00 -0.41784740980E+00  0.90007701634E+02  0.89999962496E+02 0.  0.
        -12    1    1    2    0    0  0.10790700247E+01 -0.23262772140E+00  0.41784740980E+00  0.11802983660E+01  0.00000000000E+00 0.  1.
         11    1    3    3    0    0  0.15061815280E+02 -0.22193179598E+02 -0.24266045107E+02  0.36169551360E+02  0.51100000000E-03 0. -1.
        -11    1    3    3    0    0  0.96506103175E+01 -0.29997272340E+01 -0.62886381603E+00  0.10125616670E+02  0.51100000000E-03 0.  1.
        -12    1    3    3    0    0 -0.25791495622E+02  0.25425534553E+02  0.24477061514E+02  0.43712533604E+02  0.00000000000E+00 0.  1.
</event>
<event>
 7    1  0.2232484E-015  0.9000873E+02  0.7816164E-02  0.1186337E+00
        -11   -1    0    0    0    0  0.00000000000E+00  0.00000000000E+00  0.45593999997E+02  0.45594000000E+02  0.51100000000E-03 0.  1.
         11   -1    0    0    0    0 -0.00000000000E+00 -0.00000000000E+00 -0.45593999997E+02  0.45594000000E+02  0.51100000000E-03 0. -1.
    9900012    2    1    2    0    0 -0.80530362771E+00 -0.78352050830E+00 -0.35814907430E+00  0.90008725189E+02  0.90000999556E+02 0.  0.
        -12    1    1    2    0    0  0.80530362771E+00  0.78352050830E+00  0.35814907430E+00  0.11792748107E+01  0.00000000000E+00 0.  1.
         11    1    3    3    0    0 -0.25809043367E+01 -0.56589026479E+01 -0.20506594746E+00  0.62230457718E+01  0.51100000000E-03 0. -1.
        -11    1    3    3    0    0 -0.26257223671E+02  0.26737460922E+02 -0.20612126996E+02  0.42769070495E+02  0.51100000000E-03 0.  1.
         12    1    3    3    0    0  0.28032824380E+02 -0.21862078782E+02  0.20459043869E+02  0.41016608922E+02  0.00000000000E+00 0. -1.
</event>
<event>
 7    1  0.2232484E-015  0.9000772E+02  0.7816164E-02  0.1186339E+00
        -11   -1    0    0    0    0  0.00000000000E+00  0.00000000000E+00  0.45593999997E+02  0.45594000000E+02  0.51100000000E-03 0.  1.
         11   -1    0    0    0    0 -0.00000000000E+00 -0.00000000000E+00 -0.45593999997E+02  0.45594000000E+02  0.51100000000E-03 0. -1.
    9900012    2    1    2    0    0 -0.16884247181E+00 -0.24804510004E+00 -0.11415007556E+01  0.90007721166E+02  0.89999982285E+02 0.  0.
        -12    1    1    2    0    0  0.16884247181E+00  0.24804510004E+00  0.11415007556E+01  0.11802788344E+01  0.00000000000E+00 0.  1.
         11    1    3    3    0    0 -0.20429927329E+02  0.14637908835E+02 -0.74091510047E+01  0.26202019475E+02  0.51100000000E-03 0. -1.
        -11    1    3    3    0    0 -0.74079648805E+01  0.18163190800E+02 -0.26393264616E+01  0.19792561434E+02  0.51100000000E-03 0.  1.
        -12    1    3    3    0    0  0.27669049737E+02 -0.33049144735E+02  0.89069767107E+01  0.44013140256E+02  0.00000000000E+00 0.  1.
</event>
<event>
 7    1  0.2232484E-015  0.9000773E+02  0.7816164E-02  0.1186339E+00
        -11   -1    0    0    0    0  0.00000000000E+00  0.00000000000E+00  0.45593999997E+02  0.45594000000E+02  0.51100000000E-03 0. -1.
         11   -1    0    0    0    0 -0.00000000000E+00 -0.00000000000E+00 -0.45593999997E+02  0.45594000000E+02  0.51100000000E-03 0.  1.
    9900012    2    1    2    0    0 -0.62064539707E+00  0.90536660199E+00 -0.43376514296E+00  0.90007728170E+02  0.89999989382E+02 0.  0.
        -12    1    1    2    0    0  0.62064539707E+00 -0.90536660199E+00  0.43376514296E+00  0.11802718298E+01  0.00000000000E+00 0.  1.
         11    1    3    3    0    0  0.85250179709E+01  0.61029837785E+01 -0.62468731412E+00  0.10502979430E+02  0.51100000000E-03 0. -1.
        -11    1    3    3    0    0  0.64566604747E+01 -0.11515373804E+02 -0.36674390831E+02  0.38978240615E+02  0.51100000000E-03 0.  1.
         12    1    3    3    0    0 -0.15602323843E+02  0.63177566275E+01  0.36865313002E+02  0.40526508126E+02  0.00000000000E+00 0. -1.
</event>
<event>
 7    1  0.2232484E-015  0.9000782E+02  0.7816164E-02  0.1186339E+00
        -11   -1    0    0    0    0  0.00000000000E+00  0.00000000000E+00  0.45593999997E+02  0.45594000000E+02  0.51100000000E-03 0.  1.
         11   -1    0    0    0    0 -0.00000000000E+00 -0.00000000000E+00 -0.45593999997E+02  0.45594000000E+02  0.51100000000E-03 0. -1.
    9900012    2    1    2    0    0 -0.81342331243E+00 -0.77360400391E+00 -0.36429094052E+00  0.90007818434E+02  0.90000080837E+02 0.  0.
        -12    1    1    2    0    0  0.81342331243E+00  0.77360400391E+00  0.36429094052E+00  0.11801815663E+01  0.00000000000E+00 0.  1.
         11    1    3    3    0    0  0.48625068462E+00 -0.53673105160E+01 -0.82319444193E+01  0.98391753256E+01  0.51100000000E-03 0. -1.
        -11    1    3    3    0    0  0.75507109329E+01 -0.36691337887E+02  0.56860112619E+01  0.37889289197E+02  0.51100000000E-03 0.  1.
         12    1    3    3    0    0 -0.88503849299E+01  0.41285044399E+02  0.21816422169E+01  0.42279353911E+02  0.00000000000E+00 0. -1.
</event>
<event>
 7    1  0.2232484E-015  0.9000772E+02  0.7816164E-02  0.1186339E+00
        -11   -1    0    0    0    0  0.00000000000E+00  0.00000000000E+00  0.45593999997E+02  0.45594000000E+02  0.51100000000E-03 0.  1.
         11   -1    0    0    0    0 -0.00000000000E+00 -0.00000000000E+00 -0.45593999997E+02  0.45594000000E+02  0.51100000000E-03 0. -1.
    9900012    2    1    2    0    0  0.48285035975E+00  0.75699100197E+00  0.76607598436E+00  0.90007723651E+02  0.89999984803E+02 0.  0.
        -12    1    1    2    0    0 -0.48285035975E+00 -0.75699100197E+00 -0.76607598436E+00  0.11802763493E+01  0.00000000000E+00 0.  1.
         11    1    3    3    0    0 -0.70980892296E+01  0.76518196026E+01 -0.30921725025E+01  0.10885529155E+02  0.51100000000E-03 0. -1.
        -11    1    3    3    0    0  0.17029829598E+02  0.33263058284E+02 -0.21578247249E+01  0.37431301745E+02  0.51100000000E-03 0.  1.
         12    1    3    3    0    0 -0.94488900091E+01 -0.40157886884E+02  0.60160732118E+01  0.41690892750E+02  0.00000000000E+00 0. -1.
</event>
<event>
 7    1  0.2232484E-015  0.9000774E+02  0.7816164E-02  0.1186339E+00
        -11   -1    0    0    0    0  0.00000000000E+00  0.00000000000E+00  0.45593999997E+02  0.45594000000E+02  0.51100000000E-03 0.  1.
         11   -1    0    0    0    0 -0.00000000000E+00 -0.00000000000E+00 -0.45593999997E+02  0.45594000000E+02  0.51100000000E-03 0. -1.
    9900012    2    1    2    0    0  0.78982405086E+00 -0.55874474738E+00  0.67601744475E+00  0.90007738457E+02  0.89999999805E+02 0.  0.
        -12    1    1    2    0    0 -0.78982405086E+00  0.55874474738E+00 -0.67601744475E+00  0.11802615429E+01  0.00000000000E+00 0.  1.
         11    1    3    3    0    0 -0.34275445610E+02  0.68960589970E+01 -0.17573721611E+02  0.39130518690E+02  0.51100000000E-03 0. -1.
        -11    1    3    3    0    0  0.53945928978E+01 -0.13800551445E+01 -0.87048022036E+01  0.10333429557E+02  0.51100000000E-03 0.  1.
        -12    1    3    3    0    0  0.29670676763E+02 -0.60747485999E+01  0.26954541259E+02  0.40543790210E+02  0.00000000000E+00 0.  1.
</event>
<event>
 7    1  0.2232484E-015  0.9000769E+02  0.7816164E-02  0.1186339E+00
        -11   -1    0    0    0    0  0.00000000000E+00  0.00000000000E+00  0.45593999997E+02  0.45594000000E+02  0.51100000000E-03 0.  1.
         11   -1    0    0    0    0 -0.00000000000E+00 -0.00000000000E+00 -0.45593999997E+02  0.45594000000E+02  0.51100000000E-03 0. -1.
    9900012    2    1    2    0    0 -0.37100658542E-01 -0.11796690491E+01 -0.11505424275E-01  0.90007691609E+02  0.89999952338E+02 0.  0.
        -12    1    1    2    0    0  0.37100658542E-01  0.11796690491E+01  0.11505424275E-01  0.11803083915E+01  0.00000000000E+00 0.  1.
         11    1    3    3    0    0 -0.79146772032E+01 -0.53828509651E+01  0.61077703975E+01  0.11354385022E+02  0.51100000000E-03 0. -1.
        -11    1    3    3    0    0  0.11323136349E+02 -0.33135203191E+02  0.11989924211E+02  0.37012341052E+02  0.51100000000E-03 0.  1.
         12    1    3    3    0    0 -0.34455598045E+01  0.37338385107E+02 -0.18109200033E+02  0.41640965534E+02  0.00000000000E+00 0. -1.
</event>
<event>
 7    1  0.2232484E-015  0.9000774E+02  0.7816164E-02  0.1186339E+00
        -11   -1    0    0    0    0  0.00000000000E+00  0.00000000000E+00  0.45593999997E+02  0.45594000000E+02  0.51100000000E-03 0. -1.
         11   -1    0    0    0    0 -0.00000000000E+00 -0.00000000000E+00 -0.45593999997E+02  0.45594000000E+02  0.51100000000E-03 0.  1.
    9900012    2    1    2    0    0 -0.88198740899E+00  0.28828778955E+00  0.72937921228E+00  0.90007743386E+02  0.90000004799E+02 0.  0.
        -12    1    1    2    0    0  0.88198740899E+00 -0.28828778955E+00 -0.72937921228E+00  0.11802566138E+01  0.00000000000E+00 0.  1.
         11    1    3    3    0    0 -0.58800228783E+00 -0.81163410609E+01  0.94853574677E+01  0.12497709609E+02  0.51100000000E-03 0. -1.
        -11    1    3    3    0    0  0.25865216657E+02 -0.15938307612E+02  0.15710397394E+02  0.34203152907E+02  0.51100000000E-03 0.  1.
         12    1    3    3    0    0 -0.26159201778E+02  0.24342936463E+02 -0.24466375649E+02  0.43306880870E+02  0.00000000000E+00 0. -1.
</event>
<event>
 7    1  0.2782149E-015  0.9000790E+02  0.7816164E-02  0.1186339E+00
        -11   -1    0    0    0    0  0.00000000000E+00  0.00000000000E+00  0.45593999997E+02  0.45594000000E+02  0.51100000000E-03 0.  1.
         11   -1    0    0    0    0 -0.00000000000E+00 -0.00000000000E+00 -0.45593999997E+02  0.45594000000E+02  0.51100000000E-03 0. -1.
    9900012    2    1    2    0    0  0.89363173742E+00 -0.17256431116E+00 -0.75118784566E+00  0.90007898605E+02  0.90000162066E+02 0.  0.
        -12    1    1    2    0    0 -0.89363173742E+00  0.17256431116E+00  0.75118784566E+00  0.11801013953E+01  0.00000000000E+00 0.  1.
         11    1    3    3    0    0 -0.23377497305E+01  0.88397400976E+01 -0.14949193598E+01  0.92650344278E+01  0.51100000000E-03 0. -1.
        -11    1    3    3    0    0  0.16331965097E+02  0.27132985932E+02  0.20291877542E+02  0.37612395615E+02  0.51100000000E-03 0.  1.
         12    1    3    3    0    0 -0.13100583629E+02 -0.36145290340E+02 -0.19548146028E+02  0.43130468562E+02  0.00000000000E+00 0. -1.
</event>
<event>
 7    1  0.2232484E-015  0.9000782E+02  0.7816164E-02  0.1186339E+00
        -11   -1    0    0    0    0  0.00000000000E+00  0.00000000000E+00  0.45593999997E+02  0.45594000000E+02  0.51100000000E-03 0.  1.
         11   -1    0    0    0    0 -0.00000000000E+00 -0.00000000000E+00 -0.45593999997E+02  0.45594000000E+02  0.51100000000E-03 0. -1.
    9900012    2    1    2    0    0 -0.17858987320E+00  0.11503721162E+01  0.19382312994E+00  0.90007822999E+02  0.90000085462E+02 0.  0.
        -12    1    1    2    0    0  0.17858987320E+00 -0.11503721162E+01 -0.19382312994E+00  0.11801770013E+01  0.00000000000E+00 0.  1.
         11    1    3    3    0    0  0.15769245754E+01  0.37146624265E+01 -0.91586512527E+01  0.10008311600E+02  0.51100000000E-03 0. -1.
        -11    1    3    3    0    0  0.35807583809E+02  0.12174329443E+02  0.11675008879E+02  0.39581601638E+02  0.51100000000E-03 0.  1.
         12    1    3    3    0    0 -0.37563098257E+02 -0.14738619754E+02 -0.23225344968E+01  0.40417909761E+02  0.00000000000E+00 0. -1.
</event>
<event>
 7    1  0.2232484E-015  0.9000776E+02  0.7816164E-02  0.1186339E+00
        -11   -1    0    0    0    0  0.00000000000E+00  0.00000000000E+00  0.45593999997E+02  0.45594000000E+02  0.51100000000E-03 0. -1.
         11   -1    0    0    0    0 -0.00000000000E+00 -0.00000000000E+00 -0.45593999997E+02  0.45594000000E+02  0.51100000000E-03 0.  1.
    9900012    2    1    2    0    0 -0.13623135702E+00 -0.51226124523E-01  0.11712270577E+01  0.90007764465E+02  0.90000026156E+02 0.  0.
        -12    1    1    2    0    0  0.13623135702E+00  0.51226124523E-01 -0.11712270577E+01  0.11802355354E+01  0.00000000000E+00 0.  1.
         11    1    3    3    0    0  0.30459908208E+02 -0.36373321218E+01  0.23147511806E+02  0.38429721520E+02  0.51100000000E-03 0. -1.
        -11    1    3    3    0    0 -0.27674345922E+01  0.34314012994E+01  0.89483224377E+01  0.99752535712E+01  0.51100000000E-03 0.  1.
        -12    1    3    3    0    0 -0.27828704973E+02  0.15470469791E+00 -0.30924607187E+02  0.41602789373E+02  0.00000000000E+00 0.  1.
</event>
<event>
 7    1  0.2232484E-015  0.9000758E+02  0.7816164E-02  0.1186339E+00
        -11   -1    0    0    0    0  0.00000000000E+00  0.00000000000E+00  0.45593999997E+02  0.45594000000E+02  0.51100000000E-03 0.  1.
         11   -1    0    0    0    0 -0.00000000000E+00 -0.00000000000E+00 -0.45593999997E+02  0.45594000000E+02  0.51100000000E-03 0. -1.
    9900012    2    1    2    0    0 -0.11327219162E+01 -0.79311985919E-01 -0.32255791257E+00  0.90007579339E+02  0.89999838586E+02 0.  0.
        -12    1    1    2    0    0  0.11327219162E+01  0.79311985919E-01  0.32255791257E+00  0.11804206613E+01  0.00000000000E+00 0.  1.
         11    1    3    3    0    0 -0.50229820040E+01  0.60124218670E+01 -0.51848521112E+01  0.93947994441E+01  0.51100000000E-03 0. -1.
        -11    1    3    3    0    0  0.12548218160E+02 -0.41660580485E+02 -0.10987318703E+01  0.43523200219E+02  0.51100000000E-03 0.  1.
         12    1    3    3    0    0 -0.86579580724E+01  0.35568846632E+02  0.59610260690E+01  0.37089579676E+02  0.00000000000E+00 0. -1.
</event>
<event>
 7    1  0.2232484E-015  0.9000775E+02  0.7816164E-02  0.1186339E+00
        -11   -1    0    0    0    0  0.00000000000E+00  0.00000000000E+00  0.45593999997E+02  0.45594000000E+02  0.51100000000E-03 0.  1.
         11   -1    0    0    0    0 -0.00000000000E+00 -0.00000000000E+00 -0.45593999997E+02  0.45594000000E+02  0.51100000000E-03 0. -1.
    9900012    2    1    2    0    0 -0.10021936702E+01 -0.45660986425E+00 -0.42437807622E+00  0.90007753639E+02  0.90000015187E+02 0.  0.
        -12    1    1    2    0    0  0.10021936702E+01  0.45660986425E+00  0.42437807622E+00  0.11802463609E+01  0.00000000000E+00 0.  1.
         11    1    3    3    0    0 -0.99254584946E+00  0.17236480385E+01  0.82995713984E+01  0.85345764677E+01  0.51100000000E-03 0. -1.
        -11    1    3    3    0    0  0.78084233308E+01  0.12334065523E+02  0.33284831604E+02  0.36345297665E+02  0.51100000000E-03 0.  1.
         12    1    3    3    0    0 -0.78180711515E+01 -0.14514323426E+02 -0.42008781078E+02  0.45127879506E+02  0.00000000000E+00 0. -1.
</event>
<event>
 7    1  0.2232484E-015  0.9000766E+02  0.7816164E-02  0.1186339E+00
        -11   -1    0    0    0    0  0.00000000000E+00  0.00000000000E+00  0.45593999997E+02  0.45594000000E+02  0.51100000000E-03 0.  1.
         11   -1    0    0    0    0 -0.00000000000E+00 -0.00000000000E+00 -0.45593999997E+02  0.45594000000E+02  0.51100000000E-03 0. -1.
    9900012    2    1    2    0    0 -0.79803862715E+00  0.83942024639E-01  0.86561498931E+00  0.90007660547E+02  0.89999920866E+02 0.  0.
        -12    1    1    2    0    0  0.79803862715E+00 -0.83942024639E-01 -0.86561498931E+00  0.11803394527E+01  0.00000000000E+00 0.  1.
         11    1    3    3    0    0  0.27873793905E+02 -0.20543379108E+02 -0.20879727767E+02  0.40434414101E+02  0.51100000000E-03 0. -1.
        -11    1    3    3    0    0 -0.11421256624E+02 -0.26979401428E+01 -0.22198970243E+01  0.11943698211E+02  0.51100000000E-03 0.  1.
        -12    1    3    3    0    0 -0.17250575908E+02  0.23325261275E+02  0.23965239780E+02  0.37629548236E+02  0.00000000000E+00 0.  1.
</event>
<event>
 7    1  0.2232484E-015  0.9000775E+02  0.7816164E-02  0.1186339E+00
        -11   -1    0    0    0    0  0.00000000000E+00  0.00000000000E+00  0.45593999997E+02  0.45594000000E+02  0.51100000000E-03 0. -1.
         11   -1    0    0    0    0 -0.00000000000E+00 -0.00000000000E+00 -0.45593999997E+02  0.45594000000E+02  0.51100000000E-03 0.  1.
    9900012    2    1    2    0    0  0.10430836841E+01  0.19553325857E+00  0.51645091312E+00  0.90007754952E+02  0.90000016518E+02 0.  0.
        -12    1    1    2    0    0 -0.10430836841E+01 -0.19553325857E+00 -0.51645091312E+00  0.11802450478E+01  0.00000000000E+00 0.  1.
         11    1    3    3    0    0  0.20215160766E+01  0.84748283968E+01  0.25980239657E+01  0.90916979927E+01  0.51100000000E-03 0. -1.
        -11    1    3    3    0    0  0.18747563296E+02  0.29190659733E+02 -0.13227458686E+02  0.37128579406E+02  0.51100000000E-03 0.  1.
         12    1    3    3    0    0 -0.19725995689E+02 -0.37469954871E+02  0.11145885634E+02  0.43787477553E+02  0.00000000000E+00 0. -1.
</event>
<event>
 7    1  0.2232484E-015  0.9000770E+02  0.7816164E-02  0.1186339E+00
        -11   -1    0    0    0    0  0.00000000000E+00  0.00000000000E+00  0.45593999997E+02  0.45594000000E+02  0.51100000000E-03 0.  1.
         11   -1    0    0    0    0 -0.00000000000E+00 -0.00000000000E+00 -0.45593999997E+02  0.45594000000E+02  0.51100000000E-03 0. -1.
    9900012    2    1    2    0    0 -0.40125748778E+00 -0.98039045502E+00 -0.52051439423E+00  0.90007699932E+02  0.89999960771E+02 0.  0.
        -12    1    1    2    0    0  0.40125748778E+00  0.98039045502E+00  0.52051439423E+00  0.11803000679E+01  0.00000000000E+00 0.  1.
         11    1    3    3    0    0  0.25948786815E+02  0.26451641619E+02  0.17925516030E+02  0.41162519441E+02  0.51100000000E-03 0. -1.
        -11    1    3    3    0    0  0.71114757896E+00  0.45109580249E+00 -0.87598233845E+01  0.88002116049E+01  0.51100000000E-03 0.  1.
        -12    1    3    3    0    0 -0.27061191882E+02 -0.27883127877E+02 -0.96862070395E+01  0.40044968886E+02  0.00000000000E+00 0.  1.
</event>
<event>
 7    1  0.2232484E-015  0.9000770E+02  0.7816164E-02  0.1186339E+00
        -11   -1    0    0    0    0  0.00000000000E+00  0.00000000000E+00  0.45593999997E+02  0.45594000000E+02  0.51100000000E-03 0. -1.
         11   -1    0    0    0    0 -0.00000000000E+00 -0.00000000000E+00 -0.45593999997E+02  0.45594000000E+02  0.51100000000E-03 0.  1.
    9900012    2    1    2    0    0 -0.79187841406E+00 -0.10645760088E+00  0.86874341873E+00  0.90007695052E+02  0.89999955826E+02 0.  0.
        -12    1    1    2    0    0  0.79187841406E+00  0.10645760088E+00 -0.86874341873E+00  0.11803049483E+01  0.00000000000E+00 0.  1.
         11    1    3    3    0    0  0.11987034809E+02  0.15039915375E+02  0.13965094520E+02  0.23767875867E+02  0.51100000000E-03 0. -1.
        -11    1    3    3    0    0  0.81483968285E+01  0.14306362021E+01 -0.32306787396E+02  0.33349236916E+02  0.51100000000E-03 0.  1.
         12    1    3    3    0    0 -0.20927310052E+02 -0.16577009178E+02  0.19210436294E+02  0.32890582268E+02  0.00000000000E+00 0. -1.
</event>
<event>
 7    1  0.2232484E-015  0.9000770E+02  0.7816164E-02  0.1186339E+00
        -11   -1    0    0    0    0  0.00000000000E+00  0.00000000000E+00  0.45593999997E+02  0.45594000000E+02  0.51100000000E-03 0.  1.
         11   -1    0    0    0    0 -0.00000000000E+00 -0.00000000000E+00 -0.45593999997E+02  0.45594000000E+02  0.51100000000E-03 0. -1.
    9900012    2    1    2    0    0 -0.79340014281E-01  0.10844304451E+01 -0.45916519886E+00  0.90007696265E+02  0.89999957055E+02 0.  0.
        -12    1    1    2    0    0  0.79340014281E-01 -0.10844304451E+01  0.45916519886E+00  0.11803037355E+01  0.00000000000E+00 0.  1.
         11    1    3    3    0    0 -0.30752980526E+02 -0.10830438875E+02 -0.23413529391E+02  0.40140223919E+02  0.51100000000E-03 0. -1.
        -11    1    3    3    0    0 -0.84918483353E+00 -0.65809448068E+01  0.79596597858E+01  0.10362728096E+02  0.51100000000E-03 0.  1.
        -12    1    3    3    0    0  0.31522825346E+02  0.18495814127E+02  0.14994704406E+02  0.39504744249E+02  0.00000000000E+00 0.  1.
</event>
<event>
 7    1  0.2232484E-015  0.9000764E+02  0.7816164E-02  0.1186339E+00
        -11   -1    0    0    0    0  0.00000000000E+00  0.00000000000E+00  0.45593999997E+02  0.45594000000E+02  0.51100000000E-03 0.  1.
         11   -1    0    0    0    0 -0.00000000000E+00 -0.00000000000E+00 -0.45593999997E+02  0.45594000000E+02  0.51100000000E-03 0. -1.
    9900012    2    1    2    0    0  0.77236865212E+00 -0.70867675661E+00 -0.54266128608E+00  0.90007636771E+02  0.89999896777E+02 0.  0.
        -12    1    1    2    0    0 -0.77236865212E+00  0.70867675661E+00  0.54266128608E+00  0.11803632286E+01  0.00000000000E+00 0.  1.
         11    1    3    3    0    0 -0.74747275119E+00  0.43717258723E+01  0.24224253906E+00  0.44417771584E+01  0.51100000000E-03 0. -1.
        -11    1    3    3    0    0  0.42365509524E+02  0.39553103802E+01 -0.74743477226E+01  0.43201235533E+02  0.51100000000E-03 0.  1.
         12    1    3    3    0    0 -0.40845668121E+02 -0.90357130091E+01  0.66894438974E+01  0.42364624080E+02  0.00000000000E+00 0. -1.
</event>
<event>
 7    1  0.2232484E-015  0.9000781E+02  0.7816164E-02  0.1186339E+00
        -11   -1    0    0    0    0  0.00000000000E+00  0.00000000000E+00  0.45593999997E+02  0.45594000000E+02  0.51100000000E-03 0. -1.
         11   -1    0    0    0    0 -0.00000000000E+00 -0.00000000000E+00 -0.45593999997E+02  0.45594000000E+02  0.51100000000E-03 0.  1.
    9900012    2    1    2    0    0 -0.11799707733E+01 -0.19722054610E-01  0.11171117889E-01  0.90007811549E+02  0.90000073862E+02 0.  0.
        -12    1    1    2    0    0  0.11799707733E+01  0.19722054610E-01 -0.11171117889E-01  0.11801884507E+01  0.00000000000E+00 0.  1.
         11    1    3    3    0    0 -0.47661116442E+01 -0.24109307704E+01 -0.79768736260E+01  0.95999437754E+01  0.51100000000E-03 0. -1.
        -11    1    3    3    0    0 -0.12391900615E+02 -0.41968524627E+01 -0.33230117889E+02  0.35712931924E+02  0.51100000000E-03 0.  1.
         12    1    3    3    0    0  0.15978041486E+02  0.65880611784E+01  0.41218162633E+02  0.44694935850E+02  0.00000000000E+00 0. -1.
</event>
<event>
 7    1  0.2232484E-015  0.9000773E+02  0.7816164E-02  0.1186339E+00
        -11   -1    0    0    0    0  0.00000000000E+00  0.00000000000E+00  0.45593999997E+02  0.45594000000E+02  0.51100000000E-03 0. -1.
         11   -1    0    0    0    0 -0.00000000000E+00 -0.00000000000E+00 -0.45593999997E+02  0.45594000000E+02  0.51100000000E-03 0.  1.
    9900012    2    1    2    0    0  0.67737882971E+00  0.87783190438E+00  0.40448158139E+00  0.90007730420E+02  0.89999991662E+02 0.  0.
        -12    1    1    2    0    0 -0.67737882971E+00 -0.87783190438E+00 -0.40448158139E+00  0.11802695798E+01  0.00000000000E+00 0.  1.
         11    1    3    3    0    0 -0.18760598763E+01  0.86369649719E+01 -0.50010357980E+01  0.10155152579E+02  0.51100000000E-03 0. -1.
        -11    1    3    3    0    0 -0.22855586867E+02  0.27784692652E+02  0.25291285534E+01  0.36066098878E+02  0.51100000000E-03 0.  1.
         12    1    3    3    0    0  0.25409025573E+02 -0.35543825720E+02  0.28763888259E+01  0.43786478963E+02  0.00000000000E+00 0. -1.
</event>
<event>
 7    1  0.2232484E-015  0.9000778E+02  0.7816164E-02  0.1186339E+00
        -11   -1    0    0    0    0  0.00000000000E+00  0.00000000000E+00  0.45593999997E+02  0.45594000000E+02  0.51100000000E-03 0. -1.
         11   -1    0    0    0    0 -0.00000000000E+00 -0.00000000000E+00 -0.45593999997E+02  0.45594000000E+02  0.51100000000E-03 0.  1.
    9900012    2    1    2    0    0 -0.11647217594E+01 -0.53595806551E-01 -0.18296522440E+00  0.90007777326E+02  0.90000039187E+02 0.  0.
        -12    1    1    2    0    0  0.11647217594E+01  0.53595806551E-01  0.18296522440E+00  0.11802226741E+01  0.00000000000E+00 0.  1.
         11    1    3    3    0    0 -0.25725543117E+02  0.16713902266E+02  0.21070645458E+02  0.37217337330E+02  0.51100000000E-03 0. -1.
        -11    1    3    3    0    0 -0.68260648974E+01 -0.23867585599E+01  0.55229616625E+01  0.90991694233E+01  0.51100000000E-03 0.  1.
        -12    1    3    3    0    0  0.31386886255E+02 -0.14380739513E+02 -0.26776572345E+02  0.43691270573E+02  0.00000000000E+00 0.  1.
</event>
<event>
 7    1  0.2232484E-015  0.9000894E+02  0.7816164E-02  0.1186337E+00
        -11   -1    0    0    0    0  0.00000000000E+00  0.00000000000E+00  0.45593999997E+02  0.45594000000E+02  0.51100000000E-03 0.  1.
         11   -1    0    0    0    0 -0.00000000000E+00 -0.00000000000E+00 -0.45593999997E+02  0.45594000000E+02  0.51100000000E-03 0. -1.
    9900012    2    1    2    0    0 -0.58143082563E+00 -0.70137485995E+00 -0.74846816914E+00  0.90008935498E+02  0.90001212639E+02 0.  0.
        -12    1    1    2    0    0  0.58143082563E+00  0.70137485995E+00  0.74846816914E+00  0.11790645018E+01  0.00000000000E+00 0.  1.
         11    1    3    3    0    0 -0.24983418832E+01  0.30505419700E+01 -0.37496296012E+02  0.37703046739E+02  0.51100000000E-03 0. -1.
        -11    1    3    3    0    0  0.13850611908E+02 -0.39308995283E+00  0.35645544857E+00  0.13860773091E+02  0.51100000000E-03 0.  1.
        -12    1    3    3    0    0 -0.11933700850E+02 -0.33588268771E+01  0.36391372395E+02  0.38445115668E+02  0.00000000000E+00 0.  1.
</event>
<event>
 7    1  0.2232484E-015  0.9000773E+02  0.7816164E-02  0.1186339E+00
        -11   -1    0    0    0    0  0.00000000000E+00  0.00000000000E+00  0.45593999997E+02  0.45594000000E+02  0.51100000000E-03 0. -1.
         11   -1    0    0    0    0 -0.00000000000E+00 -0.00000000000E+00 -0.45593999997E+02  0.45594000000E+02  0.51100000000E-03 0.  1.
    9900012    2    1    2    0    0  0.10144913807E+00  0.11568115009E+01 -0.21101592479E+00  0.90007732023E+02  0.89999993286E+02 0.  0.
        -12    1    1    2    0    0 -0.10144913807E+00 -0.11568115009E+01  0.21101592479E+00  0.11802679766E+01  0.00000000000E+00 0.  1.
         11    1    3    3    0    0  0.47150838055E-01 -0.75876012180E+01  0.57135624407E+01  0.94983530925E+01  0.51100000000E-03 0. -1.
        -11    1    3    3    0    0 -0.38692754684E+02  0.14038256166E+02 -0.20667742243E+01  0.41212540048E+02  0.51100000000E-03 0.  1.
         12    1    3    3    0    0  0.38747052984E+02 -0.52938434475E+01 -0.38578041412E+01  0.39296838883E+02  0.00000000000E+00 0. -1.
</event>
<event>
 7    1  0.2232484E-015  0.9000774E+02  0.7816164E-02  0.1186339E+00
        -11   -1    0    0    0    0  0.00000000000E+00  0.00000000000E+00  0.45593999997E+02  0.45594000000E+02  0.51100000000E-03 0. -1.
         11   -1    0    0    0    0 -0.00000000000E+00 -0.00000000000E+00 -0.45593999997E+02  0.45594000000E+02  0.51100000000E-03 0.  1.
    9900012    2    1    2    0    0  0.87722949486E+00  0.74227846707E+00 -0.26925741860E+00  0.90007742203E+02  0.90000003600E+02 0.  0.
        -12    1    1    2    0    0 -0.87722949486E+00 -0.74227846707E+00  0.26925741860E+00  0.11802577968E+01  0.00000000000E+00 0.  1.
         11    1    3    3    0    0  0.49908727371E+00  0.25504589972E+01 -0.90514001344E+01  0.94171000768E+01  0.51100000000E-03 0. -1.
        -11    1    3    3    0    0 -0.38833090787E+02  0.41171015802E+01  0.11868114533E+02  0.40814355420E+02  0.51100000000E-03 0.  1.
         12    1    3    3    0    0  0.39211233008E+02 -0.59252821104E+01 -0.30859718176E+01  0.39776286707E+02  0.00000000000E+00 0. -1.
</event>
<event>
 7    1  0.2232484E-015  0.9000782E+02  0.7816164E-02  0.1186339E+00
        -11   -1    0    0    0    0  0.00000000000E+00  0.00000000000E+00  0.45593999997E+02  0.45594000000E+02  0.51100000000E-03 0. -1.
         11   -1    0    0    0    0 -0.00000000000E+00 -0.00000000000E+00 -0.45593999997E+02  0.45594000000E+02  0.51100000000E-03 0.  1.
    9900012    2    1    2    0    0 -0.17094988364E+00 -0.11261251304E+01 -0.30892916181E+00  0.90007822514E+02  0.90000084971E+02 0.  0.
        -12    1    1    2    0    0  0.17094988364E+00  0.11261251304E+01  0.30892916181E+00  0.11801774863E+01  0.00000000000E+00 0.  1.
         11    1    3    3    0    0 -0.26975642086E+02  0.15026582290E+02  0.85719872862E+01  0.32046254190E+02  0.51100000000E-03 0. -1.
        -11    1    3    3    0    0 -0.13635860740E+02 -0.13015249578E+01  0.10911752649E+01  0.13741227349E+02  0.51100000000E-03 0.  1.
        -12    1    3    3    0    0  0.40440552942E+02 -0.14851182463E+02 -0.99720917129E+01  0.44220340975E+02  0.00000000000E+00 0.  1.
</event>
<event>
 7    1  0.2232484E-015  0.9000763E+02  0.7816164E-02  0.1186339E+00
        -11   -1    0    0    0    0  0.00000000000E+00  0.00000000000E+00  0.45593999997E+02  0.45594000000E+02  0.51100000000E-03 0.  1.
         11   -1    0    0    0    0 -0.00000000000E+00 -0.00000000000E+00 -0.45593999997E+02  0.45594000000E+02  0.51100000000E-03 0. -1.
    9900012    2    1    2    0    0  0.10574169975E+01  0.25494938641E+00  0.45841726140E+00  0.90007628753E+02  0.89999888652E+02 0.  0.
        -12    1    1    2    0    0 -0.10574169975E+01 -0.25494938641E+00 -0.45841726140E+00  0.11803712474E+01  0.00000000000E+00 0.  1.
         11    1    3    3    0    0 -0.11499579302E+02 -0.43846369920E+01 -0.90638925141E+01  0.15284616889E+02  0.51100000000E-03 0. -1.
        -11    1    3    3    0    0 -0.23447655505E+02 -0.29961571485E+01 -0.17205194074E+02  0.29236761273E+02  0.51100000000E-03 0.  1.
        -12    1    3    3    0    0  0.36004651804E+02  0.76357435269E+01  0.26727503850E+02  0.45486250591E+02  0.00000000000E+00 0.  1.
</event>
<event>
 7    1  0.2232484E-015  0.9000773E+02  0.7816164E-02  0.1186339E+00
        -11   -1    0    0    0    0  0.00000000000E+00  0.00000000000E+00  0.45593999997E+02  0.45594000000E+02  0.51100000000E-03 0. -1.
         11   -1    0    0    0    0 -0.00000000000E+00 -0.00000000000E+00 -0.45593999997E+02  0.45594000000E+02  0.51100000000E-03 0.  1.
    9900012    2    1    2    0    0 -0.97301917013E+00 -0.15604699584E-01 -0.66784832706E+00  0.90007732573E+02  0.89999993843E+02 0.  0.
        -12    1    1    2    0    0  0.97301917013E+00  0.15604699584E-01  0.66784832706E+00  0.11802674273E+01  0.00000000000E+00 0.  1.
         11    1    3    3    0    0  0.90873287323E+01 -0.13090812663E+01 -0.34826769517E+01  0.98194845211E+01  0.51100000000E-03 0. -1.
        -11    1    3    3    0    0  0.17818623177E+02 -0.28661458805E+01 -0.31180483944E+02  0.36026944131E+02  0.51100000000E-03 0.  1.
         12    1    3    3    0    0 -0.27878971079E+02  0.41596224472E+01  0.33995312569E+02  0.44161303921E+02  0.00000000000E+00 0. -1.
</event>
<event>
 7    1  0.2232484E-015  0.9000776E+02  0.7816164E-02  0.1186339E+00
        -11   -1    0    0    0    0  0.00000000000E+00  0.00000000000E+00  0.45593999997E+02  0.45594000000E+02  0.51100000000E-03 0. -1.
         11   -1    0    0    0    0 -0.00000000000E+00 -0.00000000000E+00 -0.45593999997E+02  0.45594000000E+02  0.51100000000E-03 0.  1.
    9900012    2    1    2    0    0 -0.22598667657E+00 -0.25808844550E+00  0.11292861871E+01  0.90007759806E+02  0.90000021435E+02 0.  0.
        -12    1    1    2    0    0  0.22598667657E+00  0.25808844550E+00 -0.11292861871E+01  0.11802401942E+01  0.00000000000E+00 0.  1.
         11    1    3    3    0    0 -0.34430074180E+01  0.71803094993E+01  0.10292379915E+02  0.13013232848E+02  0.51100000000E-03 0. -1.
        -11    1    3    3    0    0 -0.24685593800E+01 -0.38519408247E+01 -0.42622089000E+02  0.42866930197E+02  0.51100000000E-03 0.  1.
         12    1    3    3    0    0  0.56855801214E+01 -0.35864571202E+01  0.33458995272E+02  0.34127596760E+02  0.00000000000E+00 0. -1.
</event>
<event>
 7    1  0.2232484E-015  0.9000776E+02  0.7816164E-02  0.1186339E+00
        -11   -1    0    0    0    0  0.00000000000E+00  0.00000000000E+00  0.45593999997E+02  0.45594000000E+02  0.51100000000E-03 0. -1.
         11   -1    0    0    0    0 -0.00000000000E+00 -0.00000000000E+00 -0.45593999997E+02  0.45594000000E+02  0.51100000000E-03 0.  1.
    9900012    2    1    2    0    0  0.84319393582E+00  0.35534243506E+00  0.74546757253E+00  0.90007760126E+02  0.90000021759E+02 0.  0.
        -12    1    1    2    0    0 -0.84319393582E+00 -0.35534243506E+00 -0.74546757253E+00  0.11802398745E+01  0.00000000000E+00 0.  1.
         11    1    3    3    0    0 -0.17515995975E+02 -0.27837762102E+02 -0.16337014619E+02  0.36723958947E+02  0.51100000000E-03 0. -1.
        -11    1    3    3    0    0  0.45769816214E+01 -0.47531568990E+01 -0.74534274933E+01  0.99546392666E+01  0.51100000000E-03 0.  1.
        -12    1    3    3    0    0  0.13782208289E+02  0.32946261436E+02  0.24535909685E+02  0.43329161912E+02  0.00000000000E+00 0.  1.
</event>
<event>
 7    1  0.2232484E-015  0.9000775E+02  0.7816164E-02  0.1186339E+00
        -11   -1    0    0    0    0  0.00000000000E+00  0.00000000000E+00  0.45593999997E+02  0.45594000000E+02  0.51100000000E-03 0.  1.
         11   -1    0    0    0    0 -0.00000000000E+00 -0.00000000000E+00 -0.45593999997E+02  0.45594000000E+02  0.51100000000E-03 0. -1.
    9900012    2    1    2    0    0  0.74137572250E+00 -0.74664360518E+00 -0.53467837902E+00  0.90007747652E+02  0.90000009121E+02 0.  0.
        -12    1    1    2    0    0 -0.74137572250E+00  0.74664360518E+00  0.53467837902E+00  0.11802523476E+01  0.00000000000E+00 0.  1.
         11    1    3    3    0    0  0.23499867760E+02 -0.16790596982E+02  0.23181486106E+02  0.37034433034E+02  0.51100000000E-03 0. -1.
        -11    1    3    3    0    0 -0.77484799759E+00  0.18567114828E+01  0.10054099297E+02  0.10253422838E+02  0.51100000000E-03 0.  1.
        -12    1    3    3    0    0 -0.21983644040E+02  0.14187241895E+02 -0.33770263782E+02  0.42719891781E+02  0.00000000000E+00 0.  1.
</event>
<event>
 7    1  0.2232484E-015  0.9000776E+02  0.7816164E-02  0.1186339E+00
        -11   -1    0    0    0    0  0.00000000000E+00  0.00000000000E+00  0.45593999997E+02  0.45594000000E+02  0.51100000000E-03 0.  1.
         11   -1    0    0    0    0 -0.00000000000E+00 -0.00000000000E+00 -0.45593999997E+02  0.45594000000E+02  0.51100000000E-03 0. -1.
    9900012    2    1    2    0    0 -0.27049698950E+00  0.11152595878E+01  0.27566879783E+00  0.90007760255E+02  0.90000021890E+02 0.  0.
        -12    1    1    2    0    0  0.27049698950E+00 -0.11152595878E+01 -0.27566879783E+00  0.11802397450E+01  0.00000000000E+00 0.  1.
         11    1    3    3    0    0 -0.76025005979E+01  0.49462293372E+01  0.81362625236E+01  0.12184497040E+02  0.51100000000E-03 0. -1.
        -11    1    3    3    0    0  0.60183847774E+01  0.25568313800E+02  0.23192570449E+02  0.35040761267E+02  0.51100000000E-03 0.  1.
         12    1    3    3    0    0  0.13136188309E+01 -0.29399283550E+02 -0.31053164175E+02  0.42782501948E+02  0.00000000000E+00 0. -1.
</event>
<event>
 7    1  0.2232484E-015  0.9000785E+02  0.7816164E-02  0.1186339E+00
        -11   -1    0    0    0    0  0.00000000000E+00  0.00000000000E+00  0.45593999997E+02  0.45594000000E+02  0.51100000000E-03 0. -1.
         11   -1    0    0    0    0 -0.00000000000E+00 -0.00000000000E+00 -0.45593999997E+02  0.45594000000E+02  0.51100000000E-03 0.  1.
    9900012    2    1    2    0    0 -0.33215362934E-01  0.83647320473E+00  0.83184170265E+00  0.90007851153E+02  0.90000113988E+02 0.  0.
        -12    1    1    2    0    0  0.33215362934E-01 -0.83647320473E+00 -0.83184170265E+00  0.11801488469E+01  0.00000000000E+00 0.  1.
         11    1    3    3    0    0 -0.35324973203E+02  0.22884902991E+02 -0.84625332777E+00  0.42098558902E+02  0.51100000000E-03 0. -1.
        -11    1    3    3    0    0 -0.18391934507E+01 -0.79221595674E+01 -0.23112566171E+00  0.81361332396E+01  0.51100000000E-03 0.  1.
        -12    1    3    3    0    0  0.37130951291E+02 -0.14126270219E+02  0.19092206921E+01  0.39773159011E+02  0.00000000000E+00 0.  1.
</event>
<event>
 7    1  0.2232484E-015  0.9000779E+02  0.7816164E-02  0.1186339E+00
        -11   -1    0    0    0    0  0.00000000000E+00  0.00000000000E+00  0.45593999997E+02  0.45594000000E+02  0.51100000000E-03 0. -1.
         11   -1    0    0    0    0 -0.00000000000E+00 -0.00000000000E+00 -0.45593999997E+02  0.45594000000E+02  0.51100000000E-03 0.  1.
    9900012    2    1    2    0    0 -0.50009459164E+00 -0.33510227811E+00  0.10151392457E+01  0.90007789923E+02  0.90000051950E+02 0.  0.
        -12    1    1    2    0    0  0.50009459164E+00  0.33510227811E+00 -0.10151392457E+01  0.11802100769E+01  0.00000000000E+00 0.  1.
         11    1    3    3    0    0 -0.11902639616E+02  0.15497479105E+02 -0.31140432437E+02  0.36763721535E+02  0.51100000000E-03 0. -1.
        -11    1    3    3    0    0 -0.11447918221E+02  0.32380768282E+01  0.48317362775E+01  0.12840780695E+02  0.51100000000E-03 0.  1.
        -12    1    3    3    0    0  0.22850463245E+02 -0.19070658212E+02  0.27323835406E+02  0.40403287693E+02  0.00000000000E+00 0.  1.
</event>
<event>
 7    1  0.2232484E-015  0.9000771E+02  0.7816164E-02  0.1186339E+00
        -11   -1    0    0    0    0  0.00000000000E+00  0.00000000000E+00  0.45593999997E+02  0.45594000000E+02  0.51100000000E-03 0.  1.
         11   -1    0    0    0    0 -0.00000000000E+00 -0.00000000000E+00 -0.45593999997E+02  0.45594000000E+02  0.51100000000E-03 0. -1.
    9900012    2    1    2    0    0  0.76915364932E+00  0.66159546956E+00 -0.60314467870E+00  0.90007707915E+02  0.89999968860E+02 0.  0.
        -12    1    1    2    0    0 -0.76915364932E+00 -0.66159546956E+00  0.60314467870E+00  0.11802920846E+01  0.00000000000E+00 0.  1.
         11    1    3    3    0    0 -0.72334815593E+01  0.45165429809E+01 -0.17810065818E+01  0.87117392450E+01  0.51100000000E-03 0. -1.
        -11    1    3    3    0    0 -0.13150213993E+02  0.27075083549E+02 -0.21957839653E+02  0.37257683767E+02  0.51100000000E-03 0.  1.
         12    1    3    3    0    0  0.21152849201E+02 -0.30930031060E+02  0.23135701556E+02  0.44038284903E+02  0.00000000000E+00 0. -1.
</event>
<event>
 7    1  0.2232484E-015  0.9000773E+02  0.7816164E-02  0.1186339E+00
        -11   -1    0    0    0    0  0.00000000000E+00  0.00000000000E+00  0.45593999997E+02  0.45594000000E+02  0.51100000000E-03 0.  1.
         11   -1    0    0    0    0 -0.00000000000E+00 -0.00000000000E+00 -0.45593999997E+02  0.45594000000E+02  0.51100000000E-03 0. -1.
    9900012    2    1    2    0    0 -0.70487703906E-01  0.11242350357E+01  0.35238291158E+00  0.90007726028E+02  0.89999987212E+02 0.  0.
        -12    1    1    2    0    0  0.70487703906E-01 -0.11242350357E+01 -0.35238291158E+00  0.11802739717E+01  0.00000000000E+00 0.  1.
         11    1    3    3    0    0 -0.15594568747E+02 -0.30235549083E+02 -0.20735456469E+02  0.39841412600E+02  0.51100000000E-03 0. -1.
        -11    1    3    3    0    0 -0.47086868102E+01 -0.38739742751E+00  0.97750135741E+01  0.10856919401E+02  0.51100000000E-03 0.  1.
        -12    1    3    3    0    0  0.20232767853E+02  0.31747181546E+02  0.11312825806E+02  0.39309394028E+02  0.00000000000E+00 0.  1.
</event>
<event>
 7    1  0.2232484E-015  0.9000750E+02  0.7816164E-02  0.1186340E+00
        -11   -1    0    0    0    0  0.00000000000E+00  0.00000000000E+00  0.45593999997E+02  0.45594000000E+02  0.51100000000E-03 0.  1.
         11   -1    0    0    0    0 -0.00000000000E+00 -0.00000000000E+00 -0.45593999997E+02  0.45594000000E+02  0.51100000000E-03 0. -1.
    9900012    2    1    2    0    0 -0.93304655300E-01  0.95220953793E+00 -0.69150717334E+00  0.90007495475E+02  0.89999753615E+02 0.  0.
        -12    1    1    2    0    0  0.93304655300E-01 -0.95220953793E+00  0.69150717334E+00  0.11805045250E+01  0.00000000000E+00 0.  1.
         11    1    3    3    0    0 -0.94287311089E+01  0.21225741760E+01  0.56474145088E+00  0.96811788861E+01  0.51100000000E-03 0. -1.
        -11    1    3    3    0    0 -0.22977071105E+02  0.95753507251E+00 -0.29467212219E+02  0.37378861221E+02  0.51100000000E-03 0.  1.
         12    1    3    3    0    0  0.32312497559E+02 -0.21278997106E+01  0.28210963594E+02  0.42947455368E+02  0.00000000000E+00 0. -1.
</event>
<event>
 7    1  0.2232484E-015  0.9000762E+02  0.7816164E-02  0.1186339E+00
        -11   -1    0    0    0    0  0.00000000000E+00  0.00000000000E+00  0.45593999997E+02  0.45594000000E+02  0.51100000000E-03 0.  1.
         11   -1    0    0    0    0 -0.00000000000E+00 -0.00000000000E+00 -0.45593999997E+02  0.45594000000E+02  0.51100000000E-03 0. -1.
    9900012    2    1    2    0    0  0.32202350775E+00 -0.15609927839E+00 -0.11248223920E+01  0.90007622290E+02  0.89999882104E+02 0.  0.
        -12    1    1    2    0    0 -0.32202350775E+00  0.15609927839E+00  0.11248223920E+01  0.11803777098E+01  0.00000000000E+00 0.  1.
         11    1    3    3    0    0  0.10053660145E+02 -0.30153595118E+01  0.24819540965E+00  0.10499051220E+02  0.51100000000E-03 0. -1.
        -11    1    3    3    0    0 -0.93074598709E+01 -0.24623034225E+02  0.28580366181E+02  0.38855629643E+02  0.51100000000E-03 0.  1.
         12    1    3    3    0    0 -0.42417676646E+00  0.27482294459E+02 -0.29953383982E+02  0.40652941427E+02  0.00000000000E+00 0. -1.
</event>
<event>
 7    1  0.2232484E-015  0.9000749E+02  0.7816164E-02  0.1186340E+00
        -11   -1    0    0    0    0  0.00000000000E+00  0.00000000000E+00  0.45593999997E+02  0.45594000000E+02  0.51100000000E-03 0.  1.
         11   -1    0    0    0    0 -0.00000000000E+00 -0.00000000000E+00 -0.45593999997E+02  0.45594000000E+02  0.51100000000E-03 0. -1.
    9900012    2    1    2    0    0 -0.41003737181E+00 -0.10659058929E+01 -0.29886419652E+00  0.90007489167E+02  0.89999747224E+02 0.  0.
        -12    1    1    2    0    0  0.41003737181E+00  0.10659058929E+01  0.29886419652E+00  0.11805108330E+01  0.00000000000E+00 0.  1.
         11    1    3    3    0    0 -0.26322678273E+02 -0.14282579875E+02 -0.15068959019E+02  0.33525348702E+02  0.51100000000E-03 0. -1.
        -11    1    3    3    0    0 -0.47091636353E+01 -0.59223224463E+01 -0.10111540728E+02  0.12629068907E+02  0.51100000000E-03 0.  1.
        -12    1    3    3    0    0  0.30621804537E+02  0.19138996429E+02  0.24881635551E+02  0.43853071558E+02  0.00000000000E+00 0.  1.
</event>
<event>
 7    1  0.2232484E-015  0.9000736E+02  0.7816164E-02  0.1186340E+00
        -11   -1    0    0    0    0  0.00000000000E+00  0.00000000000E+00  0.45593999997E+02  0.45594000000E+02  0.51100000000E-03 0. -1.
         11   -1    0    0    0    0 -0.00000000000E+00 -0.00000000000E+00 -0.45593999997E+02  0.45594000000E+02  0.51100000000E-03 0.  1.
    9900012    2    1    2    0    0 -0.72551777918E+00  0.25276029636E+00  0.89646947545E+00  0.90007355542E+02  0.89999611835E+02 0.  0.
        -12    1    1    2    0    0  0.72551777918E+00 -0.25276029636E+00 -0.89646947545E+00  0.11806444578E+01  0.00000000000E+00 0.  1.
         11    1    3    3    0    0 -0.15752070370E+02  0.30143531011E+02  0.17032439161E+02  0.38037667736E+02  0.51100000000E-03 0. -1.
        -11    1    3    3    0    0 -0.50233671959E+01 -0.55915562547E+01  0.89578830005E+01  0.11693732828E+02  0.51100000000E-03 0.  1.
        -12    1    3    3    0    0  0.20049919787E+02 -0.24299214460E+02 -0.25093852686E+02  0.40275954979E+02  0.00000000000E+00 0.  1.
</event>
<event>
 7    1  0.2232484E-015  0.9000736E+02  0.7816164E-02  0.1186340E+00
        -11   -1    0    0    0    0  0.00000000000E+00  0.00000000000E+00  0.45593999997E+02  0.45594000000E+02  0.51100000000E-03 0.  1.
         11   -1    0    0    0    0 -0.00000000000E+00 -0.00000000000E+00 -0.45593999997E+02  0.45594000000E+02  0.51100000000E-03 0. -1.
    9900012    2    1    2    0    0 -0.89869989533E+00  0.12095070604E+00 -0.75605381779E+00  0.90007361211E+02  0.89999617578E+02 0.  0.
        -12    1    1    2    0    0  0.89869989533E+00 -0.12095070604E+00  0.75605381779E+00  0.11806387892E+01  0.00000000000E+00 0.  1.
         11    1    3    3    0    0  0.10660089042E+02  0.15413236075E+02 -0.10524738513E+02  0.21493614534E+02  0.51100000000E-03 0. -1.
        -11    1    3    3    0    0  0.52329520409E+00 -0.53039074959E+01 -0.27537104912E+02  0.28048126850E+02  0.51100000000E-03 0.  1.
        -12    1    3    3    0    0 -0.12082084141E+02 -0.99883778732E+01  0.37305789608E+02  0.40465619827E+02  0.00000000000E+00 0.  1.
</event>
<event>
 7    1  0.2232484E-015  0.9000761E+02  0.7816164E-02  0.1186339E+00
        -11   -1    0    0    0    0  0.00000000000E+00  0.00000000000E+00  0.45593999997E+02  0.45594000000E+02  0.51100000000E-03 0.  1.
         11   -1    0    0    0    0 -0.00000000000E+00 -0.00000000000E+00 -0.45593999997E+02  0.45594000000E+02  0.51100000000E-03 0. -1.
    9900012    2    1    2    0    0  0.61345324321E-01 -0.17264124239E+00 -0.11660824631E+01  0.90007611692E+02  0.89999871366E+02 0.  0.
        -12    1    1    2    0    0 -0.61345324321E-01  0.17264124239E+00  0.11660824631E+01  0.11803883082E+01  0.00000000000E+00 0.  1.
         11    1    3    3    0    0 -0.31284911110E+01 -0.37878406196E+00  0.80250115370E+01  0.86215859578E+01  0.51100000000E-03 0. -1.
        -11    1    3    3    0    0  0.13794700248E+02 -0.36510197818E+02  0.73969714368E+01  0.39724092014E+02  0.51100000000E-03 0.  1.
         12    1    3    3    0    0 -0.10604863813E+02  0.36716340638E+02 -0.16588065437E+02  0.41661933720E+02  0.00000000000E+00 0. -1.
</event>
<event>
 7    1  0.2232484E-015  0.9000776E+02  0.7816164E-02  0.1186339E+00
        -11   -1    0    0    0    0  0.00000000000E+00  0.00000000000E+00  0.45593999997E+02  0.45594000000E+02  0.51100000000E-03 0.  1.
         11   -1    0    0    0    0 -0.00000000000E+00 -0.00000000000E+00 -0.45593999997E+02  0.45594000000E+02  0.51100000000E-03 0. -1.
    9900012    2    1    2    0    0  0.36722904807E+00  0.79618523333E+00 -0.79006245577E+00  0.90007759862E+02  0.90000021492E+02 0.  0.
        -12    1    1    2    0    0 -0.36722904807E+00 -0.79618523333E+00  0.79006245577E+00  0.11802401381E+01  0.00000000000E+00 0.  1.
         11    1    3    3    0    0  0.40916579466E+01 -0.32329470271E+02 -0.22237077102E+02  0.39451538767E+02  0.51100000000E-03 0. -1.
        -11    1    3    3    0    0  0.34015712124E+01 -0.50373627071E+01  0.66498688317E+01  0.90092433365E+01  0.51100000000E-03 0.  1.
        -12    1    3    3    0    0 -0.71260001110E+01  0.38163018212E+02  0.14797145815E+02  0.41546977758E+02  0.00000000000E+00 0.  1.
</event>
<event>
 7    1  0.2232484E-015  0.9000774E+02  0.7816164E-02  0.1186339E+00
        -11   -1    0    0    0    0  0.00000000000E+00  0.00000000000E+00  0.45593999997E+02  0.45594000000E+02  0.51100000000E-03 0. -1.
         11   -1    0    0    0    0 -0.00000000000E+00 -0.00000000000E+00 -0.45593999997E+02  0.45594000000E+02  0.51100000000E-03 0.  1.
    9900012    2    1    2    0    0 -0.85480457053E+00  0.77593289978E+00  0.24547506016E+00  0.90007737011E+02  0.89999998339E+02 0.  0.
        -12    1    1    2    0    0  0.85480457053E+00 -0.77593289978E+00 -0.24547506016E+00  0.11802629893E+01  0.00000000000E+00 0.  1.
         11    1    3    3    0    0  0.26784001672E+01 -0.55840090674E+01 -0.83226858831E+01  0.10374106482E+02  0.51100000000E-03 0. -1.
        -11    1    3    3    0    0  0.19836894299E+00 -0.33496077439E+02  0.18670013942E+02  0.38348350355E+02  0.51100000000E-03 0.  1.
         12    1    3    3    0    0 -0.37315736807E+01  0.39856019406E+02 -0.10101852999E+02  0.41285280174E+02  0.00000000000E+00 0. -1.
</event>
<event>
 7    1  0.2232484E-015  0.9000774E+02  0.7816164E-02  0.1186339E+00
        -11   -1    0    0    0    0  0.00000000000E+00  0.00000000000E+00  0.45593999997E+02  0.45594000000E+02  0.51100000000E-03 0.  1.
         11   -1    0    0    0    0 -0.00000000000E+00 -0.00000000000E+00 -0.45593999997E+02  0.45594000000E+02  0.51100000000E-03 0. -1.
    9900012    2    1    2    0    0  0.78872472366E-01 -0.46460256697E+00 -0.10820952194E+01  0.90007743047E+02  0.90000004455E+02 0.  0.
        -12    1    1    2    0    0 -0.78872472366E-01  0.46460256697E+00  0.10820952194E+01  0.11802569534E+01  0.00000000000E+00 0.  1.
         11    1    3    3    0    0  0.56608823953E+01 -0.11781664719E+02  0.49548105806E+01  0.13978675230E+02  0.51100000000E-03 0. -1.
        -11    1    3    3    0    0  0.45900911655E+01 -0.29452466273E+02 -0.14528735223E+02  0.33160230004E+02  0.51100000000E-03 0.  1.
         12    1    3    3    0    0 -0.10172101088E+02  0.40769528424E+02  0.84918294232E+01  0.42868837813E+02  0.00000000000E+00 0. -1.
</event>
<event>
 7    1  0.2232484E-015  0.9000776E+02  0.7816164E-02  0.1186339E+00
        -11   -1    0    0    0    0  0.00000000000E+00  0.00000000000E+00  0.45593999997E+02  0.45594000000E+02  0.51100000000E-03 0. -1.
         11   -1    0    0    0    0 -0.00000000000E+00 -0.00000000000E+00 -0.45593999997E+02  0.45594000000E+02  0.51100000000E-03 0.  1.
    9900012    2    1    2    0    0 -0.10002120787E+01  0.13733953271E+00  0.61128671896E+00  0.90007763667E+02  0.90000025347E+02 0.  0.
        -12    1    1    2    0    0  0.10002120787E+01 -0.13733953271E+00 -0.61128671896E+00  0.11802363333E+01  0.00000000000E+00 0.  1.
         11    1    3    3    0    0  0.58699426929E+01 -0.74053459031E+01 -0.13975114077E+02  0.16870067839E+02  0.51100000000E-03 0. -1.
        -11    1    3    3    0    0  0.19407246512E+01  0.53422434192E+01 -0.28522140535E+02  0.29082958547E+02  0.51100000000E-03 0.  1.
         12    1    3    3    0    0 -0.88108794228E+01  0.22004420167E+01  0.43108541330E+02  0.44054737281E+02  0.00000000000E+00 0. -1.
</event>
<event>
 7    1  0.2232484E-015  0.9000772E+02  0.7816164E-02  0.1186339E+00
        -11   -1    0    0    0    0  0.00000000000E+00  0.00000000000E+00  0.45593999997E+02  0.45594000000E+02  0.51100000000E-03 0.  1.
         11   -1    0    0    0    0 -0.00000000000E+00 -0.00000000000E+00 -0.45593999997E+02  0.45594000000E+02  0.51100000000E-03 0. -1.
    9900012    2    1    2    0    0  0.82262367093E+00 -0.35740845550E+00  0.76721507981E+00  0.90007716353E+02  0.89999977409E+02 0.  0.
        -12    1    1    2    0    0 -0.82262367093E+00  0.35740845550E+00 -0.76721507981E+00  0.11802836467E+01  0.00000000000E+00 0.  1.
         11    1    3    3    0    0 -0.15976061722E+02  0.22055187831E+02 -0.28679776804E+02  0.39549910951E+02  0.51100000000E-03 0. -1.
        -11    1    3    3    0    0 -0.59909002025E+01  0.31036241358E+01  0.43495065716E+01  0.80275510394E+01  0.51100000000E-03 0.  1.
        -12    1    3    3    0    0  0.22789585596E+02 -0.25516220422E+02  0.25097485313E+02  0.42430254363E+02  0.00000000000E+00 0.  1.
</event>
<event>
 7    1  0.2232484E-015  0.9000770E+02  0.7816164E-02  0.1186339E+00
        -11   -1    0    0    0    0  0.00000000000E+00  0.00000000000E+00  0.45593999997E+02  0.45594000000E+02  0.51100000000E-03 0. -1.
         11   -1    0    0    0    0 -0.00000000000E+00 -0.00000000000E+00 -0.45593999997E+02  0.45594000000E+02  0.51100000000E-03 0.  1.
    9900012    2    1    2    0    0 -0.43476182301E+00 -0.41861078492E+00 -0.10143283191E+01  0.90007697170E+02  0.89999957972E+02 0.  0.
        -12    1    1    2    0    0  0.43476182301E+00  0.41861078492E+00  0.10143283191E+01  0.11803028302E+01  0.00000000000E+00 0.  1.
         11    1    3    3    0    0  0.25851736535E+02 -0.17319434764E+02  0.14001179217E+02  0.34121959530E+02  0.51100000000E-03 0. -1.
        -11    1    3    3    0    0 -0.65774043333E+01 -0.98312869908E+01  0.90311402963E+01  0.14882135162E+02  0.51100000000E-03 0.  1.
        -12    1    3    3    0    0 -0.19709094025E+02  0.26732110970E+02 -0.24046647832E+02  0.41003602478E+02  0.00000000000E+00 0.  1.
</event>
<event>
 7    1  0.2232484E-015  0.9000766E+02  0.7816164E-02  0.1186339E+00
        -11   -1    0    0    0    0  0.00000000000E+00  0.00000000000E+00  0.45593999997E+02  0.45594000000E+02  0.51100000000E-03 0. -1.
         11   -1    0    0    0    0 -0.00000000000E+00 -0.00000000000E+00 -0.45593999997E+02  0.45594000000E+02  0.51100000000E-03 0.  1.
    9900012    2    1    2    0    0 -0.58051773834E+00 -0.25347485540E+00  0.99596580809E+00  0.90007661812E+02  0.89999922148E+02 0.  0.
        -12    1    1    2    0    0  0.58051773834E+00  0.25347485540E+00 -0.99596580809E+00  0.11803381879E+01  0.00000000000E+00 0.  1.
         11    1    3    3    0    0  0.32479085207E+01  0.96297495636E+01  0.25827584070E+01  0.10485782168E+02  0.51100000000E-03 0. -1.
        -11    1    3    3    0    0  0.30357527376E+02 -0.12099943763E+02  0.20670649990E+02  0.38668642059E+02  0.51100000000E-03 0.  1.
         12    1    3    3    0    0 -0.34185953635E+02  0.22167193444E+01 -0.22257442589E+02  0.40853237585E+02  0.00000000000E+00 0. -1.
</event>
<event>
 7    1  0.2232484E-015  0.9000768E+02  0.7816164E-02  0.1186339E+00
        -11   -1    0    0    0    0  0.00000000000E+00  0.00000000000E+00  0.45593999997E+02  0.45594000000E+02  0.51100000000E-03 0. -1.
         11   -1    0    0    0    0 -0.00000000000E+00 -0.00000000000E+00 -0.45593999997E+02  0.45594000000E+02  0.51100000000E-03 0.  1.
    9900012    2    1    2    0    0  0.97525914559E+00 -0.33865893447E+00 -0.57213358862E+00  0.90007679231E+02  0.89999939797E+02 0.  0.
        -12    1    1    2    0    0 -0.97525914559E+00  0.33865893447E+00  0.57213358862E+00  0.11803207692E+01  0.00000000000E+00 0.  1.
         11    1    3    3    0    0 -0.27892233717E+02  0.32538914051E+01 -0.32944135407E+02  0.43288342184E+02  0.51100000000E-03 0. -1.
        -11    1    3    3    0    0  0.55710145100E+01 -0.63784655766E+01  0.26935836902E+01  0.88868677913E+01  0.51100000000E-03 0.  1.
        -12    1    3    3    0    0  0.23296478353E+02  0.27859152370E+01  0.29678418129E+02  0.37832469256E+02  0.00000000000E+00 0.  1.
</event>
<event>
 7    1  0.2232484E-015  0.9000765E+02  0.7816164E-02  0.1186339E+00
        -11   -1    0    0    0    0  0.00000000000E+00  0.00000000000E+00  0.45593999997E+02  0.45594000000E+02  0.51100000000E-03 0. -1.
         11   -1    0    0    0    0 -0.00000000000E+00 -0.00000000000E+00 -0.45593999997E+02  0.45594000000E+02  0.51100000000E-03 0.  1.
    9900012    2    1    2    0    0 -0.11545466461E+01  0.44744558922E-01 -0.24132940532E+00  0.90007652629E+02  0.89999912844E+02 0.  0.
        -12    1    1    2    0    0  0.11545466461E+01 -0.44744558922E-01  0.24132940532E+00  0.11803473707E+01  0.00000000000E+00 0.  1.
         11    1    3    3    0    0  0.22962558375E+01  0.49112644404E+01 -0.72531251132E+01  0.90554477219E+01  0.51100000000E-03 0. -1.
        -11    1    3    3    0    0  0.20795872189E+02 -0.60106744778E+01 -0.29815346138E+02  0.36844964017E+02  0.51100000000E-03 0.  1.
         12    1    3    3    0    0 -0.24246674673E+02  0.11441545963E+01  0.36827141846E+02  0.44107240891E+02  0.00000000000E+00 0. -1.
</event>
<event>
 7    1  0.2232484E-015  0.9000769E+02  0.7816164E-02  0.1186339E+00
        -11   -1    0    0    0    0  0.00000000000E+00  0.00000000000E+00  0.45593999997E+02  0.45594000000E+02  0.51100000000E-03 0.  1.
         11   -1    0    0    0    0 -0.00000000000E+00 -0.00000000000E+00 -0.45593999997E+02  0.45594000000E+02  0.51100000000E-03 0. -1.
    9900012    2    1    2    0    0 -0.41343903086E-02  0.96861248950E+00  0.67446844871E+00  0.90007688627E+02  0.89999949317E+02 0.  0.
        -12    1    1    2    0    0  0.41343903086E-02 -0.96861248950E+00 -0.67446844871E+00  0.11803113726E+01  0.00000000000E+00 0.  1.
         11    1    3    3    0    0 -0.21185850136E+01  0.45285113720E+01  0.23027041439E+01  0.55043859187E+01  0.51100000000E-03 0. -1.
        -11    1    3    3    0    0  0.88509110781E+00  0.16575995759E+02  0.37206450492E+02  0.40741465120E+02  0.51100000000E-03 0.  1.
         12    1    3    3    0    0  0.12293595154E+01 -0.20135894642E+02 -0.38834686187E+02  0.43761837588E+02  0.00000000000E+00 0. -1.
</event>
<event>
 7    1  0.2232484E-015  0.9000768E+02  0.7816164E-02  0.1186339E+00
        -11   -1    0    0    0    0  0.00000000000E+00  0.00000000000E+00  0.45593999997E+02  0.45594000000E+02  0.51100000000E-03 0.  1.
         11   -1    0    0    0    0 -0.00000000000E+00 -0.00000000000E+00 -0.45593999997E+02  0.45594000000E+02  0.51100000000E-03 0. -1.
    9900012    2    1    2    0    0 -0.57123662807E+00  0.87342425743E+00 -0.55133210345E+00  0.90007682963E+02  0.89999943578E+02 0.  0.
        -12    1    1    2    0    0  0.57123662807E+00 -0.87342425743E+00  0.55133210345E+00  0.11803170366E+01  0.00000000000E+00 0.  1.
         11    1    3    3    0    0 -0.33918914900E+01  0.63015462689E+01  0.13164000049E+02  0.14983501287E+02  0.51100000000E-03 0. -1.
        -11    1    3    3    0    0 -0.16963782035E+02  0.21989856047E+02  0.14187388224E+02  0.31186626217E+02  0.51100000000E-03 0.  1.
         12    1    3    3    0    0  0.19784436897E+02 -0.27417978059E+02 -0.27902720377E+02  0.43837555459E+02  0.00000000000E+00 0. -1.
</event>
<event>
 7    1  0.2232484E-015  0.9000785E+02  0.7816164E-02  0.1186339E+00
        -11   -1    0    0    0    0  0.00000000000E+00  0.00000000000E+00  0.45593999997E+02  0.45594000000E+02  0.51100000000E-03 0. -1.
         11   -1    0    0    0    0 -0.00000000000E+00 -0.00000000000E+00 -0.45593999997E+02  0.45594000000E+02  0.51100000000E-03 0.  1.
    9900012    2    1    2    0    0 -0.11038487413E+01  0.19276777964E+00  0.37029438582E+00  0.90007847725E+02  0.90000110515E+02 0.  0.
        -12    1    1    2    0    0  0.11038487413E+01 -0.19276777964E+00 -0.37029438582E+00  0.11801522753E+01  0.00000000000E+00 0.  1.
         11    1    3    3    0    0 -0.39111109359E+01 -0.86603246593E+01  0.15031375259E+02  0.17783145234E+02  0.51100000000E-03 0. -1.
        -11    1    3    3    0    0 -0.20884407164E+02 -0.18816024627E+02 -0.21209773824E+02  0.35214425330E+02  0.51100000000E-03 0.  1.
         12    1    3    3    0    0  0.23691669359E+02  0.27669117066E+02  0.65486929510E+01  0.37010277161E+02  0.00000000000E+00 0. -1.
</event>
<event>
 7    1  0.2232484E-015  0.9000776E+02  0.7816164E-02  0.1186339E+00
        -11   -1    0    0    0    0  0.00000000000E+00  0.00000000000E+00  0.45593999997E+02  0.45594000000E+02  0.51100000000E-03 0.  1.
         11   -1    0    0    0    0 -0.00000000000E+00 -0.00000000000E+00 -0.45593999997E+02  0.45594000000E+02  0.51100000000E-03 0. -1.
    9900012    2    1    2    0    0 -0.53723815122E+00 -0.42890880536E+00 -0.95936259585E+00  0.90007760963E+02  0.90000022608E+02 0.  0.
        -12    1    1    2    0    0  0.53723815122E+00  0.42890880536E+00  0.95936259585E+00  0.11802390371E+01  0.00000000000E+00 0.  1.
         11    1    3    3    0    0  0.19389466763E+01 -0.12256908298E+02 -0.34711113713E+02  0.36862619694E+02  0.51100000000E-03 0. -1.
        -11    1    3    3    0    0  0.92801953683E+01  0.95087069393E+01 -0.37251892361E+01  0.13799078550E+02  0.51100000000E-03 0.  1.
        -12    1    3    3    0    0 -0.11756380196E+02  0.23192925534E+01  0.37476940353E+02  0.39346062719E+02  0.00000000000E+00 0.  1.
</event>
<event>
 7    1  0.2232484E-015  0.9000776E+02  0.7816164E-02  0.1186339E+00
        -11   -1    0    0    0    0  0.00000000000E+00  0.00000000000E+00  0.45593999997E+02  0.45594000000E+02  0.51100000000E-03 0.  1.
         11   -1    0    0    0    0 -0.00000000000E+00 -0.00000000000E+00 -0.45593999997E+02  0.45594000000E+02  0.51100000000E-03 0. -1.
    9900012    2    1    2    0    0 -0.11724182831E+00 -0.11636197749E+01 -0.15878842720E+00  0.90007758333E+02  0.90000019943E+02 0.  0.
        -12    1    1    2    0    0  0.11724182831E+00  0.11636197749E+01  0.15878842720E+00  0.11802416665E+01  0.00000000000E+00 0.  1.
         11    1    3    3    0    0 -0.94463206549E+00  0.44130810356E+01 -0.94542306567E+01  0.10476167789E+02  0.51100000000E-03 0. -1.
        -11    1    3    3    0    0  0.16952764880E+02  0.24449155917E+02 -0.18943688575E+02  0.35270679030E+02  0.51100000000E-03 0.  1.
         12    1    3    3    0    0 -0.16125374643E+02 -0.30025856727E+02  0.28239130804E+02  0.44260911515E+02  0.00000000000E+00 0. -1.
</event>
<event>
 7    1  0.2232484E-015  0.9000773E+02  0.7816164E-02  0.1186339E+00
        -11   -1    0    0    0    0  0.00000000000E+00  0.00000000000E+00  0.45593999997E+02  0.45594000000E+02  0.51100000000E-03 0.  1.
         11   -1    0    0    0    0 -0.00000000000E+00 -0.00000000000E+00 -0.45593999997E+02  0.45594000000E+02  0.51100000000E-03 0. -1.
    9900012    2    1    2    0    0 -0.61167478846E+00 -0.82070771379E+00 -0.58764845794E+00  0.90007729731E+02  0.89999990963E+02 0.  0.
        -12    1    1    2    0    0  0.61167478846E+00  0.82070771379E+00  0.58764845794E+00  0.11802702692E+01  0.00000000000E+00 0.  1.
         11    1    3    3    0    0  0.11269498008E+02 -0.58460407451E+01 -0.32339522908E+02  0.34742229634E+02  0.51100000000E-03 0. -1.
        -11    1    3    3    0    0  0.49246933105E+01  0.61979733200E+00 -0.93814285539E+01  0.10613574087E+02  0.51100000000E-03 0.  1.
        -12    1    3    3    0    0 -0.16805866107E+02  0.44055356993E+01  0.41133303003E+02  0.44651926010E+02  0.00000000000E+00 0.  1.
</event>
<event>
 7    1  0.2232484E-015  0.9000764E+02  0.7816164E-02  0.1186339E+00
        -11   -1    0    0    0    0  0.00000000000E+00  0.00000000000E+00  0.45593999997E+02  0.45594000000E+02  0.51100000000E-03 0.  1.
         11   -1    0    0    0    0 -0.00000000000E+00 -0.00000000000E+00 -0.45593999997E+02  0.45594000000E+02  0.51100000000E-03 0. -1.
    9900012    2    1    2    0    0 -0.34119703861E+00  0.43088531368E+00 -0.10445880726E+01  0.90007643353E+02  0.89999903445E+02 0.  0.
        -12    1    1    2    0    0  0.34119703861E+00 -0.43088531368E+00  0.10445880726E+01  0.11803566470E+01  0.00000000000E+00 0.  1.
         11    1    3    3    0    0 -0.11060755020E+02 -0.35315244399E+02 -0.20262395795E+02  0.42190893238E+02  0.51100000000E-03 0. -1.
        -11    1    3    3    0    0 -0.64285393350E+01  0.37173539143E+01  0.39178074394E+01  0.83960736954E+01  0.51100000000E-03 0.  1.
        -12    1    3    3    0    0  0.17148097316E+02  0.32028775799E+02  0.15300000283E+02  0.39420676420E+02  0.00000000000E+00 0.  1.
</event>
<event>
 7    1  0.2232484E-015  0.9000764E+02  0.7816164E-02  0.1186339E+00
        -11   -1    0    0    0    0  0.00000000000E+00  0.00000000000E+00  0.45593999997E+02  0.45594000000E+02  0.51100000000E-03 0. -1.
         11   -1    0    0    0    0 -0.00000000000E+00 -0.00000000000E+00 -0.45593999997E+02  0.45594000000E+02  0.51100000000E-03 0.  1.
    9900012    2    1    2    0    0 -0.11441415294E+01  0.83433719213E-01  0.27788243009E+00  0.90007644261E+02  0.89999904366E+02 0.  0.
        -12    1    1    2    0    0  0.11441415294E+01 -0.83433719213E-01 -0.27788243009E+00  0.11803557386E+01  0.00000000000E+00 0.  1.
         11    1    3    3    0    0 -0.15019081935E+01 -0.16087772070E+01  0.88792570662E+01  0.91479559811E+01  0.51100000000E-03 0. -1.
        -11    1    3    3    0    0 -0.23456121335E+02  0.32810309243E+02 -0.10338965393E+02  0.41636525148E+02  0.51100000000E-03 0.  1.
         12    1    3    3    0    0  0.23813888000E+02 -0.31118098316E+02  0.17375907572E+01  0.39223163133E+02  0.00000000000E+00 0. -1.
</event>
<event>
 7    1  0.2232484E-015  0.9000776E+02  0.7816164E-02  0.1186339E+00
        -11   -1    0    0    0    0  0.00000000000E+00  0.00000000000E+00  0.45593999997E+02  0.45594000000E+02  0.51100000000E-03 0. -1.
         11   -1    0    0    0    0 -0.00000000000E+00 -0.00000000000E+00 -0.45593999997E+02  0.45594000000E+02  0.51100000000E-03 0.  1.
    9900012    2    1    2    0    0  0.96543306749E-01  0.60787182832E+00  0.10070457547E+01  0.90007758532E+02  0.90000020145E+02 0.  0.
        -12    1    1    2    0    0 -0.96543306749E-01 -0.60787182832E+00 -0.10070457547E+01  0.11802414676E+01  0.00000000000E+00 0.  1.
         11    1    3    3    0    0  0.18255121943E+02  0.28827346635E+02 -0.16295226203E+02  0.37812693483E+02  0.51100000000E-03 0. -1.
        -11    1    3    3    0    0  0.70386122846E+01 -0.69942255137E+00 -0.50576243304E+01  0.86954481729E+01  0.51100000000E-03 0.  1.
        -12    1    3    3    0    0 -0.25197190921E+02 -0.27520052255E+02  0.22359896288E+02  0.43499616877E+02  0.00000000000E+00 0.  1.
</event>
<event>
 7    1  0.2232484E-015  0.9000775E+02  0.7816164E-02  0.1186339E+00
        -11   -1    0    0    0    0  0.00000000000E+00  0.00000000000E+00  0.45593999997E+02  0.45594000000E+02  0.51100000000E-03 0. -1.
         11   -1    0    0    0    0 -0.00000000000E+00 -0.00000000000E+00 -0.45593999997E+02  0.45594000000E+02  0.51100000000E-03 0.  1.
    9900012    2    1    2    0    0 -0.46906707837E+00 -0.57310705180E+00 -0.91897537118E+00  0.90007749455E+02  0.90000010948E+02 0.  0.
        -12    1    1    2    0    0  0.46906707837E+00  0.57310705180E+00  0.91897537118E+00  0.11802505453E+01  0.00000000000E+00 0.  1.
         11    1    3    3    0    0 -0.64085064948E+01 -0.34835854836E+02  0.13420250017E+02  0.37877550718E+02  0.51100000000E-03 0. -1.
        -11    1    3    3    0    0 -0.70708604990E+01  0.13852192019E+01  0.76366185512E+01  0.10499230619E+02  0.51100000000E-03 0.  1.
        -12    1    3    3    0    0  0.13010299915E+02  0.32877528582E+02 -0.21975843939E+02  0.41630968117E+02  0.00000000000E+00 0.  1.
</event>
<event>
 7    1  0.2232484E-015  0.9000767E+02  0.7816164E-02  0.1186339E+00
        -11   -1    0    0    0    0  0.00000000000E+00  0.00000000000E+00  0.45593999997E+02  0.45594000000E+02  0.51100000000E-03 0.  1.
         11   -1    0    0    0    0 -0.00000000000E+00 -0.00000000000E+00 -0.45593999997E+02  0.45594000000E+02  0.51100000000E-03 0. -1.
    9900012    2    1    2    0    0 -0.55481561768E-01 -0.11650344231E+01  0.18110264406E+00  0.90007668869E+02  0.89999929298E+02 0.  0.
        -12    1    1    2    0    0  0.55481561768E-01  0.11650344231E+01 -0.18110264406E+00  0.11803311308E+01  0.00000000000E+00 0.  1.
         11    1    3    3    0    0  0.15467870677E+02  0.21265012461E+02 -0.15203393774E+02  0.30374314161E+02  0.51100000000E-03 0. -1.
        -11    1    3    3    0    0 -0.69439057787E+01  0.10014586122E+02 -0.11406088869E+02  0.16691573509E+02  0.51100000000E-03 0.  1.
        -12    1    3    3    0    0 -0.85794464604E+01 -0.32444633007E+02  0.26790585287E+02  0.42941781199E+02  0.00000000000E+00 0.  1.
</event>
<event>
 7    1  0.2232484E-015  0.9000773E+02  0.7816164E-02  0.1186339E+00
        -11   -1    0    0    0    0  0.00000000000E+00  0.00000000000E+00  0.45593999997E+02  0.45594000000E+02  0.51100000000E-03 0.  1.
         11   -1    0    0    0    0 -0.00000000000E+00 -0.00000000000E+00 -0.45593999997E+02  0.45594000000E+02  0.51100000000E-03 0. -1.
    9900012    2    1    2    0    0  0.81132353907E+00 -0.77066767795E+00 -0.37530343539E+00  0.90007734257E+02  0.89999995549E+02 0.  0.
        -12    1    1    2    0    0 -0.81132353907E+00  0.77066767795E+00  0.37530343539E+00  0.11802657427E+01  0.00000000000E+00 0.  1.
         11    1    3    3    0    0  0.28405881180E+02  0.17919261081E+02 -0.76917866547E+01  0.34455153250E+02  0.51100000000E-03 0. -1.
        -11    1    3    3    0    0  0.91669013324E+01 -0.15688391423E+02  0.18131923995E+01  0.18260486642E+02  0.51100000000E-03 0.  1.
        -12    1    3    3    0    0 -0.36761458974E+02 -0.30015373359E+01  0.55032908198E+01  0.37292094365E+02  0.00000000000E+00 0.  1.
</event>
<event>
 7    1  0.2232484E-015  0.9000771E+02  0.7816164E-02  0.1186339E+00
        -11   -1    0    0    0    0  0.00000000000E+00  0.00000000000E+00  0.45593999997E+02  0.45594000000E+02  0.51100000000E-03 0. -1.
         11   -1    0    0    0    0 -0.00000000000E+00 -0.00000000000E+00 -0.45593999997E+02  0.45594000000E+02  0.51100000000E-03 0.  1.
    9900012    2    1    2    0    0  0.86306930942E-01  0.10776607935E+01  0.47358666889E+00  0.90007709356E+02  0.89999970319E+02 0.  0.
        -12    1    1    2    0    0 -0.86306930942E-01 -0.10776607935E+01 -0.47358666889E+00  0.11802906443E+01  0.00000000000E+00 0.  1.
         11    1    3    3    0    0 -0.81555362730E+01 -0.19010684412E+02 -0.82634686081E+01  0.22275632593E+02  0.51100000000E-03 0. -1.
        -11    1    3    3    0    0 -0.18047007926E+02 -0.13559727378E+02 -0.45196935135E+01  0.23021475438E+02  0.51100000000E-03 0.  1.
        -12    1    3    3    0    0  0.26288851130E+02  0.33648072583E+02  0.13256748790E+02  0.44710601324E+02  0.00000000000E+00 0.  1.
</event>
<event>
 7    1  0.2232484E-015  0.9000772E+02  0.7816164E-02  0.1186339E+00
        -11   -1    0    0    0    0  0.00000000000E+00  0.00000000000E+00  0.45593999997E+02  0.45594000000E+02  0.51100000000E-03 0.  1.
         11   -1    0    0    0    0 -0.00000000000E+00 -0.00000000000E+00 -0.45593999997E+02  0.45594000000E+02  0.51100000000E-03 0. -1.
    9900012    2    1    2    0    0  0.57628592585E+00 -0.55831042437E+00 -0.86558768706E+00  0.90007721201E+02  0.89999982321E+02 0.  0.
        -12    1    1    2    0    0 -0.57628592585E+00  0.55831042437E+00  0.86558768706E+00  0.11802787985E+01  0.00000000000E+00 0.  1.
         11    1    3    3    0    0 -0.49743541353E+01 -0.46503007011E+01 -0.76727659912E+01  0.10258695526E+02  0.51100000000E-03 0. -1.
        -11    1    3    3    0    0  0.84053627603E+00 -0.23412943910E+02  0.33667555854E+02  0.41016786334E+02  0.51100000000E-03 0.  1.
         12    1    3    3    0    0  0.47101037851E+01  0.27504934187E+02 -0.26860377550E+02  0.38732239341E+02  0.00000000000E+00 0. -1.
</event>
<event>
 7    1  0.2232484E-015  0.9000774E+02  0.7816164E-02  0.1186339E+00
        -11   -1    0    0    0    0  0.00000000000E+00  0.00000000000E+00  0.45593999997E+02  0.45594000000E+02  0.51100000000E-03 0.  1.
         11   -1    0    0    0    0 -0.00000000000E+00 -0.00000000000E+00 -0.45593999997E+02  0.45594000000E+02  0.51100000000E-03 0. -1.
    9900012    2    1    2    0    0 -0.11601738683E+01  0.20686207487E+00 -0.64897658957E-01  0.90007742812E+02  0.90000004218E+02 0.  0.
        -12    1    1    2    0    0  0.11601738683E+01 -0.20686207487E+00  0.64897658957E-01  0.11802571875E+01  0.00000000000E+00 0.  1.
         11    1    3    3    0    0 -0.57994015786E+01  0.25937847421E+01 -0.89929263284E+01  0.11010608619E+02  0.51100000000E-03 0. -1.
        -11    1    3    3    0    0 -0.22852645079E+02 -0.28132387653E+02 -0.89071780182E+01  0.37323081902E+02  0.51100000000E-03 0.  1.
         12    1    3    3    0    0  0.27491872789E+02  0.25745464985E+02  0.17835206688E+02  0.41674052291E+02  0.00000000000E+00 0. -1.
</event>
<event>
 7    1  0.2232484E-015  0.9000766E+02  0.7816164E-02  0.1186339E+00
        -11   -1    0    0    0    0  0.00000000000E+00  0.00000000000E+00  0.45593999997E+02  0.45594000000E+02  0.51100000000E-03 0.  1.
         11   -1    0    0    0    0 -0.00000000000E+00 -0.00000000000E+00 -0.45593999997E+02  0.45594000000E+02  0.51100000000E-03 0. -1.
    9900012    2    1    2    0    0  0.93535274130E+00 -0.60252209921E+00  0.39405813457E+00  0.90007661301E+02  0.89999921630E+02 0.  0.
        -12    1    1    2    0    0 -0.93535274130E+00  0.60252209921E+00 -0.39405813457E+00  0.11803386989E+01  0.00000000000E+00 0.  1.
         11    1    3    3    0    0 -0.64015466295E+01 -0.23985899252E+01  0.32250373353E+01  0.75586969085E+01  0.51100000000E-03 0. -1.
        -11    1    3    3    0    0 -0.11591180233E+02  0.23882637815E+02 -0.31781200438E+02  0.41409908835E+02  0.51100000000E-03 0.  1.
         12    1    3    3    0    0  0.18928079604E+02 -0.22086569989E+02  0.28950221237E+02  0.41039055558E+02  0.00000000000E+00 0. -1.
</event>
<event>
 7    1  0.2232484E-015  0.9000776E+02  0.7816164E-02  0.1186339E+00
        -11   -1    0    0    0    0  0.00000000000E+00  0.00000000000E+00  0.45593999997E+02  0.45594000000E+02  0.51100000000E-03 0.  1.
         11   -1    0    0    0    0 -0.00000000000E+00 -0.00000000000E+00 -0.45593999997E+02  0.45594000000E+02  0.51100000000E-03 0. -1.
    9900012    2    1    2    0    0  0.65665860351E+00  0.52737615913E+00 -0.82682469247E+00  0.90007760530E+02  0.90000022169E+02 0.  0.
        -12    1    1    2    0    0 -0.65665860351E+00 -0.52737615913E+00  0.82682469247E+00  0.11802394701E+01  0.00000000000E+00 0.  1.
         11    1    3    3    0    0 -0.88882559309E+01 -0.15695476158E+01  0.41615013958E+01  0.99389469935E+01  0.51100000000E-03 0. -1.
        -11    1    3    3    0    0 -0.21625329118E+02  0.80040422496E+01  0.26665663041E+02  0.35253044372E+02  0.51100000000E-03 0.  1.
         12    1    3    3    0    0  0.31170243652E+02 -0.59071184747E+01 -0.31653989129E+02  0.44815769165E+02  0.00000000000E+00 0. -1.
</event>
<event>
 7    1  0.2232484E-015  0.9000768E+02  0.7816164E-02  0.1186339E+00
        -11   -1    0    0    0    0  0.00000000000E+00  0.00000000000E+00  0.45593999997E+02  0.45594000000E+02  0.51100000000E-03 0.  1.
         11   -1    0    0    0    0 -0.00000000000E+00 -0.00000000000E+00 -0.45593999997E+02  0.45594000000E+02  0.51100000000E-03 0. -1.
    9900012    2    1    2    0    0 -0.10582531629E+01 -0.26990615599E+00  0.44767553823E+00  0.90007676961E+02  0.89999937496E+02 0.  0.
        -12    1    1    2    0    0  0.10582531629E+01  0.26990615599E+00 -0.44767553823E+00  0.11803230394E+01  0.00000000000E+00 0.  1.
         11    1    3    3    0    0 -0.82512683612E+01 -0.29372134022E+01 -0.31312667135E+00  0.87640573202E+01  0.51100000000E-03 0. -1.
        -11    1    3    3    0    0 -0.11023899493E+02 -0.35893932621E+01  0.37776971512E+02  0.39515942111E+02  0.51100000000E-03 0.  1.
         12    1    3    3    0    0  0.18216914692E+02  0.62567005084E+01 -0.37016169303E+02  0.41727677529E+02  0.00000000000E+00 0. -1.
</event>
<event>
 7    1  0.2232484E-015  0.9000775E+02  0.7816164E-02  0.1186339E+00
        -11   -1    0    0    0    0  0.00000000000E+00  0.00000000000E+00  0.45593999997E+02  0.45594000000E+02  0.51100000000E-03 0. -1.
         11   -1    0    0    0    0 -0.00000000000E+00 -0.00000000000E+00 -0.45593999997E+02  0.45594000000E+02  0.51100000000E-03 0.  1.
    9900012    2    1    2    0    0 -0.52438969082E+00  0.98359477496E+00  0.38800997639E+00  0.90007747921E+02  0.90000009393E+02 0.  0.
        -12    1    1    2    0    0  0.52438969082E+00 -0.98359477496E+00 -0.38800997639E+00  0.11802520794E+01  0.00000000000E+00 0.  1.
         11    1    3    3    0    0  0.21642257160E+02  0.47910004375E+01  0.34201341840E+02  0.40756260428E+02  0.51100000000E-03 0. -1.
        -11    1    3    3    0    0  0.52876850597E+01 -0.61538988937E+01 -0.59237656599E+01  0.10045948673E+02  0.51100000000E-03 0.  1.
        -12    1    3    3    0    0 -0.27454331910E+02  0.23464932312E+01 -0.27889566203E+02  0.39205538820E+02  0.00000000000E+00 0.  1.
</event>
<event>
 7    1  0.2232484E-015  0.9000776E+02  0.7816164E-02  0.1186339E+00
        -11   -1    0    0    0    0  0.00000000000E+00  0.00000000000E+00  0.45593999997E+02  0.45594000000E+02  0.51100000000E-03 0. -1.
         11   -1    0    0    0    0 -0.00000000000E+00 -0.00000000000E+00 -0.45593999997E+02  0.45594000000E+02  0.51100000000E-03 0.  1.
    9900012    2    1    2    0    0 -0.11395539564E+01 -0.14338848749E+00  0.27171034419E+00  0.90007758504E+02  0.90000020116E+02 0.  0.
        -12    1    1    2    0    0  0.11395539564E+01  0.14338848749E+00 -0.27171034419E+00  0.11802414960E+01  0.00000000000E+00 0.  1.
         11    1    3    3    0    0  0.18367839983E+01  0.74912480549E+01 -0.42827342923E+01  0.88223798465E+01  0.51100000000E-03 0. -1.
        -11    1    3    3    0    0  0.24669762967E+02  0.15230530610E+02 -0.22129867329E+02  0.36473240818E+02  0.51100000000E-03 0.  1.
         12    1    3    3    0    0 -0.27646100922E+02 -0.22865167153E+02  0.26684311965E+02  0.44712137839E+02  0.00000000000E+00 0. -1.
</event>
<event>
 7    1  0.2232484E-015  0.9000662E+02  0.7816164E-02  0.1186341E+00
        -11   -1    0    0    0    0  0.00000000000E+00  0.00000000000E+00  0.45593999997E+02  0.45594000000E+02  0.51100000000E-03 0. -1.
         11   -1    0    0    0    0 -0.00000000000E+00 -0.00000000000E+00 -0.45593999997E+02  0.45594000000E+02  0.51100000000E-03 0.  1.
    9900012    2    1    2    0    0  0.99774211072E+00 -0.61661181898E+00  0.14130806390E+00  0.90006616310E+02  0.89998862838E+02 0.  0.
        -12    1    1    2    0    0 -0.99774211072E+00  0.61661181898E+00 -0.14130806390E+00  0.11813836903E+01  0.00000000000E+00 0.  1.
         11    1    3    3    0    0  0.82774748023E+01  0.13001765130E+01  0.60029919905E+01  0.10307422625E+02  0.51100000000E-03 0. -1.
        -11    1    3    3    0    0 -0.40022229224E+02 -0.11691334180E+02  0.86370758969E+01  0.42580103420E+02  0.51100000000E-03 0.  1.
         12    1    3    3    0    0  0.32742496532E+02  0.97745458481E+01 -0.14498759823E+02  0.37119090265E+02  0.00000000000E+00 0. -1.
</event>
<event>
 7    1  0.2232484E-015  0.9000772E+02  0.7816164E-02  0.1186339E+00
        -11   -1    0    0    0    0  0.00000000000E+00  0.00000000000E+00  0.45593999997E+02  0.45594000000E+02  0.51100000000E-03 0.  1.
         11   -1    0    0    0    0 -0.00000000000E+00 -0.00000000000E+00 -0.45593999997E+02  0.45594000000E+02  0.51100000000E-03 0. -1.
    9900012    2    1    2    0    0  0.10634791013E+01  0.48254150326E+00  0.17093573786E+00  0.90007723283E+02  0.89999984431E+02 0.  0.
        -12    1    1    2    0    0 -0.10634791013E+01 -0.48254150326E+00 -0.17093573786E+00  0.11802767166E+01  0.00000000000E+00 0.  1.
         11    1    3    3    0    0 -0.51209615652E+01  0.47025195259E+01 -0.89875234859E+01  0.11362812852E+02  0.51100000000E-03 0. -1.
        -11    1    3    3    0    0  0.29715954821E+02  0.25442640398E+02 -0.20029078296E+01  0.39171131735E+02  0.51100000000E-03 0.  1.
         12    1    3    3    0    0 -0.23531514155E+02 -0.29662618421E+02  0.11161367053E+02  0.39473778696E+02  0.00000000000E+00 0. -1.
</event>
<event>
 7    1  0.2232484E-015  0.9000776E+02  0.7816164E-02  0.1186339E+00
        -11   -1    0    0    0    0  0.00000000000E+00  0.00000000000E+00  0.45593999997E+02  0.45594000000E+02  0.51100000000E-03 0. -1.
         11   -1    0    0    0    0 -0.00000000000E+00 -0.00000000000E+00 -0.45593999997E+02  0.45594000000E+02  0.51100000000E-03 0.  1.
    9900012    2    1    2    0    0  0.11153472169E+01  0.38596047532E+00  0.15598074272E-02  0.90007759628E+02  0.90000021255E+02 0.  0.
        -12    1    1    2    0    0 -0.11153472169E+01 -0.38596047532E+00 -0.15598074272E-02  0.11802403721E+01  0.00000000000E+00 0.  1.
         11    1    3    3    0    0 -0.21738030041E+02 -0.28749778176E+02  0.20900880369E+02  0.41664595230E+02  0.51100000000E-03 0. -1.
        -11    1    3    3    0    0  0.23217480590E+01 -0.28923714540E+01 -0.68466578060E+01  0.77867226772E+01  0.51100000000E-03 0.  1.
        -12    1    3    3    0    0  0.20531629199E+02  0.32028110105E+02 -0.14052662755E+02  0.40556441720E+02  0.00000000000E+00 0.  1.
</event>
<event>
 7    1  0.2232484E-015  0.9000781E+02  0.7816164E-02  0.1186339E+00
        -11   -1    0    0    0    0  0.00000000000E+00  0.00000000000E+00  0.45593999997E+02  0.45594000000E+02  0.51100000000E-03 0.  1.
         11   -1    0    0    0    0 -0.00000000000E+00 -0.00000000000E+00 -0.45593999997E+02  0.45594000000E+02  0.51100000000E-03 0. -1.
    9900012    2    1    2    0    0  0.91271924715E+00  0.69722442713E+00 -0.27141626798E+00  0.90007811406E+02  0.90000073717E+02 0.  0.
        -12    1    1    2    0    0 -0.91271924715E+00 -0.69722442713E+00  0.27141626798E+00  0.11801885936E+01  0.00000000000E+00 0.  1.
         11    1    3    3    0    0 -0.15185927246E+02 -0.29106754472E+02  0.19382542783E+02  0.38124775504E+02  0.51100000000E-03 0. -1.
        -11    1    3    3    0    0  0.80470048445E+01 -0.55972912730E+00  0.70042200593E+01  0.10683009059E+02  0.51100000000E-03 0.  1.
        -12    1    3    3    0    0  0.80516416491E+01  0.30363708027E+02 -0.26658179110E+02  0.41200026843E+02  0.00000000000E+00 0.  1.
</event>
<event>
 7    1  0.2232484E-015  0.9000803E+02  0.7816164E-02  0.1186338E+00
        -11   -1    0    0    0    0  0.00000000000E+00  0.00000000000E+00  0.45593999997E+02  0.45594000000E+02  0.51100000000E-03 0.  1.
         11   -1    0    0    0    0 -0.00000000000E+00 -0.00000000000E+00 -0.45593999997E+02  0.45594000000E+02  0.51100000000E-03 0. -1.
    9900012    2    1    2    0    0 -0.11788917210E+01  0.38571848344E-01 -0.32363939511E-01  0.90008033517E+02  0.90000298759E+02 0.  0.
        -12    1    1    2    0    0  0.11788917210E+01 -0.38571848344E-01  0.32363939511E-01  0.11799664834E+01  0.00000000000E+00 0.  1.
         11    1    3    3    0    0  0.15330838675E+02  0.37770245719E+01 -0.37759787007E+02  0.40928010509E+02  0.51100000000E-03 0. -1.
        -11    1    3    3    0    0 -0.18946252027E+01 -0.10071895317E+02  0.26957693998E+01  0.10597162491E+02  0.51100000000E-03 0.  1.
        -12    1    3    3    0    0 -0.14615105194E+02  0.63334425935E+01  0.35031653668E+02  0.38482860517E+02  0.00000000000E+00 0.  1.
</event>
<event>
 7    1  0.2232484E-015  0.9000772E+02  0.7816164E-02  0.1186339E+00
        -11   -1    0    0    0    0  0.00000000000E+00  0.00000000000E+00  0.45593999997E+02  0.45594000000E+02  0.51100000000E-03 0.  1.
         11   -1    0    0    0    0 -0.00000000000E+00 -0.00000000000E+00 -0.45593999997E+02  0.45594000000E+02  0.51100000000E-03 0. -1.
    9900012    2    1    2    0    0 -0.21289718945E+00 -0.36689105156E+00 -0.11014226567E+01  0.90007717777E+02  0.89999978852E+02 0.  0.
        -12    1    1    2    0    0  0.21289718945E+00  0.36689105156E+00  0.11014226567E+01  0.11802822229E+01  0.00000000000E+00 0.  1.
         11    1    3    3    0    0  0.96699924983E+01  0.50980399772E+01  0.30880623560E+01  0.11359352794E+02  0.51100000000E-03 0. -1.
        -11    1    3    3    0    0 -0.20605050668E+02 -0.15521299523E+02  0.31107676814E+02  0.40412453637E+02  0.51100000000E-03 0.  1.
         12    1    3    3    0    0  0.10722160981E+02  0.10056368494E+02 -0.35297161827E+02  0.38235911346E+02  0.00000000000E+00 0. -1.
</event>
<event>
 7    1  0.2232484E-015  0.9000773E+02  0.7816164E-02  0.1186339E+00
        -11   -1    0    0    0    0  0.00000000000E+00  0.00000000000E+00  0.45593999997E+02  0.45594000000E+02  0.51100000000E-03 0. -1.
         11   -1    0    0    0    0 -0.00000000000E+00 -0.00000000000E+00 -0.45593999997E+02  0.45594000000E+02  0.51100000000E-03 0.  1.
    9900012    2    1    2    0    0 -0.45823490229E-01 -0.71942148517E+00  0.93454127390E+00  0.90007731192E+02  0.89999992444E+02 0.  0.
        -12    1    1    2    0    0  0.45823490229E-01  0.71942148517E+00 -0.93454127390E+00  0.11802688076E+01  0.00000000000E+00 0.  1.
         11    1    3    3    0    0 -0.27297478482E+02  0.24029186042E+02 -0.45169629942E+01  0.36646378651E+02  0.51100000000E-03 0. -1.
        -11    1    3    3    0    0 -0.85018192839E+01  0.15393348218E+01  0.18655218321E+01  0.88391546426E+01  0.51100000000E-03 0.  1.
        -12    1    3    3    0    0  0.35753474276E+02 -0.26287942348E+02  0.35859824360E+01  0.44522197899E+02  0.00000000000E+00 0.  1.
</event>
<event>
 7    1  0.2232484E-015  0.9000773E+02  0.7816164E-02  0.1186339E+00
        -11   -1    0    0    0    0  0.00000000000E+00  0.00000000000E+00  0.45593999997E+02  0.45594000000E+02  0.51100000000E-03 0.  1.
         11   -1    0    0    0    0 -0.00000000000E+00 -0.00000000000E+00 -0.45593999997E+02  0.45594000000E+02  0.51100000000E-03 0. -1.
    9900012    2    1    2    0    0  0.41843255156E+00 -0.94013516868E+00 -0.57800806853E+00  0.90007731699E+02  0.89999992957E+02 0.  0.
        -12    1    1    2    0    0 -0.41843255156E+00  0.94013516868E+00  0.57800806853E+00  0.11802683012E+01  0.00000000000E+00 0.  1.
         11    1    3    3    0    0  0.24471095869E+02  0.53029115440E+01 -0.33151107570E+02  0.41544570491E+02  0.51100000000E-03 0. -1.
        -11    1    3    3    0    0 -0.81337700549E+01 -0.21709163957E+01 -0.32715179808E+01  0.90318283566E+01  0.51100000000E-03 0.  1.
        -12    1    3    3    0    0 -0.15918893263E+02 -0.40721303170E+01  0.35844617482E+02  0.39431332852E+02  0.00000000000E+00 0.  1.
</event>
<event>
 7    1  0.2232484E-015  0.9000775E+02  0.7816164E-02  0.1186339E+00
        -11   -1    0    0    0    0  0.00000000000E+00  0.00000000000E+00  0.45593999997E+02  0.45594000000E+02  0.51100000000E-03 0.  1.
         11   -1    0    0    0    0 -0.00000000000E+00 -0.00000000000E+00 -0.45593999997E+02  0.45594000000E+02  0.51100000000E-03 0. -1.
    9900012    2    1    2    0    0 -0.63463984821E+00 -0.34562074907E+00 -0.93315027680E+00  0.90007749654E+02  0.90000011150E+02 0.  0.
        -12    1    1    2    0    0  0.63463984821E+00  0.34562074907E+00  0.93315027680E+00  0.11802503456E+01  0.00000000000E+00 0.  1.
         11    1    3    3    0    0 -0.18509383396E+01 -0.14239244468E+01  0.38065718340E+01  0.44658171655E+01  0.51100000000E-03 0. -1.
        -11    1    3    3    0    0 -0.12612533796E+00  0.15523265734E+02  0.37657318035E+02  0.40731576062E+02  0.51100000000E-03 0.  1.
         12    1    3    3    0    0  0.13424238293E+01 -0.14444962036E+02 -0.42397040146E+02  0.44810356427E+02  0.00000000000E+00 0. -1.
</event>
<event>
 7    1  0.2232484E-015  0.9000775E+02  0.7816164E-02  0.1186339E+00
        -11   -1    0    0    0    0  0.00000000000E+00  0.00000000000E+00  0.45593999997E+02  0.45594000000E+02  0.51100000000E-03 0. -1.
         11   -1    0    0    0    0 -0.00000000000E+00 -0.00000000000E+00 -0.45593999997E+02  0.45594000000E+02  0.51100000000E-03 0.  1.
    9900012    2    1    2    0    0 -0.45837937002E+00 -0.48958075033E+00  0.97118076681E+00  0.90007748739E+02  0.90000010222E+02 0.  0.
        -12    1    1    2    0    0  0.45837937002E+00  0.48958075033E+00 -0.97118076681E+00  0.11802512613E+01  0.00000000000E+00 0.  1.
         11    1    3    3    0    0  0.32038442894E+01  0.67161569947E+00  0.39873624128E+02  0.40007769086E+02  0.51100000000E-03 0. -1.
        -11    1    3    3    0    0  0.69377038676E+01  0.71512882209E+01 -0.12882993337E+01  0.10046510519E+02  0.51100000000E-03 0.  1.
        -12    1    3    3    0    0 -0.10599927527E+02 -0.83124846707E+01 -0.37614144027E+02  0.39953469134E+02  0.00000000000E+00 0.  1.
</event>
<event>
 7    1  0.2232484E-015  0.9000775E+02  0.7816164E-02  0.1186339E+00
        -11   -1    0    0    0    0  0.00000000000E+00  0.00000000000E+00  0.45593999997E+02  0.45594000000E+02  0.51100000000E-03 0.  1.
         11   -1    0    0    0    0 -0.00000000000E+00 -0.00000000000E+00 -0.45593999997E+02  0.45594000000E+02  0.51100000000E-03 0. -1.
    9900012    2    1    2    0    0  0.85941231471E+00  0.30355617467E+00 -0.74983666983E+00  0.90007749641E+02  0.90000011137E+02 0.  0.
        -12    1    1    2    0    0 -0.85941231471E+00 -0.30355617467E+00  0.74983666983E+00  0.11802503587E+01  0.00000000000E+00 0.  1.
         11    1    3    3    0    0 -0.39120113809E+01  0.79399188418E+01 -0.61685984602E+01  0.10788778962E+02  0.51100000000E-03 0. -1.
        -11    1    3    3    0    0 -0.31091931348E+02 -0.21057060430E+02 -0.84539225755E+01  0.38491256099E+02  0.51100000000E-03 0.  1.
         12    1    3    3    0    0  0.35863355044E+02  0.13420697763E+02  0.13872684366E+02  0.40727714581E+02  0.00000000000E+00 0. -1.
</event>
<event>
 7    1  0.2232484E-015  0.9000779E+02  0.7816164E-02  0.1186339E+00
        -11   -1    0    0    0    0  0.00000000000E+00  0.00000000000E+00  0.45593999997E+02  0.45594000000E+02  0.51100000000E-03 0.  1.
         11   -1    0    0    0    0 -0.00000000000E+00 -0.00000000000E+00 -0.45593999997E+02  0.45594000000E+02  0.51100000000E-03 0. -1.
    9900012    2    1    2    0    0 -0.13695262335E+00  0.11565221189E+01 -0.19131845507E+00  0.90007787229E+02  0.90000049221E+02 0.  0.
        -12    1    1    2    0    0  0.13695262335E+00 -0.11565221189E+01  0.19131845507E+00  0.11802127705E+01  0.00000000000E+00 0.  1.
         11    1    3    3    0    0  0.44595157929E+01  0.67621822493E+01  0.77730673740E+01  0.11226529586E+02  0.51100000000E-03 0. -1.
        -11    1    3    3    0    0  0.10519840791E+02 -0.34565460306E+02  0.14715433391E+02  0.39012588693E+02  0.51100000000E-03 0.  1.
         12    1    3    3    0    0 -0.15116309207E+02  0.28959800175E+02 -0.22679819220E+02  0.39768668950E+02  0.00000000000E+00 0. -1.
</event>
<event>
 7    1  0.2232484E-015  0.9000778E+02  0.7816164E-02  0.1186339E+00
        -11   -1    0    0    0    0  0.00000000000E+00  0.00000000000E+00  0.45593999997E+02  0.45594000000E+02  0.51100000000E-03 0. -1.
         11   -1    0    0    0    0 -0.00000000000E+00 -0.00000000000E+00 -0.45593999997E+02  0.45594000000E+02  0.51100000000E-03 0.  1.
    9900012    2    1    2    0    0 -0.10038884336E+01  0.52933658324E+00  0.32393271710E+00  0.90007778999E+02  0.90000040882E+02 0.  0.
        -12    1    1    2    0    0  0.10038884336E+01 -0.52933658324E+00 -0.32393271710E+00  0.11802210008E+01  0.00000000000E+00 0.  1.
         11    1    3    3    0    0  0.33811171162E+02  0.22856593961E+02  0.49747384832E+01  0.41114075523E+02  0.51100000000E-03 0. -1.
        -11    1    3    3    0    0 -0.19545303679E+00 -0.51571013706E+01  0.68485896982E+01  0.85753762338E+01  0.51100000000E-03 0.  1.
        -12    1    3    3    0    0 -0.34619606559E+02 -0.17170156007E+02 -0.11499395464E+02  0.40318327243E+02  0.00000000000E+00 0.  1.
</event>
<event>
 7    1  0.2232484E-015  0.9000774E+02  0.7816164E-02  0.1186339E+00
        -11   -1    0    0    0    0  0.00000000000E+00  0.00000000000E+00  0.45593999997E+02  0.45594000000E+02  0.51100000000E-03 0.  1.
         11   -1    0    0    0    0 -0.00000000000E+00 -0.00000000000E+00 -0.45593999997E+02  0.45594000000E+02  0.51100000000E-03 0. -1.
    9900012    2    1    2    0    0  0.36983977554E+00 -0.44865731381E-01 -0.11199177755E+01  0.90007741462E+02  0.90000002849E+02 0.  0.
        -12    1    1    2    0    0 -0.36983977554E+00  0.44865731381E-01  0.11199177755E+01  0.11802585383E+01  0.00000000000E+00 0.  1.
         11    1    3    3    0    0 -0.33217124062E+02  0.90515664568E+01 -0.27934121344E+02  0.44335350701E+02  0.51100000000E-03 0. -1.
        -11    1    3    3    0    0  0.44447083950E+01 -0.62740812173E+01  0.58832606022E+01  0.96815434417E+01  0.51100000000E-03 0.  1.
        -12    1    3    3    0    0  0.29142255442E+02 -0.28223509709E+01  0.20930942966E+02  0.35990847319E+02  0.00000000000E+00 0.  1.
</event>
<event>
 7    1  0.2232484E-015  0.9000772E+02  0.7816164E-02  0.1186339E+00
        -11   -1    0    0    0    0  0.00000000000E+00  0.00000000000E+00  0.45593999997E+02  0.45594000000E+02  0.51100000000E-03 0. -1.
         11   -1    0    0    0    0 -0.00000000000E+00 -0.00000000000E+00 -0.45593999997E+02  0.45594000000E+02  0.51100000000E-03 0.  1.
    9900012    2    1    2    0    0  0.11124431516E+01  0.36652852643E+00  0.14558967935E+00  0.90007716440E+02  0.89999977497E+02 0.  0.
        -12    1    1    2    0    0 -0.11124431516E+01 -0.36652852643E+00 -0.14558967935E+00  0.11802835595E+01  0.00000000000E+00 0.  1.
         11    1    3    3    0    0 -0.31204889486E+02  0.83986210140E+01  0.19593810233E+02  0.37791525008E+02  0.51100000000E-03 0. -1.
        -11    1    3    3    0    0  0.17732551482E+01 -0.37070569672E+01  0.92255059010E+01  0.10099339809E+02  0.51100000000E-03 0.  1.
        -12    1    3    3    0    0  0.30544077489E+02 -0.43250355204E+01 -0.28673726454E+02  0.42116851624E+02  0.00000000000E+00 0.  1.
</event>
<event>
 7    1  0.2232484E-015  0.9000768E+02  0.7816164E-02  0.1186339E+00
        -11   -1    0    0    0    0  0.00000000000E+00  0.00000000000E+00  0.45593999997E+02  0.45594000000E+02  0.51100000000E-03 0. -1.
         11   -1    0    0    0    0 -0.00000000000E+00 -0.00000000000E+00 -0.45593999997E+02  0.45594000000E+02  0.51100000000E-03 0.  1.
    9900012    2    1    2    0    0 -0.71977676056E-01 -0.19528578406E-01  0.11779628272E+01  0.90007678614E+02  0.89999939172E+02 0.  0.
        -12    1    1    2    0    0  0.71977676056E-01  0.19528578406E-01 -0.11779628272E+01  0.11803213856E+01  0.00000000000E+00 0.  1.
         11    1    3    3    0    0 -0.39092308902E+01  0.40532679535E+01  0.35390986863E+02  0.35836197045E+02  0.51100000000E-03 0. -1.
        -11    1    3    3    0    0 -0.58615754325E+01  0.45556809344E+01  0.74593469472E+01  0.10523979878E+02  0.51100000000E-03 0.  1.
        -12    1    3    3    0    0  0.96988286466E+01 -0.86284774664E+01 -0.41672370983E+02  0.43647501691E+02  0.00000000000E+00 0.  1.
</event>
<event>
 7    1  0.2232484E-015  0.9000776E+02  0.7816164E-02  0.1186339E+00
        -11   -1    0    0    0    0  0.00000000000E+00  0.00000000000E+00  0.45593999997E+02  0.45594000000E+02  0.51100000000E-03 0. -1.
         11   -1    0    0    0    0 -0.00000000000E+00 -0.00000000000E+00 -0.45593999997E+02  0.45594000000E+02  0.51100000000E-03 0.  1.
    9900012    2    1    2    0    0 -0.67613357382E+00 -0.22880404039E+00  0.93991964399E+00  0.90007764076E+02  0.90000025762E+02 0.  0.
        -12    1    1    2    0    0  0.67613357382E+00  0.22880404039E+00 -0.93991964399E+00  0.11802359237E+01  0.00000000000E+00 0.  1.
         11    1    3    3    0    0 -0.27867275775E+02 -0.17711985024E+02  0.30574799999E+02  0.45001309624E+02  0.51100000000E-03 0. -1.
        -11    1    3    3    0    0  0.81307410514E+01  0.11970436023E+01 -0.39645621301E+01  0.91246707653E+01  0.51100000000E-03 0.  1.
        -12    1    3    3    0    0  0.19060401150E+02  0.16286137382E+02 -0.25670318225E+02  0.35881783687E+02  0.00000000000E+00 0.  1.
</event>
<event>
 7    1  0.2232484E-015  0.9000786E+02  0.7816164E-02  0.1186339E+00
        -11   -1    0    0    0    0  0.00000000000E+00  0.00000000000E+00  0.45593999997E+02  0.45594000000E+02  0.51100000000E-03 0. -1.
         11   -1    0    0    0    0 -0.00000000000E+00 -0.00000000000E+00 -0.45593999997E+02  0.45594000000E+02  0.51100000000E-03 0.  1.
    9900012    2    1    2    0    0  0.19121114113E+00 -0.10679310910E+01  0.46441974554E+00  0.90007862629E+02  0.90000125615E+02 0.  0.
        -12    1    1    2    0    0 -0.19121114113E+00  0.10679310910E+01 -0.46441974554E+00  0.11801373715E+01  0.00000000000E+00 0.  1.
         11    1    3    3    0    0 -0.30895243694E+02 -0.22062960661E+02  0.64169599192E+01  0.38502827051E+02  0.51100000000E-03 0. -1.
        -11    1    3    3    0    0 -0.70953376095E+01  0.49005826120E+01 -0.51863590009E+01  0.10062695746E+02  0.51100000000E-03 0.  1.
        -12    1    3    3    0    0  0.38181792444E+02  0.16094446958E+02 -0.76618117277E+00  0.41442339832E+02  0.00000000000E+00 0.  1.
</event>
<event>
 7    1  0.2232484E-015  0.9000771E+02  0.7816164E-02  0.1186339E+00
        -11   -1    0    0    0    0  0.00000000000E+00  0.00000000000E+00  0.45593999997E+02  0.45594000000E+02  0.51100000000E-03 0. -1.
         11   -1    0    0    0    0 -0.00000000000E+00 -0.00000000000E+00 -0.45593999997E+02  0.45594000000E+02  0.51100000000E-03 0.  1.
    9900012    2    1    2    0    0  0.42959449960E+00 -0.60873650998E-01  0.10976419995E+01  0.90007714020E+02  0.89999975045E+02 0.  0.
        -12    1    1    2    0    0 -0.42959449960E+00  0.60873650998E-01 -0.10976419995E+01  0.11802859800E+01  0.00000000000E+00 0.  1.
         11    1    3    3    0    0 -0.64732912541E+01 -0.53365499958E+01 -0.56382501112E+01  0.10108023056E+02  0.51100000000E-03 0. -1.
        -11    1    3    3    0    0  0.18041210764E+02  0.24014511497E+02 -0.26564895475E+02  0.40098325652E+02  0.51100000000E-03 0.  1.
         12    1    3    3    0    0 -0.11138325010E+02 -0.18738835152E+02  0.33300787586E+02  0.39801365312E+02  0.00000000000E+00 0. -1.
</event>
<event>
 7    1  0.2232484E-015  0.9000749E+02  0.7816164E-02  0.1186340E+00
        -11   -1    0    0    0    0  0.00000000000E+00  0.00000000000E+00  0.45593999997E+02  0.45594000000E+02  0.51100000000E-03 0.  1.
         11   -1    0    0    0    0 -0.00000000000E+00 -0.00000000000E+00 -0.45593999997E+02  0.45594000000E+02  0.51100000000E-03 0. -1.
    9900012    2    1    2    0    0 -0.13685073148E-01  0.11000038577E+01 -0.42825902550E+00  0.90007490974E+02  0.89999749054E+02 0.  0.
        -12    1    1    2    0    0  0.13685073148E-01 -0.11000038577E+01  0.42825902550E+00  0.11805090263E+01  0.00000000000E+00 0.  1.
         11    1    3    3    0    0 -0.31677361721E+02 -0.11734421957E+02 -0.11795896437E+02  0.35781211232E+02  0.51100000000E-03 0. -1.
        -11    1    3    3    0    0 -0.49391821135E+01 -0.39208502867E+01 -0.74744062516E+01  0.97793320834E+01  0.51100000000E-03 0.  1.
        -12    1    3    3    0    0  0.36602858761E+02  0.16755276101E+02  0.18842043663E+02  0.44446947658E+02  0.00000000000E+00 0.  1.
</event>
<event>
 7    1  0.2232484E-015  0.9000783E+02  0.7816164E-02  0.1186339E+00
        -11   -1    0    0    0    0  0.00000000000E+00  0.00000000000E+00  0.45593999997E+02  0.45594000000E+02  0.51100000000E-03 0. -1.
         11   -1    0    0    0    0 -0.00000000000E+00 -0.00000000000E+00 -0.45593999997E+02  0.45594000000E+02  0.51100000000E-03 0.  1.
    9900012    2    1    2    0    0 -0.14685853116E+00 -0.42838362800E+00  0.10898215446E+01  0.90007834351E+02  0.90000096964E+02 0.  0.
        -12    1    1    2    0    0  0.14685853116E+00  0.42838362800E+00 -0.10898215446E+01  0.11801656494E+01  0.00000000000E+00 0.  1.
         11    1    3    3    0    0  0.27195588011E+02  0.74276540016E+01 -0.29422746617E+02  0.40748841333E+02  0.51100000000E-03 0. -1.
        -11    1    3    3    0    0  0.14422732461E+01 -0.93153208895E+01  0.45458803053E+01  0.10465198680E+02  0.51100000000E-03 0.  1.
        -12    1    3    3    0    0 -0.28784719788E+02  0.14592832599E+01  0.25966687857E+02  0.38793794338E+02  0.00000000000E+00 0.  1.
</event>
<event>
 7    1  0.2232484E-015  0.9000745E+02  0.7816164E-02  0.1186340E+00
        -11   -1    0    0    0    0  0.00000000000E+00  0.00000000000E+00  0.45593999997E+02  0.45594000000E+02  0.51100000000E-03 0.  1.
         11   -1    0    0    0    0 -0.00000000000E+00 -0.00000000000E+00 -0.45593999997E+02  0.45594000000E+02  0.51100000000E-03 0. -1.
    9900012    2    1    2    0    0  0.10625147407E+01 -0.70840494496E-01 -0.50963943662E+00  0.90007454234E+02  0.89999711830E+02 0.  0.
        -12    1    1    2    0    0 -0.10625147407E+01  0.70840494496E-01  0.50963943662E+00  0.11805457658E+01  0.00000000000E+00 0.  1.
         11    1    3    3    0    0  0.31523139469E+02 -0.67645315596E+01 -0.95536133732E+01  0.33626458897E+02  0.51100000000E-03 0. -1.
        -11    1    3    3    0    0  0.77963389875E+01 -0.93034604180E+01  0.86625939210E+01  0.14912337545E+02  0.51100000000E-03 0.  1.
        -12    1    3    3    0    0 -0.38256963716E+02  0.15997151483E+02  0.38138001561E+00  0.41468657792E+02  0.00000000000E+00 0.  1.
</event>
<event>
 7    1  0.2232484E-015  0.9000784E+02  0.7816164E-02  0.1186339E+00
        -11   -1    0    0    0    0  0.00000000000E+00  0.00000000000E+00  0.45593999997E+02  0.45594000000E+02  0.51100000000E-03 0.  1.
         11   -1    0    0    0    0 -0.00000000000E+00 -0.00000000000E+00 -0.45593999997E+02  0.45594000000E+02  0.51100000000E-03 0. -1.
    9900012    2    1    2    0    0 -0.55975277443E+00 -0.56953139761E-01 -0.10374091081E+01  0.90007837093E+02  0.90000099743E+02 0.  0.
        -12    1    1    2    0    0  0.55975277442E+00  0.56953139761E-01  0.10374091081E+01  0.11801629066E+01  0.00000000000E+00 0.  1.
         11    1    3    3    0    0 -0.28214956023E+02  0.21137366157E+01 -0.18396592369E+02  0.33748870158E+02  0.51100000000E-03 0. -1.
        -11    1    3    3    0    0 -0.83677367823E+01  0.86792442643E+01 -0.43576569313E+01  0.12819417851E+02  0.51100000000E-03 0.  1.
        -12    1    3    3    0    0  0.36022940031E+02 -0.10849934020E+02  0.21716840192E+02  0.43439549084E+02  0.00000000000E+00 0.  1.
</event>
<event>
 7    1  0.2232484E-015  0.9000767E+02  0.7816164E-02  0.1186339E+00
        -11   -1    0    0    0    0  0.00000000000E+00  0.00000000000E+00  0.45593999997E+02  0.45594000000E+02  0.51100000000E-03 0.  1.
         11   -1    0    0    0    0 -0.00000000000E+00 -0.00000000000E+00 -0.45593999997E+02  0.45594000000E+02  0.51100000000E-03 0. -1.
    9900012    2    1    2    0    0  0.39947635912E+00 -0.36855069676E+00  0.10477490747E+01  0.90007665683E+02  0.89999926069E+02 0.  0.
        -12    1    1    2    0    0 -0.39947635912E+00  0.36855069676E+00 -0.10477490747E+01  0.11803343175E+01  0.00000000000E+00 0.  1.
         11    1    3    3    0    0 -0.43903670906E+00  0.35641680107E+02  0.17161353296E+02  0.39560512652E+02  0.51100000000E-03 0. -1.
        -11    1    3    3    0    0 -0.11377635516E+01 -0.14203879179E+01  0.80200763756E+01  0.82239669910E+01  0.51100000000E-03 0.  1.
        -12    1    3    3    0    0  0.19762766197E+01 -0.34589842886E+02 -0.24133680597E+02  0.42223186039E+02  0.00000000000E+00 0.  1.
</event>
<event>
 7    1  0.2232484E-015  0.9000778E+02  0.7816164E-02  0.1186339E+00
        -11   -1    0    0    0    0  0.00000000000E+00  0.00000000000E+00  0.45593999997E+02  0.45594000000E+02  0.51100000000E-03 0.  1.
         11   -1    0    0    0    0 -0.00000000000E+00 -0.00000000000E+00 -0.45593999997E+02  0.45594000000E+02  0.51100000000E-03 0. -1.
    9900012    2    1    2    0    0  0.91304703857E+00  0.70561854619E+00  0.24772769725E+00  0.90007779072E+02  0.90000040956E+02 0.  0.
        -12    1    1    2    0    0 -0.91304703857E+00 -0.70561854619E+00 -0.24772769725E+00  0.11802209282E+01  0.00000000000E+00 0.  1.
         11    1    3    3    0    0 -0.68111131057E+01  0.14239852680E+02  0.23621239338E+01  0.15960711006E+02  0.51100000000E-03 0. -1.
        -11    1    3    3    0    0 -0.34866184491E+01  0.17974907540E+02  0.25003140749E+02  0.30990496235E+02  0.51100000000E-03 0.  1.
         12    1    3    3    0    0  0.11210778593E+02 -0.31509141673E+02 -0.27117536986E+02  0.43056571831E+02  0.00000000000E+00 0. -1.
</event>
<event>
 7    1  0.2232484E-015  0.9000777E+02  0.7816164E-02  0.1186339E+00
        -11   -1    0    0    0    0  0.00000000000E+00  0.00000000000E+00  0.45593999997E+02  0.45594000000E+02  0.51100000000E-03 0.  1.
         11   -1    0    0    0    0 -0.00000000000E+00 -0.00000000000E+00 -0.45593999997E+02  0.45594000000E+02  0.51100000000E-03 0. -1.
    9900012    2    1    2    0    0  0.80480305493E-01  0.57762474123E-01 -0.11760678121E+01  0.90007767361E+02  0.90000029090E+02 0.  0.
        -12    1    1    2    0    0 -0.80480305493E-01 -0.57762474123E-01  0.11760678121E+01  0.11802326388E+01  0.00000000000E+00 0.  1.
         11    1    3    3    0    0  0.12120744096E+01  0.13387683311E+01  0.82021625305E+01  0.83986246169E+01  0.51100000000E-03 0. -1.
        -11    1    3    3    0    0 -0.41109018408E+01  0.38192274380E+02 -0.15745645800E+02  0.41514752777E+02  0.51100000000E-03 0.  1.
         12    1    3    3    0    0  0.29793077367E+01 -0.39473280237E+02  0.63674154576E+01  0.40094389967E+02  0.00000000000E+00 0. -1.
</event>
<event>
 7    1  0.3434880E-015  0.9000775E+02  0.7816164E-02  0.1186339E+00
        -11   -1    0    0    0    0  0.00000000000E+00  0.00000000000E+00  0.45593999997E+02  0.45594000000E+02  0.51100000000E-03 0. -1.
         11   -1    0    0    0    0 -0.00000000000E+00 -0.00000000000E+00 -0.45593999997E+02  0.45594000000E+02  0.51100000000E-03 0.  1.
    9900012    2    1    2    0    0  0.45938249007E+00 -0.89948935844E+00  0.61064102861E+00  0.90007747551E+02  0.90000009018E+02 0.  0.
        -12    1    1    2    0    0 -0.45938249007E+00  0.89948935844E+00 -0.61064102861E+00  0.11802524492E+01  0.00000000000E+00 0.  1.
         11    1    3    3    0    0 -0.93499945525E+01  0.13769573395E+01  0.22369866155E+01  0.97119781212E+01  0.51100000000E-03 0. -1.
        -11    1    3    3    0    0  0.49301496559E+01 -0.25715721738E+01 -0.40619042023E+02  0.40997877192E+02  0.51100000000E-03 0.  1.
         12    1    3    3    0    0  0.48792273867E+01  0.29512547592E+00  0.38992696437E+02  0.39297892238E+02  0.00000000000E+00 0. -1.
</event>
<event>
 7    1  0.2232484E-015  0.9000785E+02  0.7816164E-02  0.1186339E+00
        -11   -1    0    0    0    0  0.00000000000E+00  0.00000000000E+00  0.45593999997E+02  0.45594000000E+02  0.51100000000E-03 0. -1.
         11   -1    0    0    0    0 -0.00000000000E+00 -0.00000000000E+00 -0.45593999997E+02  0.45594000000E+02  0.51100000000E-03 0.  1.
    9900012    2    1    2    0    0  0.99324844639E+00 -0.61241656925E+00  0.17649875873E+00  0.90007852407E+02  0.90000115258E+02 0.  0.
        -12    1    1    2    0    0 -0.99324844639E+00  0.61241656925E+00 -0.17649875873E+00  0.11801475935E+01  0.00000000000E+00 0.  1.
         11    1    3    3    0    0  0.18178610394E+02  0.18225911215E+02  0.25135500345E+02  0.35978314209E+02  0.51100000000E-03 0. -1.
        -11    1    3    3    0    0  0.56014416907E+01 -0.58695938017E+01  0.83479131574E+01  0.11641131163E+02  0.51100000000E-03 0.  1.
        -12    1    3    3    0    0 -0.22786803638E+02 -0.12968733983E+02 -0.33306914743E+02  0.42388407034E+02  0.00000000000E+00 0.  1.
</event>
<event>
 7    1  0.2232484E-015  0.9000775E+02  0.7816164E-02  0.1186339E+00
        -11   -1    0    0    0    0  0.00000000000E+00  0.00000000000E+00  0.45593999997E+02  0.45594000000E+02  0.51100000000E-03 0.  1.
         11   -1    0    0    0    0 -0.00000000000E+00 -0.00000000000E+00 -0.45593999997E+02  0.45594000000E+02  0.51100000000E-03 0. -1.
    9900012    2    1    2    0    0  0.13628089176E+00  0.99510244166E+00 -0.61983416967E+00  0.90007747591E+02  0.90000009059E+02 0.  0.
        -12    1    1    2    0    0 -0.13628089176E+00 -0.99510244166E+00  0.61983416967E+00  0.11802524089E+01  0.00000000000E+00 0.  1.
         11    1    3    3    0    0  0.37558335070E+02 -0.76707345475E+01  0.11931466891E+01  0.38352213769E+02  0.51100000000E-03 0. -1.
        -11    1    3    3    0    0  0.19836377490E+01  0.80754988213E+01  0.74575229264E+01  0.11169742539E+02  0.51100000000E-03 0.  1.
        -12    1    3    3    0    0 -0.39405691927E+02  0.59033816779E+00 -0.92705037852E+01  0.40485791283E+02  0.00000000000E+00 0.  1.
</event>
<event>
 7    1  0.2232484E-015  0.9000785E+02  0.7816164E-02  0.1186339E+00
        -11   -1    0    0    0    0  0.00000000000E+00  0.00000000000E+00  0.45593999997E+02  0.45594000000E+02  0.51100000000E-03 0. -1.
         11   -1    0    0    0    0 -0.00000000000E+00 -0.00000000000E+00 -0.45593999997E+02  0.45594000000E+02  0.51100000000E-03 0.  1.
    9900012    2    1    2    0    0  0.10087861055E+01  0.60613826567E+00  0.87820779956E-01  0.90007845140E+02  0.90000107896E+02 0.  0.
        -12    1    1    2    0    0 -0.10087861055E+01 -0.60613826567E+00 -0.87820779956E-01  0.11801548599E+01  0.00000000000E+00 0.  1.
         11    1    3    3    0    0 -0.17233730289E+01  0.57050368195E+01  0.78476256969E+01  0.98540696693E+01  0.51100000000E-03 0. -1.
        -11    1    3    3    0    0 -0.82926361983E+00  0.24713150510E+01 -0.43433781720E+02  0.43511934811E+02  0.51100000000E-03 0.  1.
         12    1    3    3    0    0  0.35614227543E+01 -0.75702136048E+01  0.35673976803E+02  0.36641840660E+02  0.00000000000E+00 0. -1.
</event>
<event>
 7    1  0.2232484E-015  0.9000750E+02  0.7816164E-02  0.1186340E+00
        -11   -1    0    0    0    0  0.00000000000E+00  0.00000000000E+00  0.45593999997E+02  0.45594000000E+02  0.51100000000E-03 0. -1.
         11   -1    0    0    0    0 -0.00000000000E+00 -0.00000000000E+00 -0.45593999997E+02  0.45594000000E+02  0.51100000000E-03 0.  1.
    9900012    2    1    2    0    0  0.91167294403E-01 -0.85654871018E+00  0.80721165672E+00  0.90007501026E+02  0.89999759239E+02 0.  0.
        -12    1    1    2    0    0 -0.91167294403E-01  0.85654871018E+00 -0.80721165672E+00  0.11804989738E+01  0.00000000000E+00 0.  1.
         11    1    3    3    0    0 -0.34165858140E+02  0.15355068099E+02  0.15842508186E+02  0.40670247659E+02  0.51100000000E-03 0. -1.
        -11    1    3    3    0    0 -0.32107021402E+01 -0.78904790944E+01 -0.39353158246E+01  0.93837614779E+01  0.51100000000E-03 0.  1.
        -12    1    3    3    0    0  0.37467727575E+02 -0.83211377145E+01 -0.11099980704E+02  0.39953491889E+02  0.00000000000E+00 0.  1.
</event>
<event>
 7    1  0.2232484E-015  0.9000773E+02  0.7816164E-02  0.1186339E+00
        -11   -1    0    0    0    0  0.00000000000E+00  0.00000000000E+00  0.45593999997E+02  0.45594000000E+02  0.51100000000E-03 0.  1.
         11   -1    0    0    0    0 -0.00000000000E+00 -0.00000000000E+00 -0.45593999997E+02  0.45594000000E+02  0.51100000000E-03 0. -1.
    9900012    2    1    2    0    0  0.10742799230E+01 -0.44305553251E+00 -0.20654831599E+00  0.90007729792E+02  0.89999991025E+02 0.  0.
        -12    1    1    2    0    0 -0.10742799230E+01  0.44305553251E+00  0.20654831599E+00  0.11802702083E+01  0.00000000000E+00 0.  1.
         11    1    3    3    0    0 -0.13002897968E+02  0.85900449835E+01 -0.34899211578E+01  0.15970090117E+02  0.51100000000E-03 0. -1.
        -11    1    3    3    0    0  0.62748572323E+01  0.25700250838E+02  0.21461832336E+02  0.34065921004E+02  0.51100000000E-03 0.  1.
         12    1    3    3    0    0  0.78023206589E+01 -0.34733351354E+02 -0.18178459494E+02  0.39971718671E+02  0.00000000000E+00 0. -1.
</event>
<event>
 7    1  0.2232484E-015  0.9000780E+02  0.7816164E-02  0.1186339E+00
        -11   -1    0    0    0    0  0.00000000000E+00  0.00000000000E+00  0.45593999997E+02  0.45594000000E+02  0.51100000000E-03 0. -1.
         11   -1    0    0    0    0 -0.00000000000E+00 -0.00000000000E+00 -0.45593999997E+02  0.45594000000E+02  0.51100000000E-03 0.  1.
    9900012    2    1    2    0    0 -0.57717516662E+00  0.34816277693E+00  0.96877358421E+00  0.90007800547E+02  0.90000062714E+02 0.  0.
        -12    1    1    2    0    0  0.57717516662E+00 -0.34816277693E+00 -0.96877358421E+00  0.11801994533E+01  0.00000000000E+00 0.  1.
         11    1    3    3    0    0 -0.10370622244E+02 -0.20741916324E+02 -0.35397365952E+02  0.42317259069E+02  0.51100000000E-03 0. -1.
        -11    1    3    3    0    0  0.55643060415E+01  0.74398147504E+01  0.75734434190E+00  0.93212615003E+01  0.51100000000E-03 0.  1.
        -12    1    3    3    0    0  0.42291410359E+01  0.13650264350E+02  0.35608795195E+02  0.38369279977E+02  0.00000000000E+00 0.  1.
</event>
<event>
 7    1  0.2232484E-015  0.9000778E+02  0.7816164E-02  0.1186339E+00
        -11   -1    0    0    0    0  0.00000000000E+00  0.00000000000E+00  0.45593999997E+02  0.45594000000E+02  0.51100000000E-03 0.  1.
         11   -1    0    0    0    0 -0.00000000000E+00 -0.00000000000E+00 -0.45593999997E+02  0.45594000000E+02  0.51100000000E-03 0. -1.
    9900012    2    1    2    0    0  0.60901826654E+00  0.99264436370E+00 -0.19151588061E+00  0.90007777811E+02  0.90000039679E+02 0.  0.
        -12    1    1    2    0    0 -0.60901826654E+00 -0.99264436370E+00  0.19151588061E+00  0.11802221885E+01  0.00000000000E+00 0.  1.
         11    1    3    3    0    0  0.17060123659E+02  0.28744307743E+02  0.17297653895E+02  0.37636310624E+02  0.51100000000E-03 0. -1.
        -11    1    3    3    0    0  0.61495227494E+01 -0.11121160861E+01  0.72442820248E+01  0.95672908679E+01  0.51100000000E-03 0.  1.
        -12    1    3    3    0    0 -0.22600628142E+02 -0.26639547294E+02 -0.24733451800E+02  0.42804176319E+02  0.00000000000E+00 0.  1.
</event>
<event>
 7    1  0.2232484E-015  0.9000781E+02  0.7816164E-02  0.1186339E+00
        -11   -1    0    0    0    0  0.00000000000E+00  0.00000000000E+00  0.45593999997E+02  0.45594000000E+02  0.51100000000E-03 0. -1.
         11   -1    0    0    0    0 -0.00000000000E+00 -0.00000000000E+00 -0.45593999997E+02  0.45594000000E+02  0.51100000000E-03 0.  1.
    9900012    2    1    2    0    0 -0.33673092275E+00 -0.11308377531E+01 -0.25746898678E-01  0.90007811608E+02  0.90000073921E+02 0.  0.
        -12    1    1    2    0    0  0.33673092275E+00  0.11308377531E+01  0.25746898678E-01  0.11801883921E+01  0.00000000000E+00 0.  1.
         11    1    3    3    0    0 -0.21681944610E+02 -0.81579143419E+01  0.29725086521E+02  0.37686059192E+02  0.51100000000E-03 0. -1.
        -11    1    3    3    0    0  0.26402751602E+01 -0.12171434628E+02 -0.24233770802E+00  0.12456869657E+02  0.51100000000E-03 0.  1.
        -12    1    3    3    0    0  0.18704938527E+02  0.19198511217E+02 -0.29508495712E+02  0.39864882759E+02  0.00000000000E+00 0.  1.
</event>
<event>
 7    1  0.2232484E-015  0.9000774E+02  0.7816164E-02  0.1186339E+00
        -11   -1    0    0    0    0  0.00000000000E+00  0.00000000000E+00  0.45593999997E+02  0.45594000000E+02  0.51100000000E-03 0.  1.
         11   -1    0    0    0    0 -0.00000000000E+00 -0.00000000000E+00 -0.45593999997E+02  0.45594000000E+02  0.51100000000E-03 0. -1.
    9900012    2    1    2    0    0  0.31787220477E+00  0.36057302100E+00 -0.10779408513E+01  0.90007740655E+02  0.90000002032E+02 0.  0.
        -12    1    1    2    0    0 -0.31787220477E+00 -0.36057302100E+00  0.10779408513E+01  0.11802593448E+01  0.00000000000E+00 0.  1.
         11    1    3    3    0    0  0.40576353379E+01 -0.12294915384E+01  0.94234807799E+01  0.10333346227E+02  0.51100000000E-03 0. -1.
        -11    1    3    3    0    0 -0.14113612576E+02 -0.88921859162E-01  0.32486837768E+02  0.35420285084E+02  0.51100000000E-03 0.  1.
         12    1    3    3    0    0  0.10373849443E+02  0.16789864186E+01 -0.42988259399E+02  0.44254109344E+02  0.00000000000E+00 0. -1.
</event>
<event>
 7    1  0.2232484E-015  0.9000770E+02  0.7816164E-02  0.1186339E+00
        -11   -1    0    0    0    0  0.00000000000E+00  0.00000000000E+00  0.45593999997E+02  0.45594000000E+02  0.51100000000E-03 0.  1.
         11   -1    0    0    0    0 -0.00000000000E+00 -0.00000000000E+00 -0.45593999997E+02  0.45594000000E+02  0.51100000000E-03 0. -1.
    9900012    2    1    2    0    0  0.44986462456E+00  0.42414444624E+00 -0.10053983045E+01  0.90007702392E+02  0.89999963264E+02 0.  0.
        -12    1    1    2    0    0 -0.44986462456E+00 -0.42414444624E+00  0.10053983045E+01  0.11802976075E+01  0.00000000000E+00 0.  1.
         11    1    3    3    0    0 -0.67523141214E+01 -0.61214430804E+01  0.32789442795E+01  0.96859324399E+01  0.51100000000E-03 0. -1.
        -11    1    3    3    0    0 -0.25582159685E+02 -0.76720974820E+01 -0.27000579479E+02  0.37978141955E+02  0.51100000000E-03 0.  1.
         12    1    3    3    0    0  0.32784338431E+02  0.14217685009E+02  0.22716236895E+02  0.42343627998E+02  0.00000000000E+00 0. -1.
</event>
<event>
 7    1  0.2232484E-015  0.9000773E+02  0.7816164E-02  0.1186339E+00
        -11   -1    0    0    0    0  0.00000000000E+00  0.00000000000E+00  0.45593999997E+02  0.45594000000E+02  0.51100000000E-03 0. -1.
         11   -1    0    0    0    0 -0.00000000000E+00 -0.00000000000E+00 -0.45593999997E+02  0.45594000000E+02  0.51100000000E-03 0.  1.
    9900012    2    1    2    0    0  0.24167597312E+00  0.44158803291E+00  0.10675363118E+01  0.90007728403E+02  0.89999989617E+02 0.  0.
        -12    1    1    2    0    0 -0.24167597312E+00 -0.44158803291E+00 -0.10675363118E+01  0.11802715974E+01  0.00000000000E+00 0.  1.
         11    1    3    3    0    0  0.12719024550E+01 -0.80200713792E+01 -0.45479161247E+01  0.93071382347E+01  0.51100000000E-03 0. -1.
        -11    1    3    3    0    0 -0.50665535822E+00 -0.35590829871E+02  0.83482167372E+01  0.36560314461E+02  0.51100000000E-03 0.  1.
         12    1    3    3    0    0 -0.52357112369E+00  0.44052489283E+02 -0.27327643008E+01  0.44140275707E+02  0.00000000000E+00 0. -1.
</event>
<event>
 7    1  0.2232484E-015  0.9000775E+02  0.7816164E-02  0.1186339E+00
        -11   -1    0    0    0    0  0.00000000000E+00  0.00000000000E+00  0.45593999997E+02  0.45594000000E+02  0.51100000000E-03 0. -1.
         11   -1    0    0    0    0 -0.00000000000E+00 -0.00000000000E+00 -0.45593999997E+02  0.45594000000E+02  0.51100000000E-03 0.  1.
    9900012    2    1    2    0    0  0.89707728978E-01  0.11645076600E+01  0.16989953500E+00  0.90007749425E+02  0.90000010918E+02 0.  0.
        -12    1    1    2    0    0 -0.89707728978E-01 -0.11645076600E+01 -0.16989953500E+00  0.11802505746E+01  0.00000000000E+00 0.  1.
         11    1    3    3    0    0  0.27320014326E+02 -0.23405527125E+02 -0.23919219050E+02  0.43201052337E+02  0.51100000000E-03 0. -1.
        -11    1    3    3    0    0  0.75052262777E+00  0.45939712528E+01  0.70192434974E+01  0.84224483152E+01  0.51100000000E-03 0.  1.
        -12    1    3    3    0    0 -0.27980829225E+02  0.19976063533E+02  0.17069875087E+02  0.38384248773E+02  0.00000000000E+00 0.  1.
</event>
<event>
 7    1  0.2232484E-015  0.9000767E+02  0.7816164E-02  0.1186339E+00
        -11   -1    0    0    0    0  0.00000000000E+00  0.00000000000E+00  0.45593999997E+02  0.45594000000E+02  0.51100000000E-03 0.  1.
         11   -1    0    0    0    0 -0.00000000000E+00 -0.00000000000E+00 -0.45593999997E+02  0.45594000000E+02  0.51100000000E-03 0. -1.
    9900012    2    1    2    0    0  0.48738766411E+00 -0.10469083261E+01 -0.24414874681E+00  0.90007672762E+02  0.89999933242E+02 0.  0.
        -12    1    1    2    0    0 -0.48738766411E+00  0.10469083261E+01  0.24414874681E+00  0.11803272381E+01  0.00000000000E+00 0.  1.
         11    1    3    3    0    0  0.79818449115E+01  0.14060471621E+00  0.66889832398E+01  0.10414994715E+02  0.51100000000E-03 0. -1.
        -11    1    3    3    0    0  0.10323717823E+02 -0.71776059071E+01  0.33077190712E+02  0.35386405892E+02  0.51100000000E-03 0.  1.
         12    1    3    3    0    0 -0.17818175071E+02  0.59900928649E+01 -0.40010322699E+02  0.44206272155E+02  0.00000000000E+00 0. -1.
</event>
<event>
 7    1  0.2232484E-015  0.9000772E+02  0.7816164E-02  0.1186339E+00
        -11   -1    0    0    0    0  0.00000000000E+00  0.00000000000E+00  0.45593999997E+02  0.45594000000E+02  0.51100000000E-03 0. -1.
         11   -1    0    0    0    0 -0.00000000000E+00 -0.00000000000E+00 -0.45593999997E+02  0.45594000000E+02  0.51100000000E-03 0.  1.
    9900012    2    1    2    0    0  0.51949989813E+00 -0.94187918225E-01  0.10556105876E+01  0.90007718160E+02  0.89999979240E+02 0.  0.
        -12    1    1    2    0    0 -0.51949989813E+00  0.94187918225E-01 -0.10556105876E+01  0.11802818395E+01  0.00000000000E+00 0.  1.
         11    1    3    3    0    0 -0.65323019357E+01 -0.34940097667E+02  0.22323293175E+02  0.41973930147E+02  0.51100000000E-03 0. -1.
        -11    1    3    3    0    0 -0.52982163302E+01  0.13629905619E+02  0.13089692481E+01  0.14681921680E+02  0.51100000000E-03 0.  1.
        -12    1    3    3    0    0  0.12350018164E+02  0.21216004129E+02 -0.22576651835E+02  0.33351866334E+02  0.00000000000E+00 0.  1.
</event>
<event>
 7    1  0.2232484E-015  0.9000769E+02  0.7816164E-02  0.1186339E+00
        -11   -1    0    0    0    0  0.00000000000E+00  0.00000000000E+00  0.45593999997E+02  0.45594000000E+02  0.51100000000E-03 0.  1.
         11   -1    0    0    0    0 -0.00000000000E+00 -0.00000000000E+00 -0.45593999997E+02  0.45594000000E+02  0.51100000000E-03 0. -1.
    9900012    2    1    2    0    0  0.64563827270E+00  0.85407962900E+00  0.49681535412E+00  0.90007692291E+02  0.89999953029E+02 0.  0.
        -12    1    1    2    0    0 -0.64563827270E+00 -0.85407962900E+00 -0.49681535412E+00  0.11803077090E+01  0.00000000000E+00 0.  1.
         11    1    3    3    0    0 -0.23383835149E+01  0.86582969142E+01  0.30760477166E+00  0.89737820273E+01  0.51100000000E-03 0. -1.
        -11    1    3    3    0    0  0.37413142668E+02 -0.11217890543E+02 -0.16765579179E+02  0.42504928632E+02  0.51100000000E-03 0.  1.
         12    1    3    3    0    0 -0.34429120881E+02  0.34136732577E+01  0.16954789761E+02  0.38528981632E+02  0.00000000000E+00 0. -1.
</event>
<event>
 7    1  0.2232484E-015  0.9000817E+02  0.7816164E-02  0.1186338E+00
        -11   -1    0    0    0    0  0.00000000000E+00  0.00000000000E+00  0.45593999997E+02  0.45594000000E+02  0.51100000000E-03 0.  1.
         11   -1    0    0    0    0 -0.00000000000E+00 -0.00000000000E+00 -0.45593999997E+02  0.45594000000E+02  0.51100000000E-03 0. -1.
    9900012    2    1    2    0    0  0.11551281541E+01  0.50749558377E-01  0.23476148254E+00  0.90008165468E+02  0.90000432451E+02 0.  0.
        -12    1    1    2    0    0 -0.11551281541E+01 -0.50749558377E-01 -0.23476148254E+00  0.11798345323E+01  0.00000000000E+00 0.  1.
         11    1    3    3    0    0  0.15937245927E+02 -0.21337021092E+02 -0.33478314965E+02  0.42779222176E+02  0.51100000000E-03 0. -1.
        -11    1    3    3    0    0 -0.95599783180E+01  0.54601550035E+01  0.17639813366E+01  0.11149803071E+02  0.51100000000E-03 0.  1.
        -12    1    3    3    0    0 -0.52221394550E+01  0.15927615647E+02  0.31949095111E+02  0.36079140221E+02  0.00000000000E+00 0.  1.
</event>
<event>
 7    1  0.2232484E-015  0.9000773E+02  0.7816164E-02  0.1186339E+00
        -11   -1    0    0    0    0  0.00000000000E+00  0.00000000000E+00  0.45593999997E+02  0.45594000000E+02  0.51100000000E-03 0.  1.
         11   -1    0    0    0    0 -0.00000000000E+00 -0.00000000000E+00 -0.45593999997E+02  0.45594000000E+02  0.51100000000E-03 0. -1.
    9900012    2    1    2    0    0 -0.46010980711E-01 -0.10249337905E+01 -0.58346345656E+00  0.90007730586E+02  0.89999991829E+02 0.  0.
        -12    1    1    2    0    0  0.46010980711E-01  0.10249337905E+01  0.58346345656E+00  0.11802694143E+01  0.00000000000E+00 0.  1.
         11    1    3    3    0    0 -0.87215159762E+01 -0.32928005340E+02 -0.80756209058E+01  0.35007628167E+02  0.51100000000E-03 0. -1.
        -11    1    3    3    0    0 -0.11430348707E+02 -0.45714000129E+01 -0.14693852728E+01  0.12397970115E+02  0.51100000000E-03 0.  1.
        -12    1    3    3    0    0  0.20105853703E+02  0.36474471562E+02  0.89615427220E+01  0.42602132304E+02  0.00000000000E+00 0.  1.
</event>
<event>
 7    1  0.2940924E-015  0.9000857E+02  0.7816164E-02  0.1186337E+00
        -11   -1    0    0    0    0  0.00000000000E+00  0.00000000000E+00  0.45593999997E+02  0.45594000000E+02  0.51100000000E-03 0.  1.
         11   -1    0    0    0    0 -0.00000000000E+00 -0.00000000000E+00 -0.45593999997E+02  0.45594000000E+02  0.51100000000E-03 0. -1.
    9900012    2    1    2    0    0 -0.39541863499E+00  0.65903466179E+00 -0.89463121269E+00  0.90008573195E+02  0.90000845557E+02 0.  0.
        -12    1    1    2    0    0  0.39541863499E+00 -0.65903466179E+00  0.89463121269E+00  0.11794268053E+01  0.00000000000E+00 0.  1.
         11    1    3    3    0    0  0.86201859544E+01 -0.15291732301E+01  0.35922733223E+01  0.94631075519E+01  0.51100000000E-03 0. -1.
        -11    1    3    3    0    0  0.28385934107E+02  0.22103156759E+02  0.69817867055E+01  0.36647730348E+02  0.51100000000E-03 0.  1.
         12    1    3    3    0    0 -0.37401538696E+02 -0.19914948867E+02 -0.11468691240E+02  0.43897735294E+02  0.00000000000E+00 0. -1.
</event>
<event>
 7    1  0.2232484E-015  0.9000770E+02  0.7816164E-02  0.1186339E+00
        -11   -1    0    0    0    0  0.00000000000E+00  0.00000000000E+00  0.45593999997E+02  0.45594000000E+02  0.51100000000E-03 0. -1.
         11   -1    0    0    0    0 -0.00000000000E+00 -0.00000000000E+00 -0.45593999997E+02  0.45594000000E+02  0.51100000000E-03 0.  1.
    9900012    2    1    2    0    0 -0.48796818535E+00 -0.92702798958E+00  0.54370165626E+00  0.90007701167E+02  0.89999962023E+02 0.  0.
        -12    1    1    2    0    0  0.48796818535E+00  0.92702798958E+00 -0.54370165626E+00  0.11802988327E+01  0.00000000000E+00 0.  1.
         11    1    3    3    0    0 -0.71225607909E+01  0.40615891875E+01  0.76185675168E+01  0.11192405917E+02  0.51100000000E-03 0. -1.
        -11    1    3    3    0    0  0.34791853393E+02  0.11799279614E+02 -0.21971795917E+02  0.42807194233E+02  0.51100000000E-03 0.  1.
         12    1    3    3    0    0 -0.28157260788E+02 -0.16787896791E+02  0.14896930057E+02  0.36008101017E+02  0.00000000000E+00 0. -1.
</event>
<event>
 7    1  0.2232484E-015  0.9000771E+02  0.7816164E-02  0.1186339E+00
        -11   -1    0    0    0    0  0.00000000000E+00  0.00000000000E+00  0.45593999997E+02  0.45594000000E+02  0.51100000000E-03 0. -1.
         11   -1    0    0    0    0 -0.00000000000E+00 -0.00000000000E+00 -0.45593999997E+02  0.45594000000E+02  0.51100000000E-03 0.  1.
    9900012    2    1    2    0    0 -0.49992901042E+00  0.10475932938E+01 -0.21380970368E+00  0.90007705412E+02  0.89999966324E+02 0.  0.
        -12    1    1    2    0    0  0.49992901042E+00 -0.10475932938E+01  0.21380970368E+00  0.11802945878E+01  0.00000000000E+00 0.  1.
         11    1    3    3    0    0 -0.31229894590E+02  0.93212688145E+01  0.21851618525E+02  0.39238827719E+02  0.51100000000E-03 0. -1.
        -11    1    3    3    0    0 -0.42150837503E+01 -0.89428450549E+01 -0.94454368819E+00  0.99314435878E+01  0.51100000000E-03 0.  1.
        -12    1    3    3    0    0  0.34945049330E+02  0.66916953417E+00 -0.21120884540E+02  0.40837434105E+02  0.00000000000E+00 0.  1.
</event>
<event>
 7    1  0.2232484E-015  0.9000782E+02  0.7816164E-02  0.1186339E+00
        -11   -1    0    0    0    0  0.00000000000E+00  0.00000000000E+00  0.45593999997E+02  0.45594000000E+02  0.51100000000E-03 0.  1.
         11   -1    0    0    0    0 -0.00000000000E+00 -0.00000000000E+00 -0.45593999997E+02  0.45594000000E+02  0.51100000000E-03 0. -1.
    9900012    2    1    2    0    0 -0.10626816684E+01  0.48840714963E+00 -0.15811890395E+00  0.90007815498E+02  0.90000077862E+02 0.  0.
        -12    1    1    2    0    0  0.10626816684E+01 -0.48840714963E+00  0.15811890395E+00  0.11801845025E+01  0.00000000000E+00 0.  1.
         11    1    3    3    0    0 -0.79467061007E+00  0.69987105070E+01 -0.42196074552E+02  0.42779927045E+02  0.51100000000E-03 0. -1.
        -11    1    3    3    0    0 -0.70642691554E+01 -0.38970341617E+01  0.50234326299E+01  0.95039807242E+01  0.51100000000E-03 0.  1.
        -12    1    3    3    0    0  0.67962580971E+01 -0.26132691956E+01  0.37014523018E+02  0.37723907728E+02  0.00000000000E+00 0.  1.
</event>
<event>
 7    1  0.2232484E-015  0.9000773E+02  0.7816164E-02  0.1186339E+00
        -11   -1    0    0    0    0  0.00000000000E+00  0.00000000000E+00  0.45593999997E+02  0.45594000000E+02  0.51100000000E-03 0. -1.
         11   -1    0    0    0    0 -0.00000000000E+00 -0.00000000000E+00 -0.45593999997E+02  0.45594000000E+02  0.51100000000E-03 0.  1.
    9900012    2    1    2    0    0 -0.85734278520E+00 -0.64644548378E+00  0.49001452722E+00  0.90007727721E+02  0.89999988927E+02 0.  0.
        -12    1    1    2    0    0  0.85734278520E+00  0.64644548378E+00 -0.49001452722E+00  0.11802722786E+01  0.00000000000E+00 0.  1.
         11    1    3    3    0    0  0.85936058427E+01  0.19557723826E+02  0.32428362776E+02  0.38832374834E+02  0.51100000000E-03 0. -1.
        -11    1    3    3    0    0 -0.24106742010E+01 -0.48258878491E+01  0.69326381368E+01  0.87841912224E+01  0.51100000000E-03 0.  1.
        -12    1    3    3    0    0 -0.70402744269E+01 -0.15378281460E+02 -0.38870986386E+02  0.42391161665E+02  0.00000000000E+00 0.  1.
</event>
<event>
 7    1  0.2232484E-015  0.9000793E+02  0.7816164E-02  0.1186339E+00
        -11   -1    0    0    0    0  0.00000000000E+00  0.00000000000E+00  0.45593999997E+02  0.45594000000E+02  0.51100000000E-03 0.  1.
         11   -1    0    0    0    0 -0.00000000000E+00 -0.00000000000E+00 -0.45593999997E+02  0.45594000000E+02  0.51100000000E-03 0. -1.
    9900012    2    1    2    0    0  0.87572343600E+00  0.40251333915E+00 -0.68092642171E+00  0.90007928258E+02  0.90000192111E+02 0.  0.
        -12    1    1    2    0    0 -0.87572343600E+00 -0.40251333915E+00  0.68092642171E+00  0.11800717420E+01  0.00000000000E+00 0.  1.
         11    1    3    3    0    0  0.21590069354E+02 -0.86569422174E+01 -0.36579331336E+02  0.43348831871E+02  0.51100000000E-03 0. -1.
        -11    1    3    3    0    0 -0.23317030987E+01  0.11069075995E+02  0.13850514820E+02  0.17882898081E+02  0.51100000000E-03 0.  1.
        -12    1    3    3    0    0 -0.18382642820E+02 -0.20096204388E+01  0.22047890095E+02  0.28776198307E+02  0.00000000000E+00 0.  1.
</event>
<event>
 7    1  0.2232484E-015  0.9000783E+02  0.7816164E-02  0.1186339E+00
        -11   -1    0    0    0    0  0.00000000000E+00  0.00000000000E+00  0.45593999997E+02  0.45594000000E+02  0.51100000000E-03 0. -1.
         11   -1    0    0    0    0 -0.00000000000E+00 -0.00000000000E+00 -0.45593999997E+02  0.45594000000E+02  0.51100000000E-03 0.  1.
    9900012    2    1    2    0    0 -0.64618703068E-01 -0.10522204373E+01  0.53051676762E+00  0.90007834136E+02  0.90000096747E+02 0.  0.
        -12    1    1    2    0    0  0.64618703068E-01  0.10522204373E+01 -0.53051676762E+00  0.11801658638E+01  0.00000000000E+00 0.  1.
         11    1    3    3    0    0  0.59988286640E+01 -0.33597626598E+02  0.32381596451E+01  0.34282242291E+02  0.51100000000E-03 0. -1.
        -11    1    3    3    0    0 -0.24551044976E+01  0.10604313928E+01 -0.19621848571E+02  0.19803257167E+02  0.51100000000E-03 0.  1.
        -12    1    3    3    0    0 -0.36083428694E+01  0.31484974768E+02  0.16914205694E+02  0.35922334677E+02  0.00000000000E+00 0.  1.
</event>
<event>
 7    1  0.2232484E-015  0.9000774E+02  0.7816164E-02  0.1186339E+00
        -11   -1    0    0    0    0  0.00000000000E+00  0.00000000000E+00  0.45593999997E+02  0.45594000000E+02  0.51100000000E-03 0.  1.
         11   -1    0    0    0    0 -0.00000000000E+00 -0.00000000000E+00 -0.45593999997E+02  0.45594000000E+02  0.51100000000E-03 0. -1.
    9900012    2    1    2    0    0  0.16715117706E+00 -0.76548457364E+00  0.88267449555E+00  0.90007737142E+02  0.89999998472E+02 0.  0.
        -12    1    1    2    0    0 -0.16715117706E+00  0.76548457364E+00 -0.88267449555E+00  0.11802628578E+01  0.00000000000E+00 0.  1.
         11    1    3    3    0    0 -0.67605100977E+01  0.43602424582E+00 -0.71041123020E+01  0.98164670724E+01  0.51100000000E-03 0. -1.
        -11    1    3    3    0    0 -0.25894749681E+02 -0.27453236881E+02  0.27884296820E+01  0.37841691514E+02  0.51100000000E-03 0.  1.
         12    1    3    3    0    0  0.32822410956E+02  0.26251728061E+02  0.51983571155E+01  0.42349578556E+02  0.00000000000E+00 0. -1.
</event>
<event>
 7    1  0.2232484E-015  0.9000757E+02  0.7816164E-02  0.1186339E+00
        -11   -1    0    0    0    0  0.00000000000E+00  0.00000000000E+00  0.45593999997E+02  0.45594000000E+02  0.51100000000E-03 0.  1.
         11   -1    0    0    0    0 -0.00000000000E+00 -0.00000000000E+00 -0.45593999997E+02  0.45594000000E+02  0.51100000000E-03 0. -1.
    9900012    2    1    2    0    0  0.21589550694E+00  0.54279948922E-01 -0.11592511990E+01  0.90007567653E+02  0.89999826746E+02 0.  0.
        -12    1    1    2    0    0 -0.21589550694E+00 -0.54279948922E-01  0.11592511990E+01  0.11804323467E+01  0.00000000000E+00 0.  1.
         11    1    3    3    0    0 -0.10062085856E+02  0.56258624978E+01  0.15489540454E+01  0.11631644746E+02  0.51100000000E-03 0. -1.
        -11    1    3    3    0    0  0.13948964831E+02  0.19805673892E+02  0.28877318208E+02  0.37692676283E+02  0.51100000000E-03 0.  1.
         12    1    3    3    0    0 -0.36709834682E+01 -0.25377256441E+02 -0.31585523453E+02  0.40683246624E+02  0.00000000000E+00 0. -1.
</event>
<event>
 7    1  0.2232484E-015  0.9000830E+02  0.7816164E-02  0.1186338E+00
        -11   -1    0    0    0    0  0.00000000000E+00  0.00000000000E+00  0.45593999997E+02  0.45594000000E+02  0.51100000000E-03 0. -1.
         11   -1    0    0    0    0 -0.00000000000E+00 -0.00000000000E+00 -0.45593999997E+02  0.45594000000E+02  0.51100000000E-03 0.  1.
    9900012    2    1    2    0    0  0.74186129267E+00 -0.39501291972E+00  0.82783094478E+00  0.90008297725E+02  0.90000566453E+02 0.  0.
        -12    1    1    2    0    0 -0.74186129267E+00  0.39501291972E+00 -0.82783094478E+00  0.11797022749E+01  0.00000000000E+00 0.  1.
         11    1    3    3    0    0 -0.90132813102E+01 -0.59515293780E+01 -0.55690860936E+01  0.12152146399E+02  0.51100000000E-03 0. -1.
        -11    1    3    3    0    0  0.20442706973E+00 -0.25179019976E+02 -0.23120863163E+02  0.34184779523E+02  0.51100000000E-03 0.  1.
         12    1    3    3    0    0  0.95507155332E+01  0.30735536435E+02  0.29517780202E+02  0.43671371803E+02  0.00000000000E+00 0. -1.
</event>
<event>
 7    1  0.2232484E-015  0.9000770E+02  0.7816164E-02  0.1186339E+00
        -11   -1    0    0    0    0  0.00000000000E+00  0.00000000000E+00  0.45593999997E+02  0.45594000000E+02  0.51100000000E-03 0.  1.
         11   -1    0    0    0    0 -0.00000000000E+00 -0.00000000000E+00 -0.45593999997E+02  0.45594000000E+02  0.51100000000E-03 0. -1.
    9900012    2    1    2    0    0 -0.10606495171E+01 -0.43564561698E+00 -0.27988740891E+00  0.90007702807E+02  0.89999963684E+02 0.  0.
        -12    1    1    2    0    0  0.10606495171E+01  0.43564561698E+00  0.27988740891E+00  0.11802971928E+01  0.00000000000E+00 0.  1.
         11    1    3    3    0    0 -0.30435465661E+01 -0.72888707036E+01 -0.46737162932E+01  0.91779320156E+01  0.51100000000E-03 0. -1.
        -11    1    3    3    0    0 -0.72276790800E+00 -0.32516752515E+02  0.20235640364E+02  0.38305909841E+02  0.51100000000E-03 0.  1.
         12    1    3    3    0    0  0.27056649571E+01  0.39369977601E+02 -0.15841811480E+02  0.42523860951E+02  0.00000000000E+00 0. -1.
</event>
<event>
 7    1  0.2232484E-015  0.9000765E+02  0.7816164E-02  0.1186339E+00
        -11   -1    0    0    0    0  0.00000000000E+00  0.00000000000E+00  0.45593999997E+02  0.45594000000E+02  0.51100000000E-03 0. -1.
         11   -1    0    0    0    0 -0.00000000000E+00 -0.00000000000E+00 -0.45593999997E+02  0.45594000000E+02  0.51100000000E-03 0.  1.
    9900012    2    1    2    0    0  0.18497758255E+00 -0.65030493969E+00  0.96752754158E+00  0.90007651423E+02  0.89999911621E+02 0.  0.
        -12    1    1    2    0    0 -0.18497758255E+00  0.65030493969E+00 -0.96752754158E+00  0.11803485775E+01  0.00000000000E+00 0.  1.
         11    1    3    3    0    0 -0.80166035108E+01  0.95620853178E+01  0.33123076270E+02  0.35395445884E+02  0.51100000000E-03 0. -1.
        -11    1    3    3    0    0 -0.95926865310E+01  0.33163375058E+01  0.49510157447E+01  0.11292930820E+02  0.51100000000E-03 0.  1.
        -12    1    3    3    0    0  0.17794267624E+02 -0.13528727763E+02 -0.37106564473E+02  0.43319274719E+02  0.00000000000E+00 0.  1.
</event>
<event>
 7    1  0.2232484E-015  0.9000765E+02  0.7816164E-02  0.1186339E+00
        -11   -1    0    0    0    0  0.00000000000E+00  0.00000000000E+00  0.45593999997E+02  0.45594000000E+02  0.51100000000E-03 0.  1.
         11   -1    0    0    0    0 -0.00000000000E+00 -0.00000000000E+00 -0.45593999997E+02  0.45594000000E+02  0.51100000000E-03 0. -1.
    9900012    2    1    2    0    0  0.46279206979E+00 -0.10047154524E+01  0.41181530684E+00  0.90007651964E+02  0.89999912169E+02 0.  0.
        -12    1    1    2    0    0 -0.46279206979E+00  0.10047154524E+01 -0.41181530684E+00  0.11803480364E+01  0.00000000000E+00 0.  1.
         11    1    3    3    0    0 -0.19473175145E+02 -0.18616816562E+02 -0.26072498440E+02  0.37490873347E+02  0.51100000000E-03 0. -1.
        -11    1    3    3    0    0 -0.33253539576E+01 -0.86186991530E+01  0.12535628938E+01  0.93226270023E+01  0.51100000000E-03 0.  1.
        -12    1    3    3    0    0  0.23261321173E+02  0.26230800262E+02  0.25230750853E+02  0.43194151615E+02  0.00000000000E+00 0.  1.
</event>
<event>
 7    1  0.2232484E-015  0.9000783E+02  0.7816164E-02  0.1186339E+00
        -11   -1    0    0    0    0  0.00000000000E+00  0.00000000000E+00  0.45593999997E+02  0.45594000000E+02  0.51100000000E-03 0. -1.
         11   -1    0    0    0    0 -0.00000000000E+00 -0.00000000000E+00 -0.45593999997E+02  0.45594000000E+02  0.51100000000E-03 0.  1.
    9900012    2    1    2    0    0 -0.98479510622E+00  0.38571151830E+00  0.52364387417E+00  0.90007831502E+02  0.90000094078E+02 0.  0.
        -12    1    1    2    0    0  0.98479510622E+00 -0.38571151830E+00 -0.52364387417E+00  0.11801684979E+01  0.00000000000E+00 0.  1.
         11    1    3    3    0    0 -0.65955889023E+01 -0.35293288773E+02  0.87959960925E+01  0.36966032691E+02  0.51100000000E-03 0. -1.
        -11    1    3    3    0    0  0.13463727461E+01 -0.31624407928E+01  0.95092020732E+01  0.10111314240E+02  0.51100000000E-03 0.  1.
        -12    1    3    3    0    0  0.42644210500E+01  0.38841441085E+02 -0.17781554292E+02  0.42930484570E+02  0.00000000000E+00 0.  1.
</event>
<event>
 7    1  0.2232484E-015  0.9000804E+02  0.7816164E-02  0.1186338E+00
        -11   -1    0    0    0    0  0.00000000000E+00  0.00000000000E+00  0.45593999997E+02  0.45594000000E+02  0.51100000000E-03 0.  1.
         11   -1    0    0    0    0 -0.00000000000E+00 -0.00000000000E+00 -0.45593999997E+02  0.45594000000E+02  0.51100000000E-03 0. -1.
    9900012    2    1    2    0    0 -0.17928882021E+00  0.31553891783E-01 -0.11658340241E+01  0.90008038517E+02  0.90000303825E+02 0.  0.
        -12    1    1    2    0    0  0.17928882021E+00 -0.31553891783E-01  0.11658340241E+01  0.11799614828E+01  0.00000000000E+00 0.  1.
         11    1    3    3    0    0 -0.10657066619E+02 -0.36017833253E+02  0.11127278199E+02  0.39174911634E+02  0.51100000000E-03 0. -1.
        -11    1    3    3    0    0 -0.56251249329E+01 -0.34581813842E+01 -0.24985931904E+01  0.70600295459E+01  0.51100000000E-03 0.  1.
        -12    1    3    3    0    0  0.16102902732E+02  0.39507568529E+02 -0.97945190325E+01  0.43773097337E+02  0.00000000000E+00 0.  1.
</event>
<event>
 7    1  0.2232484E-015  0.9000772E+02  0.7816164E-02  0.1186339E+00
        -11   -1    0    0    0    0  0.00000000000E+00  0.00000000000E+00  0.45593999997E+02  0.45594000000E+02  0.51100000000E-03 0. -1.
         11   -1    0    0    0    0 -0.00000000000E+00 -0.00000000000E+00 -0.45593999997E+02  0.45594000000E+02  0.51100000000E-03 0.  1.
    9900012    2    1    2    0    0 -0.24534342335E+00  0.65403983619E+00  0.95136662600E+00  0.90007720389E+02  0.89999981498E+02 0.  0.
        -12    1    1    2    0    0  0.24534342335E+00 -0.65403983619E+00 -0.95136662600E+00  0.11802796108E+01  0.00000000000E+00 0.  1.
         11    1    3    3    0    0  0.26956033017E+01  0.81524881019E+01  0.31864055185E+01  0.91587400771E+01  0.51100000000E-03 0. -1.
        -11    1    3    3    0    0  0.34086996343E+02 -0.11752284153E+02 -0.18096790613E+02  0.40342698636E+02  0.51100000000E-03 0.  1.
         12    1    3    3    0    0 -0.37027943068E+02  0.42538358878E+01  0.15861751720E+02  0.40506281676E+02  0.00000000000E+00 0. -1.
</event>
<event>
 7    1  0.2232484E-015  0.9000770E+02  0.7816164E-02  0.1186339E+00
        -11   -1    0    0    0    0  0.00000000000E+00  0.00000000000E+00  0.45593999997E+02  0.45594000000E+02  0.51100000000E-03 0. -1.
         11   -1    0    0    0    0 -0.00000000000E+00 -0.00000000000E+00 -0.45593999997E+02  0.45594000000E+02  0.51100000000E-03 0.  1.
    9900012    2    1    2    0    0 -0.10731015654E+01 -0.30382970072E-01 -0.49055225682E+00  0.90007698508E+02  0.89999959329E+02 0.  0.
        -12    1    1    2    0    0  0.10731015654E+01  0.30382970072E-01  0.49055225682E+00  0.11803014916E+01  0.00000000000E+00 0.  1.
         11    1    3    3    0    0  0.56339740353E+01 -0.29747218054E+01 -0.54791367877E+01  0.84030692874E+01  0.51100000000E-03 0. -1.
        -11    1    3    3    0    0 -0.40338571816E+01  0.36813506817E+01 -0.38068560750E+02  0.38458284731E+02  0.51100000000E-03 0.  1.
         12    1    3    3    0    0 -0.26732184191E+01 -0.73701184643E+00  0.43057145281E+02  0.43146344490E+02  0.00000000000E+00 0. -1.
</event>
<event>
 7    1  0.2232484E-015  0.9000777E+02  0.7816164E-02  0.1186339E+00
        -11   -1    0    0    0    0  0.00000000000E+00  0.00000000000E+00  0.45593999997E+02  0.45594000000E+02  0.51100000000E-03 0.  1.
         11   -1    0    0    0    0 -0.00000000000E+00 -0.00000000000E+00 -0.45593999997E+02  0.45594000000E+02  0.51100000000E-03 0. -1.
    9900012    2    1    2    0    0 -0.30371671787E+00 -0.82382454338E+00 -0.78867723995E+00  0.90007770145E+02  0.90000031910E+02 0.  0.
        -12    1    1    2    0    0  0.30371671787E+00  0.82382454338E+00  0.78867723995E+00  0.11802298555E+01  0.00000000000E+00 0.  1.
         11    1    3    3    0    0 -0.40308758310E+02  0.25143276282E+01  0.27458354430E+01  0.40480334144E+02  0.51100000000E-03 0. -1.
        -11    1    3    3    0    0  0.65111863486E+01  0.10674258383E+02 -0.42721207224E+01  0.13213113010E+02  0.51100000000E-03 0.  1.
        -12    1    3    3    0    0  0.33493855243E+02 -0.14012410555E+02  0.73760803940E+00  0.36314322990E+02  0.00000000000E+00 0.  1.
</event>
<event>
 7    1  0.2232484E-015  0.9000778E+02  0.7816164E-02  0.1186339E+00
        -11   -1    0    0    0    0  0.00000000000E+00  0.00000000000E+00  0.45593999997E+02  0.45594000000E+02  0.51100000000E-03 0.  1.
         11   -1    0    0    0    0 -0.00000000000E+00 -0.00000000000E+00 -0.45593999997E+02  0.45594000000E+02  0.51100000000E-03 0. -1.
    9900012    2    1    2    0    0 -0.27097279149E+00  0.90177930224E+00 -0.71154483391E+00  0.90007776202E+02  0.90000038047E+02 0.  0.
        -12    1    1    2    0    0  0.27097279149E+00 -0.90177930224E+00  0.71154483391E+00  0.11802237984E+01  0.00000000000E+00 0.  1.
         11    1    3    3    0    0 -0.10976879205E+01 -0.25230974430E+02  0.25926213602E+02  0.36193584258E+02  0.51100000000E-03 0. -1.
        -11    1    3    3    0    0 -0.55614934909E+01 -0.24960055956E+01  0.69343110838E+01  0.92328177850E+01  0.51100000000E-03 0.  1.
        -12    1    3    3    0    0  0.63882086199E+01  0.28628759328E+02 -0.33572069519E+02  0.44581374158E+02  0.00000000000E+00 0.  1.
</event>
<event>
 7    1  0.2232484E-015  0.9000778E+02  0.7816164E-02  0.1186339E+00
        -11   -1    0    0    0    0  0.00000000000E+00  0.00000000000E+00  0.45593999997E+02  0.45594000000E+02  0.51100000000E-03 0.  1.
         11   -1    0    0    0    0 -0.00000000000E+00 -0.00000000000E+00 -0.45593999997E+02  0.45594000000E+02  0.51100000000E-03 0. -1.
    9900012    2    1    2    0    0 -0.52103477998E+00 -0.44457069367E+00 -0.96114457261E+00  0.90007780006E+02  0.90000041903E+02 0.  0.
        -12    1    1    2    0    0  0.52103477998E+00  0.44457069367E+00  0.96114457261E+00  0.11802199935E+01  0.00000000000E+00 0.  1.
         11    1    3    3    0    0 -0.23470606919E+02 -0.22577410330E+02 -0.19331977530E+02  0.37872604899E+02  0.51100000000E-03 0. -1.
        -11    1    3    3    0    0 -0.95948405740E+01  0.40944243264E+00  0.46552890285E+01  0.10672409519E+02  0.51100000000E-03 0.  1.
        -12    1    3    3    0    0  0.32544412713E+02  0.21723397204E+02  0.13715543929E+02  0.41462765588E+02  0.00000000000E+00 0.  1.
</event>
<event>
 7    1  0.2232484E-015  0.9000774E+02  0.7816164E-02  0.1186339E+00
        -11   -1    0    0    0    0  0.00000000000E+00  0.00000000000E+00  0.45593999997E+02  0.45594000000E+02  0.51100000000E-03 0. -1.
         11   -1    0    0    0    0 -0.00000000000E+00 -0.00000000000E+00 -0.45593999997E+02  0.45594000000E+02  0.51100000000E-03 0.  1.
    9900012    2    1    2    0    0  0.11494889967E+01 -0.95785686652E-01  0.25003643576E+00  0.90007738135E+02  0.89999999478E+02 0.  0.
        -12    1    1    2    0    0 -0.11494889967E+01  0.95785686652E-01 -0.25003643576E+00  0.11802618652E+01  0.00000000000E+00 0.  1.
         11    1    3    3    0    0 -0.26935077866E+02  0.83721592082E+01  0.27693991957E+02  0.39529086256E+02  0.51100000000E-03 0. -1.
        -11    1    3    3    0    0 -0.58131321842E+01  0.26892384398E+01 -0.63739668723E+01  0.90361475822E+01  0.51100000000E-03 0.  1.
        -12    1    3    3    0    0  0.33897699047E+02 -0.11157183335E+02 -0.21069988649E+02  0.41442504296E+02  0.00000000000E+00 0.  1.
</event>
<event>
 7    1  0.2232484E-015  0.9000773E+02  0.7816164E-02  0.1186339E+00
        -11   -1    0    0    0    0  0.00000000000E+00  0.00000000000E+00  0.45593999997E+02  0.45594000000E+02  0.51100000000E-03 0.  1.
         11   -1    0    0    0    0 -0.00000000000E+00 -0.00000000000E+00 -0.45593999997E+02  0.45594000000E+02  0.51100000000E-03 0. -1.
    9900012    2    1    2    0    0  0.97066481356E+00 -0.50478915287E+00 -0.44274836119E+00  0.90007733767E+02  0.89999995053E+02 0.  0.
        -12    1    1    2    0    0 -0.97066481356E+00  0.50478915287E+00  0.44274836119E+00  0.11802662329E+01  0.00000000000E+00 0.  1.
         11    1    3    3    0    0 -0.12777537619E+02 -0.17650466848E+02 -0.32656202045E+02  0.39258527479E+02  0.51100000000E-03 0. -1.
        -11    1    3    3    0    0 -0.56343195401E+01  0.42707074688E+01 -0.36821676154E+01  0.79713773950E+01  0.51100000000E-03 0.  1.
        -12    1    3    3    0    0  0.19382521972E+02  0.12874970226E+02  0.35895621300E+02  0.42777828893E+02  0.00000000000E+00 0.  1.
</event>
<event>
 7    1  0.2232484E-015  0.9000766E+02  0.7816164E-02  0.1186339E+00
        -11   -1    0    0    0    0  0.00000000000E+00  0.00000000000E+00  0.45593999997E+02  0.45594000000E+02  0.51100000000E-03 0. -1.
         11   -1    0    0    0    0 -0.00000000000E+00 -0.00000000000E+00 -0.45593999997E+02  0.45594000000E+02  0.51100000000E-03 0.  1.
    9900012    2    1    2    0    0 -0.39686737920E+00  0.10975108859E+01  0.17657228089E+00  0.90007656138E+02  0.89999916399E+02 0.  0.
        -12    1    1    2    0    0  0.39686737920E+00 -0.10975108859E+01 -0.17657228089E+00  0.11803438617E+01  0.00000000000E+00 0.  1.
         11    1    3    3    0    0 -0.27375496703E+01 -0.50570006474E+01 -0.67670078931E+01  0.88803057285E+01  0.51100000000E-03 0. -1.
        -11    1    3    3    0    0  0.10486042913E+02 -0.27567979082E+02 -0.21308309096E+02  0.36386736642E+02  0.51100000000E-03 0.  1.
         12    1    3    3    0    0 -0.81453606219E+01  0.33722490616E+02  0.28251889270E+02  0.44740613768E+02  0.00000000000E+00 0. -1.
</event>
<event>
 7    1  0.2232484E-015  0.9000771E+02  0.7816164E-02  0.1186339E+00
        -11   -1    0    0    0    0  0.00000000000E+00  0.00000000000E+00  0.45593999997E+02  0.45594000000E+02  0.51100000000E-03 0. -1.
         11   -1    0    0    0    0 -0.00000000000E+00 -0.00000000000E+00 -0.45593999997E+02  0.45594000000E+02  0.51100000000E-03 0.  1.
    9900012    2    1    2    0    0  0.48294281336E+00 -0.87133772442E+00 -0.63294122953E+00  0.90007712835E+02  0.89999973845E+02 0.  0.
        -12    1    1    2    0    0 -0.48294281336E+00  0.87133772442E+00  0.63294122953E+00  0.11802871646E+01  0.00000000000E+00 0.  1.
         11    1    3    3    0    0 -0.26365876475E+01 -0.85418551159E+01 -0.85053083974E+01  0.12339171546E+02  0.51100000000E-03 0. -1.
        -11    1    3    3    0    0  0.39527157075E+01  0.10576322819E+01 -0.34516842932E+02  0.34758524044E+02  0.51100000000E-03 0.  1.
         12    1    3    3    0    0 -0.83318524668E+00  0.66128851096E+01  0.42389210099E+02  0.42910017245E+02  0.00000000000E+00 0. -1.
</event>
<event>
 7    1  0.2232484E-015  0.9000781E+02  0.7816164E-02  0.1186339E+00
        -11   -1    0    0    0    0  0.00000000000E+00  0.00000000000E+00  0.45593999997E+02  0.45594000000E+02  0.51100000000E-03 0.  1.
         11   -1    0    0    0    0 -0.00000000000E+00 -0.00000000000E+00 -0.45593999997E+02  0.45594000000E+02  0.51100000000E-03 0. -1.
    9900012    2    1    2    0    0 -0.15680877277E+00  0.11685538417E+01  0.52469471205E-01  0.90007805051E+02  0.90000067278E+02 0.  0.
        -12    1    1    2    0    0  0.15680877277E+00 -0.11685538417E+01 -0.52469471205E-01  0.11801949489E+01  0.00000000000E+00 0.  1.
         11    1    3    3    0    0 -0.30751028458E+01  0.10935037552E+02  0.19713684417E+01  0.11528989443E+02  0.51100000000E-03 0. -1.
        -11    1    3    3    0    0  0.36041476495E+02  0.15281896467E+01  0.15647723146E+02  0.39321427128E+02  0.51100000000E-03 0.  1.
         12    1    3    3    0    0 -0.33123182422E+02 -0.11294673357E+02 -0.17566622116E+02  0.39157388480E+02  0.00000000000E+00 0. -1.
</event>
<event>
 7    1  0.2232484E-015  0.9000777E+02  0.7816164E-02  0.1186339E+00
        -11   -1    0    0    0    0  0.00000000000E+00  0.00000000000E+00  0.45593999997E+02  0.45594000000E+02  0.51100000000E-03 0.  1.
         11   -1    0    0    0    0 -0.00000000000E+00 -0.00000000000E+00 -0.45593999997E+02  0.45594000000E+02  0.51100000000E-03 0. -1.
    9900012    2    1    2    0    0 -0.10425670256E+01 -0.37422110280E+00  0.40738242246E+00  0.90007767872E+02  0.90000029608E+02 0.  0.
        -12    1    1    2    0    0  0.10425670256E+01  0.37422110280E+00 -0.40738242246E+00  0.11802321275E+01  0.00000000000E+00 0.  1.
         11    1    3    3    0    0 -0.35887274800E+02  0.93219977152E+01  0.13636125232E+01  0.37103309466E+02  0.51100000000E-03 0. -1.
        -11    1    3    3    0    0 -0.57935035554E+01  0.63402218234E+01  0.28550024309E+01  0.90506428146E+01  0.51100000000E-03 0.  1.
        -12    1    3    3    0    0  0.40638211330E+02 -0.16036440641E+02 -0.38112325317E+01  0.43853815592E+02  0.00000000000E+00 0.  1.
</event>
<event>
 7    1  0.2232484E-015  0.9000754E+02  0.7816164E-02  0.1186339E+00
        -11   -1    0    0    0    0  0.00000000000E+00  0.00000000000E+00  0.45593999997E+02  0.45594000000E+02  0.51100000000E-03 0.  1.
         11   -1    0    0    0    0 -0.00000000000E+00 -0.00000000000E+00 -0.45593999997E+02  0.45594000000E+02  0.51100000000E-03 0. -1.
    9900012    2    1    2    0    0  0.54843388630E-01 -0.70172742917E+00 -0.94765869927E+00  0.90007539839E+02  0.89999798564E+02 0.  0.
        -12    1    1    2    0    0 -0.54843388630E-01  0.70172742917E+00  0.94765869927E+00  0.11804601613E+01  0.00000000000E+00 0.  1.
         11    1    3    3    0    0 -0.41824025144E+02 -0.54923922260E+01  0.41903399533E+01  0.42390734846E+02  0.51100000000E-03 0. -1.
        -11    1    3    3    0    0  0.86929734799E+01 -0.79518372976E+01 -0.16867874385E+01  0.11901460266E+02  0.51100000000E-03 0.  1.
        -12    1    3    3    0    0  0.33185895053E+02  0.12742502094E+02 -0.34512112141E+01  0.35715344727E+02  0.00000000000E+00 0.  1.
</event>
<event>
 7    1  0.2232484E-015  0.9000774E+02  0.7816164E-02  0.1186339E+00
        -11   -1    0    0    0    0  0.00000000000E+00  0.00000000000E+00  0.45593999997E+02  0.45594000000E+02  0.51100000000E-03 0. -1.
         11   -1    0    0    0    0 -0.00000000000E+00 -0.00000000000E+00 -0.45593999997E+02  0.45594000000E+02  0.51100000000E-03 0.  1.
    9900012    2    1    2    0    0  0.48477880787E+00 -0.10349706248E+01  0.29467015961E+00  0.90007743592E+02  0.90000005007E+02 0.  0.
        -12    1    1    2    0    0 -0.48477880787E+00  0.10349706248E+01 -0.29467015961E+00  0.11802564084E+01  0.00000000000E+00 0.  1.
         11    1    3    3    0    0  0.52163104144E+01 -0.17711257369E+02  0.90112466084E+01  0.20545099115E+02  0.51100000000E-03 0. -1.
        -11    1    3    3    0    0  0.26030278451E+01 -0.20781856086E+02 -0.20708805453E+02  0.29453623205E+02  0.51100000000E-03 0.  1.
         12    1    3    3    0    0 -0.73345594516E+01  0.37458142830E+02  0.11992229004E+02  0.40009021272E+02  0.00000000000E+00 0. -1.
</event>
<event>
 7    1  0.2232484E-015  0.9000774E+02  0.7816164E-02  0.1186339E+00
        -11   -1    0    0    0    0  0.00000000000E+00  0.00000000000E+00  0.45593999997E+02  0.45594000000E+02  0.51100000000E-03 0. -1.
         11   -1    0    0    0    0 -0.00000000000E+00 -0.00000000000E+00 -0.45593999997E+02  0.45594000000E+02  0.51100000000E-03 0.  1.
    9900012    2    1    2    0    0  0.33187099242E-01  0.11626851891E+01  0.20017273498E+00  0.90007742674E+02  0.90000004077E+02 0.  0.
        -12    1    1    2    0    0 -0.33187099242E-01 -0.11626851891E+01 -0.20017273498E+00  0.11802573263E+01  0.00000000000E+00 0.  1.
         11    1    3    3    0    0 -0.58331956713E+01 -0.55054463746E+01 -0.54688052617E+01  0.97079319515E+01  0.51100000000E-03 0. -1.
        -11    1    3    3    0    0  0.33030758833E+02  0.16704331007E+02 -0.19584558408E+02  0.41876253793E+02  0.51100000000E-03 0.  1.
         12    1    3    3    0    0 -0.27164376063E+02 -0.10036199443E+02  0.25253536404E+02  0.38423556929E+02  0.00000000000E+00 0. -1.
</event>
<event>
 7    1  0.2232484E-015  0.9000771E+02  0.7816164E-02  0.1186339E+00
        -11   -1    0    0    0    0  0.00000000000E+00  0.00000000000E+00  0.45593999997E+02  0.45594000000E+02  0.51100000000E-03 0. -1.
         11   -1    0    0    0    0 -0.00000000000E+00 -0.00000000000E+00 -0.45593999997E+02  0.45594000000E+02  0.51100000000E-03 0.  1.
    9900012    2    1    2    0    0  0.11034895631E+01  0.24145351973E+00 -0.34219806674E+00  0.90007708284E+02  0.89999969233E+02 0.  0.
        -12    1    1    2    0    0 -0.11034895631E+01 -0.24145351973E+00  0.34219806674E+00  0.11802917160E+01  0.00000000000E+00 0.  1.
         11    1    3    3    0    0  0.65403383206E+01 -0.18311908417E+01 -0.57465846352E+01  0.88967702273E+01  0.51100000000E-03 0. -1.
        -11    1    3    3    0    0 -0.72874415302E+01  0.18101902907E+02 -0.33625298100E+02  0.38877324567E+02  0.51100000000E-03 0.  1.
         12    1    3    3    0    0  0.18505927726E+01 -0.16029258545E+02  0.39029684668E+02  0.42233613490E+02  0.00000000000E+00 0. -1.
</event>
<event>
 7    1  0.2232484E-015  0.9000772E+02  0.7816164E-02  0.1186339E+00
        -11   -1    0    0    0    0  0.00000000000E+00  0.00000000000E+00  0.45593999997E+02  0.45594000000E+02  0.51100000000E-03 0.  1.
         11   -1    0    0    0    0 -0.00000000000E+00 -0.00000000000E+00 -0.45593999997E+02  0.45594000000E+02  0.51100000000E-03 0. -1.
    9900012    2    1    2    0    0  0.24574475136E+00  0.10926705141E+01  0.37247974986E+00  0.90007720161E+02  0.89999981267E+02 0.  0.
        -12    1    1    2    0    0 -0.24574475136E+00 -0.10926705141E+01 -0.37247974986E+00  0.11802798394E+01  0.00000000000E+00 0.  1.
         11    1    3    3    0    0  0.34323690050E+02 -0.83733086719E+01 -0.20055604540E+02  0.40625795629E+02  0.51100000000E-03 0. -1.
        -11    1    3    3    0    0 -0.34837437411E+00 -0.69302253153E+01  0.60851795167E+01  0.92292360267E+01  0.51100000000E-03 0.  1.
        -12    1    3    3    0    0 -0.33729570925E+02  0.16396204501E+02  0.14342904774E+02  0.40152688505E+02  0.00000000000E+00 0.  1.
</event>
<event>
 7    1  0.2232484E-015  0.9000724E+02  0.7816164E-02  0.1186340E+00
        -11   -1    0    0    0    0  0.00000000000E+00  0.00000000000E+00  0.45593999997E+02  0.45594000000E+02  0.51100000000E-03 0.  1.
         11   -1    0    0    0    0 -0.00000000000E+00 -0.00000000000E+00 -0.45593999997E+02  0.45594000000E+02  0.51100000000E-03 0. -1.
    9900012    2    1    2    0    0  0.11369858255E+01  0.11003120155E+00  0.29892845830E+00  0.90007236749E+02  0.89999491472E+02 0.  0.
        -12    1    1    2    0    0 -0.11369858255E+01 -0.11003120155E+00 -0.29892845830E+00  0.11807632514E+01  0.00000000000E+00 0.  1.
         11    1    3    3    0    0 -0.10659542777E+02  0.22860250822E+02 -0.27753770298E+02  0.37503182344E+02  0.51100000000E-03 0. -1.
        -11    1    3    3    0    0 -0.85479142162E+01 -0.39196269783E+00 -0.30949443525E+01  0.90994039920E+01  0.51100000000E-03 0.  1.
        -12    1    3    3    0    0  0.20344442818E+02 -0.22358256923E+02  0.31147643109E+02  0.43404650413E+02  0.00000000000E+00 0.  1.
</event>
<event>
 7    1  0.2232484E-015  0.9000769E+02  0.7816164E-02  0.1186339E+00
        -11   -1    0    0    0    0  0.00000000000E+00  0.00000000000E+00  0.45593999997E+02  0.45594000000E+02  0.51100000000E-03 0.  1.
         11   -1    0    0    0    0 -0.00000000000E+00 -0.00000000000E+00 -0.45593999997E+02  0.45594000000E+02  0.51100000000E-03 0. -1.
    9900012    2    1    2    0    0 -0.33680277178E+00 -0.79735843406E+00 -0.80244855236E+00  0.90007686373E+02  0.89999947033E+02 0.  0.
        -12    1    1    2    0    0  0.33680277178E+00  0.79735843406E+00  0.80244855236E+00  0.11803136272E+01  0.00000000000E+00 0.  1.
         11    1    3    3    0    0  0.25069183393E+01 -0.14089936383E+00 -0.82206681831E+01  0.85955731530E+01  0.51100000000E-03 0. -1.
        -11    1    3    3    0    0  0.34155207443E+01 -0.17140537031E+01  0.44059550921E+02  0.44224967944E+02  0.51100000000E-03 0.  1.
         12    1    3    3    0    0 -0.62592418554E+01  0.10575946328E+01 -0.36641331290E+02  0.37187145275E+02  0.00000000000E+00 0. -1.
</event>
<event>
 7    1  0.2460435E-015  0.9000771E+02  0.7816164E-02  0.1186339E+00
        -11   -1    0    0    0    0  0.00000000000E+00  0.00000000000E+00  0.45593999997E+02  0.45594000000E+02  0.51100000000E-03 0.  1.
         11   -1    0    0    0    0 -0.00000000000E+00 -0.00000000000E+00 -0.45593999997E+02  0.45594000000E+02  0.51100000000E-03 0. -1.
    9900012    2    1    2    0    0  0.77769509877E+00  0.66805112063E+00 -0.58479131494E+00  0.90007710693E+02  0.89999971674E+02 0.  0.
        -12    1    1    2    0    0 -0.77769509877E+00 -0.66805112063E+00  0.58479131494E+00  0.11802893071E+01  0.00000000000E+00 0.  1.
         11    1    3    3    0    0  0.82435867153E+01 -0.55739878561E+01  0.64413389004E+00  0.99720093904E+01  0.51100000000E-03 0. -1.
        -11    1    3    3    0    0  0.13199416191E+01  0.19041217724E+02  0.35419380692E+02  0.40234844938E+02  0.51100000000E-03 0.  1.
         12    1    3    3    0    0 -0.87858332356E+01 -0.12799178748E+02 -0.36648305897E+02  0.39800856365E+02  0.00000000000E+00 0. -1.
</event>
<event>
 7    1  0.2232484E-015  0.9000769E+02  0.7816164E-02  0.1186339E+00
        -11   -1    0    0    0    0  0.00000000000E+00  0.00000000000E+00  0.45593999997E+02  0.45594000000E+02  0.51100000000E-03 0.  1.
         11   -1    0    0    0    0 -0.00000000000E+00 -0.00000000000E+00 -0.45593999997E+02  0.45594000000E+02  0.51100000000E-03 0. -1.
    9900012    2    1    2    0    0 -0.50236419368E+00 -0.81109803652E+00 -0.69489266216E+00  0.90007692574E+02  0.89999953316E+02 0.  0.
        -12    1    1    2    0    0  0.50236419368E+00  0.81109803652E+00  0.69489266216E+00  0.11803074260E+01  0.00000000000E+00 0.  1.
         11    1    3    3    0    0  0.59986256271E+00 -0.17222567929E+01 -0.39558759745E+02  0.39600776209E+02  0.51100000000E-03 0. -1.
        -11    1    3    3    0    0  0.13552118210E+02 -0.69244152728E+00  0.69352054525E+01  0.15239306355E+02  0.51100000000E-03 0.  1.
        -12    1    3    3    0    0 -0.14654344967E+02  0.16036002837E+01  0.31928661630E+02  0.35167610009E+02  0.00000000000E+00 0.  1.
</event>
<event>
 7    1  0.2232484E-015  0.9000768E+02  0.7816164E-02  0.1186339E+00
        -11   -1    0    0    0    0  0.00000000000E+00  0.00000000000E+00  0.45593999997E+02  0.45594000000E+02  0.51100000000E-03 0. -1.
         11   -1    0    0    0    0 -0.00000000000E+00 -0.00000000000E+00 -0.45593999997E+02  0.45594000000E+02  0.51100000000E-03 0.  1.
    9900012    2    1    2    0    0 -0.38583172129E+00 -0.84698727063E+00  0.72588111445E+00  0.90007679304E+02  0.89999939870E+02 0.  0.
        -12    1    1    2    0    0  0.38583172129E+00  0.84698727063E+00 -0.72588111445E+00  0.11803206963E+01  0.00000000000E+00 0.  1.
         11    1    3    3    0    0  0.11278199326E+01  0.38906843830E+02 -0.17981667744E+02  0.42876040509E+02  0.51100000000E-03 0. -1.
        -11    1    3    3    0    0 -0.62405332351E+01 -0.45754815561E+01  0.39972108193E+01  0.87095913293E+01  0.51100000000E-03 0.  1.
        -12    1    3    3    0    0  0.47268815812E+01 -0.35178349545E+02  0.14710338039E+02  0.38422047465E+02  0.00000000000E+00 0.  1.
</event>
<event>
 7    1  0.2232484E-015  0.9000776E+02  0.7816164E-02  0.1186339E+00
        -11   -1    0    0    0    0  0.00000000000E+00  0.00000000000E+00  0.45593999997E+02  0.45594000000E+02  0.51100000000E-03 0.  1.
         11   -1    0    0    0    0 -0.00000000000E+00 -0.00000000000E+00 -0.45593999997E+02  0.45594000000E+02  0.51100000000E-03 0. -1.
    9900012    2    1    2    0    0 -0.85009348651E+00 -0.31452198267E-01 -0.81812028881E+00  0.90007758930E+02  0.90000020548E+02 0.  0.
        -12    1    1    2    0    0  0.85009348651E+00  0.31452198267E-01  0.81812028881E+00  0.11802410701E+01  0.00000000000E+00 0.  1.
         11    1    3    3    0    0 -0.90102068989E+01  0.42527041450E+01  0.87922049150E+00  0.10002117268E+02  0.51100000000E-03 0. -1.
        -11    1    3    3    0    0 -0.24959816633E+02  0.10752820030E+02  0.23359444177E+02  0.35836841622E+02  0.51100000000E-03 0.  1.
         12    1    3    3    0    0  0.33119930045E+02 -0.15036976373E+02 -0.25056784957E+02  0.44168800040E+02  0.00000000000E+00 0. -1.
</event>
<event>
 7    1  0.2232484E-015  0.9000781E+02  0.7816164E-02  0.1186339E+00
        -11   -1    0    0    0    0  0.00000000000E+00  0.00000000000E+00  0.45593999997E+02  0.45594000000E+02  0.51100000000E-03 0.  1.
         11   -1    0    0    0    0 -0.00000000000E+00 -0.00000000000E+00 -0.45593999997E+02  0.45594000000E+02  0.51100000000E-03 0. -1.
    9900012    2    1    2    0    0  0.10700856944E+00 -0.11581383857E+01  0.20028518311E+00  0.90007809545E+02  0.90000071831E+02 0.  0.
        -12    1    1    2    0    0 -0.10700856944E+00  0.11581383857E+01 -0.20028518311E+00  0.11801904545E+01  0.00000000000E+00 0.  1.
         11    1    3    3    0    0  0.32629058917E+01  0.49944008229E+01  0.52948599722E+01  0.79765993270E+01  0.51100000000E-03 0. -1.
        -11    1    3    3    0    0 -0.23418866693E+02  0.23317248281E+02  0.19736364293E+02  0.38492355869E+02  0.51100000000E-03 0.  1.
         12    1    3    3    0    0  0.20262969371E+02 -0.29469787489E+02 -0.24830939082E+02  0.43538854350E+02  0.00000000000E+00 0. -1.
</event>
<event>
 7    1  0.2232484E-015  0.9000776E+02  0.7816164E-02  0.1186339E+00
        -11   -1    0    0    0    0  0.00000000000E+00  0.00000000000E+00  0.45593999997E+02  0.45594000000E+02  0.51100000000E-03 0.  1.
         11   -1    0    0    0    0 -0.00000000000E+00 -0.00000000000E+00 -0.45593999997E+02  0.45594000000E+02  0.51100000000E-03 0. -1.
    9900012    2    1    2    0    0  0.58729576395E+00  0.10224800785E+01 -0.50920872503E-01  0.90007756483E+02  0.90000018068E+02 0.  0.
        -12    1    1    2    0    0 -0.58729576395E+00 -0.10224800785E+01  0.50920872503E-01  0.11802435175E+01  0.00000000000E+00 0.  1.
         11    1    3    3    0    0  0.42266596141E+01  0.94641527378E+01 -0.33331965202E+01  0.10887838989E+02  0.51100000000E-03 0. -1.
        -11    1    3    3    0    0  0.21722061623E+02  0.25153875307E+02  0.13388197200E+02  0.35830283681E+02  0.51100000000E-03 0.  1.
         12    1    3    3    0    0 -0.25361425473E+02 -0.33595547967E+02 -0.10105921553E+02  0.43289633813E+02  0.00000000000E+00 0. -1.
</event>
<event>
 7    1  0.2232484E-015  0.9000780E+02  0.7816164E-02  0.1186339E+00
        -11   -1    0    0    0    0  0.00000000000E+00  0.00000000000E+00  0.45593999997E+02  0.45594000000E+02  0.51100000000E-03 0.  1.
         11   -1    0    0    0    0 -0.00000000000E+00 -0.00000000000E+00 -0.45593999997E+02  0.45594000000E+02  0.51100000000E-03 0. -1.
    9900012    2    1    2    0    0 -0.12160167902E+00  0.57947132556E+00  0.10209249021E+01  0.90007804406E+02  0.90000066624E+02 0.  0.
        -12    1    1    2    0    0  0.12160167902E+00 -0.57947132556E+00 -0.10209249021E+01  0.11801955944E+01  0.00000000000E+00 0.  1.
         11    1    3    3    0    0  0.49228380559E+01  0.58731747607E+01  0.55368544194E+01  0.94543785315E+01  0.51100000000E-03 0. -1.
        -11    1    3    3    0    0  0.10544154173E+02 -0.36076974805E+02  0.15506916857E+02  0.40659461002E+02  0.51100000000E-03 0.  1.
         12    1    3    3    0    0 -0.15588593908E+02  0.30783271370E+02 -0.20022846374E+02  0.39893964872E+02  0.00000000000E+00 0. -1.
</event>
<event>
 7    1  0.2232484E-015  0.9000769E+02  0.7816164E-02  0.1186339E+00
        -11   -1    0    0    0    0  0.00000000000E+00  0.00000000000E+00  0.45593999997E+02  0.45594000000E+02  0.51100000000E-03 0.  1.
         11   -1    0    0    0    0 -0.00000000000E+00 -0.00000000000E+00 -0.45593999997E+02  0.45594000000E+02  0.51100000000E-03 0. -1.
    9900012    2    1    2    0    0  0.32841654769E+00 -0.97433055795E+00  0.57960920869E+00  0.90007693133E+02  0.89999953883E+02 0.  0.
        -12    1    1    2    0    0 -0.32841654769E+00  0.97433055795E+00 -0.57960920869E+00  0.11803068668E+01  0.00000000000E+00 0.  1.
         11    1    3    3    0    0 -0.60124808542E+01 -0.24320688529E+02 -0.34107949367E+02  0.42320184627E+02  0.51100000000E-03 0. -1.
        -11    1    3    3    0    0  0.62419899385E+01  0.74947234848E+01  0.22752879215E+00  0.97562845448E+01  0.51100000000E-03 0.  1.
        -12    1    3    3    0    0  0.98907463435E-01  0.15851634486E+02  0.34460029784E+02  0.37931223962E+02  0.00000000000E+00 0.  1.
</event>
<event>
 7    1  0.2232484E-015  0.9000778E+02  0.7816164E-02  0.1186339E+00
        -11   -1    0    0    0    0  0.00000000000E+00  0.00000000000E+00  0.45593999997E+02  0.45594000000E+02  0.51100000000E-03 0. -1.
         11   -1    0    0    0    0 -0.00000000000E+00 -0.00000000000E+00 -0.45593999997E+02  0.45594000000E+02  0.51100000000E-03 0.  1.
    9900012    2    1    2    0    0  0.48746757441E+00  0.82155139522E+00  0.69306719611E+00  0.90007782448E+02  0.90000044377E+02 0.  0.
        -12    1    1    2    0    0 -0.48746757441E+00 -0.82155139522E+00 -0.69306719611E+00  0.11802175517E+01  0.00000000000E+00 0.  1.
         11    1    3    3    0    0 -0.43341132169E+00 -0.81210583205E+01 -0.10280451165E+01  0.81973355819E+01  0.51100000000E-03 0. -1.
        -11    1    3    3    0    0 -0.34792426511E+02 -0.97845616122E+01 -0.13679388626E+02  0.38644226761E+02  0.51100000000E-03 0.  1.
         12    1    3    3    0    0  0.35713305407E+02  0.18727171328E+02  0.15400500939E+02  0.43166220106E+02  0.00000000000E+00 0. -1.
</event>
<event>
 7    1  0.2232484E-015  0.9000768E+02  0.7816164E-02  0.1186339E+00
        -11   -1    0    0    0    0  0.00000000000E+00  0.00000000000E+00  0.45593999997E+02  0.45594000000E+02  0.51100000000E-03 0.  1.
         11   -1    0    0    0    0 -0.00000000000E+00 -0.00000000000E+00 -0.45593999997E+02  0.45594000000E+02  0.51100000000E-03 0. -1.
    9900012    2    1    2    0    0 -0.58810188429E+00 -0.97150145445E+00 -0.32166918983E+00  0.90007682259E+02  0.89999942865E+02 0.  0.
        -12    1    1    2    0    0  0.58810188429E+00  0.97150145445E+00  0.32166918983E+00  0.11803177411E+01  0.00000000000E+00 0.  1.
         11    1    3    3    0    0  0.73937564067E+01 -0.26273249648E+01  0.31136556631E+01  0.84418790635E+01  0.51100000000E-03 0. -1.
        -11    1    3    3    0    0  0.89016987058E+01  0.41312771963E+01  0.36680984115E+02  0.37971071713E+02  0.51100000000E-03 0.  1.
         12    1    3    3    0    0 -0.16883556997E+02 -0.24754536859E+01 -0.40116308968E+02  0.43594731482E+02  0.00000000000E+00 0. -1.
</event>
<event>
 7    1  0.2232484E-015  0.9000769E+02  0.7816164E-02  0.1186339E+00
        -11   -1    0    0    0    0  0.00000000000E+00  0.00000000000E+00  0.45593999997E+02  0.45594000000E+02  0.51100000000E-03 0. -1.
         11   -1    0    0    0    0 -0.00000000000E+00 -0.00000000000E+00 -0.45593999997E+02  0.45594000000E+02  0.51100000000E-03 0.  1.
    9900012    2    1    2    0    0  0.99912454013E+00 -0.73023637885E-01  0.62414023166E+00  0.90007689309E+02  0.89999950008E+02 0.  0.
        -12    1    1    2    0    0 -0.99912454013E+00  0.73023637885E-01 -0.62414023166E+00  0.11803106909E+01  0.00000000000E+00 0.  1.
         11    1    3    3    0    0  0.21971164485E+02  0.32711062638E+02 -0.17557365433E+02  0.43139387675E+02  0.51100000000E-03 0. -1.
        -11    1    3    3    0    0  0.29637746390E+01 -0.66588101156E+01  0.58683243157E+01  0.93574004297E+01  0.51100000000E-03 0.  1.
        -12    1    3    3    0    0 -0.23935814583E+02 -0.26125276161E+02  0.12313181349E+02  0.37510901205E+02  0.00000000000E+00 0.  1.
</event>
<event>
 7    1  0.2232484E-015  0.9000770E+02  0.7816164E-02  0.1186339E+00
        -11   -1    0    0    0    0  0.00000000000E+00  0.00000000000E+00  0.45593999997E+02  0.45594000000E+02  0.51100000000E-03 0. -1.
         11   -1    0    0    0    0 -0.00000000000E+00 -0.00000000000E+00 -0.45593999997E+02  0.45594000000E+02  0.51100000000E-03 0.  1.
    9900012    2    1    2    0    0 -0.82207156311E+00 -0.76455361776E+00  0.36437091414E+00  0.90007699169E+02  0.89999959998E+02 0.  0.
        -12    1    1    2    0    0  0.82207156311E+00  0.76455361776E+00 -0.36437091414E+00  0.11803008313E+01  0.00000000000E+00 0.  1.
         11    1    3    3    0    0  0.13162140193E+02  0.35498327667E+02  0.17016254713E+02  0.41508145301E+02  0.51100000000E-03 0. -1.
        -11    1    3    3    0    0  0.28780992699E+01 -0.83488966694E+01  0.42127619450E+01  0.97844210084E+01  0.51100000000E-03 0.  1.
        -12    1    3    3    0    0 -0.16862311026E+02 -0.27913984616E+02 -0.20864645744E+02  0.38715132859E+02  0.00000000000E+00 0.  1.
</event>
<event>
 7    1  0.2232484E-015  0.9000742E+02  0.7816164E-02  0.1186340E+00
        -11   -1    0    0    0    0  0.00000000000E+00  0.00000000000E+00  0.45593999997E+02  0.45594000000E+02  0.51100000000E-03 0. -1.
         11   -1    0    0    0    0 -0.00000000000E+00 -0.00000000000E+00 -0.45593999997E+02  0.45594000000E+02  0.51100000000E-03 0.  1.
    9900012    2    1    2    0    0  0.30581207498E+00  0.89176558221E+00 -0.71063356849E+00  0.90007420927E+02  0.89999678083E+02 0.  0.
        -12    1    1    2    0    0 -0.30581207498E+00 -0.89176558221E+00  0.71063356849E+00  0.11805790729E+01  0.00000000000E+00 0.  1.
         11    1    3    3    0    0  0.33533625710E+02 -0.16177791604E+02 -0.29629591900E+01  0.37349753973E+02  0.51100000000E-03 0. -1.
        -11    1    3    3    0    0  0.43290814948E-01 -0.48398760823E+01 -0.98903361104E+01  0.11011131787E+02  0.51100000000E-03 0.  1.
        -12    1    3    3    0    0 -0.33271104450E+02  0.21909433268E+02  0.12142661732E+02  0.41646535167E+02  0.00000000000E+00 0.  1.
</event>
<event>
 7    1  0.2232484E-015  0.9000773E+02  0.7816164E-02  0.1186339E+00
        -11   -1    0    0    0    0  0.00000000000E+00  0.00000000000E+00  0.45593999997E+02  0.45594000000E+02  0.51100000000E-03 0.  1.
         11   -1    0    0    0    0 -0.00000000000E+00 -0.00000000000E+00 -0.45593999997E+02  0.45594000000E+02  0.51100000000E-03 0. -1.
    9900012    2    1    2    0    0 -0.62751174704E+00 -0.99636102152E+00  0.80806583729E-01  0.90007730547E+02  0.89999991790E+02 0.  0.
        -12    1    1    2    0    0  0.62751174704E+00  0.99636102152E+00 -0.80806583729E-01  0.11802694531E+01  0.00000000000E+00 0.  1.
         11    1    3    3    0    0 -0.54983517730E+01  0.38161127510E+01  0.56917892158E+01  0.87858439257E+01  0.51100000000E-03 0. -1.
        -11    1    3    3    0    0 -0.33481965419E+02 -0.20393315315E+02  0.14336612691E+01  0.39229895523E+02  0.51100000000E-03 0.  1.
         12    1    3    3    0    0  0.38352805445E+02  0.15580841543E+02 -0.70446439011E+01  0.41991991098E+02  0.00000000000E+00 0. -1.
</event>
<event>
 7    1  0.2232484E-015  0.9000706E+02  0.7816164E-02  0.1186340E+00
        -11   -1    0    0    0    0  0.00000000000E+00  0.00000000000E+00  0.45593999997E+02  0.45594000000E+02  0.51100000000E-03 0.  1.
         11   -1    0    0    0    0 -0.00000000000E+00 -0.00000000000E+00 -0.45593999997E+02  0.45594000000E+02  0.51100000000E-03 0. -1.
    9900012    2    1    2    0    0  0.44909160750E+00 -0.10890612398E+01  0.82994718161E-01  0.90007057250E+02  0.89999309603E+02 0.  0.
        -12    1    1    2    0    0 -0.44909160750E+00  0.10890612398E+01 -0.82994718161E-01  0.11809427502E+01  0.00000000000E+00 0.  1.
         11    1    3    3    0    0  0.12270749790E+02 -0.11453855180E+02 -0.33917650367E+02  0.37844010167E+02  0.51100000000E-03 0. -1.
        -11    1    3    3    0    0  0.46678625402E+01  0.80885222938E+01 -0.43898474642E+01  0.10319103382E+02  0.51100000000E-03 0.  1.
        -12    1    3    3    0    0 -0.16489520722E+02  0.22762716467E+01  0.38390492549E+02  0.41843943700E+02  0.00000000000E+00 0.  1.
</event>
<event>
 7    1  0.3495937E-015  0.9000764E+02  0.7816164E-02  0.1186339E+00
        -11   -1    0    0    0    0  0.00000000000E+00  0.00000000000E+00  0.45593999997E+02  0.45594000000E+02  0.51100000000E-03 0.  1.
         11   -1    0    0    0    0 -0.00000000000E+00 -0.00000000000E+00 -0.45593999997E+02  0.45594000000E+02  0.51100000000E-03 0. -1.
    9900012    2    1    2    0    0  0.58162186570E+00  0.12520656443E+00 -0.10194543636E+01  0.90007640784E+02  0.89999900843E+02 0.  0.
        -12    1    1    2    0    0 -0.58162186570E+00 -0.12520656443E+00  0.10194543636E+01  0.11803592156E+01  0.00000000000E+00 0.  1.
         11    1    3    3    0    0 -0.73879752406E+01  0.52092004487E+00  0.64386619925E+01  0.98137609694E+01  0.51100000000E-03 0. -1.
        -11    1    3    3    0    0  0.23893337647E+01  0.22094573499E+02  0.29279850422E+02  0.36758519216E+02  0.51100000000E-03 0.  1.
         12    1    3    3    0    0  0.55802633416E+01 -0.22490286980E+02 -0.36737966778E+02  0.43435360599E+02  0.00000000000E+00 0. -1.
</event>
<event>
 7    1  0.2232484E-015  0.9000761E+02  0.7816164E-02  0.1186339E+00
        -11   -1    0    0    0    0  0.00000000000E+00  0.00000000000E+00  0.45593999997E+02  0.45594000000E+02  0.51100000000E-03 0. -1.
         11   -1    0    0    0    0 -0.00000000000E+00 -0.00000000000E+00 -0.45593999997E+02  0.45594000000E+02  0.51100000000E-03 0.  1.
    9900012    2    1    2    0    0 -0.30491857174E+00  0.99167699229E+00  0.56295658567E+00  0.90007610780E+02  0.89999870443E+02 0.  0.
        -12    1    1    2    0    0  0.30491857174E+00 -0.99167699229E+00 -0.56295658567E+00  0.11803892196E+01  0.00000000000E+00 0.  1.
         11    1    3    3    0    0  0.67879124984E+01  0.32557055663E+02  0.90897940519E+01  0.34476977618E+02  0.51100000000E-03 0. -1.
        -11    1    3    3    0    0  0.84174141812E+01  0.73392483579E+01  0.39234462159E+01  0.11836843263E+02  0.51100000000E-03 0.  1.
        -12    1    3    3    0    0 -0.15510245251E+02 -0.38904627029E+02 -0.12450283682E+02  0.43693789899E+02  0.00000000000E+00 0.  1.
</event>
<event>
 7    1  0.2232484E-015  0.9000774E+02  0.7816164E-02  0.1186339E+00
        -11   -1    0    0    0    0  0.00000000000E+00  0.00000000000E+00  0.45593999997E+02  0.45594000000E+02  0.51100000000E-03 0.  1.
         11   -1    0    0    0    0 -0.00000000000E+00 -0.00000000000E+00 -0.45593999997E+02  0.45594000000E+02  0.51100000000E-03 0. -1.
    9900012    2    1    2    0    0  0.67984533833E-01  0.54256007147E+00 -0.10459587572E+01  0.90007736025E+02  0.89999997341E+02 0.  0.
        -12    1    1    2    0    0 -0.67984533833E-01 -0.54256007147E+00  0.10459587572E+01  0.11802639746E+01  0.00000000000E+00 0.  1.
         11    1    3    3    0    0  0.88768987483E+00  0.11276432450E+02 -0.16823336789E+01  0.11435740858E+02  0.51100000000E-03 0. -1.
        -11    1    3    3    0    0  0.34373169325E+02 -0.16729888872E+02 -0.12967573093E+02  0.40367832532E+02  0.51100000000E-03 0.  1.
         12    1    3    3    0    0 -0.35192874666E+02  0.59960164937E+01  0.13603948014E+02  0.38204162635E+02  0.00000000000E+00 0. -1.
</event>
<event>
 7    1  0.2232484E-015  0.9000770E+02  0.7816164E-02  0.1186339E+00
        -11   -1    0    0    0    0  0.00000000000E+00  0.00000000000E+00  0.45593999997E+02  0.45594000000E+02  0.51100000000E-03 0. -1.
         11   -1    0    0    0    0 -0.00000000000E+00 -0.00000000000E+00 -0.45593999997E+02  0.45594000000E+02  0.51100000000E-03 0.  1.
    9900012    2    1    2    0    0  0.18190722979E+00 -0.11450940436E+01  0.22086527230E+00  0.90007698311E+02  0.89999959129E+02 0.  0.
        -12    1    1    2    0    0 -0.18190722979E+00  0.11450940436E+01 -0.22086527230E+00  0.11803016892E+01  0.00000000000E+00 0.  1.
         11    1    3    3    0    0  0.33669519893E+02  0.14403228543E+01  0.26343163017E+02  0.42774681037E+02  0.51100000000E-03 0. -1.
        -11    1    3    3    0    0 -0.28245611914E+00  0.19398650604E+01  0.24892718556E+01  0.31684905782E+01  0.51100000000E-03 0.  1.
        -12    1    3    3    0    0 -0.33205156544E+02 -0.45252819583E+01 -0.28611569601E+02  0.44064526696E+02  0.00000000000E+00 0.  1.
</event>
<event>
 7    1  0.2232484E-015  0.9000779E+02  0.7816164E-02  0.1186339E+00
        -11   -1    0    0    0    0  0.00000000000E+00  0.00000000000E+00  0.45593999997E+02  0.45594000000E+02  0.51100000000E-03 0.  1.
         11   -1    0    0    0    0 -0.00000000000E+00 -0.00000000000E+00 -0.45593999997E+02  0.45594000000E+02  0.51100000000E-03 0. -1.
    9900012    2    1    2    0    0 -0.34264177047E+00  0.62881703422E+00 -0.93813170133E+00  0.90007785895E+02  0.90000047868E+02 0.  0.
        -12    1    1    2    0    0  0.34264177047E+00 -0.62881703422E+00  0.93813170133E+00  0.11802141053E+01  0.00000000000E+00 0.  1.
         11    1    3    3    0    0 -0.22790886072E+02  0.21440282992E+02 -0.26573225681E+02  0.41051754482E+02  0.51100000000E-03 0. -1.
        -11    1    3    3    0    0  0.15420797857E+02 -0.42763874461E+01 -0.18608812818E+01  0.16110598236E+02  0.51100000000E-03 0.  1.
        -12    1    3    3    0    0  0.70274464444E+01 -0.16535078512E+02  0.27495975262E+02  0.32845433176E+02  0.00000000000E+00 0.  1.
</event>
<event>
 7    1  0.2232484E-015  0.9000781E+02  0.7816164E-02  0.1186339E+00
        -11   -1    0    0    0    0  0.00000000000E+00  0.00000000000E+00  0.45593999997E+02  0.45594000000E+02  0.51100000000E-03 0.  1.
         11   -1    0    0    0    0 -0.00000000000E+00 -0.00000000000E+00 -0.45593999997E+02  0.45594000000E+02  0.51100000000E-03 0. -1.
    9900012    2    1    2    0    0 -0.64932240820E+00  0.77115778795E-01 -0.98248534374E+00  0.90007811929E+02  0.90000074246E+02 0.  0.
        -12    1    1    2    0    0  0.64932240820E+00 -0.77115778795E-01  0.98248534374E+00  0.11801880714E+01  0.00000000000E+00 0.  1.
         11    1    3    3    0    0 -0.78879560340E+01  0.39760908888E+01  0.90225557769E+00  0.88793701657E+01  0.51100000000E-03 0. -1.
        -11    1    3    3    0    0 -0.30969826076E+02 -0.14887091151E+01  0.20128733607E+02  0.36966367131E+02  0.51100000000E-03 0.  1.
         12    1    3    3    0    0  0.38208459702E+02 -0.24102659949E+01 -0.22013474528E+02  0.44162074632E+02  0.00000000000E+00 0. -1.
</event>
<event>
 7    1  0.2232484E-015  0.9000758E+02  0.7816164E-02  0.1186339E+00
        -11   -1    0    0    0    0  0.00000000000E+00  0.00000000000E+00  0.45593999997E+02  0.45594000000E+02  0.51100000000E-03 0.  1.
         11   -1    0    0    0    0 -0.00000000000E+00 -0.00000000000E+00 -0.45593999997E+02  0.45594000000E+02  0.51100000000E-03 0. -1.
    9900012    2    1    2    0    0  0.75397906877E+00 -0.83746762199E+00  0.35151744132E+00  0.90007575938E+02  0.89999835140E+02 0.  0.
        -12    1    1    2    0    0 -0.75397906877E+00  0.83746762199E+00 -0.35151744132E+00  0.11804240618E+01  0.00000000000E+00 0.  1.
         11    1    3    3    0    0 -0.19303160469E+02 -0.48843219962E+01 -0.34806186005E+02  0.40099117072E+02  0.51100000000E-03 0. -1.
        -11    1    3    3    0    0  0.11717946601E+02  0.40977422230E+01 -0.13254493694E+01  0.12484333388E+02  0.51100000000E-03 0.  1.
        -12    1    3    3    0    0  0.83391929374E+01 -0.50887848785E-01  0.36483152816E+02  0.37424125478E+02  0.00000000000E+00 0.  1.
</event>
<event>
 7    1  0.2232484E-015  0.9000773E+02  0.7816164E-02  0.1186339E+00
        -11   -1    0    0    0    0  0.00000000000E+00  0.00000000000E+00  0.45593999997E+02  0.45594000000E+02  0.51100000000E-03 0.  1.
         11   -1    0    0    0    0 -0.00000000000E+00 -0.00000000000E+00 -0.45593999997E+02  0.45594000000E+02  0.51100000000E-03 0. -1.
    9900012    2    1    2    0    0  0.29293567686E+00  0.10147367099E+01 -0.52680970832E+00  0.90007732924E+02  0.89999994199E+02 0.  0.
        -12    1    1    2    0    0 -0.29293567686E+00 -0.10147367099E+01  0.52680970832E+00  0.11802670757E+01  0.00000000000E+00 0.  1.
         11    1    3    3    0    0  0.15226317742E+01  0.75874919170E+01  0.42461421588E+01  0.88271266335E+01  0.51100000000E-03 0. -1.
        -11    1    3    3    0    0 -0.19503453985E+02  0.13978432548E+02  0.28991658983E+02  0.37633729349E+02  0.51100000000E-03 0.  1.
         12    1    3    3    0    0  0.18273757888E+02 -0.20551187755E+02 -0.33764610850E+02  0.43546876942E+02  0.00000000000E+00 0. -1.
</event>
<event>
 7    1  0.2232484E-015  0.9000761E+02  0.7816164E-02  0.1186339E+00
        -11   -1    0    0    0    0  0.00000000000E+00  0.00000000000E+00  0.45593999997E+02  0.45594000000E+02  0.51100000000E-03 0. -1.
         11   -1    0    0    0    0 -0.00000000000E+00 -0.00000000000E+00 -0.45593999997E+02  0.45594000000E+02  0.51100000000E-03 0.  1.
    9900012    2    1    2    0    0 -0.40155858411E+00 -0.66991132756E+00  0.88504335168E+00  0.90007605059E+02  0.89999864645E+02 0.  0.
        -12    1    1    2    0    0  0.40155858411E+00  0.66991132756E+00 -0.88504335168E+00  0.11803949414E+01  0.00000000000E+00 0.  1.
         11    1    3    3    0    0 -0.68376921873E+01 -0.75916063788E+01 -0.14927428347E+01  0.10325444460E+02  0.51100000000E-03 0. -1.
        -11    1    3    3    0    0  0.69806726763E+01 -0.22937993099E+02 -0.28149059329E+02  0.36976355415E+02  0.51100000000E-03 0.  1.
         12    1    3    3    0    0 -0.54453907309E+00  0.29859688151E+02  0.30526845515E+02  0.42705805183E+02  0.00000000000E+00 0. -1.
</event>
<event>
 7    1  0.2232484E-015  0.9000780E+02  0.7816164E-02  0.1186339E+00
        -11   -1    0    0    0    0  0.00000000000E+00  0.00000000000E+00  0.45593999997E+02  0.45594000000E+02  0.51100000000E-03 0. -1.
         11   -1    0    0    0    0 -0.00000000000E+00 -0.00000000000E+00 -0.45593999997E+02  0.45594000000E+02  0.51100000000E-03 0.  1.
    9900012    2    1    2    0    0 -0.97812090504E+00  0.45778204097E+00  0.47600346360E+00  0.90007803322E+02  0.90000065526E+02 0.  0.
        -12    1    1    2    0    0  0.97812090504E+00 -0.45778204097E+00 -0.47600346360E+00  0.11801966782E+01  0.00000000000E+00 0.  1.
         11    1    3    3    0    0 -0.74083512507E+01  0.50735071910E+01  0.35915446999E+01  0.96707464585E+01  0.51100000000E-03 0. -1.
        -11    1    3    3    0    0  0.42909911844E+02 -0.11920323777E+01 -0.69934966431E+01  0.43492418549E+02  0.51100000000E-03 0.  1.
         12    1    3    3    0    0 -0.36479681498E+02 -0.34236927723E+01  0.38779554068E+01  0.36844638315E+02  0.00000000000E+00 0. -1.
</event>
<event>
 7    1  0.2232484E-015  0.9000773E+02  0.7816164E-02  0.1186339E+00
        -11   -1    0    0    0    0  0.00000000000E+00  0.00000000000E+00  0.45593999997E+02  0.45594000000E+02  0.51100000000E-03 0. -1.
         11   -1    0    0    0    0 -0.00000000000E+00 -0.00000000000E+00 -0.45593999997E+02  0.45594000000E+02  0.51100000000E-03 0.  1.
    9900012    2    1    2    0    0  0.95187940567E-02 -0.87445450591E+00  0.79263700609E+00  0.90007731084E+02  0.89999992334E+02 0.  0.
        -12    1    1    2    0    0 -0.95187940567E-02  0.87445450591E+00 -0.79263700609E+00  0.11802689159E+01  0.00000000000E+00 0.  1.
         11    1    3    3    0    0 -0.13859429414E+02  0.35082078956E+01  0.35934756249E+02  0.38674255174E+02  0.51100000000E-03 0. -1.
        -11    1    3    3    0    0  0.86273827730E+00 -0.81457318580E+01  0.45677516508E+01  0.93787856486E+01  0.51100000000E-03 0.  1.
        -12    1    3    3    0    0  0.13006209930E+02  0.37630694565E+01 -0.39709870894E+02  0.41954690261E+02  0.00000000000E+00 0.  1.
</event>
<event>
 7    1  0.2232484E-015  0.9000760E+02  0.7816164E-02  0.1186339E+00
        -11   -1    0    0    0    0  0.00000000000E+00  0.00000000000E+00  0.45593999997E+02  0.45594000000E+02  0.51100000000E-03 0.  1.
         11   -1    0    0    0    0 -0.00000000000E+00 -0.00000000000E+00 -0.45593999997E+02  0.45594000000E+02  0.51100000000E-03 0. -1.
    9900012    2    1    2    0    0  0.21060089819E+00 -0.37350417528E+00 -0.10997676778E+01  0.90007598775E+02  0.89999858278E+02 0.  0.
        -12    1    1    2    0    0 -0.21060089819E+00  0.37350417528E+00  0.10997676778E+01  0.11804012252E+01  0.00000000000E+00 0.  1.
         11    1    3    3    0    0 -0.66399868304E+01 -0.42198770111E+01  0.66364204181E+01  0.10292660653E+02  0.51100000000E-03 0. -1.
        -11    1    3    3    0    0 -0.13224297369E+02  0.27566680399E+02  0.21238557096E+02  0.37227412170E+02  0.51100000000E-03 0.  1.
         12    1    3    3    0    0  0.20074885098E+02 -0.23720307563E+02 -0.28974745192E+02  0.42487525952E+02  0.00000000000E+00 0. -1.
</event>
<event>
 7    1  0.2232484E-015  0.9000772E+02  0.7816164E-02  0.1186339E+00
        -11   -1    0    0    0    0  0.00000000000E+00  0.00000000000E+00  0.45593999997E+02  0.45594000000E+02  0.51100000000E-03 0.  1.
         11   -1    0    0    0    0 -0.00000000000E+00 -0.00000000000E+00 -0.45593999997E+02  0.45594000000E+02  0.51100000000E-03 0. -1.
    9900012    2    1    2    0    0  0.50508149816E+00 -0.40781573511E+00 -0.98571255811E+00  0.90007724506E+02  0.89999985670E+02 0.  0.
        -12    1    1    2    0    0 -0.50508149816E+00  0.40781573511E+00  0.98571255811E+00  0.11802754936E+01  0.00000000000E+00 0.  1.
         11    1    3    3    0    0  0.11071674110E+02 -0.12737160974E+02 -0.31749067459E+02  0.35955813467E+02  0.51100000000E-03 0. -1.
        -11    1    3    3    0    0  0.26905054618E+01  0.27608436216E+01 -0.96850995994E+01  0.10424117788E+02  0.51100000000E-03 0.  1.
        -12    1    3    3    0    0 -0.13257098073E+02  0.95685016174E+01  0.40448454501E+02  0.43627793252E+02  0.00000000000E+00 0.  1.
</event>
<event>
 7    1  0.2232484E-015  0.9000904E+02  0.7816164E-02  0.1186336E+00
        -11   -1    0    0    0    0  0.00000000000E+00  0.00000000000E+00  0.45593999997E+02  0.45594000000E+02  0.51100000000E-03 0.  1.
         11   -1    0    0    0    0 -0.00000000000E+00 -0.00000000000E+00 -0.45593999997E+02  0.45594000000E+02  0.51100000000E-03 0. -1.
    9900012    2    1    2    0    0 -0.87629062947E+00  0.43858863485E-01 -0.78749495400E+00  0.90009035552E+02  0.90001314012E+02 0.  0.
        -12    1    1    2    0    0  0.87629062947E+00 -0.43858863485E-01  0.78749495400E+00  0.11789644481E+01  0.00000000000E+00 0.  1.
         11    1    3    3    0    0 -0.86611863743E+00 -0.66105908512E+01  0.63784330932E+01  0.92268348788E+01  0.51100000000E-03 0. -1.
        -11    1    3    3    0    0 -0.33939407411E+02  0.20294625129E+02 -0.16801523961E+02  0.42965641997E+02  0.51100000000E-03 0.  1.
         12    1    3    3    0    0  0.33929235419E+02 -0.13640175415E+02  0.96355959136E+01  0.37816558676E+02  0.00000000000E+00 0. -1.
</event>
<event>
 7    1  0.2232484E-015  0.9000783E+02  0.7816164E-02  0.1186339E+00
        -11   -1    0    0    0    0  0.00000000000E+00  0.00000000000E+00  0.45593999997E+02  0.45594000000E+02  0.51100000000E-03 0.  1.
         11   -1    0    0    0    0 -0.00000000000E+00 -0.00000000000E+00 -0.45593999997E+02  0.45594000000E+02  0.51100000000E-03 0. -1.
    9900012    2    1    2    0    0  0.30603457503E+00 -0.10647547647E+01  0.40674355497E+00  0.90007830440E+02  0.90000093002E+02 0.  0.
        -12    1    1    2    0    0 -0.30603457503E+00  0.10647547647E+01 -0.40674355497E+00  0.11801695597E+01  0.00000000000E+00 0.  1.
         11    1    3    3    0    0  0.11817339348E+02  0.70447799169E+01 -0.11230546211E+02  0.17759605903E+02  0.51100000000E-03 0. -1.
        -11    1    3    3    0    0  0.26286757195E+02  0.99109953477E+00 -0.95332940072E+01  0.27979627892E+02  0.51100000000E-03 0.  1.
         12    1    3    3    0    0 -0.37798061968E+02 -0.91006342163E+01  0.21170583773E+02  0.44268596646E+02  0.00000000000E+00 0. -1.
</event>
<event>
 7    1  0.2232484E-015  0.9000777E+02  0.7816164E-02  0.1186339E+00
        -11   -1    0    0    0    0  0.00000000000E+00  0.00000000000E+00  0.45593999997E+02  0.45594000000E+02  0.51100000000E-03 0. -1.
         11   -1    0    0    0    0 -0.00000000000E+00 -0.00000000000E+00 -0.45593999997E+02  0.45594000000E+02  0.51100000000E-03 0.  1.
    9900012    2    1    2    0    0 -0.65065536354E+00  0.81610043563E+00  0.55097474041E+00  0.90007768884E+02  0.90000030633E+02 0.  0.
        -12    1    1    2    0    0  0.65065536354E+00 -0.81610043563E+00 -0.55097474041E+00  0.11802311162E+01  0.00000000000E+00 0.  1.
         11    1    3    3    0    0  0.17688259466E+01 -0.10125486515E+01 -0.76944041534E+00  0.21785405241E+01  0.51100000000E-03 0. -1.
        -11    1    3    3    0    0 -0.15756015688E+02 -0.25127658738E+02 -0.31532496725E+02  0.43289139677E+02  0.51100000000E-03 0.  1.
         12    1    3    3    0    0  0.13336534377E+02  0.26956307826E+02  0.32852911881E+02  0.44540088682E+02  0.00000000000E+00 0. -1.
</event>
<event>
 7    1  0.2232484E-015  0.9000775E+02  0.7816164E-02  0.1186339E+00
        -11   -1    0    0    0    0  0.00000000000E+00  0.00000000000E+00  0.45593999997E+02  0.45594000000E+02  0.51100000000E-03 0.  1.
         11   -1    0    0    0    0 -0.00000000000E+00 -0.00000000000E+00 -0.45593999997E+02  0.45594000000E+02  0.51100000000E-03 0. -1.
    9900012    2    1    2    0    0  0.10806222372E+01 -0.32245351995E+00 -0.34822146264E+00  0.90007754738E+02  0.90000016300E+02 0.  0.
        -12    1    1    2    0    0 -0.10806222372E+01  0.32245351995E+00  0.34822146264E+00  0.11802452623E+01  0.00000000000E+00 0.  1.
         11    1    3    3    0    0 -0.14610273682E+02  0.25174430551E+02 -0.23910949024E+02  0.37668893455E+02  0.51100000000E-03 0. -1.
        -11    1    3    3    0    0  0.54866882399E+01 -0.16238740732E+01 -0.90172632363E+01  0.10679501458E+02  0.51100000000E-03 0.  1.
        -12    1    3    3    0    0  0.10204207679E+02 -0.23873009998E+02  0.32579990798E+02  0.41659359826E+02  0.00000000000E+00 0.  1.
</event>
<event>
 7    1  0.2232484E-015  0.9000772E+02  0.7816164E-02  0.1186339E+00
        -11   -1    0    0    0    0  0.00000000000E+00  0.00000000000E+00  0.45593999997E+02  0.45594000000E+02  0.51100000000E-03 0. -1.
         11   -1    0    0    0    0 -0.00000000000E+00 -0.00000000000E+00 -0.45593999997E+02  0.45594000000E+02  0.51100000000E-03 0.  1.
    9900012    2    1    2    0    0  0.76710442220E+00 -0.22811940415E+00  0.86751157297E+00  0.90007718683E+02  0.89999979770E+02 0.  0.
        -12    1    1    2    0    0 -0.76710442220E+00  0.22811940415E+00 -0.86751157297E+00  0.11802813166E+01  0.00000000000E+00 0.  1.
         11    1    3    3    0    0 -0.46149867534E+01 -0.18764391369E+02  0.17219837363E+01  0.19400147278E+02  0.51100000000E-03 0. -1.
        -11    1    3    3    0    0 -0.17272055867E+02 -0.19015158404E+02  0.55654459923E+01  0.26284488817E+02  0.51100000000E-03 0.  1.
        -12    1    3    3    0    0  0.22654147043E+02  0.37551430369E+02 -0.64199181556E+01  0.44323082588E+02  0.00000000000E+00 0.  1.
</event>
<event>
 7    1  0.2232484E-015  0.9000774E+02  0.7816164E-02  0.1186339E+00
        -11   -1    0    0    0    0  0.00000000000E+00  0.00000000000E+00  0.45593999997E+02  0.45594000000E+02  0.51100000000E-03 0. -1.
         11   -1    0    0    0    0 -0.00000000000E+00 -0.00000000000E+00 -0.45593999997E+02  0.45594000000E+02  0.51100000000E-03 0.  1.
    9900012    2    1    2    0    0  0.10682920076E+01  0.43279118313E+00 -0.25388551428E+00  0.90007739912E+02  0.90000001279E+02 0.  0.
        -12    1    1    2    0    0 -0.10682920076E+01 -0.43279118313E+00  0.25388551428E+00  0.11802600883E+01  0.00000000000E+00 0.  1.
         11    1    3    3    0    0  0.44840463301E+01 -0.28020277755E+01 -0.89321328385E+01  0.10379837593E+02  0.51100000000E-03 0. -1.
        -11    1    3    3    0    0  0.62948452891E+01  0.75553078521E+01 -0.34130762715E+02  0.35519244329E+02  0.51100000000E-03 0.  1.
         12    1    3    3    0    0 -0.97105996116E+01 -0.43204888935E+01  0.42809010039E+02  0.44108657990E+02  0.00000000000E+00 0. -1.
</event>
<event>
 7    1  0.2232484E-015  0.9000769E+02  0.7816164E-02  0.1186339E+00
        -11   -1    0    0    0    0  0.00000000000E+00  0.00000000000E+00  0.45593999997E+02  0.45594000000E+02  0.51100000000E-03 0.  1.
         11   -1    0    0    0    0 -0.00000000000E+00 -0.00000000000E+00 -0.45593999997E+02  0.45594000000E+02  0.51100000000E-03 0. -1.
    9900012    2    1    2    0    0 -0.13857789220E+00 -0.57077005631E+00 -0.10237904584E+01  0.90007691061E+02  0.89999951783E+02 0.  0.
        -12    1    1    2    0    0  0.13857789220E+00  0.57077005631E+00  0.10237904584E+01  0.11803089393E+01  0.00000000000E+00 0.  1.
         11    1    3    3    0    0 -0.23939917902E+01  0.54982162937E+01  0.68331530811E+01  0.90914003539E+01  0.51100000000E-03 0. -1.
        -11    1    3    3    0    0 -0.36703733183E+02 -0.11293050414E+02  0.67340423339E+01  0.38987746070E+02  0.51100000000E-03 0.  1.
         12    1    3    3    0    0  0.38959147081E+02  0.52240640643E+01 -0.14590985873E+02  0.41928544637E+02  0.00000000000E+00 0. -1.
</event>
<event>
 7    1  0.2232484E-015  0.9000774E+02  0.7816164E-02  0.1186339E+00
        -11   -1    0    0    0    0  0.00000000000E+00  0.00000000000E+00  0.45593999997E+02  0.45594000000E+02  0.51100000000E-03 0.  1.
         11   -1    0    0    0    0 -0.00000000000E+00 -0.00000000000E+00 -0.45593999997E+02  0.45594000000E+02  0.51100000000E-03 0. -1.
    9900012    2    1    2    0    0 -0.54652387994E-01 -0.12557794421E+00 -0.11722863525E+01  0.90007740708E+02  0.90000002086E+02 0.  0.
        -12    1    1    2    0    0  0.54652387994E-01  0.12557794421E+00  0.11722863525E+01  0.11802592918E+01  0.00000000000E+00 0.  1.
         11    1    3    3    0    0  0.73575724766E+00 -0.84363835781E+01  0.78221893186E+01  0.11528250197E+02  0.51100000000E-03 0. -1.
        -11    1    3    3    0    0 -0.33836734331E+02  0.14146562123E+02  0.12362137252E+02  0.38702354551E+02  0.51100000000E-03 0.  1.
         12    1    3    3    0    0  0.33046324695E+02 -0.58357564890E+01 -0.21356612924E+02  0.39777135961E+02  0.00000000000E+00 0. -1.
</event>
<event>
 7    1  0.2274889E-015  0.9000775E+02  0.7816164E-02  0.1186339E+00
        -11   -1    0    0    0    0  0.00000000000E+00  0.00000000000E+00  0.45593999997E+02  0.45594000000E+02  0.51100000000E-03 0.  1.
         11   -1    0    0    0    0 -0.00000000000E+00 -0.00000000000E+00 -0.45593999997E+02  0.45594000000E+02  0.51100000000E-03 0. -1.
    9900012    2    1    2    0    0 -0.74579191099E+00  0.27018723034E+00 -0.87394275088E+00  0.90007753142E+02  0.90000014683E+02 0.  0.
        -12    1    1    2    0    0  0.74579191099E+00 -0.27018723034E+00  0.87394275088E+00  0.11802468580E+01  0.00000000000E+00 0.  1.
         11    1    3    3    0    0 -0.66077769459E+01 -0.62066693710E+01 -0.13445555532E+01  0.91647853627E+01  0.51100000000E-03 0. -1.
        -11    1    3    3    0    0  0.20292195057E+02 -0.22493721353E+02  0.25762464794E+02  0.39767389568E+02  0.51100000000E-03 0.  1.
         12    1    3    3    0    0 -0.14430210022E+02  0.28970577954E+02 -0.25291851991E+02  0.41075578212E+02  0.00000000000E+00 0. -1.
</event>
<event>
 7    1  0.2232484E-015  0.9000775E+02  0.7816164E-02  0.1186339E+00
        -11   -1    0    0    0    0  0.00000000000E+00  0.00000000000E+00  0.45593999997E+02  0.45594000000E+02  0.51100000000E-03 0.  1.
         11   -1    0    0    0    0 -0.00000000000E+00 -0.00000000000E+00 -0.45593999997E+02  0.45594000000E+02  0.51100000000E-03 0. -1.
    9900012    2    1    2    0    0 -0.44670494054E+00  0.18152551513E+00 -0.10772659817E+01  0.90007746293E+02  0.90000007745E+02 0.  0.
        -12    1    1    2    0    0  0.44670494054E+00 -0.18152551513E+00  0.10772659817E+01  0.11802537066E+01  0.00000000000E+00 0.  1.
         11    1    3    3    0    0 -0.26620043763E+01  0.25833670416E+02 -0.28986803253E+02  0.38919141275E+02  0.51100000000E-03 0. -1.
        -11    1    3    3    0    0 -0.71966027395E+01  0.17658056687E+01 -0.36295377838E+01  0.82512244810E+01  0.51100000000E-03 0.  1.
        -12    1    3    3    0    0  0.94119021753E+01 -0.27417950569E+02  0.31539075056E+02  0.42837380538E+02  0.00000000000E+00 0.  1.
</event>
<event>
 7    1  0.2232484E-015  0.9000781E+02  0.7816164E-02  0.1186339E+00
        -11   -1    0    0    0    0  0.00000000000E+00  0.00000000000E+00  0.45593999997E+02  0.45594000000E+02  0.51100000000E-03 0. -1.
         11   -1    0    0    0    0 -0.00000000000E+00 -0.00000000000E+00 -0.45593999997E+02  0.45594000000E+02  0.51100000000E-03 0.  1.
    9900012    2    1    2    0    0 -0.73147629078E+00 -0.92598243177E+00 -0.18875819601E-01  0.90007806234E+02  0.90000068477E+02 0.  0.
        -12    1    1    2    0    0  0.73147629078E+00  0.92598243177E+00  0.18875819601E-01  0.11801937657E+01  0.00000000000E+00 0.  1.
         11    1    3    3    0    0 -0.84692287004E+01 -0.79352210155E+01  0.85770151326E+01  0.14431242365E+02  0.51100000000E-03 0. -1.
        -11    1    3    3    0    0 -0.26297488917E+02 -0.88293686224E+01 -0.22321750405E+02  0.35605845236E+02  0.51100000000E-03 0.  1.
         12    1    3    3    0    0  0.34035241326E+02  0.15838607206E+02  0.13725859453E+02  0.39970718633E+02  0.00000000000E+00 0. -1.
</event>
<event>
 7    1  0.2232484E-015  0.9000746E+02  0.7816164E-02  0.1186340E+00
        -11   -1    0    0    0    0  0.00000000000E+00  0.00000000000E+00  0.45593999997E+02  0.45594000000E+02  0.51100000000E-03 0. -1.
         11   -1    0    0    0    0 -0.00000000000E+00 -0.00000000000E+00 -0.45593999997E+02  0.45594000000E+02  0.51100000000E-03 0.  1.
    9900012    2    1    2    0    0 -0.97093244764E+00 -0.66500372435E+00  0.93485403078E-01  0.90007458052E+02  0.89999715697E+02 0.  0.
        -12    1    1    2    0    0  0.97093244764E+00  0.66500372435E+00 -0.93485403078E-01  0.11805419484E+01  0.00000000000E+00 0.  1.
         11    1    3    3    0    0 -0.22186313490E+02  0.10633943091E+02  0.19100573127E+02  0.31147153095E+02  0.51100000000E-03 0. -1.
        -11    1    3    3    0    0 -0.34069863551E+01  0.11487909362E+02  0.91380701670E+01  0.15069304701E+02  0.51100000000E-03 0.  1.
        -12    1    3    3    0    0  0.24622367397E+02 -0.22786856177E+02 -0.28145157891E+02  0.43791000255E+02  0.00000000000E+00 0.  1.
</event>
<event>
 7    1  0.2232484E-015  0.9000772E+02  0.7816164E-02  0.1186339E+00
        -11   -1    0    0    0    0  0.00000000000E+00  0.00000000000E+00  0.45593999997E+02  0.45594000000E+02  0.51100000000E-03 0.  1.
         11   -1    0    0    0    0 -0.00000000000E+00 -0.00000000000E+00 -0.45593999997E+02  0.45594000000E+02  0.51100000000E-03 0. -1.
    9900012    2    1    2    0    0 -0.35663750111E+00  0.11031907875E+01 -0.22099881910E+00  0.90007720076E+02  0.89999981181E+02 0.  0.
        -12    1    1    2    0    0  0.35663750111E+00 -0.11031907875E+01  0.22099881910E+00  0.11802799239E+01  0.00000000000E+00 0.  1.
         11    1    3    3    0    0 -0.14724317648E+02  0.11352331350E+02 -0.24263202612E+02  0.30567694688E+02  0.51100000000E-03 0. -1.
        -11    1    3    3    0    0  0.31490429851E+01  0.19264555431E+02  0.19410212481E+02  0.27528093223E+02  0.51100000000E-03 0.  1.
        -12    1    3    3    0    0  0.11218637162E+02 -0.29513695994E+02  0.46319913120E+01  0.31911932165E+02  0.00000000000E+00 0.  1.
</event>
<event>
 7    1  0.2232484E-015  0.9000763E+02  0.7816164E-02  0.1186339E+00
        -11   -1    0    0    0    0  0.00000000000E+00  0.00000000000E+00  0.45593999997E+02  0.45594000000E+02  0.51100000000E-03 0. -1.
         11   -1    0    0    0    0 -0.00000000000E+00 -0.00000000000E+00 -0.45593999997E+02  0.45594000000E+02  0.51100000000E-03 0.  1.
    9900012    2    1    2    0    0 -0.10824984483E+01 -0.44682257443E-01  0.46847288602E+00  0.90007633006E+02  0.89999892962E+02 0.  0.
        -12    1    1    2    0    0  0.10824984483E+01  0.44682257443E-01 -0.46847288602E+00  0.11803669937E+01  0.00000000000E+00 0.  1.
         11    1    3    3    0    0 -0.60310696551E+01 -0.35899573511E+01  0.57029929731E+01  0.90435459903E+01  0.51100000000E-03 0. -1.
        -11    1    3    3    0    0 -0.23895072225E+02 -0.24549499999E+02 -0.18031810023E+02  0.38714320346E+02  0.51100000000E-03 0.  1.
         12    1    3    3    0    0  0.28843643432E+02  0.28094775093E+02  0.12797289936E+02  0.42249766670E+02  0.00000000000E+00 0. -1.
</event>
<event>
 7    1  0.2232484E-015  0.9000778E+02  0.7816164E-02  0.1186339E+00
        -11   -1    0    0    0    0  0.00000000000E+00  0.00000000000E+00  0.45593999997E+02  0.45594000000E+02  0.51100000000E-03 0. -1.
         11   -1    0    0    0    0 -0.00000000000E+00 -0.00000000000E+00 -0.45593999997E+02  0.45594000000E+02  0.51100000000E-03 0.  1.
    9900012    2    1    2    0    0 -0.48345582157E+00 -0.10752492771E+01  0.55001092980E-01  0.90007781520E+02  0.90000043436E+02 0.  0.
        -12    1    1    2    0    0  0.48345582157E+00  0.10752492771E+01 -0.55001092980E-01  0.11802184796E+01  0.00000000000E+00 0.  1.
         11    1    3    3    0    0 -0.86810766995E+00 -0.13091720598E+02  0.35934083208E+02  0.38254478110E+02  0.51100000000E-03 0. -1.
        -11    1    3    3    0    0 -0.56329445104E+01 -0.87868638431E+01 -0.72302244005E+00  0.10462399427E+02  0.51100000000E-03 0.  1.
        -12    1    3    3    0    0  0.60175963588E+01  0.20803335164E+02 -0.35156059675E+02  0.41290903984E+02  0.00000000000E+00 0.  1.
</event>
<event>
 7    1  0.2232484E-015  0.9000776E+02  0.7816164E-02  0.1186339E+00
        -11   -1    0    0    0    0  0.00000000000E+00  0.00000000000E+00  0.45593999997E+02  0.45594000000E+02  0.51100000000E-03 0. -1.
         11   -1    0    0    0    0 -0.00000000000E+00 -0.00000000000E+00 -0.45593999997E+02  0.45594000000E+02  0.51100000000E-03 0.  1.
    9900012    2    1    2    0    0  0.11425614539E+01  0.29202344749E+00 -0.47333944461E-01  0.90007760672E+02  0.90000022313E+02 0.  0.
        -12    1    1    2    0    0 -0.11425614539E+01 -0.29202344749E+00  0.47333944461E-01  0.11802393283E+01  0.00000000000E+00 0.  1.
         11    1    3    3    0    0  0.74946071802E+01 -0.13687629151E+01  0.57049200676E+01  0.95178128760E+01  0.51100000000E-03 0. -1.
        -11    1    3    3    0    0  0.13539709569E+02 -0.35496010906E+02 -0.29493483848E+00  0.37991808489E+02  0.51100000000E-03 0.  1.
         12    1    3    3    0    0 -0.19891755295E+02  0.37156797268E+02 -0.54573191736E+01  0.42498139307E+02  0.00000000000E+00 0. -1.
</event>
<event>
 7    1  0.2232484E-015  0.9000766E+02  0.7816164E-02  0.1186339E+00
        -11   -1    0    0    0    0  0.00000000000E+00  0.00000000000E+00  0.45593999997E+02  0.45594000000E+02  0.51100000000E-03 0. -1.
         11   -1    0    0    0    0 -0.00000000000E+00 -0.00000000000E+00 -0.45593999997E+02  0.45594000000E+02  0.51100000000E-03 0.  1.
    9900012    2    1    2    0    0 -0.11254956634E+01  0.32444567413E+00 -0.14556406313E+00  0.90007663446E+02  0.89999923804E+02 0.  0.
        -12    1    1    2    0    0  0.11254956634E+01 -0.32444567413E+00  0.14556406313E+00  0.11803365538E+01  0.00000000000E+00 0.  1.
         11    1    3    3    0    0  0.15567527794E+02  0.30427412195E+02  0.20622335862E+02  0.39918117080E+02  0.51100000000E-03 0. -1.
        -11    1    3    3    0    0  0.76181210742E+01 -0.81669985433E+01 -0.11562048584E+02  0.16075341415E+02  0.51100000000E-03 0.  1.
        -12    1    3    3    0    0 -0.24311144531E+02 -0.21935967978E+02 -0.92058513418E+01  0.34014204951E+02  0.00000000000E+00 0.  1.
</event>
<event>
 7    1  0.2232484E-015  0.9000789E+02  0.7816164E-02  0.1186339E+00
        -11   -1    0    0    0    0  0.00000000000E+00  0.00000000000E+00  0.45593999997E+02  0.45594000000E+02  0.51100000000E-03 0.  1.
         11   -1    0    0    0    0 -0.00000000000E+00 -0.00000000000E+00 -0.45593999997E+02  0.45594000000E+02  0.51100000000E-03 0. -1.
    9900012    2    1    2    0    0 -0.71822644717E+00  0.69874678655E+00 -0.62335782156E+00  0.90007885059E+02  0.90000148341E+02 0.  0.
        -12    1    1    2    0    0  0.71822644717E+00 -0.69874678655E+00  0.62335782156E+00  0.11801149414E+01  0.00000000000E+00 0.  1.
         11    1    3    3    0    0 -0.19568241197E+02 -0.31403246770E+02 -0.26780185454E+01  0.37097867254E+02  0.51100000000E-03 0. -1.
        -11    1    3    3    0    0 -0.99194001224E+01  0.16594479676E+01 -0.35185570590E+01  0.10654975851E+02  0.51100000000E-03 0.  1.
        -12    1    3    3    0    0  0.28769414872E+02  0.30442545589E+02  0.55732177829E+01  0.42255041953E+02  0.00000000000E+00 0.  1.
</event>
<event>
 7    1  0.2232484E-015  0.9000772E+02  0.7816164E-02  0.1186339E+00
        -11   -1    0    0    0    0  0.00000000000E+00  0.00000000000E+00  0.45593999997E+02  0.45594000000E+02  0.51100000000E-03 0. -1.
         11   -1    0    0    0    0 -0.00000000000E+00 -0.00000000000E+00 -0.45593999997E+02  0.45594000000E+02  0.51100000000E-03 0.  1.
    9900012    2    1    2    0    0  0.41389727698E+00  0.92685981269E+00 -0.60223398473E+00  0.90007717898E+02  0.89999978974E+02 0.  0.
        -12    1    1    2    0    0 -0.41389727698E+00 -0.92685981269E+00  0.60223398473E+00  0.11802821021E+01  0.00000000000E+00 0.  1.
         11    1    3    3    0    0  0.37492190589E+02 -0.67253143023E+01  0.13618048006E+01  0.38114940905E+02  0.51100000000E-03 0. -1.
        -11    1    3    3    0    0  0.41533478528E+01  0.96793236908E+01  0.43416568425E+00  0.10541731622E+02  0.51100000000E-03 0.  1.
        -12    1    3    3    0    0 -0.41231641165E+02 -0.20271495759E+01 -0.23982044696E+01  0.41351045370E+02  0.00000000000E+00 0.  1.
</event>
<event>
 7    1  0.2232484E-015  0.9000761E+02  0.7816164E-02  0.1186339E+00
        -11   -1    0    0    0    0  0.00000000000E+00  0.00000000000E+00  0.45593999997E+02  0.45594000000E+02  0.51100000000E-03 0.  1.
         11   -1    0    0    0    0 -0.00000000000E+00 -0.00000000000E+00 -0.45593999997E+02  0.45594000000E+02  0.51100000000E-03 0. -1.
    9900012    2    1    2    0    0 -0.49146371091E+00 -0.62756105069E+00 -0.87061024137E+00  0.90007605302E+02  0.89999864892E+02 0.  0.
        -12    1    1    2    0    0  0.49146371091E+00  0.62756105069E+00  0.87061024137E+00  0.11803946983E+01  0.00000000000E+00 0.  1.
         11    1    3    3    0    0 -0.27403927160E+02 -0.20602739282E+02 -0.12652709698E+02  0.36545029111E+02  0.51100000000E-03 0. -1.
        -11    1    3    3    0    0  0.70613265121E+01 -0.12122763927E+02  0.60942682469E+01  0.15295876669E+02  0.51100000000E-03 0.  1.
        -12    1    3    3    0    0  0.19851136937E+02  0.32097942159E+02  0.56878312097E+01  0.38166699522E+02  0.00000000000E+00 0.  1.
</event>
<event>
 7    1  0.2232484E-015  0.9000763E+02  0.7816164E-02  0.1186339E+00
        -11   -1    0    0    0    0  0.00000000000E+00  0.00000000000E+00  0.45593999997E+02  0.45594000000E+02  0.51100000000E-03 0. -1.
         11   -1    0    0    0    0 -0.00000000000E+00 -0.00000000000E+00 -0.45593999997E+02  0.45594000000E+02  0.51100000000E-03 0.  1.
    9900012    2    1    2    0    0 -0.53521050680E+00  0.81525620414E+00  0.66495918194E+00  0.90007634091E+02  0.89999894061E+02 0.  0.
        -12    1    1    2    0    0  0.53521050680E+00 -0.81525620414E+00 -0.66495918194E+00  0.11803659088E+01  0.00000000000E+00 0.  1.
         11    1    3    3    0    0 -0.92216393766E+01  0.72158277572E+01 -0.76919718679E+01  0.14009754976E+02  0.51100000000E-03 0. -1.
        -11    1    3    3    0    0  0.19091433513E+02 -0.32531604639E+01 -0.30234124656E+02  0.35904988241E+02  0.51100000000E-03 0.  1.
         12    1    3    3    0    0 -0.10405004643E+02 -0.31474110891E+01  0.38591055706E+02  0.40092890875E+02  0.00000000000E+00 0. -1.
</event>
<event>
 7    1  0.2232484E-015  0.9000773E+02  0.7816164E-02  0.1186339E+00
        -11   -1    0    0    0    0  0.00000000000E+00  0.00000000000E+00  0.45593999997E+02  0.45594000000E+02  0.51100000000E-03 0.  1.
         11   -1    0    0    0    0 -0.00000000000E+00 -0.00000000000E+00 -0.45593999997E+02  0.45594000000E+02  0.51100000000E-03 0. -1.
    9900012    2    1    2    0    0 -0.80425296680E+00  0.55087578677E+00 -0.66538778872E+00  0.90007733981E+02  0.89999995269E+02 0.  0.
        -12    1    1    2    0    0  0.80425296680E+00 -0.55087578677E+00  0.66538778872E+00  0.11802660193E+01  0.00000000000E+00 0.  1.
         11    1    3    3    0    0  0.58423882602E+01 -0.33204986599E+02  0.54644141266E+01  0.34155006334E+02  0.51100000000E-03 0. -1.
        -11    1    3    3    0    0 -0.19260361946E+01 -0.86307590568E+01  0.69457148789E+01  0.11244668637E+02  0.51100000000E-03 0.  1.
        -12    1    3    3    0    0 -0.47206050324E+01  0.42386621443E+02 -0.13075516794E+02  0.44608059010E+02  0.00000000000E+00 0.  1.
</event>
<event>
 7    1  0.2232484E-015  0.9000777E+02  0.7816164E-02  0.1186339E+00
        -11   -1    0    0    0    0  0.00000000000E+00  0.00000000000E+00  0.45593999997E+02  0.45594000000E+02  0.51100000000E-03 0. -1.
         11   -1    0    0    0    0 -0.00000000000E+00 -0.00000000000E+00 -0.45593999997E+02  0.45594000000E+02  0.51100000000E-03 0.  1.
    9900012    2    1    2    0    0  0.57139075360E+00 -0.59149117682E+00  0.84651774694E+00  0.90007770573E+02  0.90000032344E+02 0.  0.
        -12    1    1    2    0    0 -0.57139075360E+00  0.59149117682E+00 -0.84651774694E+00  0.11802294275E+01  0.00000000000E+00 0.  1.
         11    1    3    3    0    0  0.33576630357E+02  0.90724071739E+01  0.24131820703E+02  0.42332534164E+02  0.51100000000E-03 0. -1.
        -11    1    3    3    0    0  0.13231160424E+00 -0.84408031723E+01 -0.47200306114E+01  0.96717813141E+01  0.51100000000E-03 0.  1.
        -12    1    3    3    0    0 -0.33137551208E+02 -0.12230951784E+01 -0.18565272345E+02  0.38003455094E+02  0.00000000000E+00 0.  1.
</event>
<event>
 7    1  0.2232484E-015  0.9000777E+02  0.7816164E-02  0.1186339E+00
        -11   -1    0    0    0    0  0.00000000000E+00  0.00000000000E+00  0.45593999997E+02  0.45594000000E+02  0.51100000000E-03 0.  1.
         11   -1    0    0    0    0 -0.00000000000E+00 -0.00000000000E+00 -0.45593999997E+02  0.45594000000E+02  0.51100000000E-03 0. -1.
    9900012    2    1    2    0    0  0.47746826234E+00  0.32411866404E+00 -0.10295216555E+01  0.90007769646E+02  0.90000031405E+02 0.  0.
        -12    1    1    2    0    0 -0.47746826234E+00 -0.32411866404E+00  0.10295216555E+01  0.11802303542E+01  0.00000000000E+00 0.  1.
         11    1    3    3    0    0  0.61851110948E+00 -0.27082546144E+01 -0.66095566570E+01  0.71696191330E+01  0.51100000000E-03 0. -1.
        -11    1    3    3    0    0  0.32238322703E+02 -0.22155450758E+02  0.12854971237E+02  0.41175523491E+02  0.51100000000E-03 0.  1.
         12    1    3    3    0    0 -0.32379365550E+02  0.25187824037E+02 -0.72749362359E+01  0.41662627022E+02  0.00000000000E+00 0. -1.
</event>
<event>
 7    1  0.2232484E-015  0.9000755E+02  0.7816164E-02  0.1186339E+00
        -11   -1    0    0    0    0  0.00000000000E+00  0.00000000000E+00  0.45593999997E+02  0.45594000000E+02  0.51100000000E-03 0.  1.
         11   -1    0    0    0    0 -0.00000000000E+00 -0.00000000000E+00 -0.45593999997E+02  0.45594000000E+02  0.51100000000E-03 0. -1.
    9900012    2    1    2    0    0  0.88472615347E+00  0.13456622494E-01  0.78136744995E+00  0.90007552399E+02  0.89999811290E+02 0.  0.
        -12    1    1    2    0    0 -0.88472615347E+00 -0.13456622494E-01 -0.78136744995E+00  0.11804476012E+01  0.00000000000E+00 0.  1.
         11    1    3    3    0    0 -0.30908697845E+02 -0.14996729949E+02 -0.13214264557E+02  0.36808508523E+02  0.51100000000E-03 0. -1.
        -11    1    3    3    0    0 -0.25864785470E+01 -0.18332178161E+01 -0.83076504651E+01  0.88919972642E+01  0.51100000000E-03 0.  1.
        -12    1    3    3    0    0  0.34379902546E+02  0.16843404388E+02  0.22303282472E+02  0.44307046612E+02  0.00000000000E+00 0.  1.
</event>
<event>
 7    1  0.2232484E-015  0.9000771E+02  0.7816164E-02  0.1186339E+00
        -11   -1    0    0    0    0  0.00000000000E+00  0.00000000000E+00  0.45593999997E+02  0.45594000000E+02  0.51100000000E-03 0.  1.
         11   -1    0    0    0    0 -0.00000000000E+00 -0.00000000000E+00 -0.45593999997E+02  0.45594000000E+02  0.51100000000E-03 0. -1.
    9900012    2    1    2    0    0  0.44418721906E-01 -0.11251052247E+01  0.35392024619E+00  0.90007705829E+02  0.89999966746E+02 0.  0.
        -12    1    1    2    0    0 -0.44418721906E-01  0.11251052247E+01 -0.35392024619E+00  0.11802941710E+01  0.00000000000E+00 0.  1.
         11    1    3    3    0    0  0.61652771244E+01 -0.38555164126E+02  0.18258512035E+01  0.39087658611E+02  0.51100000000E-03 0. -1.
        -11    1    3    3    0    0 -0.10532391965E+02 -0.14343815612E+01  0.41362570681E+01  0.11406022697E+02  0.51100000000E-03 0.  1.
        -12    1    3    3    0    0  0.44115335629E+01  0.38864440463E+02 -0.56081880254E+01  0.39514024520E+02  0.00000000000E+00 0.  1.
</event>
<event>
 7    1  0.2585962E-015  0.9000792E+02  0.7816164E-02  0.1186339E+00
        -11   -1    0    0    0    0  0.00000000000E+00  0.00000000000E+00  0.45593999997E+02  0.45594000000E+02  0.51100000000E-03 0.  1.
         11   -1    0    0    0    0 -0.00000000000E+00 -0.00000000000E+00 -0.45593999997E+02  0.45594000000E+02  0.51100000000E-03 0. -1.
    9900012    2    1    2    0    0 -0.10564349998E+01 -0.59654434938E-01 -0.52247281593E+00  0.90007918899E+02  0.90000182629E+02 0.  0.
        -12    1    1    2    0    0  0.10564349998E+01  0.59654434938E-01  0.52247281593E+00  0.11800811005E+01  0.00000000000E+00 0.  1.
         11    1    3    3    0    0 -0.62878223074E+01 -0.59278265612E+01  0.39288414721E+01  0.94927147162E+01  0.51100000000E-03 0. -1.
        -11    1    3    3    0    0  0.11244858051E+01 -0.32926327488E+02  0.15825099738E+02  0.36549162674E+02  0.51100000000E-03 0.  1.
         12    1    3    3    0    0  0.41069015025E+01  0.38794499614E+02 -0.20276414026E+02  0.43966041510E+02  0.00000000000E+00 0. -1.
</event>
<event>
 7    1  0.2232484E-015  0.9000773E+02  0.7816164E-02  0.1186339E+00
        -11   -1    0    0    0    0  0.00000000000E+00  0.00000000000E+00  0.45593999997E+02  0.45594000000E+02  0.51100000000E-03 0.  1.
         11   -1    0    0    0    0 -0.00000000000E+00 -0.00000000000E+00 -0.45593999997E+02  0.45594000000E+02  0.51100000000E-03 0. -1.
    9900012    2    1    2    0    0 -0.80862362932E+00  0.37890168594E+00  0.77175214295E+00  0.90007728831E+02  0.89999990052E+02 0.  0.
        -12    1    1    2    0    0  0.80862362932E+00 -0.37890168594E+00 -0.77175214295E+00  0.11802711687E+01  0.00000000000E+00 0.  1.
         11    1    3    3    0    0 -0.24629019940E+01  0.84309371500E+01  0.31950103273E+01  0.93463724895E+01  0.51100000000E-03 0. -1.
        -11    1    3    3    0    0 -0.33663547635E+02  0.83646974059E+01  0.15250850755E+02  0.37891833568E+02  0.51100000000E-03 0.  1.
         12    1    3    3    0    0  0.35317826000E+02 -0.16416732870E+02 -0.17674108940E+02  0.42769522774E+02  0.00000000000E+00 0. -1.
</event>
<event>
 7    1  0.2232484E-015  0.9000840E+02  0.7816164E-02  0.1186338E+00
        -11   -1    0    0    0    0  0.00000000000E+00  0.00000000000E+00  0.45593999997E+02  0.45594000000E+02  0.51100000000E-03 0.  1.
         11   -1    0    0    0    0 -0.00000000000E+00 -0.00000000000E+00 -0.45593999997E+02  0.45594000000E+02  0.51100000000E-03 0. -1.
    9900012    2    1    2    0    0  0.29959597850E+00 -0.68372003766E+00 -0.91335314313E+00  0.90008404813E+02  0.90000674954E+02 0.  0.
        -12    1    1    2    0    0 -0.29959597850E+00  0.68372003766E+00  0.91335314313E+00  0.11795951866E+01  0.00000000000E+00 0.  1.
         11    1    3    3    0    0  0.92015205366E+01  0.27394677968E+01  0.46322381951E+01  0.10659751168E+02  0.51100000000E-03 0. -1.
        -11    1    3    3    0    0 -0.34834663913E+02  0.20646431486E+02  0.83337094959E+01  0.41342226080E+02  0.51100000000E-03 0.  1.
         12    1    3    3    0    0  0.25932739355E+02 -0.24069619320E+02 -0.13879300834E+02  0.38006427566E+02  0.00000000000E+00 0. -1.
</event>
<event>
 7    1  0.2232484E-015  0.9000776E+02  0.7816164E-02  0.1186339E+00
        -11   -1    0    0    0    0  0.00000000000E+00  0.00000000000E+00  0.45593999997E+02  0.45594000000E+02  0.51100000000E-03 0.  1.
         11   -1    0    0    0    0 -0.00000000000E+00 -0.00000000000E+00 -0.45593999997E+02  0.45594000000E+02  0.51100000000E-03 0. -1.
    9900012    2    1    2    0    0 -0.32907757525E+00  0.32028159347E+00 -0.10872447535E+01  0.90007757015E+02  0.90000018608E+02 0.  0.
        -12    1    1    2    0    0  0.32907757525E+00 -0.32028159347E+00  0.10872447535E+01  0.11802429850E+01  0.00000000000E+00 0.  1.
         11    1    3    3    0    0  0.56271400009E+01 -0.20556759456E+01 -0.36653872777E+02  0.37140232874E+02  0.51100000000E-03 0. -1.
        -11    1    3    3    0    0 -0.38726260439E+01  0.12563706649E+01 -0.81376483277E+01  0.90992868012E+01  0.51100000000E-03 0.  1.
        -12    1    3    3    0    0 -0.20835915323E+01  0.11195868741E+01  0.43704276351E+02  0.43768237339E+02  0.00000000000E+00 0.  1.
</event>
<event>
 7    1  0.2232484E-015  0.9000786E+02  0.7816164E-02  0.1186339E+00
        -11   -1    0    0    0    0  0.00000000000E+00  0.00000000000E+00  0.45593999997E+02  0.45594000000E+02  0.51100000000E-03 0.  1.
         11   -1    0    0    0    0 -0.00000000000E+00 -0.00000000000E+00 -0.45593999997E+02  0.45594000000E+02  0.51100000000E-03 0. -1.
    9900012    2    1    2    0    0  0.35391930152E+00  0.10006987546E+01  0.51582419712E+00  0.90007859554E+02  0.90000122500E+02 0.  0.
        -12    1    1    2    0    0 -0.35391930152E+00 -0.10006987546E+01 -0.51582419712E+00  0.11801404458E+01  0.00000000000E+00 0.  1.
         11    1    3    3    0    0 -0.72178492485E+01  0.24627174617E+02 -0.25638442774E+02  0.36275678154E+02  0.51100000000E-03 0. -1.
        -11    1    3    3    0    0 -0.47628877562E+01  0.96534800855E+01  0.24134084686E+01  0.11031741396E+02  0.51100000000E-03 0.  1.
        -12    1    3    3    0    0  0.12334656306E+02 -0.33279955948E+02  0.23740858502E+02  0.42700440004E+02  0.00000000000E+00 0.  1.
</event>
<event>
 7    1  0.2232484E-015  0.9000764E+02  0.7816164E-02  0.1186339E+00
        -11   -1    0    0    0    0  0.00000000000E+00  0.00000000000E+00  0.45593999997E+02  0.45594000000E+02  0.51100000000E-03 0.  1.
         11   -1    0    0    0    0 -0.00000000000E+00 -0.00000000000E+00 -0.45593999997E+02  0.45594000000E+02  0.51100000000E-03 0. -1.
    9900012    2    1    2    0    0  0.11774161226E+01 -0.17170305942E-01 -0.81490252221E-01  0.90007642340E+02  0.89999902418E+02 0.  0.
        -12    1    1    2    0    0 -0.11774161226E+01  0.17170305942E-01  0.81490252221E-01  0.11803576604E+01  0.00000000000E+00 0.  1.
         11    1    3    3    0    0 -0.30472896651E+02 -0.38068314264E+01  0.35853905664E+00  0.30711853515E+02  0.51100000000E-03 0. -1.
        -11    1    3    3    0    0 -0.10334173742E+02 -0.76716087301E+01  0.77320081202E+01  0.15014415649E+02  0.51100000000E-03 0.  1.
        -12    1    3    3    0    0  0.41984486516E+02  0.11461269851E+02 -0.81720374290E+01  0.44281373176E+02  0.00000000000E+00 0.  1.
</event>
<event>
 7    1  0.2232484E-015  0.9000770E+02  0.7816164E-02  0.1186339E+00
        -11   -1    0    0    0    0  0.00000000000E+00  0.00000000000E+00  0.45593999997E+02  0.45594000000E+02  0.51100000000E-03 0. -1.
         11   -1    0    0    0    0 -0.00000000000E+00 -0.00000000000E+00 -0.45593999997E+02  0.45594000000E+02  0.51100000000E-03 0.  1.
    9900012    2    1    2    0    0 -0.35996573195E+00 -0.76067874774E+00 -0.82758172745E+00  0.90007703850E+02  0.89999964741E+02 0.  0.
        -12    1    1    2    0    0  0.35996573195E+00  0.76067874774E+00  0.82758172745E+00  0.11802961497E+01  0.00000000000E+00 0.  1.
         11    1    3    3    0    0 -0.29622608804E+01  0.16401391408E+02  0.27233872177E+02  0.31929052972E+02  0.51100000000E-03 0. -1.
        -11    1    3    3    0    0  0.10057910933E+02  0.65134642307E+01  0.79218552146E+01  0.14364629439E+02  0.51100000000E-03 0.  1.
        -12    1    3    3    0    0 -0.74556157844E+01 -0.23675534387E+02 -0.35983309119E+02  0.43714021439E+02  0.00000000000E+00 0.  1.
</event>
<event>
 7    1  0.2232484E-015  0.9000782E+02  0.7816164E-02  0.1186339E+00
        -11   -1    0    0    0    0  0.00000000000E+00  0.00000000000E+00  0.45593999997E+02  0.45594000000E+02  0.51100000000E-03 0.  1.
         11   -1    0    0    0    0 -0.00000000000E+00 -0.00000000000E+00 -0.45593999997E+02  0.45594000000E+02  0.51100000000E-03 0. -1.
    9900012    2    1    2    0    0  0.74423274255E+00 -0.41338511460E+00 -0.81735015108E+00  0.90007817430E+02  0.90000079820E+02 0.  0.
        -12    1    1    2    0    0 -0.74423274255E+00  0.41338511460E+00  0.81735015108E+00  0.11801825696E+01  0.00000000000E+00 0.  1.
         11    1    3    3    0    0  0.11856005313E+01  0.38143201296E+02  0.13993589832E+00  0.38161879357E+02  0.51100000000E-03 0. -1.
        -11    1    3    3    0    0 -0.68785293467E+01  0.39502530202E+01  0.34082712393E+01  0.86333642341E+01  0.51100000000E-03 0.  1.
        -12    1    3    3    0    0  0.64371615579E+01 -0.42506839431E+02 -0.43655572887E+01  0.43212573839E+02  0.00000000000E+00 0.  1.
</event>
<event>
 7    1  0.2232484E-015  0.9000756E+02  0.7816164E-02  0.1186339E+00
        -11   -1    0    0    0    0  0.00000000000E+00  0.00000000000E+00  0.45593999997E+02  0.45594000000E+02  0.51100000000E-03 0.  1.
         11   -1    0    0    0    0 -0.00000000000E+00 -0.00000000000E+00 -0.45593999997E+02  0.45594000000E+02  0.51100000000E-03 0. -1.
    9900012    2    1    2    0    0  0.50384030091E+00 -0.77320741135E+00  0.73602259680E+00  0.90007561940E+02  0.89999820958E+02 0.  0.
        -12    1    1    2    0    0 -0.50384030091E+00  0.77320741135E+00 -0.73602259680E+00  0.11804380597E+01  0.00000000000E+00 0.  1.
         11    1    3    3    0    0 -0.47664315389E+01 -0.15841939868E+02 -0.30369461125E+02  0.34583089765E+02  0.51100000000E-03 0. -1.
        -11    1    3    3    0    0  0.85637606609E+01  0.15241735384E+01 -0.92691374278E+01  0.12711333941E+02  0.51100000000E-03 0.  1.
        -12    1    3    3    0    0 -0.32934888211E+01  0.13544558918E+02  0.40374621150E+02  0.42713138235E+02  0.00000000000E+00 0.  1.
</event>
<event>
 7    1  0.2232484E-015  0.9000741E+02  0.7816164E-02  0.1186340E+00
        -11   -1    0    0    0    0  0.00000000000E+00  0.00000000000E+00  0.45593999997E+02  0.45594000000E+02  0.51100000000E-03 0. -1.
         11   -1    0    0    0    0 -0.00000000000E+00 -0.00000000000E+00 -0.45593999997E+02  0.45594000000E+02  0.51100000000E-03 0.  1.
    9900012    2    1    2    0    0  0.52605314300E+00 -0.96725269442E+00 -0.42600290372E+00  0.90007411944E+02  0.89999668981E+02 0.  0.
        -12    1    1    2    0    0 -0.52605314300E+00  0.96725269442E+00  0.42600290372E+00  0.11805880561E+01  0.00000000000E+00 0.  1.
         11    1    3    3    0    0  0.11851704290E+01 -0.84367922319E+01 -0.43049208684E+01  0.95454929707E+01  0.51100000000E-03 0. -1.
        -11    1    3    3    0    0  0.30916632670E+02 -0.21188821437E+02 -0.13220988366E+01  0.37504030119E+02  0.51100000000E-03 0.  1.
         12    1    3    3    0    0 -0.31575749956E+02  0.28658360975E+02  0.52010168013E+01  0.42957888854E+02  0.00000000000E+00 0. -1.
</event>
<event>
 7    1  0.2548461E-015  0.9000776E+02  0.7816164E-02  0.1186339E+00
        -11   -1    0    0    0    0  0.00000000000E+00  0.00000000000E+00  0.45593999997E+02  0.45594000000E+02  0.51100000000E-03 0.  1.
         11   -1    0    0    0    0 -0.00000000000E+00 -0.00000000000E+00 -0.45593999997E+02  0.45594000000E+02  0.51100000000E-03 0. -1.
    9900012    2    1    2    0    0  0.10578852007E+01  0.46564731913E+00 -0.23877839876E+00  0.90007761190E+02  0.90000022838E+02 0.  0.
        -12    1    1    2    0    0 -0.10578852007E+01 -0.46564731913E+00  0.23877839876E+00  0.11802388095E+01  0.00000000000E+00 0.  1.
         11    1    3    3    0    0  0.43378129074E+01  0.11428446592E+01  0.84945367567E+01  0.96062411851E+01  0.51100000000E-03 0. -1.
        -11    1    3    3    0    0 -0.42726550062E+01 -0.12824417269E+02  0.33669654341E+02  0.36281770668E+02  0.51100000000E-03 0.  1.
         12    1    3    3    0    0  0.99272729955E+00  0.12147219928E+02 -0.42402969497E+02  0.44119749338E+02  0.00000000000E+00 0. -1.
</event>
<event>
 7    1  0.2232484E-015  0.9000774E+02  0.7816164E-02  0.1186339E+00
        -11   -1    0    0    0    0  0.00000000000E+00  0.00000000000E+00  0.45593999997E+02  0.45594000000E+02  0.51100000000E-03 0. -1.
         11   -1    0    0    0    0 -0.00000000000E+00 -0.00000000000E+00 -0.45593999997E+02  0.45594000000E+02  0.51100000000E-03 0.  1.
    9900012    2    1    2    0    0 -0.40779355101E+00 -0.34533351248E+00  0.10523575322E+01  0.90007742744E+02  0.90000004148E+02 0.  0.
        -12    1    1    2    0    0  0.40779355101E+00  0.34533351248E+00 -0.10523575322E+01  0.11802572561E+01  0.00000000000E+00 0.  1.
         11    1    3    3    0    0  0.28774790443E+02  0.18368034679E+02 -0.17055435789E+02  0.38160989940E+02  0.51100000000E-03 0. -1.
        -11    1    3    3    0    0  0.19142471366E+01 -0.53523552014E+01 -0.74960153394E+01  0.94075658134E+01  0.51100000000E-03 0.  1.
        -12    1    3    3    0    0 -0.31096831130E+02 -0.13361012990E+02  0.25603808661E+02  0.42439186990E+02  0.00000000000E+00 0.  1.
</event>
<event>
 7    1  0.2232484E-015  0.9000753E+02  0.7816164E-02  0.1186339E+00
        -11   -1    0    0    0    0  0.00000000000E+00  0.00000000000E+00  0.45593999997E+02  0.45594000000E+02  0.51100000000E-03 0.  1.
         11   -1    0    0    0    0 -0.00000000000E+00 -0.00000000000E+00 -0.45593999997E+02  0.45594000000E+02  0.51100000000E-03 0. -1.
    9900012    2    1    2    0    0 -0.32521443645E+00 -0.10128330993E+01 -0.51177159113E+00  0.90007531670E+02  0.89999790288E+02 0.  0.
        -12    1    1    2    0    0  0.32521443645E+00  0.10128330993E+01  0.51177159113E+00  0.11804683300E+01  0.00000000000E+00 0.  1.
         11    1    3    3    0    0 -0.24011906834E+01  0.21147963399E+02 -0.10424942945E+01  0.21309361024E+02  0.51100000000E-03 0. -1.
        -11    1    3    3    0    0  0.26233847427E+02 -0.18732273130E+01 -0.18224174063E+02  0.31997566344E+02  0.51100000000E-03 0.  1.
         12    1    3    3    0    0 -0.24157871180E+02 -0.20287569186E+02  0.18754896767E+02  0.36700604302E+02  0.00000000000E+00 0. -1.
</event>
<event>
 7    1  0.2232484E-015  0.9000783E+02  0.7816164E-02  0.1186339E+00
        -11   -1    0    0    0    0  0.00000000000E+00  0.00000000000E+00  0.45593999997E+02  0.45594000000E+02  0.51100000000E-03 0.  1.
         11   -1    0    0    0    0 -0.00000000000E+00 -0.00000000000E+00 -0.45593999997E+02  0.45594000000E+02  0.51100000000E-03 0. -1.
    9900012    2    1    2    0    0  0.86614818614E+00 -0.65193333346E+00 -0.46645611372E+00  0.90007825836E+02  0.90000088337E+02 0.  0.
        -12    1    1    2    0    0 -0.86614818614E+00  0.65193333346E+00  0.46645611372E+00  0.11801741641E+01  0.00000000000E+00 0.  1.
         11    1    3    3    0    0 -0.25579419449E+02 -0.12736475931E+02 -0.22078698342E+02  0.36110849328E+02  0.51100000000E-03 0. -1.
        -11    1    3    3    0    0 -0.65024612919E+01 -0.76194122181E+01  0.37474153530E+00  0.10023865366E+02  0.51100000000E-03 0.  1.
        -12    1    3    3    0    0  0.32948028927E+02  0.19703954815E+02  0.21237500693E+02  0.43873111141E+02  0.00000000000E+00 0.  1.
</event>
<event>
 7    1  0.2232484E-015  0.9000766E+02  0.7816164E-02  0.1186339E+00
        -11   -1    0    0    0    0  0.00000000000E+00  0.00000000000E+00  0.45593999997E+02  0.45594000000E+02  0.51100000000E-03 0. -1.
         11   -1    0    0    0    0 -0.00000000000E+00 -0.00000000000E+00 -0.45593999997E+02  0.45594000000E+02  0.51100000000E-03 0.  1.
    9900012    2    1    2    0    0  0.31530800928E+00 -0.80229819013E+00  0.80628846323E+00  0.90007659959E+02  0.89999920270E+02 0.  0.
        -12    1    1    2    0    0 -0.31530800928E+00  0.80229819013E+00 -0.80628846323E+00  0.11803400411E+01  0.00000000000E+00 0.  1.
         11    1    3    3    0    0  0.18693527758E+02 -0.20215766798E+02  0.18717930659E+02  0.33293935419E+02  0.51100000000E-03 0. -1.
        -11    1    3    3    0    0 -0.47641700615E+00  0.13983680641E+02  0.13955305381E+02  0.19761600289E+02  0.51100000000E-03 0.  1.
        -12    1    3    3    0    0 -0.17901802743E+02  0.54297879664E+01 -0.31866947577E+02  0.36952124251E+02  0.00000000000E+00 0.  1.
</event>
<event>
 7    1  0.2232484E-015  0.9000744E+02  0.7816164E-02  0.1186340E+00
        -11   -1    0    0    0    0  0.00000000000E+00  0.00000000000E+00  0.45593999997E+02  0.45594000000E+02  0.51100000000E-03 0.  1.
         11   -1    0    0    0    0 -0.00000000000E+00 -0.00000000000E+00 -0.45593999997E+02  0.45594000000E+02  0.51100000000E-03 0. -1.
    9900012    2    1    2    0    0  0.25924791896E+00 -0.97376633288E+00 -0.61504692127E+00  0.90007443746E+02  0.89999701203E+02 0.  0.
        -12    1    1    2    0    0 -0.25924791896E+00  0.97376633288E+00  0.61504692127E+00  0.11805562544E+01  0.00000000000E+00 0.  1.
         11    1    3    3    0    0 -0.92040989332E+01  0.16800611828E+02 -0.32507474133E+02  0.37732106617E+02  0.51100000000E-03 0. -1.
        -11    1    3    3    0    0 -0.10516355513E+02 -0.14826212745E+02  0.53992083120E+01  0.18962114025E+02  0.51100000000E-03 0.  1.
        -12    1    3    3    0    0  0.19979702365E+02 -0.29481654160E+01  0.26493218900E+02  0.33313223104E+02  0.00000000000E+00 0.  1.
</event>
<event>
 7    1  0.2232484E-015  0.9000776E+02  0.7816164E-02  0.1186339E+00
        -11   -1    0    0    0    0  0.00000000000E+00  0.00000000000E+00  0.45593999997E+02  0.45594000000E+02  0.51100000000E-03 0.  1.
         11   -1    0    0    0    0 -0.00000000000E+00 -0.00000000000E+00 -0.45593999997E+02  0.45594000000E+02  0.51100000000E-03 0. -1.
    9900012    2    1    2    0    0  0.11320544114E+01  0.32178449235E+00 -0.88751635181E-01  0.90007758795E+02  0.90000020411E+02 0.  0.
        -12    1    1    2    0    0 -0.11320544114E+01 -0.32178449235E+00  0.88751635181E-01  0.11802412053E+01  0.00000000000E+00 0.  1.
         11    1    3    3    0    0  0.29517873444E+01  0.54393474028E+01  0.93630032993E+01  0.11223429945E+02  0.51100000000E-03 0. -1.
        -11    1    3    3    0    0  0.84256531475E+01 -0.14368845049E+02  0.31464870715E+02  0.35601873944E+02  0.51100000000E-03 0.  1.
         12    1    3    3    0    0 -0.10245386081E+02  0.92512821382E+01 -0.40916625649E+02  0.43182454905E+02  0.00000000000E+00 0. -1.
</event>
<event>
 7    1  0.2232484E-015  0.9000841E+02  0.7816164E-02  0.1186338E+00
        -11   -1    0    0    0    0  0.00000000000E+00  0.00000000000E+00  0.45593999997E+02  0.45594000000E+02  0.51100000000E-03 0.  1.
         11   -1    0    0    0    0 -0.00000000000E+00 -0.00000000000E+00 -0.45593999997E+02  0.45594000000E+02  0.51100000000E-03 0. -1.
    9900012    2    1    2    0    0  0.52927614620E+00  0.35806711242E+00 -0.99150480865E+00  0.90008412326E+02  0.90000682566E+02 0.  0.
        -12    1    1    2    0    0 -0.52927614620E+00 -0.35806711242E+00  0.99150480865E+00  0.11795876744E+01  0.00000000000E+00 0.  1.
         11    1    3    3    0    0  0.25421468125E+02 -0.26450917274E+02 -0.44452411443E+01  0.36954867546E+02  0.51100000000E-03 0. -1.
        -11    1    3    3    0    0  0.21372104748E+01 -0.66383759178E+01  0.70288474385E+01  0.99015352352E+01  0.51100000000E-03 0.  1.
        -12    1    3    3    0    0 -0.27029402453E+02  0.33447360304E+02 -0.35751111029E+01  0.43152009544E+02  0.00000000000E+00 0.  1.
</event>
<event>
 7    1  0.2232484E-015  0.9000775E+02  0.7816164E-02  0.1186339E+00
        -11   -1    0    0    0    0  0.00000000000E+00  0.00000000000E+00  0.45593999997E+02  0.45594000000E+02  0.51100000000E-03 0. -1.
         11   -1    0    0    0    0 -0.00000000000E+00 -0.00000000000E+00 -0.45593999997E+02  0.45594000000E+02  0.51100000000E-03 0.  1.
    9900012    2    1    2    0    0  0.63036749480E+00 -0.74046936763E+00  0.66882145913E+00  0.90007754175E+02  0.90000015730E+02 0.  0.
        -12    1    1    2    0    0 -0.63036749480E+00  0.74046936763E+00 -0.66882145913E+00  0.11802458249E+01  0.00000000000E+00 0.  1.
         11    1    3    3    0    0  0.29760614125E+02  0.68753877856E+00  0.12289344608E+02  0.32205509681E+02  0.51100000000E-03 0. -1.
        -11    1    3    3    0    0  0.83032754791E+01  0.12657383197E+02  0.25882586673E+01  0.15357500326E+02  0.51100000000E-03 0.  1.
        -12    1    3    3    0    0 -0.37433522109E+02 -0.14085391343E+02 -0.14208781816E+02  0.42444744168E+02  0.00000000000E+00 0.  1.
</event>
<event>
 7    1  0.2232484E-015  0.9000774E+02  0.7816164E-02  0.1186339E+00
        -11   -1    0    0    0    0  0.00000000000E+00  0.00000000000E+00  0.45593999997E+02  0.45594000000E+02  0.51100000000E-03 0.  1.
         11   -1    0    0    0    0 -0.00000000000E+00 -0.00000000000E+00 -0.45593999997E+02  0.45594000000E+02  0.51100000000E-03 0. -1.
    9900012    2    1    2    0    0  0.18418894152E+00  0.93066911588E+00 -0.70210364097E+00  0.90007737278E+02  0.89999998610E+02 0.  0.
        -12    1    1    2    0    0 -0.18418894152E+00 -0.93066911588E+00  0.70210364097E+00  0.11802627216E+01  0.00000000000E+00 0.  1.
         11    1    3    3    0    0  0.14175871035E+02  0.69269621183E+01 -0.35543939286E+02  0.38888426865E+02  0.51100000000E-03 0. -1.
        -11    1    3    3    0    0  0.33705037686E+01 -0.79129080488E+01 -0.32650301851E+01  0.91997191160E+01  0.51100000000E-03 0.  1.
        -12    1    3    3    0    0 -0.17362185863E+02  0.19166150464E+01  0.38106865830E+02  0.41919591298E+02  0.00000000000E+00 0.  1.
</event>
<event>
 7    1  0.2232484E-015  0.9000762E+02  0.7816164E-02  0.1186339E+00
        -11   -1    0    0    0    0  0.00000000000E+00  0.00000000000E+00  0.45593999997E+02  0.45594000000E+02  0.51100000000E-03 0.  1.
         11   -1    0    0    0    0 -0.00000000000E+00 -0.00000000000E+00 -0.45593999997E+02  0.45594000000E+02  0.51100000000E-03 0. -1.
    9900012    2    1    2    0    0 -0.81633203007E+00  0.85162473158E+00  0.40477390302E-01  0.90007618246E+02  0.89999878006E+02 0.  0.
        -12    1    1    2    0    0  0.81633203007E+00 -0.85162473158E+00 -0.40477390302E-01  0.11803817543E+01  0.00000000000E+00 0.  1.
         11    1    3    3    0    0 -0.20175240937E+02  0.12628495235E+02 -0.34171172230E+02  0.41643585948E+02  0.51100000000E-03 0. -1.
        -11    1    3    3    0    0 -0.38408577105E+01 -0.98744277797E+01  0.77875256197E+01  0.13149223075E+02  0.51100000000E-03 0.  1.
        -12    1    3    3    0    0  0.23199766617E+02 -0.19024427233E+01  0.26424124001E+02  0.35214809223E+02  0.00000000000E+00 0.  1.
</event>
<event>
 7    1  0.2232484E-015  0.9000778E+02  0.7816164E-02  0.1186339E+00
        -11   -1    0    0    0    0  0.00000000000E+00  0.00000000000E+00  0.45593999997E+02  0.45594000000E+02  0.51100000000E-03 0.  1.
         11   -1    0    0    0    0 -0.00000000000E+00 -0.00000000000E+00 -0.45593999997E+02  0.45594000000E+02  0.51100000000E-03 0. -1.
    9900012    2    1    2    0    0 -0.99623048907E+00 -0.34046304052E+00 -0.53341134890E+00  0.90007780556E+02  0.90000042459E+02 0.  0.
        -12    1    1    2    0    0  0.99623048907E+00  0.34046304052E+00  0.53341134890E+00  0.11802194442E+01  0.00000000000E+00 0.  1.
         11    1    3    3    0    0  0.13288093615E+02  0.96000553192E+01 -0.35448808922E+02  0.39055762037E+02  0.51100000000E-03 0. -1.
        -11    1    3    3    0    0 -0.89353109834E+01  0.51963402393E+01 -0.21513675205E+01  0.10557940932E+02  0.51100000000E-03 0.  1.
        -12    1    3    3    0    0 -0.53490131206E+01 -0.15136858599E+02  0.37066765093E+02  0.40394077587E+02  0.00000000000E+00 0.  1.
</event>
<event>
 7    1  0.2232484E-015  0.9000748E+02  0.7816164E-02  0.1186340E+00
        -11   -1    0    0    0    0  0.00000000000E+00  0.00000000000E+00  0.45593999997E+02  0.45594000000E+02  0.51100000000E-03 0.  1.
         11   -1    0    0    0    0 -0.00000000000E+00 -0.00000000000E+00 -0.45593999997E+02  0.45594000000E+02  0.51100000000E-03 0. -1.
    9900012    2    1    2    0    0 -0.34870744554E+00 -0.83392709847E+00 -0.75934648819E+00  0.90007475380E+02  0.89999733255E+02 0.  0.
        -12    1    1    2    0    0  0.34870744554E+00  0.83392709847E+00  0.75934648819E+00  0.11805246195E+01  0.00000000000E+00 0.  1.
         11    1    3    3    0    0  0.63252756946E+01  0.14054567296E+01  0.88464728142E+01  0.10965605444E+02  0.51100000000E-03 0. -1.
        -11    1    3    3    0    0  0.15972868051E+02  0.43528446779E+01  0.29236790531E+02  0.33598656095E+02  0.51100000000E-03 0.  1.
         12    1    3    3    0    0 -0.22646851191E+02 -0.65922285060E+01 -0.38842609834E+02  0.45443213842E+02  0.00000000000E+00 0. -1.
</event>
<event>
 7    1  0.2232484E-015  0.9000753E+02  0.7816164E-02  0.1186339E+00
        -11   -1    0    0    0    0  0.00000000000E+00  0.00000000000E+00  0.45593999997E+02  0.45594000000E+02  0.51100000000E-03 0. -1.
         11   -1    0    0    0    0 -0.00000000000E+00 -0.00000000000E+00 -0.45593999997E+02  0.45594000000E+02  0.51100000000E-03 0.  1.
    9900012    2    1    2    0    0 -0.91549069000E+00  0.66809834494E+00 -0.33018235575E+00  0.90007534418E+02  0.89999793072E+02 0.  0.
        -12    1    1    2    0    0  0.91549069000E+00 -0.66809834494E+00  0.33018235575E+00  0.11804655819E+01  0.00000000000E+00 0.  1.
         11    1    3    3    0    0  0.32619267262E+02 -0.20319193832E+02 -0.45966266081E+01  0.38704201466E+02  0.51100000000E-03 0. -1.
        -11    1    3    3    0    0  0.62241037318E+01  0.18410866210E+01  0.30152604216E+01  0.71568752177E+01  0.51100000000E-03 0.  1.
        -12    1    3    3    0    0 -0.39758861683E+02  0.19146205556E+02  0.12511838308E+01  0.44146457735E+02  0.00000000000E+00 0.  1.
</event>
<event>
 7    1  0.2232484E-015  0.9000774E+02  0.7816164E-02  0.1186339E+00
        -11   -1    0    0    0    0  0.00000000000E+00  0.00000000000E+00  0.45593999997E+02  0.45594000000E+02  0.51100000000E-03 0.  1.
         11   -1    0    0    0    0 -0.00000000000E+00 -0.00000000000E+00 -0.45593999997E+02  0.45594000000E+02  0.51100000000E-03 0. -1.
    9900012    2    1    2    0    0  0.89943304385E+00 -0.74964275421E+00  0.14851989118E+00  0.90007744851E+02  0.90000006283E+02 0.  0.
        -12    1    1    2    0    0 -0.89943304385E+00  0.74964275421E+00 -0.14851989118E+00  0.11802551493E+01  0.00000000000E+00 0.  1.
         11    1    3    3    0    0 -0.61174230907E+00 -0.13895436848E+02 -0.61340822658E+01  0.15201459120E+02  0.51100000000E-03 0. -1.
        -11    1    3    3    0    0 -0.10748854257E+01 -0.30646366180E+02  0.31354432412E+01  0.30825089510E+02  0.51100000000E-03 0.  1.
         12    1    3    3    0    0  0.25860607786E+01  0.43792160274E+02  0.31471589158E+01  0.43981196221E+02  0.00000000000E+00 0. -1.
</event>
<event>
 7    1  0.2232484E-015  0.9000756E+02  0.7816164E-02  0.1186339E+00
        -11   -1    0    0    0    0  0.00000000000E+00  0.00000000000E+00  0.45593999997E+02  0.45594000000E+02  0.51100000000E-03 0.  1.
         11   -1    0    0    0    0 -0.00000000000E+00 -0.00000000000E+00 -0.45593999997E+02  0.45594000000E+02  0.51100000000E-03 0. -1.
    9900012    2    1    2    0    0  0.89231683560E+00 -0.21732359908E+00 -0.74159948901E+00  0.90007564197E+02  0.89999823245E+02 0.  0.
        -12    1    1    2    0    0 -0.89231683560E+00  0.21732359908E+00  0.74159948901E+00  0.11804358025E+01  0.00000000000E+00 0.  1.
         11    1    3    3    0    0 -0.52861896932E+01  0.71160651803E+01  0.30670351877E+01  0.93802393480E+01  0.51100000000E-03 0. -1.
        -11    1    3    3    0    0  0.10424500862E+02 -0.42987873136E+02 -0.60772908585E+01  0.44649310403E+02  0.51100000000E-03 0.  1.
         12    1    3    3    0    0 -0.42459943330E+01  0.35654484357E+02  0.22686561818E+01  0.35978014447E+02  0.00000000000E+00 0. -1.
</event>
<event>
 7    1  0.2232484E-015  0.9000775E+02  0.7816164E-02  0.1186339E+00
        -11   -1    0    0    0    0  0.00000000000E+00  0.00000000000E+00  0.45593999997E+02  0.45594000000E+02  0.51100000000E-03 0. -1.
         11   -1    0    0    0    0 -0.00000000000E+00 -0.00000000000E+00 -0.45593999997E+02  0.45594000000E+02  0.51100000000E-03 0.  1.
    9900012    2    1    2    0    0  0.94182603991E+00 -0.64432398469E+00  0.30134848069E+00  0.90007745539E+02  0.90000006980E+02 0.  0.
        -12    1    1    2    0    0 -0.94182603991E+00  0.64432398469E+00 -0.30134848069E+00  0.11802544613E+01  0.00000000000E+00 0.  1.
         11    1    3    3    0    0  0.24548757693E+02  0.18748835507E+02  0.19863041177E+02  0.36724661226E+02  0.51100000000E-03 0. -1.
        -11    1    3    3    0    0 -0.21325588556E+01  0.56276041248E+01  0.82057333341E+01  0.10176040255E+02  0.51100000000E-03 0.  1.
        -12    1    3    3    0    0 -0.21474372798E+02 -0.25020763616E+02 -0.27767426031E+02  0.43107044057E+02  0.00000000000E+00 0.  1.
</event>
<event>
 7    1  0.2232484E-015  0.9000766E+02  0.7816164E-02  0.1186339E+00
        -11   -1    0    0    0    0  0.00000000000E+00  0.00000000000E+00  0.45593999997E+02  0.45594000000E+02  0.51100000000E-03 0. -1.
         11   -1    0    0    0    0 -0.00000000000E+00 -0.00000000000E+00 -0.45593999997E+02  0.45594000000E+02  0.51100000000E-03 0.  1.
    9900012    2    1    2    0    0  0.67472704229E-01  0.87058468678E+00  0.79417982733E+00  0.90007664513E+02  0.89999924885E+02 0.  0.
        -12    1    1    2    0    0 -0.67472704229E-01 -0.87058468678E+00 -0.79417982733E+00  0.11803354866E+01  0.00000000000E+00 0.  1.
         11    1    3    3    0    0  0.11458740693E+02 -0.36928108123E+02 -0.16636610486E+02  0.42092335603E+02  0.51100000000E-03 0. -1.
        -11    1    3    3    0    0  0.12001934785E+01  0.21500807552E+01  0.87968848057E+01  0.91350147337E+01  0.51100000000E-03 0.  1.
        -12    1    3    3    0    0 -0.12591461468E+02  0.35648612054E+02  0.86339055080E+01  0.38780314176E+02  0.00000000000E+00 0.  1.
</event>
<event>
 7    1  0.2232484E-015  0.9000772E+02  0.7816164E-02  0.1186339E+00
        -11   -1    0    0    0    0  0.00000000000E+00  0.00000000000E+00  0.45593999997E+02  0.45594000000E+02  0.51100000000E-03 0. -1.
         11   -1    0    0    0    0 -0.00000000000E+00 -0.00000000000E+00 -0.45593999997E+02  0.45594000000E+02  0.51100000000E-03 0.  1.
    9900012    2    1    2    0    0 -0.10454867692E+01 -0.75651342085E-01  0.54248561293E+00  0.90007721918E+02  0.89999983048E+02 0.  0.
        -12    1    1    2    0    0  0.10454867692E+01  0.75651342085E-01 -0.54248561293E+00  0.11802780818E+01  0.00000000000E+00 0.  1.
         11    1    3    3    0    0 -0.88054511230E+01  0.32995199206E+00 -0.30950504917E+01  0.93393883956E+01  0.51100000000E-03 0. -1.
        -11    1    3    3    0    0 -0.34685167335E+02 -0.73892227917E+01  0.10775214819E+02  0.37064358907E+02  0.51100000000E-03 0.  1.
         12    1    3    3    0    0  0.42445131689E+02  0.69836194576E+01 -0.71376787149E+01  0.43603974615E+02  0.00000000000E+00 0. -1.
</event>
<event>
 7    1  0.2232484E-015  0.9000773E+02  0.7816164E-02  0.1186339E+00
        -11   -1    0    0    0    0  0.00000000000E+00  0.00000000000E+00  0.45593999997E+02  0.45594000000E+02  0.51100000000E-03 0.  1.
         11   -1    0    0    0    0 -0.00000000000E+00 -0.00000000000E+00 -0.45593999997E+02  0.45594000000E+02  0.51100000000E-03 0. -1.
    9900012    2    1    2    0    0 -0.57606773947E+00 -0.95177592856E+00 -0.39407436221E+00  0.90007734749E+02  0.89999996048E+02 0.  0.
        -12    1    1    2    0    0  0.57606773947E+00  0.95177592856E+00  0.39407436221E+00  0.11802652505E+01  0.00000000000E+00 0.  1.
         11    1    3    3    0    0  0.15960864027E+02 -0.33279300328E+02  0.10054261678E+02  0.38253747384E+02  0.51100000000E-03 0. -1.
        -11    1    3    3    0    0 -0.22226202768E+01 -0.77613714198E+01 -0.24901488013E+01  0.84486548352E+01  0.51100000000E-03 0.  1.
        -12    1    3    3    0    0 -0.14314311490E+02  0.40088895819E+02 -0.79581872386E+01  0.43305332530E+02  0.00000000000E+00 0.  1.
</event>
<event>
 7    1  0.2232484E-015  0.9000774E+02  0.7816164E-02  0.1186339E+00
        -11   -1    0    0    0    0  0.00000000000E+00  0.00000000000E+00  0.45593999997E+02  0.45594000000E+02  0.51100000000E-03 0.  1.
         11   -1    0    0    0    0 -0.00000000000E+00 -0.00000000000E+00 -0.45593999997E+02  0.45594000000E+02  0.51100000000E-03 0. -1.
    9900012    2    1    2    0    0 -0.78238916338E+00 -0.88259809557E+00  0.43604769258E-01  0.90007740038E+02  0.90000001407E+02 0.  0.
        -12    1    1    2    0    0  0.78238916338E+00  0.88259809557E+00 -0.43604769258E-01  0.11802599617E+01  0.00000000000E+00 0.  1.
         11    1    3    3    0    0  0.17390692540E+02  0.18635876439E+02 -0.30426625411E+02  0.39692714846E+02  0.51100000000E-03 0. -1.
        -11    1    3    3    0    0  0.48001711670E+01 -0.80747021680E+01 -0.12886740798E+01  0.94817266086E+01  0.51100000000E-03 0.  1.
        -12    1    3    3    0    0 -0.22973252871E+02 -0.11443772367E+02  0.31758904260E+02  0.40833298584E+02  0.00000000000E+00 0.  1.
</event>
<event>
 7    1  0.2232484E-015  0.9000775E+02  0.7816164E-02  0.1186339E+00
        -11   -1    0    0    0    0  0.00000000000E+00  0.00000000000E+00  0.45593999997E+02  0.45594000000E+02  0.51100000000E-03 0.  1.
         11   -1    0    0    0    0 -0.00000000000E+00 -0.00000000000E+00 -0.45593999997E+02  0.45594000000E+02  0.51100000000E-03 0. -1.
    9900012    2    1    2    0    0 -0.99665670236E+00 -0.33249563305E+00 -0.53769435122E+00  0.90007748695E+02  0.90000010177E+02 0.  0.
        -12    1    1    2    0    0  0.99665670236E+00  0.33249563305E+00  0.53769435122E+00  0.11802513053E+01  0.00000000000E+00 0.  1.
         11    1    3    3    0    0 -0.84282860722E+01  0.39284746263E+01 -0.23393857676E+01  0.95886206013E+01  0.51100000000E-03 0. -1.
        -11    1    3    3    0    0 -0.14163475865E+02  0.32022325705E+02  0.11941702263E+02  0.36995102991E+02  0.51100000000E-03 0.  1.
         12    1    3    3    0    0  0.21595105235E+02 -0.36283295964E+02 -0.10140010847E+02  0.43424025102E+02  0.00000000000E+00 0. -1.
</event>
<event>
 7    1  0.2232484E-015  0.9000796E+02  0.7816164E-02  0.1186339E+00
        -11   -1    0    0    0    0  0.00000000000E+00  0.00000000000E+00  0.45593999997E+02  0.45594000000E+02  0.51100000000E-03 0.  1.
         11   -1    0    0    0    0 -0.00000000000E+00 -0.00000000000E+00 -0.45593999997E+02  0.45594000000E+02  0.51100000000E-03 0. -1.
    9900012    2    1    2    0    0  0.66331386002E+00 -0.14830286716E+00 -0.96463268344E+00  0.90007959648E+02  0.90000223916E+02 0.  0.
        -12    1    1    2    0    0 -0.66331386002E+00  0.14830286716E+00  0.96463268344E+00  0.11800403515E+01  0.00000000000E+00 0.  1.
         11    1    3    3    0    0  0.17108439274E+01  0.34870359129E+02  0.41188638699E+01  0.35154430341E+02  0.51100000000E-03 0. -1.
        -11    1    3    3    0    0 -0.14650238121E+02  0.23319234394E+01 -0.22225652951E+01  0.15000238021E+02  0.51100000000E-03 0.  1.
        -12    1    3    3    0    0  0.13602708053E+02 -0.37350585436E+02 -0.28609312582E+01  0.39853291287E+02  0.00000000000E+00 0.  1.
</event>
<event>
 7    1  0.2232484E-015  0.9000771E+02  0.7816164E-02  0.1186339E+00
        -11   -1    0    0    0    0  0.00000000000E+00  0.00000000000E+00  0.45593999997E+02  0.45594000000E+02  0.51100000000E-03 0.  1.
         11   -1    0    0    0    0 -0.00000000000E+00 -0.00000000000E+00 -0.45593999997E+02  0.45594000000E+02  0.51100000000E-03 0. -1.
    9900012    2    1    2    0    0 -0.41992006770E+00 -0.85443328841E+00  0.69763440425E+00  0.90007710684E+02  0.89999971665E+02 0.  0.
        -12    1    1    2    0    0  0.41992006770E+00  0.85443328841E+00 -0.69763440425E+00  0.11802893161E+01  0.00000000000E+00 0.  1.
         11    1    3    3    0    0  0.21168731651E+02 -0.37669793388E+02  0.23328504074E+00  0.43210912462E+02  0.51100000000E-03 0. -1.
        -11    1    3    3    0    0  0.27115880054E+01  0.82048499636E+01 -0.28849876505E+01  0.91101825690E+01  0.51100000000E-03 0.  1.
        -12    1    3    3    0    0 -0.24300239724E+02  0.28610510136E+02  0.33493370140E+01  0.37686615653E+02  0.00000000000E+00 0.  1.
</event>
<event>
 7    1  0.2232484E-015  0.9000690E+02  0.7816164E-02  0.1186341E+00
        -11   -1    0    0    0    0  0.00000000000E+00  0.00000000000E+00  0.45593999997E+02  0.45594000000E+02  0.51100000000E-03 0.  1.
         11   -1    0    0    0    0 -0.00000000000E+00 -0.00000000000E+00 -0.45593999997E+02  0.45594000000E+02  0.51100000000E-03 0. -1.
    9900012    2    1    2    0    0 -0.16309731849E-01  0.38056246212E-01 -0.11803739644E+01  0.90006900097E+02  0.89999150374E+02 0.  0.
        -12    1    1    2    0    0  0.16309731849E-01 -0.38056246212E-01  0.11803739644E+01  0.11810999031E+01  0.00000000000E+00 0.  1.
         11    1    3    3    0    0 -0.21430489869E+00  0.31407083101E+01 -0.88701225969E+01  0.94121756477E+01  0.51100000000E-03 0. -1.
        -11    1    3    3    0    0 -0.27869557167E+02 -0.30278007536E+02  0.33933458044E+01  0.41291461018E+02  0.51100000000E-03 0.  1.
         12    1    3    3    0    0  0.28067552334E+02  0.27175355472E+02  0.42964028281E+01  0.39303263431E+02  0.00000000000E+00 0. -1.
</event>
<event>
 7    1  0.2232484E-015  0.9000749E+02  0.7816164E-02  0.1186340E+00
        -11   -1    0    0    0    0  0.00000000000E+00  0.00000000000E+00  0.45593999997E+02  0.45594000000E+02  0.51100000000E-03 0.  1.
         11   -1    0    0    0    0 -0.00000000000E+00 -0.00000000000E+00 -0.45593999997E+02  0.45594000000E+02  0.51100000000E-03 0. -1.
    9900012    2    1    2    0    0  0.11180909656E+01 -0.47144200193E-01 -0.37584941594E+00  0.90007486228E+02  0.89999744246E+02 0.  0.
        -12    1    1    2    0    0 -0.11180909656E+01  0.47144200193E-01  0.37584941594E+00  0.11805137722E+01  0.00000000000E+00 0.  1.
         11    1    3    3    0    0  0.89525133127E+01 -0.47954797352E+01  0.57960876109E+01  0.11693534639E+02  0.51100000000E-03 0. -1.
        -11    1    3    3    0    0  0.18194773752E+02  0.76092480340E+01  0.28627203544E+02  0.34763015268E+02  0.51100000000E-03 0.  1.
         12    1    3    3    0    0 -0.26029196099E+02 -0.28609124990E+01 -0.34799140571E+02  0.43550936320E+02  0.00000000000E+00 0. -1.
</event>
<event>
 7    1  0.2232484E-015  0.9000805E+02  0.7816164E-02  0.1186338E+00
        -11   -1    0    0    0    0  0.00000000000E+00  0.00000000000E+00  0.45593999997E+02  0.45594000000E+02  0.51100000000E-03 0.  1.
         11   -1    0    0    0    0 -0.00000000000E+00 -0.00000000000E+00 -0.45593999997E+02  0.45594000000E+02  0.51100000000E-03 0. -1.
    9900012    2    1    2    0    0 -0.55800531708E+00 -0.96873351510E+00  0.37743583265E+00  0.90008054084E+02  0.90000319597E+02 0.  0.
        -12    1    1    2    0    0  0.55800531708E+00  0.96873351510E+00 -0.37743583265E+00  0.11799459161E+01  0.00000000000E+00 0.  1.
         11    1    3    3    0    0 -0.31826698680E+02 -0.89170222830E+01 -0.11620169421E+02  0.35035415980E+02  0.51100000000E-03 0. -1.
        -11    1    3    3    0    0 -0.25474418505E+01 -0.11825415003E+02 -0.38805800605E+01  0.12703889240E+02  0.51100000000E-03 0.  1.
        -12    1    3    3    0    0  0.33816135213E+02  0.19773703770E+02  0.15878185314E+02  0.42268748863E+02  0.00000000000E+00 0.  1.
</event>
<event>
 7    1  0.2232484E-015  0.9000774E+02  0.7816164E-02  0.1186339E+00
        -11   -1    0    0    0    0  0.00000000000E+00  0.00000000000E+00  0.45593999997E+02  0.45594000000E+02  0.51100000000E-03 0.  1.
         11   -1    0    0    0    0 -0.00000000000E+00 -0.00000000000E+00 -0.45593999997E+02  0.45594000000E+02  0.51100000000E-03 0. -1.
    9900012    2    1    2    0    0 -0.67892109476E+00  0.67403806638E+00 -0.69119609820E+00  0.90007740192E+02  0.90000001563E+02 0.  0.
        -12    1    1    2    0    0  0.67892109476E+00 -0.67403806638E+00  0.69119609820E+00  0.11802598078E+01  0.00000000000E+00 0.  1.
         11    1    3    3    0    0  0.59159158468E+01 -0.83573191876E+01 -0.38241876809E+02  0.39588937678E+02  0.51100000000E-03 0. -1.
        -11    1    3    3    0    0 -0.37950693344E+01  0.88530892143E+01 -0.27527474775E+01  0.10017852007E+02  0.51100000000E-03 0.  1.
        -12    1    3    3    0    0 -0.27997676072E+01  0.17826803969E+00  0.40303428189E+02  0.40400950508E+02  0.00000000000E+00 0.  1.
</event>
<event>
 7    1  0.2232484E-015  0.9000773E+02  0.7816164E-02  0.1186339E+00
        -11   -1    0    0    0    0  0.00000000000E+00  0.00000000000E+00  0.45593999997E+02  0.45594000000E+02  0.51100000000E-03 0.  1.
         11   -1    0    0    0    0 -0.00000000000E+00 -0.00000000000E+00 -0.45593999997E+02  0.45594000000E+02  0.51100000000E-03 0. -1.
    9900012    2    1    2    0    0  0.10476019466E+01  0.50566441148E+00 -0.19967590067E+00  0.90007730200E+02  0.89999991439E+02 0.  0.
        -12    1    1    2    0    0 -0.10476019466E+01 -0.50566441148E+00  0.19967590067E+00  0.11802698001E+01  0.00000000000E+00 0.  1.
         11    1    3    3    0    0 -0.18266340148E+02 -0.75121980369E+01 -0.34070417667E+02  0.39381285682E+02  0.51100000000E-03 0. -1.
        -11    1    3    3    0    0 -0.81977483509E+01  0.12670855517E+01  0.32420408711E+01  0.89061446816E+01  0.51100000000E-03 0.  1.
        -12    1    3    3    0    0  0.27511690446E+02  0.67507768967E+01  0.30628700895E+02  0.41720299836E+02  0.00000000000E+00 0.  1.
</event>
<event>
 7    1  0.2232484E-015  0.9000763E+02  0.7816164E-02  0.1186339E+00
        -11   -1    0    0    0    0  0.00000000000E+00  0.00000000000E+00  0.45593999997E+02  0.45594000000E+02  0.51100000000E-03 0. -1.
         11   -1    0    0    0    0 -0.00000000000E+00 -0.00000000000E+00 -0.45593999997E+02  0.45594000000E+02  0.51100000000E-03 0.  1.
    9900012    2    1    2    0    0 -0.38240296212E+00 -0.10724712132E+01  0.31121277406E+00  0.90007627212E+02  0.89999887091E+02 0.  0.
        -12    1    1    2    0    0  0.38240296212E+00  0.10724712132E+01 -0.31121277406E+00  0.11803727882E+01  0.00000000000E+00 0.  1.
         11    1    3    3    0    0  0.40518793525E+02 -0.10516392394E+02 -0.10703432809E+02  0.43207992453E+02  0.51100000000E-03 0. -1.
        -11    1    3    3    0    0 -0.16195288885E+01 -0.33768362552E+01  0.27849846861E+01  0.46671229765E+01  0.51100000000E-03 0.  1.
        -12    1    3    3    0    0 -0.39281667599E+02  0.12820757436E+02  0.82296608965E+01  0.42132511782E+02  0.00000000000E+00 0.  1.
</event>
<event>
 7    1  0.2232484E-015  0.9000766E+02  0.7816164E-02  0.1186339E+00
        -11   -1    0    0    0    0  0.00000000000E+00  0.00000000000E+00  0.45593999997E+02  0.45594000000E+02  0.51100000000E-03 0.  1.
         11   -1    0    0    0    0 -0.00000000000E+00 -0.00000000000E+00 -0.45593999997E+02  0.45594000000E+02  0.51100000000E-03 0. -1.
    9900012    2    1    2    0    0 -0.37015171994E+00  0.37924113221E+00 -0.10546896698E+01  0.90007658341E+02  0.89999918631E+02 0.  0.
        -12    1    1    2    0    0  0.37015171994E+00 -0.37924113221E+00  0.10546896698E+01  0.11803416589E+01  0.00000000000E+00 0.  1.
         11    1    3    3    0    0 -0.16935843529E+02 -0.36993916850E+02 -0.93897449284E+00  0.40697104975E+02  0.51100000000E-03 0. -1.
        -11    1    3    3    0    0 -0.74421081588E+01  0.52553855056E+01  0.12041526831E+01  0.91898876275E+01  0.51100000000E-03 0.  1.
        -12    1    3    3    0    0  0.24007799967E+02  0.32117772477E+02 -0.13198678600E+01  0.40120665739E+02  0.00000000000E+00 0.  1.
</event>
<event>
 7    1  0.2232484E-015  0.9000786E+02  0.7816164E-02  0.1186339E+00
        -11   -1    0    0    0    0  0.00000000000E+00  0.00000000000E+00  0.45593999997E+02  0.45594000000E+02  0.51100000000E-03 0. -1.
         11   -1    0    0    0    0 -0.00000000000E+00 -0.00000000000E+00 -0.45593999997E+02  0.45594000000E+02  0.51100000000E-03 0.  1.
    9900012    2    1    2    0    0 -0.84372422874E+00  0.50631811549E+00  0.65153014930E+00  0.90007864354E+02  0.90000127363E+02 0.  0.
        -12    1    1    2    0    0  0.84372422874E+00 -0.50631811549E+00 -0.65153014930E+00  0.11801356463E+01  0.00000000000E+00 0.  1.
         11    1    3    3    0    0  0.49472452113E+01 -0.49169362153E+01  0.48502590000E+01  0.84956759328E+01  0.51100000000E-03 0. -1.
        -11    1    3    3    0    0 -0.39432678463E+01  0.63764502927E-01 -0.42555949075E+02  0.42738299324E+02  0.51100000000E-03 0.  1.
         12    1    3    3    0    0 -0.18477015937E+01  0.53594898279E+01  0.38357220224E+02  0.38773889097E+02  0.00000000000E+00 0. -1.
</event>
<event>
 7    1  0.2232484E-015  0.9000739E+02  0.7816164E-02  0.1186340E+00
        -11   -1    0    0    0    0  0.00000000000E+00  0.00000000000E+00  0.45593999997E+02  0.45594000000E+02  0.51100000000E-03 0.  1.
         11   -1    0    0    0    0 -0.00000000000E+00 -0.00000000000E+00 -0.45593999997E+02  0.45594000000E+02  0.51100000000E-03 0. -1.
    9900012    2    1    2    0    0 -0.80149277314E+00  0.28137126870E+00 -0.81992820760E+00  0.90007388835E+02  0.89999645567E+02 0.  0.
        -12    1    1    2    0    0  0.80149277314E+00 -0.28137126870E+00  0.81992820760E+00  0.11806111646E+01  0.00000000000E+00 0.  1.
         11    1    3    3    0    0  0.14463739024E+02 -0.89867510432E+01 -0.12543001081E+02  0.21149191882E+02  0.51100000000E-03 0. -1.
        -11    1    3    3    0    0 -0.22880893882E+02  0.12594829089E+02 -0.21985790742E+02  0.34140006142E+02  0.51100000000E-03 0.  1.
        -12    1    3    3    0    0  0.76156620842E+01 -0.33267067774E+01  0.33708863615E+02  0.34718190811E+02  0.00000000000E+00 0.  1.
</event>
<event>
 7    1  0.2232484E-015  0.9000756E+02  0.7816164E-02  0.1186339E+00
        -11   -1    0    0    0    0  0.00000000000E+00  0.00000000000E+00  0.45593999997E+02  0.45594000000E+02  0.51100000000E-03 0. -1.
         11   -1    0    0    0    0 -0.00000000000E+00 -0.00000000000E+00 -0.45593999997E+02  0.45594000000E+02  0.51100000000E-03 0.  1.
    9900012    2    1    2    0    0  0.61311415360E+00  0.72334376661E+00 -0.70306667910E+00  0.90007560283E+02  0.89999819279E+02 0.  0.
        -12    1    1    2    0    0 -0.61311415360E+00 -0.72334376661E+00  0.70306667910E+00  0.11804397169E+01  0.00000000000E+00 0.  1.
         11    1    3    3    0    0 -0.71462988595E+01  0.10446698634E+01 -0.29247794171E+01  0.77919995773E+01  0.51100000000E-03 0. -1.
        -11    1    3    3    0    0 -0.21912782714E+02 -0.30477609273E+02  0.10774678185E+02  0.39053148445E+02  0.51100000000E-03 0.  1.
         12    1    3    3    0    0  0.29672195727E+02  0.30156283176E+02 -0.85529654470E+01  0.43162412261E+02  0.00000000000E+00 0. -1.
</event>
<event>
 7    1  0.2232484E-015  0.9000780E+02  0.7816164E-02  0.1186339E+00
        -11   -1    0    0    0    0  0.00000000000E+00  0.00000000000E+00  0.45593999997E+02  0.45594000000E+02  0.51100000000E-03 0. -1.
         11   -1    0    0    0    0 -0.00000000000E+00 -0.00000000000E+00 -0.45593999997E+02  0.45594000000E+02  0.51100000000E-03 0.  1.
    9900012    2    1    2    0    0 -0.20246232357E+00 -0.86273221715E-01  0.11595007673E+01  0.90007798284E+02  0.90000060421E+02 0.  0.
        -12    1    1    2    0    0  0.20246232357E+00  0.86273221715E-01 -0.11595007673E+01  0.11802017161E+01  0.00000000000E+00 0.  1.
         11    1    3    3    0    0 -0.26661916996E+01  0.14218331190E+01 -0.66488654692E+01  0.73032595384E+01  0.51100000000E-03 0. -1.
        -11    1    3    3    0    0 -0.12062503698E+02  0.31757093449E+02 -0.17732767064E+02  0.38320595087E+02  0.51100000000E-03 0.  1.
         12    1    3    3    0    0  0.14526233074E+02 -0.33265199790E+02  0.25541133301E+02  0.44383943658E+02  0.00000000000E+00 0. -1.
</event>
<event>
 7    1  0.2232484E-015  0.9000774E+02  0.7816164E-02  0.1186339E+00
        -11   -1    0    0    0    0  0.00000000000E+00  0.00000000000E+00  0.45593999997E+02  0.45594000000E+02  0.51100000000E-03 0.  1.
         11   -1    0    0    0    0 -0.00000000000E+00 -0.00000000000E+00 -0.45593999997E+02  0.45594000000E+02  0.51100000000E-03 0. -1.
    9900012    2    1    2    0    0  0.20463629407E+00  0.31972940006E+00 -0.11175518059E+01  0.90007735224E+02  0.89999996529E+02 0.  0.
        -12    1    1    2    0    0 -0.20463629407E+00 -0.31972940006E+00  0.11175518059E+01  0.11802647758E+01  0.00000000000E+00 0.  1.
         11    1    3    3    0    0  0.24189122795E+01 -0.68683687461E+01  0.12571987526E+01  0.73895990970E+01  0.51100000000E-03 0. -1.
        -11    1    3    3    0    0  0.29916999804E+02  0.95784905546E+01  0.25151113883E+02  0.40241183984E+02  0.51100000000E-03 0.  1.
         12    1    3    3    0    0 -0.32131275790E+02 -0.23903924084E+01 -0.27525864441E+02  0.42376952144E+02  0.00000000000E+00 0. -1.
</event>
<event>
 7    1  0.2232484E-015  0.9000779E+02  0.7816164E-02  0.1186339E+00
        -11   -1    0    0    0    0  0.00000000000E+00  0.00000000000E+00  0.45593999997E+02  0.45594000000E+02  0.51100000000E-03 0. -1.
         11   -1    0    0    0    0 -0.00000000000E+00 -0.00000000000E+00 -0.45593999997E+02  0.45594000000E+02  0.51100000000E-03 0.  1.
    9900012    2    1    2    0    0 -0.45330679854E-01 -0.10731799483E+01  0.48900659361E+00  0.90007789205E+02  0.90000051223E+02 0.  0.
        -12    1    1    2    0    0  0.45330679854E-01  0.10731799483E+01 -0.48900659361E+00  0.11802107950E+01  0.00000000000E+00 0.  1.
         11    1    3    3    0    0 -0.55035550557E+01  0.15199061490E+01  0.76614778378E+01  0.95549712649E+01  0.51100000000E-03 0. -1.
        -11    1    3    3    0    0 -0.66532390609E+01 -0.40127320948E+02 -0.28031367216E+01  0.40771620672E+02  0.51100000000E-03 0.  1.
         12    1    3    3    0    0  0.12111463437E+02  0.37534234851E+02 -0.43693345226E+01  0.39681197268E+02  0.00000000000E+00 0. -1.
</event>
<event>
 7    1  0.2232484E-015  0.9000782E+02  0.7816164E-02  0.1186339E+00
        -11   -1    0    0    0    0  0.00000000000E+00  0.00000000000E+00  0.45593999997E+02  0.45594000000E+02  0.51100000000E-03 0.  1.
         11   -1    0    0    0    0 -0.00000000000E+00 -0.00000000000E+00 -0.45593999997E+02  0.45594000000E+02  0.51100000000E-03 0. -1.
    9900012    2    1    2    0    0  0.48792526336E+00  0.85712354006E+00  0.64814035713E+00  0.90007823001E+02  0.90000085465E+02 0.  0.
        -12    1    1    2    0    0 -0.48792526336E+00 -0.85712354006E+00 -0.64814035713E+00  0.11801769986E+01  0.00000000000E+00 0.  1.
         11    1    3    3    0    0 -0.19926989711E+02 -0.48255497682E+01 -0.26508867464E+02  0.33512548456E+02  0.51100000000E-03 0. -1.
        -11    1    3    3    0    0 -0.58613570706E+01  0.66864101026E+00 -0.94594727894E+01  0.11148282972E+02  0.51100000000E-03 0.  1.
        -12    1    3    3    0    0  0.26276272045E+02  0.50140322980E+01  0.36616480611E+02  0.45346991574E+02  0.00000000000E+00 0.  1.
</event>
<event>
 7    1  0.2232484E-015  0.9000769E+02  0.7816164E-02  0.1186339E+00
        -11   -1    0    0    0    0  0.00000000000E+00  0.00000000000E+00  0.45593999997E+02  0.45594000000E+02  0.51100000000E-03 0.  1.
         11   -1    0    0    0    0 -0.00000000000E+00 -0.00000000000E+00 -0.45593999997E+02  0.45594000000E+02  0.51100000000E-03 0. -1.
    9900012    2    1    2    0    0  0.53627952612E+00  0.48026792031E+00 -0.93534474517E+00  0.90007693770E+02  0.89999954527E+02 0.  0.
        -12    1    1    2    0    0 -0.53627952612E+00 -0.48026792031E+00  0.93534474517E+00  0.11803062305E+01  0.00000000000E+00 0.  1.
         11    1    3    3    0    0 -0.12916710564E+02 -0.27652914383E+02 -0.31527205044E+02  0.43880402731E+02  0.51100000000E-03 0. -1.
        -11    1    3    3    0    0 -0.20280340985E+01  0.85100731666E+01  0.39580148271E+01  0.96020908785E+01  0.51100000000E-03 0.  1.
        -12    1    3    3    0    0  0.15481024189E+02  0.19623109136E+02  0.26633845472E+02  0.36525200160E+02  0.00000000000E+00 0.  1.
</event>
<event>
 7    1  0.2232484E-015  0.9000777E+02  0.7816164E-02  0.1186339E+00
        -11   -1    0    0    0    0  0.00000000000E+00  0.00000000000E+00  0.45593999997E+02  0.45594000000E+02  0.51100000000E-03 0.  1.
         11   -1    0    0    0    0 -0.00000000000E+00 -0.00000000000E+00 -0.45593999997E+02  0.45594000000E+02  0.51100000000E-03 0. -1.
    9900012    2    1    2    0    0 -0.53573574017E+00  0.32308560030E+00  0.10007681171E+01  0.90007773787E+02  0.90000035601E+02 0.  0.
        -12    1    1    2    0    0  0.53573574017E+00 -0.32308560030E+00 -0.10007681171E+01  0.11802262125E+01  0.00000000000E+00 0.  1.
         11    1    3    3    0    0  0.26978614802E+01  0.65221442538E+01  0.64264424483E+01  0.95454693460E+01  0.51100000000E-03 0. -1.
        -11    1    3    3    0    0  0.12039213588E+02 -0.18720854607E+02  0.31509740362E+02  0.38578190717E+02  0.51100000000E-03 0.  1.
         12    1    3    3    0    0 -0.15272810808E+02  0.12521795953E+02 -0.36935414694E+02  0.41884113724E+02  0.00000000000E+00 0. -1.
</event>
<event>
 7    1  0.2232484E-015  0.9000773E+02  0.7816164E-02  0.1186339E+00
        -11   -1    0    0    0    0  0.00000000000E+00  0.00000000000E+00  0.45593999997E+02  0.45594000000E+02  0.51100000000E-03 0.  1.
         11   -1    0    0    0    0 -0.00000000000E+00 -0.00000000000E+00 -0.45593999997E+02  0.45594000000E+02  0.51100000000E-03 0. -1.
    9900012    2    1    2    0    0  0.30199537606E+00 -0.73584747627E+00 -0.87199125296E+00  0.90007728226E+02  0.89999989438E+02 0.  0.
        -12    1    1    2    0    0 -0.30199537606E+00  0.73584747627E+00  0.87199125296E+00  0.11802717741E+01  0.00000000000E+00 0.  1.
         11    1    3    3    0    0 -0.10595926441E+02  0.60444763868E+01 -0.22153901200E+01  0.12398278331E+02  0.51100000000E-03 0. -1.
        -11    1    3    3    0    0  0.54903475648E+01  0.31394461929E+02  0.16851277840E+02  0.36051653517E+02  0.51100000000E-03 0.  1.
         12    1    3    3    0    0  0.54075742520E+01 -0.38174785792E+02 -0.15507878973E+02  0.41557796378E+02  0.00000000000E+00 0. -1.
</event>
<event>
 7    1  0.3152626E-015  0.9000777E+02  0.7816164E-02  0.1186339E+00
        -11   -1    0    0    0    0  0.00000000000E+00  0.00000000000E+00  0.45593999997E+02  0.45594000000E+02  0.51100000000E-03 0.  1.
         11   -1    0    0    0    0 -0.00000000000E+00 -0.00000000000E+00 -0.45593999997E+02  0.45594000000E+02  0.51100000000E-03 0. -1.
    9900012    2    1    2    0    0  0.11222557821E-01  0.10833705022E+01 -0.46810131902E+00  0.90007772719E+02  0.90000034518E+02 0.  0.
        -12    1    1    2    0    0 -0.11222557821E-01 -0.10833705022E+01  0.46810131902E+00  0.11802272814E+01  0.00000000000E+00 0.  1.
         11    1    3    3    0    0 -0.87523608433E+01  0.21617749027E+01  0.21351635275E+01  0.92647727771E+01  0.51100000000E-03 0. -1.
        -11    1    3    3    0    0 -0.12248629675E+02  0.33738194030E+02  0.11517249504E+02  0.37695380377E+02  0.51100000000E-03 0.  1.
         12    1    3    3    0    0  0.21012213076E+02 -0.34816598431E+02 -0.14120514351E+02  0.43047619565E+02  0.00000000000E+00 0. -1.
</event>
<event>
 7    1  0.2232484E-015  0.9000765E+02  0.7816164E-02  0.1186339E+00
        -11   -1    0    0    0    0  0.00000000000E+00  0.00000000000E+00  0.45593999997E+02  0.45594000000E+02  0.51100000000E-03 0.  1.
         11   -1    0    0    0    0 -0.00000000000E+00 -0.00000000000E+00 -0.45593999997E+02  0.45594000000E+02  0.51100000000E-03 0. -1.
    9900012    2    1    2    0    0  0.83936078367E+00  0.74219750483E+00 -0.37126122293E+00  0.90007653205E+02  0.89999913427E+02 0.  0.
        -12    1    1    2    0    0 -0.83936078367E+00 -0.74219750483E+00  0.37126122293E+00  0.11803467952E+01  0.00000000000E+00 0.  1.
         11    1    3    3    0    0  0.62697282802E+01  0.90165017941E+01 -0.85719986251E+01  0.13931473648E+02  0.51100000000E-03 0. -1.
        -11    1    3    3    0    0  0.22841738395E+02 -0.16517053901E+02  0.28674561621E+02  0.40209309456E+02  0.51100000000E-03 0.  1.
         12    1    3    3    0    0 -0.28272105892E+02  0.82427496115E+01 -0.20473824219E+02  0.35866870101E+02  0.00000000000E+00 0. -1.
</event>
<event>
 7    1  0.2232484E-015  0.9000775E+02  0.7816164E-02  0.1186339E+00
        -11   -1    0    0    0    0  0.00000000000E+00  0.00000000000E+00  0.45593999997E+02  0.45594000000E+02  0.51100000000E-03 0.  1.
         11   -1    0    0    0    0 -0.00000000000E+00 -0.00000000000E+00 -0.45593999997E+02  0.45594000000E+02  0.51100000000E-03 0. -1.
    9900012    2    1    2    0    0 -0.65895671687E+00  0.97492848073E+00  0.90956121562E-01  0.90007753198E+02  0.90000014740E+02 0.  0.
        -12    1    1    2    0    0  0.65895671687E+00 -0.97492848073E+00 -0.90956121562E-01  0.11802468019E+01  0.00000000000E+00 0.  1.
         11    1    3    3    0    0  0.52422878195E+01  0.34282410555E+02  0.12004033058E+02  0.36699619411E+02  0.51100000000E-03 0. -1.
        -11    1    3    3    0    0  0.45410885443E+01 -0.34082708897E+01  0.12230752071E+02  0.13484401808E+02  0.51100000000E-03 0.  1.
        -12    1    3    3    0    0 -0.10442333081E+02 -0.29899211184E+02 -0.24143829007E+02  0.39823731979E+02  0.00000000000E+00 0.  1.
</event>
<event>
 7    1  0.2232484E-015  0.9000786E+02  0.7816164E-02  0.1186339E+00
        -11   -1    0    0    0    0  0.00000000000E+00  0.00000000000E+00  0.45593999997E+02  0.45594000000E+02  0.51100000000E-03 0. -1.
         11   -1    0    0    0    0 -0.00000000000E+00 -0.00000000000E+00 -0.45593999997E+02  0.45594000000E+02  0.51100000000E-03 0.  1.
    9900012    2    1    2    0    0 -0.83091452272E+00  0.66726043384E+00  0.50702304155E+00  0.90007861112E+02  0.90000124078E+02 0.  0.
        -12    1    1    2    0    0  0.83091452272E+00 -0.66726043384E+00 -0.50702304155E+00  0.11801388881E+01  0.00000000000E+00 0.  1.
         11    1    3    3    0    0  0.37728241643E+02 -0.77925080289E+00 -0.51200363441E+01  0.38082045923E+02  0.51100000000E-03 0. -1.
        -11    1    3    3    0    0  0.32540088903E+01 -0.69565521777E+01  0.51994293046E+01  0.92744949950E+01  0.51100000000E-03 0.  1.
        -12    1    3    3    0    0 -0.41813165056E+02  0.84030634144E+01  0.42763008110E+00  0.42651320193E+02  0.00000000000E+00 0.  1.
</event>
<event>
 7    1  0.2232484E-015  0.9000774E+02  0.7816164E-02  0.1186339E+00
        -11   -1    0    0    0    0  0.00000000000E+00  0.00000000000E+00  0.45593999997E+02  0.45594000000E+02  0.51100000000E-03 0. -1.
         11   -1    0    0    0    0 -0.00000000000E+00 -0.00000000000E+00 -0.45593999997E+02  0.45594000000E+02  0.51100000000E-03 0.  1.
    9900012    2    1    2    0    0  0.49057072515E+00 -0.10562068926E+01 -0.19180472749E+00  0.90007736601E+02  0.89999997925E+02 0.  0.
        -12    1    1    2    0    0 -0.49057072515E+00  0.10562068926E+01  0.19180472749E+00  0.11802633985E+01  0.00000000000E+00 0.  1.
         11    1    3    3    0    0  0.59578490016E+01 -0.11524644800E+01 -0.76643066033E+01  0.97757728633E+01  0.51100000000E-03 0. -1.
        -11    1    3    3    0    0 -0.17570998301E+02  0.34766667852E+02 -0.90054563155E+01  0.39981988676E+02  0.51100000000E-03 0.  1.
         12    1    3    3    0    0  0.12103720025E+02 -0.34670410264E+02  0.16477958191E+02  0.40249975062E+02  0.00000000000E+00 0. -1.
</event>
<event>
 7    1  0.2232484E-015  0.9000776E+02  0.7816164E-02  0.1186339E+00
        -11   -1    0    0    0    0  0.00000000000E+00  0.00000000000E+00  0.45593999997E+02  0.45594000000E+02  0.51100000000E-03 0.  1.
         11   -1    0    0    0    0 -0.00000000000E+00 -0.00000000000E+00 -0.45593999997E+02  0.45594000000E+02  0.51100000000E-03 0. -1.
    9900012    2    1    2    0    0 -0.82019018261E-01 -0.75175041331E+00 -0.90615126922E+00  0.90007760225E+02  0.90000021860E+02 0.  0.
        -12    1    1    2    0    0  0.82019018261E-01  0.75175041331E+00  0.90615126922E+00  0.11802397748E+01  0.00000000000E+00 0.  1.
         11    1    3    3    0    0 -0.24279631425E+01 -0.80338302663E+01 -0.15223074170E+01  0.85296455906E+01  0.51100000000E-03 0. -1.
        -11    1    3    3    0    0  0.26370001707E+02 -0.23888764597E+02 -0.15679627437E+02  0.38883168349E+02  0.51100000000E-03 0.  1.
         12    1    3    3    0    0 -0.24024057583E+02  0.31170844450E+02  0.16295783585E+02  0.42594946286E+02  0.00000000000E+00 0. -1.
</event>
<event>
 7    1  0.2232484E-015  0.9000772E+02  0.7816164E-02  0.1186339E+00
        -11   -1    0    0    0    0  0.00000000000E+00  0.00000000000E+00  0.45593999997E+02  0.45594000000E+02  0.51100000000E-03 0.  1.
         11   -1    0    0    0    0 -0.00000000000E+00 -0.00000000000E+00 -0.45593999997E+02  0.45594000000E+02  0.51100000000E-03 0. -1.
    9900012    2    1    2    0    0  0.99491749203E+00  0.30746706610E+00 -0.55558003247E+00  0.90007717837E+02  0.89999978912E+02 0.  0.
        -12    1    1    2    0    0 -0.99491749203E+00 -0.30746706610E+00  0.55558003247E+00  0.11802821634E+01  0.00000000000E+00 0.  1.
         11    1    3    3    0    0 -0.73069462760E+00  0.15964575472E-01  0.75591257440E+01  0.75943763260E+01  0.51100000000E-03 0. -1.
        -11    1    3    3    0    0  0.20996663407E+02  0.35073311196E+02  0.33918583773E+01  0.41018309765E+02  0.51100000000E-03 0.  1.
         12    1    3    3    0    0 -0.19271051287E+02 -0.34781808706E+02 -0.11506564154E+02  0.41395031745E+02  0.00000000000E+00 0. -1.
</event>
<event>
 7    1  0.2232484E-015  0.9000766E+02  0.7816164E-02  0.1186339E+00
        -11   -1    0    0    0    0  0.00000000000E+00  0.00000000000E+00  0.45593999997E+02  0.45594000000E+02  0.51100000000E-03 0.  1.
         11   -1    0    0    0    0 -0.00000000000E+00 -0.00000000000E+00 -0.45593999997E+02  0.45594000000E+02  0.51100000000E-03 0. -1.
    9900012    2    1    2    0    0  0.11326376405E+00 -0.78872586111E+00 -0.87079505116E+00  0.90007660563E+02  0.89999920883E+02 0.  0.
        -12    1    1    2    0    0 -0.11326376405E+00  0.78872586111E+00  0.87079505116E+00  0.11803394365E+01  0.00000000000E+00 0.  1.
         11    1    3    3    0    0  0.34844539685E+02 -0.33711623942E+01  0.29017242907E+01  0.35127292606E+02  0.51100000000E-03 0. -1.
        -11    1    3    3    0    0  0.42355860737E+01 -0.41679292809E+01 -0.12979861464E+02  0.14275455431E+02  0.51100000000E-03 0.  1.
        -12    1    3    3    0    0 -0.38966861994E+02  0.67503658140E+01  0.92073421223E+01  0.40604912526E+02  0.00000000000E+00 0.  1.
</event>
<event>
 7    1  0.2232484E-015  0.9000774E+02  0.7816164E-02  0.1186339E+00
        -11   -1    0    0    0    0  0.00000000000E+00  0.00000000000E+00  0.45593999997E+02  0.45594000000E+02  0.51100000000E-03 0.  1.
         11   -1    0    0    0    0 -0.00000000000E+00 -0.00000000000E+00 -0.45593999997E+02  0.45594000000E+02  0.51100000000E-03 0. -1.
    9900012    2    1    2    0    0 -0.54440809648E+00 -0.10346551583E+01 -0.16164114222E+00  0.90007737601E+02  0.89999998937E+02 0.  0.
        -12    1    1    2    0    0  0.54440809648E+00  0.10346551583E+01  0.16164114222E+00  0.11802623992E+01  0.00000000000E+00 0.  1.
         11    1    3    3    0    0 -0.35902751779E+01 -0.22509984631E+02 -0.30052493764E+02  0.37719250598E+02  0.51100000000E-03 0. -1.
        -11    1    3    3    0    0 -0.16071700650E+01  0.24941077336E+01 -0.86124964530E+01  0.91092625617E+01  0.51100000000E-03 0.  1.
        -12    1    3    3    0    0  0.46530371464E+01  0.18981221739E+02  0.38503349075E+02  0.43179224442E+02  0.00000000000E+00 0.  1.
</event>
<event>
 7    1  0.2232484E-015  0.9000791E+02  0.7816164E-02  0.1186339E+00
        -11   -1    0    0    0    0  0.00000000000E+00  0.00000000000E+00  0.45593999997E+02  0.45594000000E+02  0.51100000000E-03 0.  1.
         11   -1    0    0    0    0 -0.00000000000E+00 -0.00000000000E+00 -0.45593999997E+02  0.45594000000E+02  0.51100000000E-03 0. -1.
    9900012    2    1    2    0    0  0.53360066489E+00 -0.53323096211E+00 -0.90748979119E+00  0.90007914135E+02  0.90000177801E+02 0.  0.
        -12    1    1    2    0    0 -0.53360066489E+00  0.53323096211E+00  0.90748979119E+00  0.11800858654E+01  0.00000000000E+00 0.  1.
         11    1    3    3    0    0  0.45737830224E+01 -0.17088801894E+02 -0.48255814334E+01  0.18336653940E+02  0.51100000000E-03 0. -1.
        -11    1    3    3    0    0  0.70296951421E+01 -0.15433150977E+02  0.26154141664E+02  0.31171106642E+02  0.51100000000E-03 0.  1.
         12    1    3    3    0    0 -0.11069877500E+02  0.31988721908E+02 -0.22236050022E+02  0.40500153552E+02  0.00000000000E+00 0. -1.
</event>
<event>
 7    1  0.2232484E-015  0.9000770E+02  0.7816164E-02  0.1186339E+00
        -11   -1    0    0    0    0  0.00000000000E+00  0.00000000000E+00  0.45593999997E+02  0.45594000000E+02  0.51100000000E-03 0.  1.
         11   -1    0    0    0    0 -0.00000000000E+00 -0.00000000000E+00 -0.45593999997E+02  0.45594000000E+02  0.51100000000E-03 0. -1.
    9900012    2    1    2    0    0  0.51560234385E+00  0.10394900417E+01  0.21618002289E+00  0.90007695325E+02  0.89999956103E+02 0.  0.
        -12    1    1    2    0    0 -0.51560234385E+00 -0.10394900417E+01 -0.21618002289E+00  0.11803046751E+01  0.00000000000E+00 0.  1.
         11    1    3    3    0    0 -0.28523060113E+01 -0.44747521445E+01 -0.10788507621E+02  0.12022934471E+02  0.51100000000E-03 0. -1.
        -11    1    3    3    0    0 -0.13178628172E+02 -0.32366232665E+02  0.11037850326E+02  0.36648102236E+02  0.51100000000E-03 0.  1.
         12    1    3    3    0    0  0.16546536527E+02  0.37880474851E+02 -0.33162682616E-01  0.41336658618E+02  0.00000000000E+00 0. -1.
</event>
<event>
 7    1  0.2232484E-015  0.9000776E+02  0.7816164E-02  0.1186339E+00
        -11   -1    0    0    0    0  0.00000000000E+00  0.00000000000E+00  0.45593999997E+02  0.45594000000E+02  0.51100000000E-03 0.  1.
         11   -1    0    0    0    0 -0.00000000000E+00 -0.00000000000E+00 -0.45593999997E+02  0.45594000000E+02  0.51100000000E-03 0. -1.
    9900012    2    1    2    0    0 -0.12557753089E+00  0.41125964254E+00 -0.10991156321E+01  0.90007762997E+02  0.90000024669E+02 0.  0.
        -12    1    1    2    0    0  0.12557753089E+00 -0.41125964254E+00  0.10991156321E+01  0.11802370028E+01  0.00000000000E+00 0.  1.
         11    1    3    3    0    0 -0.15028693126E+02 -0.10123356016E+01  0.79951726247E+01  0.17053129508E+02  0.51100000000E-03 0. -1.
        -11    1    3    3    0    0  0.16374717097E+02 -0.11774672659E+00  0.29799618418E+02  0.34002389363E+02  0.51100000000E-03 0.  1.
         12    1    3    3    0    0 -0.14716015015E+01  0.15413419707E+01 -0.38893906675E+02  0.38952244126E+02  0.00000000000E+00 0. -1.
</event>
<event>
 7    1  0.2232484E-015  0.9000756E+02  0.7816164E-02  0.1186339E+00
        -11   -1    0    0    0    0  0.00000000000E+00  0.00000000000E+00  0.45593999997E+02  0.45594000000E+02  0.51100000000E-03 0. -1.
         11   -1    0    0    0    0 -0.00000000000E+00 -0.00000000000E+00 -0.45593999997E+02  0.45594000000E+02  0.51100000000E-03 0.  1.
    9900012    2    1    2    0    0 -0.10028060129E+01 -0.54297753169E+00  0.30494071344E+00  0.90007562226E+02  0.89999821247E+02 0.  0.
        -12    1    1    2    0    0  0.10028060129E+01  0.54297753169E+00 -0.30494071344E+00  0.11804377739E+01  0.00000000000E+00 0.  1.
         11    1    3    3    0    0  0.88124216340E+01 -0.33375843389E+02  0.23548623846E+01  0.34599871013E+02  0.51100000000E-03 0. -1.
        -11    1    3    3    0    0  0.18442773236E+01 -0.10153550355E+02  0.25532513477E+01  0.10630853040E+02  0.51100000000E-03 0.  1.
        -12    1    3    3    0    0 -0.11659504971E+02  0.42986416212E+02 -0.46031730188E+01  0.44776838173E+02  0.00000000000E+00 0.  1.
</event>
<event>
 7    1  0.2232484E-015  0.9000779E+02  0.7816164E-02  0.1186339E+00
        -11   -1    0    0    0    0  0.00000000000E+00  0.00000000000E+00  0.45593999997E+02  0.45594000000E+02  0.51100000000E-03 0.  1.
         11   -1    0    0    0    0 -0.00000000000E+00 -0.00000000000E+00 -0.45593999997E+02  0.45594000000E+02  0.51100000000E-03 0. -1.
    9900012    2    1    2    0    0 -0.57344826783E+00  0.75767688776E+00 -0.69998233279E+00  0.90007791354E+02  0.90000053400E+02 0.  0.
        -12    1    1    2    0    0  0.57344826783E+00 -0.75767688776E+00  0.69998233279E+00  0.11802086461E+01  0.00000000000E+00 0.  1.
         11    1    3    3    0    0  0.63042481001E+01 -0.31345989877E+02 -0.44012657893E+01  0.32275157107E+02  0.51100000000E-03 0. -1.
        -11    1    3    3    0    0  0.12789293585E+02 -0.25523564439E+01 -0.90734928346E+01  0.15887379466E+02  0.51100000000E-03 0.  1.
        -12    1    3    3    0    0 -0.19666989953E+02  0.34656023208E+02  0.12774776291E+02  0.41845254781E+02  0.00000000000E+00 0.  1.
</event>
<event>
 7    1  0.2232484E-015  0.9000769E+02  0.7816164E-02  0.1186339E+00
        -11   -1    0    0    0    0  0.00000000000E+00  0.00000000000E+00  0.45593999997E+02  0.45594000000E+02  0.51100000000E-03 0. -1.
         11   -1    0    0    0    0 -0.00000000000E+00 -0.00000000000E+00 -0.45593999997E+02  0.45594000000E+02  0.51100000000E-03 0.  1.
    9900012    2    1    2    0    0  0.11441286929E+01 -0.10711110709E+00  0.26951324297E+00  0.90007686210E+02  0.89999946868E+02 0.  0.
        -12    1    1    2    0    0 -0.11441286929E+01  0.10711110709E+00 -0.26951324297E+00  0.11803137902E+01  0.00000000000E+00 0.  1.
         11    1    3    3    0    0  0.10997698930E+02  0.72093146586E+01  0.15916990342E+02  0.20646408439E+02  0.51100000000E-03 0. -1.
        -11    1    3    3    0    0  0.69969095061E+01  0.24462590231E+02  0.75737906399E+01  0.26546889994E+02  0.51100000000E-03 0.  1.
         12    1    3    3    0    0 -0.16850479743E+02 -0.31779015997E+02 -0.23221267739E+02  0.42814387777E+02  0.00000000000E+00 0. -1.
</event>
<event>
 7    1  0.2232484E-015  0.9000770E+02  0.7816164E-02  0.1186339E+00
        -11   -1    0    0    0    0  0.00000000000E+00  0.00000000000E+00  0.45593999997E+02  0.45594000000E+02  0.51100000000E-03 0.  1.
         11   -1    0    0    0    0 -0.00000000000E+00 -0.00000000000E+00 -0.45593999997E+02  0.45594000000E+02  0.51100000000E-03 0. -1.
    9900012    2    1    2    0    0 -0.52641765365E+00  0.29950796697E+00 -0.10130629935E+01  0.90007696142E+02  0.89999956931E+02 0.  0.
        -12    1    1    2    0    0  0.52641765365E+00 -0.29950796697E+00  0.10130629935E+01  0.11803038579E+01  0.00000000000E+00 0.  1.
         11    1    3    3    0    0  0.83594656614E+01 -0.36721706059E+02 -0.22800794911E+02  0.44025454124E+02  0.51100000000E-03 0. -1.
        -11    1    3    3    0    0  0.30768970425E+01  0.73122870003E+01  0.74838681753E+01  0.10906196391E+02  0.51100000000E-03 0.  1.
        -12    1    3    3    0    0 -0.11962780358E+02  0.29708927025E+02  0.14303863743E+02  0.35076045627E+02  0.00000000000E+00 0.  1.
</event>
<event>
 7    1  0.2232484E-015  0.9000756E+02  0.7816164E-02  0.1186339E+00
        -11   -1    0    0    0    0  0.00000000000E+00  0.00000000000E+00  0.45593999997E+02  0.45594000000E+02  0.51100000000E-03 0. -1.
         11   -1    0    0    0    0 -0.00000000000E+00 -0.00000000000E+00 -0.45593999997E+02  0.45594000000E+02  0.51100000000E-03 0.  1.
    9900012    2    1    2    0    0  0.29587449472E+00 -0.30545456737E+00  0.11011838900E+01  0.90007555097E+02  0.89999814024E+02 0.  0.
        -12    1    1    2    0    0 -0.29587449472E+00  0.30545456737E+00 -0.11011838900E+01  0.11804449029E+01  0.00000000000E+00 0.  1.
         11    1    3    3    0    0 -0.27278164186E+02 -0.14936789713E+02  0.14714975818E+02  0.34405471103E+02  0.51100000000E-03 0. -1.
        -11    1    3    3    0    0 -0.66663328751E+01 -0.73356223440E+01  0.47223553222E+01  0.10979616989E+02  0.51100000000E-03 0.  1.
        -12    1    3    3    0    0  0.34240371555E+02  0.21966957490E+02 -0.18336147250E+02  0.44622467005E+02  0.00000000000E+00 0.  1.
</event>
<event>
 7    1  0.2232484E-015  0.9000768E+02  0.7816164E-02  0.1186339E+00
        -11   -1    0    0    0    0  0.00000000000E+00  0.00000000000E+00  0.45593999997E+02  0.45594000000E+02  0.51100000000E-03 0. -1.
         11   -1    0    0    0    0 -0.00000000000E+00 -0.00000000000E+00 -0.45593999997E+02  0.45594000000E+02  0.51100000000E-03 0.  1.
    9900012    2    1    2    0    0  0.26580999220E+00 -0.11499808692E+01 -0.69345820256E-02  0.90007678417E+02  0.89999938972E+02 0.  0.
        -12    1    1    2    0    0 -0.26580999220E+00  0.11499808692E+01  0.69345820256E-02  0.11803215833E+01  0.00000000000E+00 0.  1.
         11    1    3    3    0    0  0.12267404826E+02 -0.35499417444E+02  0.32708522499E+01  0.37701410248E+02  0.51100000000E-03 0. -1.
        -11    1    3    3    0    0  0.16950718215E+01 -0.65394721417E+01 -0.60863794791E+01  0.90929632022E+01  0.51100000000E-03 0.  1.
        -12    1    3    3    0    0 -0.13696666655E+02  0.40888908716E+02  0.28085926471E+01  0.43213304966E+02  0.00000000000E+00 0.  1.
</event>
<event>
 7    1  0.2232484E-015  0.9000787E+02  0.7816164E-02  0.1186339E+00
        -11   -1    0    0    0    0  0.00000000000E+00  0.00000000000E+00  0.45593999997E+02  0.45594000000E+02  0.51100000000E-03 0.  1.
         11   -1    0    0    0    0 -0.00000000000E+00 -0.00000000000E+00 -0.45593999997E+02  0.45594000000E+02  0.51100000000E-03 0. -1.
    9900012    2    1    2    0    0 -0.10139579922E+01 -0.17210731691E+00 -0.57876509403E+00  0.90007872561E+02  0.90000135679E+02 0.  0.
        -12    1    1    2    0    0  0.10139579922E+01  0.17210731691E+00  0.57876509403E+00  0.11801274391E+01  0.00000000000E+00 0.  1.
         11    1    3    3    0    0 -0.33504480527E+02  0.24435289713E+02  0.22322803675E+01  0.41528504363E+02  0.51100000000E-03 0. -1.
        -11    1    3    3    0    0 -0.16026371000E+01 -0.11251084895E+02 -0.33875468533E+01  0.11858787077E+02  0.51100000000E-03 0.  1.
        -12    1    3    3    0    0  0.34093159635E+02 -0.13356312135E+02  0.57650139179E+00  0.36620581120E+02  0.00000000000E+00 0.  1.
</event>
<event>
 7    1  0.2232484E-015  0.9000703E+02  0.7816164E-02  0.1186340E+00
        -11   -1    0    0    0    0  0.00000000000E+00  0.00000000000E+00  0.45593999997E+02  0.45594000000E+02  0.51100000000E-03 0.  1.
         11   -1    0    0    0    0 -0.00000000000E+00 -0.00000000000E+00 -0.45593999997E+02  0.45594000000E+02  0.51100000000E-03 0. -1.
    9900012    2    1    2    0    0  0.69109838585E-01  0.42456346141E+00 -0.10998400331E+01  0.90007034970E+02  0.89999287029E+02 0.  0.
        -12    1    1    2    0    0 -0.69109838585E-01 -0.42456346141E+00  0.10998400331E+01  0.11809650296E+01  0.00000000000E+00 0.  1.
         11    1    3    3    0    0 -0.24763386029E-01 -0.25920137305E+02 -0.29024876448E+02  0.38913976721E+02  0.51100000000E-03 0. -1.
        -11    1    3    3    0    0  0.57920926301E+01  0.48875175494E+00 -0.58035776141E+01  0.82139350313E+01  0.51100000000E-03 0.  1.
        -12    1    3    3    0    0 -0.56982194055E+01  0.25855949012E+02  0.33728614029E+02  0.42879123218E+02  0.00000000000E+00 0.  1.
</event>
<event>
 7    1  0.3771110E-015  0.9000783E+02  0.7816164E-02  0.1186339E+00
        -11   -1    0    0    0    0  0.00000000000E+00  0.00000000000E+00  0.45593999997E+02  0.45594000000E+02  0.51100000000E-03 0. -1.
         11   -1    0    0    0    0 -0.00000000000E+00 -0.00000000000E+00 -0.45593999997E+02  0.45594000000E+02  0.51100000000E-03 0.  1.
    9900012    2    1    2    0    0  0.27652745837E+00  0.32292207635E+00  0.11009333331E+01  0.90007830391E+02  0.90000092952E+02 0.  0.
        -12    1    1    2    0    0 -0.27652745837E+00 -0.32292207635E+00 -0.11009333331E+01  0.11801696093E+01  0.00000000000E+00 0.  1.
         11    1    3    3    0    0  0.45130347970E+01  0.78138608040E+01  0.37039971151E+01  0.97541528916E+01  0.51100000000E-03 0. -1.
        -11    1    3    3    0    0  0.11593291533E+02  0.78549222633E+01 -0.36907750777E+02  0.39475134959E+02  0.51100000000E-03 0.  1.
         12    1    3    3    0    0 -0.15829798871E+02 -0.15345860991E+02  0.34304686995E+02  0.40778542540E+02  0.00000000000E+00 0. -1.
</event>
<event>
 7    1  0.2232484E-015  0.9000770E+02  0.7816164E-02  0.1186339E+00
        -11   -1    0    0    0    0  0.00000000000E+00  0.00000000000E+00  0.45593999997E+02  0.45594000000E+02  0.51100000000E-03 0.  1.
         11   -1    0    0    0    0 -0.00000000000E+00 -0.00000000000E+00 -0.45593999997E+02  0.45594000000E+02  0.51100000000E-03 0. -1.
    9900012    2    1    2    0    0  0.36736037046E+00 -0.52728130428E-01 -0.11204376884E+01  0.90007697280E+02  0.89999958084E+02 0.  0.
        -12    1    1    2    0    0 -0.36736037046E+00  0.52728130428E-01  0.11204376884E+01  0.11803027201E+01  0.00000000000E+00 0.  1.
         11    1    3    3    0    0  0.24501910207E+02  0.29528761218E+02 -0.65007835373E+01  0.38917239493E+02  0.51100000000E-03 0. -1.
        -11    1    3    3    0    0 -0.92313702500E+01 -0.75367266828E+00 -0.11293114808E+02  0.14605501070E+02  0.51100000000E-03 0.  1.
        -12    1    3    3    0    0 -0.14903179587E+02 -0.28827816680E+02  0.16673460657E+02  0.36484956717E+02  0.00000000000E+00 0.  1.
</event>
<event>
 7    1  0.2232484E-015  0.9000778E+02  0.7816164E-02  0.1186339E+00
        -11   -1    0    0    0    0  0.00000000000E+00  0.00000000000E+00  0.45593999997E+02  0.45594000000E+02  0.51100000000E-03 0.  1.
         11   -1    0    0    0    0 -0.00000000000E+00 -0.00000000000E+00 -0.45593999997E+02  0.45594000000E+02  0.51100000000E-03 0. -1.
    9900012    2    1    2    0    0  0.19844441027E+00  0.97948695203E+00 -0.62781678610E+00  0.90007775958E+02  0.90000037800E+02 0.  0.
        -12    1    1    2    0    0 -0.19844441027E+00 -0.97948695203E+00  0.62781678610E+00  0.11802240423E+01  0.00000000000E+00 0.  1.
         11    1    3    3    0    0  0.12840789438E+02  0.32918925961E+02 -0.13628207851E+02  0.37871752129E+02  0.51100000000E-03 0. -1.
        -11    1    3    3    0    0 -0.31530302589E+01  0.78144143902E+01 -0.18924788258E+01  0.86364430434E+01  0.51100000000E-03 0.  1.
        -12    1    3    3    0    0 -0.94893147688E+01 -0.39753853400E+02  0.14892869890E+02  0.43499580785E+02  0.00000000000E+00 0.  1.
</event>
<event>
 7    1  0.2232484E-015  0.9000777E+02  0.7816164E-02  0.1186339E+00
        -11   -1    0    0    0    0  0.00000000000E+00  0.00000000000E+00  0.45593999997E+02  0.45594000000E+02  0.51100000000E-03 0. -1.
         11   -1    0    0    0    0 -0.00000000000E+00 -0.00000000000E+00 -0.45593999997E+02  0.45594000000E+02  0.51100000000E-03 0.  1.
    9900012    2    1    2    0    0 -0.77886203165E+00  0.68470297008E+00 -0.56347406073E+00  0.90007768142E+02  0.90000029881E+02 0.  0.
        -12    1    1    2    0    0  0.77886203165E+00 -0.68470297008E+00  0.56347406073E+00  0.11802318580E+01  0.00000000000E+00 0.  1.
         11    1    3    3    0    0 -0.36459104366E+01 -0.49115552178E+01 -0.11432790305E+02  0.12966292145E+02  0.51100000000E-03 0. -1.
        -11    1    3    3    0    0 -0.15415737360E+02  0.54491994722E+01 -0.28937127650E+02  0.33236968727E+02  0.51100000000E-03 0.  1.
         12    1    3    3    0    0  0.18282785765E+02  0.14705871570E+00  0.39806443895E+02  0.43804507270E+02  0.00000000000E+00 0. -1.
</event>
<event>
 7    1  0.2232484E-015  0.9000779E+02  0.7816164E-02  0.1186339E+00
        -11   -1    0    0    0    0  0.00000000000E+00  0.00000000000E+00  0.45593999997E+02  0.45594000000E+02  0.51100000000E-03 0. -1.
         11   -1    0    0    0    0 -0.00000000000E+00 -0.00000000000E+00 -0.45593999997E+02  0.45594000000E+02  0.51100000000E-03 0.  1.
    9900012    2    1    2    0    0  0.84696066799E+00  0.11036925894E+00  0.81448188311E+00  0.90007786255E+02  0.90000048233E+02 0.  0.
        -12    1    1    2    0    0 -0.84696066799E+00 -0.11036925894E+00 -0.81448188311E+00  0.11802137452E+01  0.00000000000E+00 0.  1.
         11    1    3    3    0    0  0.97828486492E+01  0.32201106269E+01  0.35180338290E+01  0.10883464633E+02  0.51100000000E-03 0. -1.
        -11    1    3    3    0    0  0.10809416817E+02  0.15057028451E+02  0.30955021763E+02  0.36080063336E+02  0.51100000000E-03 0.  1.
         12    1    3    3    0    0 -0.19745304798E+02 -0.18166769819E+02 -0.33658573709E+02  0.43044258286E+02  0.00000000000E+00 0. -1.
</event>
<event>
 7    1  0.2232484E-015  0.9000780E+02  0.7816164E-02  0.1186339E+00
        -11   -1    0    0    0    0  0.00000000000E+00  0.00000000000E+00  0.45593999997E+02  0.45594000000E+02  0.51100000000E-03 0.  1.
         11   -1    0    0    0    0 -0.00000000000E+00 -0.00000000000E+00 -0.45593999997E+02  0.45594000000E+02  0.51100000000E-03 0. -1.
    9900012    2    1    2    0    0  0.11778357595E+01  0.53528371911E-01  0.52092397389E-01  0.90007798330E+02  0.90000060468E+02 0.  0.
        -12    1    1    2    0    0 -0.11778357595E+01 -0.53528371911E-01 -0.52092397389E-01  0.11802016695E+01  0.00000000000E+00 0.  1.
         11    1    3    3    0    0  0.24878904644E+02  0.19964040314E+01 -0.34973867011E+02  0.42966462494E+02  0.51100000000E-03 0. -1.
        -11    1    3    3    0    0 -0.81522391261E+01  0.53441168339E+01  0.21964617891E+01  0.99921485255E+01  0.51100000000E-03 0.  1.
        -12    1    3    3    0    0 -0.15548829759E+02 -0.72869924934E+01  0.32829497619E+02  0.37049187310E+02  0.00000000000E+00 0.  1.
</event>
<event>
 7    1  0.2232484E-015  0.9000777E+02  0.7816164E-02  0.1186339E+00
        -11   -1    0    0    0    0  0.00000000000E+00  0.00000000000E+00  0.45593999997E+02  0.45594000000E+02  0.51100000000E-03 0.  1.
         11   -1    0    0    0    0 -0.00000000000E+00 -0.00000000000E+00 -0.45593999997E+02  0.45594000000E+02  0.51100000000E-03 0. -1.
    9900012    2    1    2    0    0 -0.96810914878E+00 -0.39686355441E-01  0.67389913805E+00  0.90007766812E+02  0.90000028533E+02 0.  0.
        -12    1    1    2    0    0  0.96810914878E+00  0.39686355441E-01 -0.67389913805E+00  0.11802331884E+01  0.00000000000E+00 0.  1.
         11    1    3    3    0    0 -0.13830263963E+02  0.33059908765E+02 -0.18607354938E+02  0.40379046879E+02  0.51100000000E-03 0. -1.
        -11    1    3    3    0    0  0.60776463952E+01  0.44752373530E+01  0.32270299876E+01  0.82084869417E+01  0.51100000000E-03 0.  1.
        -12    1    3    3    0    0  0.67845084186E+01 -0.37574832474E+02  0.16054224089E+02  0.41420232990E+02  0.00000000000E+00 0.  1.
</event>
<event>
 7    1  0.2232484E-015  0.9000735E+02  0.7816164E-02  0.1186340E+00
        -11   -1    0    0    0    0  0.00000000000E+00  0.00000000000E+00  0.45593999997E+02  0.45594000000E+02  0.51100000000E-03 0. -1.
         11   -1    0    0    0    0 -0.00000000000E+00 -0.00000000000E+00 -0.45593999997E+02  0.45594000000E+02  0.51100000000E-03 0.  1.
    9900012    2    1    2    0    0 -0.39079158801E+00  0.94467429784E+00 -0.59059490420E+00  0.90007351900E+02  0.89999608145E+02 0.  0.
        -12    1    1    2    0    0  0.39079158801E+00 -0.94467429784E+00  0.59059490420E+00  0.11806480996E+01  0.00000000000E+00 0.  1.
         11    1    3    3    0    0  0.54340100172E+01 -0.53235082830E+01 -0.33425147651E+01  0.83090679695E+01  0.51100000000E-03 0. -1.
        -11    1    3    3    0    0  0.12696465750E+01  0.18930458124E+02  0.38606853912E+02  0.43017013105E+02  0.51100000000E-03 0.  1.
         12    1    3    3    0    0 -0.70944481802E+01 -0.12662275543E+02 -0.35854934051E+02  0.38681270826E+02  0.00000000000E+00 0. -1.
</event>
<event>
 7    1  0.2232484E-015  0.9000780E+02  0.7816164E-02  0.1186339E+00
        -11   -1    0    0    0    0  0.00000000000E+00  0.00000000000E+00  0.45593999997E+02  0.45594000000E+02  0.51100000000E-03 0. -1.
         11   -1    0    0    0    0 -0.00000000000E+00 -0.00000000000E+00 -0.45593999997E+02  0.45594000000E+02  0.51100000000E-03 0.  1.
    9900012    2    1    2    0    0 -0.10024173777E+01  0.30431559857E+00  0.54353092102E+00  0.90007798981E+02  0.90000061128E+02 0.  0.
        -12    1    1    2    0    0  0.10024173777E+01 -0.30431559857E+00 -0.54353092102E+00  0.11802010188E+01  0.00000000000E+00 0.  1.
         11    1    3    3    0    0  0.29305005689E+02  0.16094297448E+02  0.19668680101E+02  0.38790034106E+02  0.51100000000E-03 0. -1.
        -11    1    3    3    0    0  0.13580926022E+01  0.74946774066E+01 -0.62654230923E+01  0.98625621281E+01  0.51100000000E-03 0.  1.
        -12    1    3    3    0    0 -0.31665515669E+02 -0.23284659256E+02 -0.12859726087E+02  0.41355202747E+02  0.00000000000E+00 0.  1.
</event>
<event>
 7    1  0.2442862E-015  0.9000773E+02  0.7816164E-02  0.1186339E+00
        -11   -1    0    0    0    0  0.00000000000E+00  0.00000000000E+00  0.45593999997E+02  0.45594000000E+02  0.51100000000E-03 0.  1.
         11   -1    0    0    0    0 -0.00000000000E+00 -0.00000000000E+00 -0.45593999997E+02  0.45594000000E+02  0.51100000000E-03 0. -1.
    9900012    2    1    2    0    0 -0.11080598717E+01 -0.39127127173E+00 -0.11026568156E+00  0.90007725283E+02  0.89999986457E+02 0.  0.
        -12    1    1    2    0    0  0.11080598717E+01  0.39127127173E+00  0.11026568156E+00  0.11802747171E+01  0.00000000000E+00 0.  1.
         11    1    3    3    0    0 -0.30414009829E+01  0.58986932797E+01  0.69733990197E+01  0.96266814893E+01  0.51100000000E-03 0. -1.
        -11    1    3    3    0    0  0.45823248898E+01 -0.11783352915E+02  0.35333678472E+02  0.37527509136E+02  0.51100000000E-03 0.  1.
         12    1    3    3    0    0 -0.26489837786E+01  0.54933883635E+01 -0.42417343173E+02  0.42853534658E+02  0.00000000000E+00 0. -1.
</event>
<event>
 7    1  0.2232484E-015  0.9000772E+02  0.7816164E-02  0.1186339E+00
        -11   -1    0    0    0    0  0.00000000000E+00  0.00000000000E+00  0.45593999997E+02  0.45594000000E+02  0.51100000000E-03 0.  1.
         11   -1    0    0    0    0 -0.00000000000E+00 -0.00000000000E+00 -0.45593999997E+02  0.45594000000E+02  0.51100000000E-03 0. -1.
    9900012    2    1    2    0    0  0.47578625681E+00 -0.43448748498E+00 -0.98888971077E+00  0.90007722576E+02  0.89999983714E+02 0.  0.
        -12    1    1    2    0    0 -0.47578625681E+00  0.43448748498E+00  0.98888971077E+00  0.11802774237E+01  0.00000000000E+00 0.  1.
         11    1    3    3    0    0 -0.13507806107E+02  0.94070113005E+01  0.20425866693E+01  0.16586887833E+02  0.51100000000E-03 0. -1.
        -11    1    3    3    0    0  0.27969732628E+02  0.15320998230E+02  0.19042566871E+02  0.37143751605E+02  0.51100000000E-03 0.  1.
         12    1    3    3    0    0 -0.13986140264E+02 -0.25162497015E+02 -0.22074043251E+02  0.36277083138E+02  0.00000000000E+00 0. -1.
</event>
<event>
 7    1  0.2232484E-015  0.9000772E+02  0.7816164E-02  0.1186339E+00
        -11   -1    0    0    0    0  0.00000000000E+00  0.00000000000E+00  0.45593999997E+02  0.45594000000E+02  0.51100000000E-03 0.  1.
         11   -1    0    0    0    0 -0.00000000000E+00 -0.00000000000E+00 -0.45593999997E+02  0.45594000000E+02  0.51100000000E-03 0. -1.
    9900012    2    1    2    0    0 -0.44893180363E+00 -0.10404028671E+01  0.33029424518E+00  0.90007715213E+02  0.89999976254E+02 0.  0.
        -12    1    1    2    0    0  0.44893180363E+00  0.10404028671E+01 -0.33029424518E+00  0.11802847871E+01  0.00000000000E+00 0.  1.
         11    1    3    3    0    0  0.27810999177E+02 -0.12400647905E+02 -0.22516523281E+02  0.37871117816E+02  0.51100000000E-03 0. -1.
        -11    1    3    3    0    0  0.40647090573E+01  0.80243471267E+01 -0.41338808450E+01  0.98995443144E+01  0.51100000000E-03 0.  1.
        -12    1    3    3    0    0 -0.32324640038E+02  0.33358979109E+01  0.26980698372E+02  0.42237053082E+02  0.00000000000E+00 0.  1.
</event>
<event>
 7    1  0.2232484E-015  0.9000761E+02  0.7816164E-02  0.1186339E+00
        -11   -1    0    0    0    0  0.00000000000E+00  0.00000000000E+00  0.45593999997E+02  0.45594000000E+02  0.51100000000E-03 0. -1.
         11   -1    0    0    0    0 -0.00000000000E+00 -0.00000000000E+00 -0.45593999997E+02  0.45594000000E+02  0.51100000000E-03 0.  1.
    9900012    2    1    2    0    0 -0.18556163055E+00 -0.11472845175E+01  0.20647023449E+00  0.90007608183E+02  0.89999867811E+02 0.  0.
        -12    1    1    2    0    0  0.18556163055E+00  0.11472845175E+01 -0.20647023449E+00  0.11803918165E+01  0.00000000000E+00 0.  1.
         11    1    3    3    0    0 -0.75563472280E+01  0.29363122841E+01  0.22736616056E+01  0.84196110728E+01  0.51100000000E-03 0. -1.
        -11    1    3    3    0    0 -0.18918975434E+02 -0.24744467943E+02 -0.25914072449E+02  0.40518581866E+02  0.51100000000E-03 0.  1.
         12    1    3    3    0    0  0.26289761032E+02  0.20660871142E+02  0.23846881078E+02  0.41069415245E+02  0.00000000000E+00 0. -1.
</event>
<event>
 7    1  0.2232484E-015  0.9000782E+02  0.7816164E-02  0.1186339E+00
        -11   -1    0    0    0    0  0.00000000000E+00  0.00000000000E+00  0.45593999997E+02  0.45594000000E+02  0.51100000000E-03 0.  1.
         11   -1    0    0    0    0 -0.00000000000E+00 -0.00000000000E+00 -0.45593999997E+02  0.45594000000E+02  0.51100000000E-03 0. -1.
    9900012    2    1    2    0    0 -0.64583445212E+00  0.10896571595E+00 -0.98175258999E+00  0.90007824668E+02  0.90000087153E+02 0.  0.
        -12    1    1    2    0    0  0.64583445212E+00 -0.10896571595E+00  0.98175258999E+00  0.11801753322E+01  0.00000000000E+00 0.  1.
         11    1    3    3    0    0  0.38397427728E+01 -0.85042291428E-01 -0.65384218660E+01  0.75829952863E+01  0.51100000000E-03 0. -1.
        -11    1    3    3    0    0  0.84605750304E+01 -0.39465524571E+02  0.19553913111E+00  0.40362695591E+02  0.51100000000E-03 0.  1.
         12    1    3    3    0    0 -0.12946152255E+02  0.39659532579E+02  0.53611301449E+01  0.42062133791E+02  0.00000000000E+00 0. -1.
</event>
<event>
 7    1  0.2232484E-015  0.9000798E+02  0.7816164E-02  0.1186339E+00
        -11   -1    0    0    0    0  0.00000000000E+00  0.00000000000E+00  0.45593999997E+02  0.45594000000E+02  0.51100000000E-03 0.  1.
         11   -1    0    0    0    0 -0.00000000000E+00 -0.00000000000E+00 -0.45593999997E+02  0.45594000000E+02  0.51100000000E-03 0. -1.
    9900012    2    1    2    0    0 -0.10252514570E+01 -0.16883916731E-01 -0.58397641532E+00  0.90007977089E+02  0.90000241586E+02 0.  0.
        -12    1    1    2    0    0  0.10252514570E+01  0.16883916731E-01  0.58397641532E+00  0.11800229109E+01  0.00000000000E+00 0.  1.
         11    1    3    3    0    0 -0.36231460087E+02 -0.19873781425E+02 -0.78810873634E+01  0.42068960368E+02  0.51100000000E-03 0. -1.
        -11    1    3    3    0    0  0.10022948811E+02  0.85302900893E+01 -0.89353774523E+01  0.15908058409E+02  0.51100000000E-03 0.  1.
        -12    1    3    3    0    0  0.25183259818E+02  0.11326607419E+02  0.16232488400E+02  0.32030958312E+02  0.00000000000E+00 0.  1.
</event>
<event>
 7    1  0.2232484E-015  0.9000772E+02  0.7816164E-02  0.1186339E+00
        -11   -1    0    0    0    0  0.00000000000E+00  0.00000000000E+00  0.45593999997E+02  0.45594000000E+02  0.51100000000E-03 0. -1.
         11   -1    0    0    0    0 -0.00000000000E+00 -0.00000000000E+00 -0.45593999997E+02  0.45594000000E+02  0.51100000000E-03 0.  1.
    9900012    2    1    2    0    0  0.69972818390E+00 -0.65698117939E+00  0.68689195160E+00  0.90007718527E+02  0.89999979612E+02 0.  0.
        -12    1    1    2    0    0 -0.69972818390E+00  0.65698117939E+00 -0.68689195160E+00  0.11802814726E+01  0.00000000000E+00 0.  1.
         11    1    3    3    0    0 -0.11569516598E+01 -0.99078979002E+01  0.43129806426E+00  0.99845378574E+01  0.51100000000E-03 0. -1.
        -11    1    3    3    0    0  0.87860434239E+01 -0.31373198454E+02 -0.15274664988E+02  0.35983156213E+02  0.51100000000E-03 0.  1.
         12    1    3    3    0    0 -0.69293635802E+01  0.40624115175E+02  0.15530258876E+02  0.44040024457E+02  0.00000000000E+00 0. -1.
</event>
<event>
 7    1  0.2232484E-015  0.9000769E+02  0.7816164E-02  0.1186339E+00
        -11   -1    0    0    0    0  0.00000000000E+00  0.00000000000E+00  0.45593999997E+02  0.45594000000E+02  0.51100000000E-03 0. -1.
         11   -1    0    0    0    0 -0.00000000000E+00 -0.00000000000E+00 -0.45593999997E+02  0.45594000000E+02  0.51100000000E-03 0.  1.
    9900012    2    1    2    0    0  0.98561061582E+00 -0.64461422754E+00  0.78621159410E-01  0.90007687721E+02  0.89999948399E+02 0.  0.
        -12    1    1    2    0    0 -0.98561061582E+00  0.64461422754E+00 -0.78621159410E-01  0.11803122786E+01  0.00000000000E+00 0.  1.
         11    1    3    3    0    0  0.12812220299E+02 -0.96995814163E+01  0.65117304207E+01  0.17338901406E+02  0.51100000000E-03 0. -1.
        -11    1    3    3    0    0  0.28736499467E+02  0.83803861632E+01 -0.10896761885E+02  0.31855245937E+02  0.51100000000E-03 0.  1.
         12    1    3    3    0    0 -0.40563109150E+02  0.67458102555E+00  0.44636526238E+01  0.40813540378E+02  0.00000000000E+00 0. -1.
</event>
<event>
 7    1  0.2232484E-015  0.9000777E+02  0.7816164E-02  0.1186339E+00
        -11   -1    0    0    0    0  0.00000000000E+00  0.00000000000E+00  0.45593999997E+02  0.45594000000E+02  0.51100000000E-03 0. -1.
         11   -1    0    0    0    0 -0.00000000000E+00 -0.00000000000E+00 -0.45593999997E+02  0.45594000000E+02  0.51100000000E-03 0.  1.
    9900012    2    1    2    0    0 -0.57135546029E-01  0.31327395247E+00  0.11364603328E+01  0.90007768189E+02  0.90000029929E+02 0.  0.
        -12    1    1    2    0    0  0.57135546029E-01 -0.31327395247E+00 -0.11364603328E+01  0.11802318111E+01  0.00000000000E+00 0.  1.
         11    1    3    3    0    0 -0.19892553318E+02  0.35404153347E+02  0.21869957120E+01  0.40668792731E+02  0.51100000000E-03 0. -1.
        -11    1    3    3    0    0 -0.26336898740E+01 -0.25992980021E+01  0.79974890479E+01  0.88120658071E+01  0.51100000000E-03 0.  1.
        -12    1    3    3    0    0  0.22469107646E+02 -0.32491581392E+02 -0.90480244270E+01  0.40526909650E+02  0.00000000000E+00 0.  1.
</event>
<event>
 7    1  0.2232484E-015  0.9000777E+02  0.7816164E-02  0.1186339E+00
        -11   -1    0    0    0    0  0.00000000000E+00  0.00000000000E+00  0.45593999997E+02  0.45594000000E+02  0.51100000000E-03 0. -1.
         11   -1    0    0    0    0 -0.00000000000E+00 -0.00000000000E+00 -0.45593999997E+02  0.45594000000E+02  0.51100000000E-03 0.  1.
    9900012    2    1    2    0    0 -0.26854775344E+00 -0.47212966752E+00  0.10478198334E+01  0.90007766666E+02  0.90000028386E+02 0.  0.
        -12    1    1    2    0    0  0.26854775344E+00  0.47212966752E+00 -0.10478198334E+01  0.11802333338E+01  0.00000000000E+00 0.  1.
         11    1    3    3    0    0 -0.73708491190E+01  0.53814891123E+00 -0.22102488455E+01  0.77138979255E+01  0.51100000000E-03 0. -1.
        -11    1    3    3    0    0  0.30919119812E+02 -0.13851643907E+02 -0.25802492749E+02  0.42586719071E+02  0.51100000000E-03 0.  1.
         12    1    3    3    0    0 -0.23816818447E+02  0.12841365328E+02  0.29060561428E+02  0.39707149670E+02  0.00000000000E+00 0. -1.
</event>
<event>
 7    1  0.2232484E-015  0.9000775E+02  0.7816164E-02  0.1186339E+00
        -11   -1    0    0    0    0  0.00000000000E+00  0.00000000000E+00  0.45593999997E+02  0.45594000000E+02  0.51100000000E-03 0. -1.
         11   -1    0    0    0    0 -0.00000000000E+00 -0.00000000000E+00 -0.45593999997E+02  0.45594000000E+02  0.51100000000E-03 0.  1.
    9900012    2    1    2    0    0 -0.80604322007E-01  0.10608124843E+01  0.51105019178E+00  0.90007748975E+02  0.90000010461E+02 0.  0.
        -12    1    1    2    0    0  0.80604322007E-01 -0.10608124843E+01 -0.51105019178E+00  0.11802510250E+01  0.00000000000E+00 0.  1.
         11    1    3    3    0    0  0.97190976503E+01 -0.30424121251E+00 -0.20321323695E+01  0.99339309480E+01  0.51100000000E-03 0. -1.
        -11    1    3    3    0    0 -0.35326754315E+02 -0.72826763090E+00 -0.24368246576E+02  0.42922271441E+02  0.51100000000E-03 0.  1.
         12    1    3    3    0    0  0.25527052343E+02  0.20933213277E+01  0.26911429138E+02  0.37151546586E+02  0.00000000000E+00 0. -1.
</event>
<event>
 7    1  0.2232484E-015  0.9000772E+02  0.7816164E-02  0.1186339E+00
        -11   -1    0    0    0    0  0.00000000000E+00  0.00000000000E+00  0.45593999997E+02  0.45594000000E+02  0.51100000000E-03 0.  1.
         11   -1    0    0    0    0 -0.00000000000E+00 -0.00000000000E+00 -0.45593999997E+02  0.45594000000E+02  0.51100000000E-03 0. -1.
    9900012    2    1    2    0    0  0.11651807965E+01 -0.18499454689E+00 -0.34410750474E-01  0.90007723180E+02  0.89999984326E+02 0.  0.
        -12    1    1    2    0    0 -0.11651807965E+01  0.18499454689E+00  0.34410750474E-01  0.11802768195E+01  0.00000000000E+00 0.  1.
         11    1    3    3    0    0 -0.64836659632E+01 -0.44185073399E+01  0.45200072731E+01  0.90549211728E+01  0.51100000000E-03 0. -1.
        -11    1    3    3    0    0 -0.22401712761E+01 -0.32185851035E+02  0.18043208214E+02  0.36966264852E+02  0.51100000000E-03 0.  1.
         12    1    3    3    0    0  0.98890180358E+01  0.36419363828E+02 -0.22597626238E+02  0.43986537156E+02  0.00000000000E+00 0. -1.
</event>
<event>
 7    1  0.2232484E-015  0.9000787E+02  0.7816164E-02  0.1186339E+00
        -11   -1    0    0    0    0  0.00000000000E+00  0.00000000000E+00  0.45593999997E+02  0.45594000000E+02  0.51100000000E-03 0. -1.
         11   -1    0    0    0    0 -0.00000000000E+00 -0.00000000000E+00 -0.45593999997E+02  0.45594000000E+02  0.51100000000E-03 0.  1.
    9900012    2    1    2    0    0 -0.98662686802E+00 -0.24832653334E-01 -0.64703863333E+00  0.90007869401E+02  0.90000132477E+02 0.  0.
        -12    1    1    2    0    0  0.98662686802E+00  0.24832653334E-01  0.64703863333E+00  0.11801305989E+01  0.00000000000E+00 0.  1.
         11    1    3    3    0    0 -0.80526158710E+00 -0.41303801155E+01 -0.81306461502E+01  0.91551020312E+01  0.51100000000E-03 0. -1.
        -11    1    3    3    0    0  0.37614857984E+02 -0.10471039631E+02 -0.25196475426E+01  0.39126318969E+02  0.51100000000E-03 0.  1.
         12    1    3    3    0    0 -0.37796223265E+02  0.14576587093E+02  0.10003255059E+02  0.41726448401E+02  0.00000000000E+00 0. -1.
</event>
<event>
 7    1  0.2232484E-015  0.9000765E+02  0.7816164E-02  0.1186339E+00
        -11   -1    0    0    0    0  0.00000000000E+00  0.00000000000E+00  0.45593999997E+02  0.45594000000E+02  0.51100000000E-03 0. -1.
         11   -1    0    0    0    0 -0.00000000000E+00 -0.00000000000E+00 -0.45593999997E+02  0.45594000000E+02  0.51100000000E-03 0.  1.
    9900012    2    1    2    0    0 -0.28910693048E+00 -0.81315144929E+00  0.80524829061E+00  0.90007651362E+02  0.89999911560E+02 0.  0.
        -12    1    1    2    0    0  0.28910693048E+00  0.81315144929E+00 -0.80524829061E+00  0.11803486376E+01  0.00000000000E+00 0.  1.
         11    1    3    3    0    0  0.47488161869E+01 -0.81483304617E+01  0.15320179142E+02  0.17990398375E+02  0.51100000000E-03 0. -1.
        -11    1    3    3    0    0  0.17537817814E+02 -0.15852095217E+02  0.15181054366E+02  0.28094988670E+02  0.51100000000E-03 0.  1.
         12    1    3    3    0    0 -0.22575740931E+02  0.23187274229E+02 -0.29695985217E+02  0.43922264318E+02  0.00000000000E+00 0. -1.
</event>
<event>
 7    1  0.2232484E-015  0.9000776E+02  0.7816164E-02  0.1186339E+00
        -11   -1    0    0    0    0  0.00000000000E+00  0.00000000000E+00  0.45593999997E+02  0.45594000000E+02  0.51100000000E-03 0.  1.
         11   -1    0    0    0    0 -0.00000000000E+00 -0.00000000000E+00 -0.45593999997E+02  0.45594000000E+02  0.51100000000E-03 0. -1.
    9900012    2    1    2    0    0  0.99960448538E+00 -0.59795717278E+00 -0.19028095895E+00  0.90007759028E+02  0.90000020648E+02 0.  0.
        -12    1    1    2    0    0 -0.99960448538E+00  0.59795717278E+00  0.19028095895E+00  0.11802409716E+01  0.00000000000E+00 0.  1.
         11    1    3    3    0    0 -0.84394397386E+01  0.63333913498E+01 -0.88964642752E+00  0.10589025456E+02  0.51100000000E-03 0. -1.
        -11    1    3    3    0    0 -0.20143387230E+01 -0.38523439665E+02  0.16897172019E+02  0.42114455791E+02  0.51100000000E-03 0.  1.
         12    1    3    3    0    0  0.11453382947E+02  0.31592091142E+02 -0.16197806551E+02  0.37304277781E+02  0.00000000000E+00 0. -1.
</event>
<event>
 7    1  0.2232484E-015  0.9000777E+02  0.7816164E-02  0.1186339E+00
        -11   -1    0    0    0    0  0.00000000000E+00  0.00000000000E+00  0.45593999997E+02  0.45594000000E+02  0.51100000000E-03 0. -1.
         11   -1    0    0    0    0 -0.00000000000E+00 -0.00000000000E+00 -0.45593999997E+02  0.45594000000E+02  0.51100000000E-03 0.  1.
    9900012    2    1    2    0    0 -0.96498605589E+00 -0.26551845568E+00  0.62549605636E+00  0.90007769745E+02  0.90000031506E+02 0.  0.
        -12    1    1    2    0    0  0.96498605589E+00  0.26551845568E+00 -0.62549605636E+00  0.11802302550E+01  0.00000000000E+00 0.  1.
         11    1    3    3    0    0  0.36226928689E-01  0.55173884238E+01 -0.10383447205E+01  0.56143608211E+01  0.51100000000E-03 0. -1.
        -11    1    3    3    0    0  0.28325915699E+02  0.26670728230E+02 -0.77002819493E+01  0.39660806685E+02  0.51100000000E-03 0.  1.
         12    1    3    3    0    0 -0.29327128684E+02 -0.32453635110E+02  0.93641227262E+01  0.44732602239E+02  0.00000000000E+00 0. -1.
</event>
<event>
 7    1  0.2232484E-015  0.9000770E+02  0.7816164E-02  0.1186339E+00
        -11   -1    0    0    0    0  0.00000000000E+00  0.00000000000E+00  0.45593999997E+02  0.45594000000E+02  0.51100000000E-03 0. -1.
         11   -1    0    0    0    0 -0.00000000000E+00 -0.00000000000E+00 -0.45593999997E+02  0.45594000000E+02  0.51100000000E-03 0.  1.
    9900012    2    1    2    0    0  0.11122601788E+01  0.36151339001E+00  0.15907132599E+00  0.90007695665E+02  0.89999956448E+02 0.  0.
        -12    1    1    2    0    0 -0.11122601788E+01 -0.36151339001E+00 -0.15907132599E+00  0.11803043350E+01  0.00000000000E+00 0.  1.
         11    1    3    3    0    0  0.45712820758E+01 -0.97372388397E+01  0.25102736770E+01  0.11045900336E+02  0.51100000000E-03 0. -1.
        -11    1    3    3    0    0 -0.39616215674E+02  0.68296436746E+01 -0.10924562637E+02  0.41658548296E+02  0.51100000000E-03 0.  1.
         12    1    3    3    0    0  0.36157193777E+02  0.32691085551E+01  0.85733602856E+01  0.37303247033E+02  0.00000000000E+00 0. -1.
</event>
<event>
 7    1  0.2232484E-015  0.9000777E+02  0.7816164E-02  0.1186339E+00
        -11   -1    0    0    0    0  0.00000000000E+00  0.00000000000E+00  0.45593999997E+02  0.45594000000E+02  0.51100000000E-03 0. -1.
         11   -1    0    0    0    0 -0.00000000000E+00 -0.00000000000E+00 -0.45593999997E+02  0.45594000000E+02  0.51100000000E-03 0.  1.
    9900012    2    1    2    0    0  0.93685555802E+00 -0.68261573736E+00  0.22199364040E+00  0.90007769617E+02  0.90000031376E+02 0.  0.
        -12    1    1    2    0    0 -0.93685555802E+00  0.68261573736E+00 -0.22199364040E+00  0.11802303834E+01  0.00000000000E+00 0.  1.
         11    1    3    3    0    0  0.62999795645E+00  0.15199819994E+02  0.26262284973E+02  0.30350272446E+02  0.51100000000E-03 0. -1.
        -11    1    3    3    0    0 -0.16020479210E+02 -0.30465405177E+01  0.92212625571E+01  0.18734162555E+02  0.51100000000E-03 0.  1.
        -12    1    3    3    0    0  0.16327336811E+02 -0.12835895214E+02 -0.35261553890E+02  0.40923334615E+02  0.00000000000E+00 0.  1.
</event>
<event>
 7    1  0.2232484E-015  0.9000775E+02  0.7816164E-02  0.1186339E+00
        -11   -1    0    0    0    0  0.00000000000E+00  0.00000000000E+00  0.45593999997E+02  0.45594000000E+02  0.51100000000E-03 0.  1.
         11   -1    0    0    0    0 -0.00000000000E+00 -0.00000000000E+00 -0.45593999997E+02  0.45594000000E+02  0.51100000000E-03 0. -1.
    9900012    2    1    2    0    0  0.14881989946E+00  0.21042854241E+00 -0.11517640685E+01  0.90007750872E+02  0.90000012384E+02 0.  0.
        -12    1    1    2    0    0 -0.14881989946E+00 -0.21042854241E+00  0.11517640685E+01  0.11802491277E+01  0.00000000000E+00 0.  1.
         11    1    3    3    0    0 -0.36287324893E+01 -0.15502524278E+01  0.77861347346E+01  0.87289676615E+01  0.51100000000E-03 0. -1.
        -11    1    3    3    0    0 -0.10887816349E+02  0.20749086377E+02  0.28448376542E+02  0.36856197016E+02  0.51100000000E-03 0.  1.
         12    1    3    3    0    0  0.14665368738E+02 -0.18988405406E+02 -0.37386275345E+02  0.44422586195E+02  0.00000000000E+00 0. -1.
</event>
<event>
 7    1  0.2232484E-015  0.9000804E+02  0.7816164E-02  0.1186338E+00
        -11   -1    0    0    0    0  0.00000000000E+00  0.00000000000E+00  0.45593999997E+02  0.45594000000E+02  0.51100000000E-03 0.  1.
         11   -1    0    0    0    0 -0.00000000000E+00 -0.00000000000E+00 -0.45593999997E+02  0.45594000000E+02  0.51100000000E-03 0. -1.
    9900012    2    1    2    0    0 -0.59663157663E+00  0.94932026514E+00  0.36758529054E+00  0.90008043581E+02  0.90000308956E+02 0.  0.
        -12    1    1    2    0    0  0.59663157663E+00 -0.94932026514E+00 -0.36758529054E+00  0.11799564186E+01  0.00000000000E+00 0.  1.
         11    1    3    3    0    0  0.29778169191E+01 -0.16134651027E+02  0.26375302634E+02  0.31062049943E+02  0.51100000000E-03 0. -1.
        -11    1    3    3    0    0 -0.15289096847E+02 -0.11593407084E+02 -0.11397115158E+01  0.19221407670E+02  0.51100000000E-03 0.  1.
         12    1    3    3    0    0  0.11714648351E+02  0.28677378376E+02 -0.24868005827E+02  0.39724585968E+02  0.00000000000E+00 0. -1.
</event>
<event>
 7    1  0.2232484E-015  0.9000775E+02  0.7816164E-02  0.1186339E+00
        -11   -1    0    0    0    0  0.00000000000E+00  0.00000000000E+00  0.45593999997E+02  0.45594000000E+02  0.51100000000E-03 0.  1.
         11   -1    0    0    0    0 -0.00000000000E+00 -0.00000000000E+00 -0.45593999997E+02  0.45594000000E+02  0.51100000000E-03 0. -1.
    9900012    2    1    2    0    0  0.99412682240E+00  0.46527638827E+00 -0.43384457079E+00  0.90007749447E+02  0.90000010940E+02 0.  0.
        -12    1    1    2    0    0 -0.99412682240E+00 -0.46527638827E+00  0.43384457079E+00  0.11802505531E+01  0.00000000000E+00 0.  1.
         11    1    3    3    0    0 -0.37302105757E+02 -0.64557853989E+01 -0.12720173618E+02  0.39936538109E+02  0.51100000000E-03 0. -1.
        -11    1    3    3    0    0 -0.43623401753E+00 -0.14052139367E+00 -0.64521824806E+01  0.64684391784E+01  0.51100000000E-03 0.  1.
        -12    1    3    3    0    0  0.38732466597E+02  0.70615831808E+01  0.18738511528E+02  0.43602772159E+02  0.00000000000E+00 0.  1.
</event>
<event>
 7    1  0.2232484E-015  0.9000768E+02  0.7816164E-02  0.1186339E+00
        -11   -1    0    0    0    0  0.00000000000E+00  0.00000000000E+00  0.45593999997E+02  0.45594000000E+02  0.51100000000E-03 0.  1.
         11   -1    0    0    0    0 -0.00000000000E+00 -0.00000000000E+00 -0.45593999997E+02  0.45594000000E+02  0.51100000000E-03 0. -1.
    9900012    2    1    2    0    0  0.86971729480E-01 -0.21156061930E+00 -0.11579396971E+01  0.90007683805E+02  0.89999944431E+02 0.  0.
        -12    1    1    2    0    0 -0.86971729480E-01  0.21156061930E+00  0.11579396971E+01  0.11803161948E+01  0.00000000000E+00 0.  1.
         11    1    3    3    0    0 -0.32856747418E+02  0.14417224584E+02 -0.21735612456E+02  0.41950674186E+02  0.51100000000E-03 0. -1.
        -11    1    3    3    0    0  0.69123299648E+01 -0.22147429193E+01 -0.55535851510E+01  0.91393489939E+01  0.51100000000E-03 0.  1.
        -12    1    3    3    0    0  0.26031389182E+02 -0.12414042284E+02  0.26131257910E+02  0.38917660625E+02  0.00000000000E+00 0.  1.
</event>
<event>
 7    1  0.2232484E-015  0.9000768E+02  0.7816164E-02  0.1186339E+00
        -11   -1    0    0    0    0  0.00000000000E+00  0.00000000000E+00  0.45593999997E+02  0.45594000000E+02  0.51100000000E-03 0.  1.
         11   -1    0    0    0    0 -0.00000000000E+00 -0.00000000000E+00 -0.45593999997E+02  0.45594000000E+02  0.51100000000E-03 0. -1.
    9900012    2    1    2    0    0 -0.71745505795E+00  0.87222786858E+00 -0.34296095805E+00  0.90007684181E+02  0.89999944812E+02 0.  0.
        -12    1    1    2    0    0  0.71745505795E+00 -0.87222786858E+00  0.34296095805E+00  0.11803158194E+01  0.00000000000E+00 0.  1.
         11    1    3    3    0    0  0.26171100582E+01 -0.35028873189E+01  0.67053649596E+01  0.80050861412E+01  0.51100000000E-03 0. -1.
        -11    1    3    3    0    0  0.13949273419E+01  0.86380224321E+01  0.36732975739E+02  0.37760730405E+02  0.51100000000E-03 0.  1.
         12    1    3    3    0    0 -0.47294924580E+01 -0.42629072447E+01 -0.43781301656E+02  0.44241867635E+02  0.00000000000E+00 0. -1.
</event>
<event>
 7    1  0.2232484E-015  0.9000865E+02  0.7816164E-02  0.1186337E+00
        -11   -1    0    0    0    0  0.00000000000E+00  0.00000000000E+00  0.45593999997E+02  0.45594000000E+02  0.51100000000E-03 0. -1.
         11   -1    0    0    0    0 -0.00000000000E+00 -0.00000000000E+00 -0.45593999997E+02  0.45594000000E+02  0.51100000000E-03 0.  1.
    9900012    2    1    2    0    0  0.48170295643E+00 -0.93278076128E+00 -0.53734763632E+00  0.90008652651E+02  0.90000926061E+02 0.  0.
        -12    1    1    2    0    0 -0.48170295643E+00  0.93278076128E+00  0.53734763632E+00  0.11793473488E+01  0.00000000000E+00 0.  1.
         11    1    3    3    0    0  0.26246147371E+02 -0.19535977346E+02  0.23127627245E+02  0.40067465666E+02  0.51100000000E-03 0. -1.
        -11    1    3    3    0    0 -0.74085888031E+01 -0.52653206839E+01  0.31519770596E+01  0.96200701454E+01  0.51100000000E-03 0.  1.
        -12    1    3    3    0    0 -0.18355855611E+02  0.23868517268E+02 -0.26816951941E+02  0.40321116840E+02  0.00000000000E+00 0.  1.
</event>
<event>
 7    1  0.2232484E-015  0.9000753E+02  0.7816164E-02  0.1186339E+00
        -11   -1    0    0    0    0  0.00000000000E+00  0.00000000000E+00  0.45593999997E+02  0.45594000000E+02  0.51100000000E-03 0. -1.
         11   -1    0    0    0    0 -0.00000000000E+00 -0.00000000000E+00 -0.45593999997E+02  0.45594000000E+02  0.51100000000E-03 0.  1.
    9900012    2    1    2    0    0 -0.22223566765E+00 -0.75665539414E+00  0.87840636835E+00  0.90007528134E+02  0.89999786706E+02 0.  0.
        -12    1    1    2    0    0  0.22223566765E+00  0.75665539414E+00 -0.87840636835E+00  0.11804718656E+01  0.00000000000E+00 0.  1.
         11    1    3    3    0    0 -0.96059321072E+01 -0.18504509686E+02  0.29532269868E+02  0.36150321910E+02  0.51100000000E-03 0. -1.
        -11    1    3    3    0    0  0.77113721673E+01  0.12701750812E+02  0.79616094070E+01  0.16857845622E+02  0.51100000000E-03 0.  1.
        -12    1    3    3    0    0  0.16723242723E+01  0.50461034796E+01 -0.36615472907E+02  0.36999360603E+02  0.00000000000E+00 0.  1.
</event>
<event>
 7    1  0.2232484E-015  0.9000776E+02  0.7816164E-02  0.1186339E+00
        -11   -1    0    0    0    0  0.00000000000E+00  0.00000000000E+00  0.45593999997E+02  0.45594000000E+02  0.51100000000E-03 0. -1.
         11   -1    0    0    0    0 -0.00000000000E+00 -0.00000000000E+00 -0.45593999997E+02  0.45594000000E+02  0.51100000000E-03 0.  1.
    9900012    2    1    2    0    0  0.44509144721E+00 -0.10807945660E+01  0.16350713336E+00  0.90007763637E+02  0.90000025317E+02 0.  0.
        -12    1    1    2    0    0 -0.44509144721E+00  0.10807945660E+01 -0.16350713336E+00  0.11802363631E+01  0.00000000000E+00 0.  1.
         11    1    3    3    0    0  0.65447523473E+01 -0.26418033660E+02  0.29590417197E+02  0.40203719678E+02  0.51100000000E-03 0. -1.
        -11    1    3    3    0    0  0.26461187286E+01  0.79934322708E+01  0.53459735240E+01  0.99737824808E+01  0.51100000000E-03 0.  1.
        -12    1    3    3    0    0 -0.87457796286E+01  0.17343806823E+02 -0.34772883588E+02  0.39830261479E+02  0.00000000000E+00 0.  1.
</event>
<event>
 7    1  0.2232484E-015  0.9000833E+02  0.7816164E-02  0.1186338E+00
        -11   -1    0    0    0    0  0.00000000000E+00  0.00000000000E+00  0.45593999997E+02  0.45594000000E+02  0.51100000000E-03 0.  1.
         11   -1    0    0    0    0 -0.00000000000E+00 -0.00000000000E+00 -0.45593999997E+02  0.45594000000E+02  0.51100000000E-03 0. -1.
    9900012    2    1    2    0    0 -0.15177102107E+00 -0.46411082864E+00 -0.10738629094E+01  0.90008332737E+02  0.90000601927E+02 0.  0.
        -12    1    1    2    0    0  0.15177102107E+00  0.46411082864E+00  0.10738629094E+01  0.11796672633E+01  0.00000000000E+00 0.  1.
         11    1    3    3    0    0  0.22344117906E+02 -0.41600321151E+01 -0.29595610244E+02  0.37315755629E+02  0.51100000000E-03 0. -1.
        -11    1    3    3    0    0  0.50671977138E+01 -0.65643769747E+01 -0.36876398083E+01  0.90755840228E+01  0.51100000000E-03 0.  1.
        -12    1    3    3    0    0 -0.27563086641E+02  0.10260298261E+02  0.32209387143E+02  0.43616993084E+02  0.00000000000E+00 0.  1.
</event>
<event>
 7    1  0.2232484E-015  0.9000758E+02  0.7816164E-02  0.1186339E+00
        -11   -1    0    0    0    0  0.00000000000E+00  0.00000000000E+00  0.45593999997E+02  0.45594000000E+02  0.51100000000E-03 0.  1.
         11   -1    0    0    0    0 -0.00000000000E+00 -0.00000000000E+00 -0.45593999997E+02  0.45594000000E+02  0.51100000000E-03 0. -1.
    9900012    2    1    2    0    0  0.45863487242E+00  0.34436674249E+00 -0.10317299869E+01  0.90007575854E+02  0.89999835055E+02 0.  0.
        -12    1    1    2    0    0 -0.45863487242E+00 -0.34436674249E+00  0.10317299869E+01  0.11804241464E+01  0.00000000000E+00 0.  1.
         11    1    3    3    0    0  0.20538043336E+01 -0.10058423102E+02 -0.82723052916E+00  0.10299237746E+02  0.51100000000E-03 0. -1.
        -11    1    3    3    0    0  0.12739293313E+02 -0.28135567098E+02  0.16862957752E+02  0.35188905559E+02  0.51100000000E-03 0.  1.
         12    1    3    3    0    0 -0.14334462774E+02  0.38538356942E+02 -0.17067457210E+02  0.44519432549E+02  0.00000000000E+00 0. -1.
</event>
<event>
 7    1  0.2232484E-015  0.9000728E+02  0.7816164E-02  0.1186340E+00
        -11   -1    0    0    0    0  0.00000000000E+00  0.00000000000E+00  0.45593999997E+02  0.45594000000E+02  0.51100000000E-03 0.  1.
         11   -1    0    0    0    0 -0.00000000000E+00 -0.00000000000E+00 -0.45593999997E+02  0.45594000000E+02  0.51100000000E-03 0. -1.
    9900012    2    1    2    0    0  0.10538669060E+01 -0.40331965964E+00 -0.34757203774E+00  0.90007276271E+02  0.89999531516E+02 0.  0.
        -12    1    1    2    0    0 -0.10538669060E+01  0.40331965964E+00  0.34757203774E+00  0.11807237293E+01  0.00000000000E+00 0.  1.
         11    1    3    3    0    0 -0.30242478884E+02 -0.16863373639E+02 -0.11931613351E+02  0.36624367529E+02  0.51100000000E-03 0. -1.
        -11    1    3    3    0    0 -0.28594329549E+01 -0.67839321815E+01 -0.49621452370E+01  0.88781179470E+01  0.51100000000E-03 0.  1.
        -12    1    3    3    0    0  0.34155778745E+02  0.23243986161E+02  0.16546186550E+02  0.44504790794E+02  0.00000000000E+00 0.  1.
</event>
<event>
 7    1  0.2232484E-015  0.9000773E+02  0.7816164E-02  0.1186339E+00
        -11   -1    0    0    0    0  0.00000000000E+00  0.00000000000E+00  0.45593999997E+02  0.45594000000E+02  0.51100000000E-03 0.  1.
         11   -1    0    0    0    0 -0.00000000000E+00 -0.00000000000E+00 -0.45593999997E+02  0.45594000000E+02  0.51100000000E-03 0. -1.
    9900012    2    1    2    0    0 -0.44886964821E+00 -0.10100444204E+01 -0.41396665515E+00  0.90007727962E+02  0.89999989171E+02 0.  0.
        -12    1    1    2    0    0  0.44886964821E+00  0.10100444204E+01  0.41396665515E+00  0.11802720381E+01  0.00000000000E+00 0.  1.
         11    1    3    3    0    0  0.91873744283E+00 -0.89040115576E+01  0.45686705593E+01  0.10049788617E+02  0.51100000000E-03 0. -1.
        -11    1    3    3    0    0 -0.64778863588E+01 -0.33021140918E+02  0.11487346538E+02  0.35557248065E+02  0.51100000000E-03 0.  1.
         12    1    3    3    0    0  0.51102792678E+01  0.40915108055E+02 -0.16469983752E+02  0.44400691280E+02  0.00000000000E+00 0. -1.
</event>
<event>
 7    1  0.2232484E-015  0.9000784E+02  0.7816164E-02  0.1186339E+00
        -11   -1    0    0    0    0  0.00000000000E+00  0.00000000000E+00  0.45593999997E+02  0.45594000000E+02  0.51100000000E-03 0.  1.
         11   -1    0    0    0    0 -0.00000000000E+00 -0.00000000000E+00 -0.45593999997E+02  0.45594000000E+02  0.51100000000E-03 0. -1.
    9900012    2    1    2    0    0 -0.44313007227E+00 -0.68932654260E+00 -0.84925654736E+00  0.90007842372E+02  0.90000105091E+02 0.  0.
        -12    1    1    2    0    0  0.44313007227E+00  0.68932654260E+00  0.84925654736E+00  0.11801576278E+01  0.00000000000E+00 0.  1.
         11    1    3    3    0    0  0.30505341928E+02 -0.15219702611E+02 -0.16136785946E+02  0.37717517080E+02  0.51100000000E-03 0. -1.
        -11    1    3    3    0    0  0.19668419159E+01  0.37789205000E+01 -0.90254584854E+01  0.99803611357E+01  0.51100000000E-03 0.  1.
        -12    1    3    3    0    0 -0.32915313916E+02  0.10751455569E+02  0.24312987884E+02  0.42309964157E+02  0.00000000000E+00 0.  1.
</event>
<event>
 7    1  0.2232484E-015  0.9000774E+02  0.7816164E-02  0.1186339E+00
        -11   -1    0    0    0    0  0.00000000000E+00  0.00000000000E+00  0.45593999997E+02  0.45594000000E+02  0.51100000000E-03 0. -1.
         11   -1    0    0    0    0 -0.00000000000E+00 -0.00000000000E+00 -0.45593999997E+02  0.45594000000E+02  0.51100000000E-03 0.  1.
    9900012    2    1    2    0    0  0.14962159933E+00 -0.95054567053E+00  0.68344812109E+00  0.90007735187E+02  0.89999996491E+02 0.  0.
        -12    1    1    2    0    0 -0.14962159933E+00  0.95054567053E+00 -0.68344812109E+00  0.11802648131E+01  0.00000000000E+00 0.  1.
         11    1    3    3    0    0 -0.54675003490E+00 -0.18074706252E+02 -0.10454675305E+02  0.20887656108E+02  0.51100000000E-03 0. -1.
        -11    1    3    3    0    0 -0.98540568262E+01 -0.10466783274E+02 -0.21012649758E+02  0.25459525489E+02  0.51100000000E-03 0.  1.
        -12    1    3    3    0    0  0.10550428460E+02  0.27590943855E+02  0.32150773184E+02  0.43660553590E+02  0.00000000000E+00 0.  1.
</event>
<event>
 7    1  0.2232484E-015  0.9000769E+02  0.7816164E-02  0.1186339E+00
        -11   -1    0    0    0    0  0.00000000000E+00  0.00000000000E+00  0.45593999997E+02  0.45594000000E+02  0.51100000000E-03 0. -1.
         11   -1    0    0    0    0 -0.00000000000E+00 -0.00000000000E+00 -0.45593999997E+02  0.45594000000E+02  0.51100000000E-03 0.  1.
    9900012    2    1    2    0    0 -0.36831367944E+00  0.46729136942E+00  0.10193750658E+01  0.90007685756E+02  0.89999946408E+02 0.  0.
        -12    1    1    2    0    0  0.36831367944E+00 -0.46729136942E+00 -0.10193750658E+01  0.11803142442E+01  0.00000000000E+00 0.  1.
         11    1    3    3    0    0 -0.14536520035E+02  0.31502352438E+02  0.19796294113E+02  0.39944985727E+02  0.51100000000E-03 0. -1.
        -11    1    3    3    0    0 -0.94366953314E+01 -0.38141622038E+01 -0.22555279016E+01  0.10425279779E+02  0.51100000000E-03 0.  1.
        -12    1    3    3    0    0  0.23604901687E+02 -0.27220898865E+02 -0.16521391145E+02  0.39637420250E+02  0.00000000000E+00 0.  1.
</event>
<event>
 7    1  0.2232484E-015  0.9000777E+02  0.7816164E-02  0.1186339E+00
        -11   -1    0    0    0    0  0.00000000000E+00  0.00000000000E+00  0.45593999997E+02  0.45594000000E+02  0.51100000000E-03 0. -1.
         11   -1    0    0    0    0 -0.00000000000E+00 -0.00000000000E+00 -0.45593999997E+02  0.45594000000E+02  0.51100000000E-03 0.  1.
    9900012    2    1    2    0    0 -0.39776499873E+00  0.89847112236E+00  0.65381853505E+00  0.90007768655E+02  0.90000030401E+02 0.  0.
        -12    1    1    2    0    0  0.39776499873E+00 -0.89847112236E+00 -0.65381853505E+00  0.11802313454E+01  0.00000000000E+00 0.  1.
         11    1    3    3    0    0  0.60389031488E+01 -0.17757385612E+01  0.50023837610E+01  0.80402389412E+01  0.51100000000E-03 0. -1.
        -11    1    3    3    0    0  0.29484608686E+02  0.92994148406E-01 -0.26536098469E+02  0.39667560040E+02  0.51100000000E-03 0.  1.
         12    1    3    3    0    0 -0.35921276833E+02  0.25812155352E+01  0.22187533243E+02  0.42299969674E+02  0.00000000000E+00 0. -1.
</event>
<event>
 7    1  0.2232484E-015  0.9000780E+02  0.7816164E-02  0.1186339E+00
        -11   -1    0    0    0    0  0.00000000000E+00  0.00000000000E+00  0.45593999997E+02  0.45594000000E+02  0.51100000000E-03 0.  1.
         11   -1    0    0    0    0 -0.00000000000E+00 -0.00000000000E+00 -0.45593999997E+02  0.45594000000E+02  0.51100000000E-03 0. -1.
    9900012    2    1    2    0    0  0.21274900043E+00  0.24824947753E+00 -0.11340141869E+01  0.90007797426E+02  0.90000059552E+02 0.  0.
        -12    1    1    2    0    0 -0.21274900043E+00 -0.24824947753E+00  0.11340141869E+01  0.11802025743E+01  0.00000000000E+00 0.  1.
         11    1    3    3    0    0  0.17685662315E+02 -0.75877176025E+01 -0.33729976110E+02  0.38833843470E+02  0.51100000000E-03 0. -1.
        -11    1    3    3    0    0 -0.89898671341E+01 -0.11394554575E+02  0.29137189972E+01  0.14803490930E+02  0.51100000000E-03 0.  1.
        -12    1    3    3    0    0 -0.84830461808E+01  0.19230521655E+02  0.29682242926E+02  0.36370463027E+02  0.00000000000E+00 0.  1.
</event>
<event>
 7    1  0.2232484E-015  0.9000774E+02  0.7816164E-02  0.1186339E+00
        -11   -1    0    0    0    0  0.00000000000E+00  0.00000000000E+00  0.45593999997E+02  0.45594000000E+02  0.51100000000E-03 0. -1.
         11   -1    0    0    0    0 -0.00000000000E+00 -0.00000000000E+00 -0.45593999997E+02  0.45594000000E+02  0.51100000000E-03 0.  1.
    9900012    2    1    2    0    0  0.87333607060E+00  0.28094407920E+00  0.74253730296E+00  0.90007742776E+02  0.90000004181E+02 0.  0.
        -12    1    1    2    0    0 -0.87333607060E+00 -0.28094407920E+00 -0.74253730296E+00  0.11802572237E+01  0.00000000000E+00 0.  1.
         11    1    3    3    0    0 -0.61289890362E+01  0.46296774328E+01 -0.52074532104E+01  0.92798700927E+01  0.51100000000E-03 0. -1.
        -11    1    3    3    0    0 -0.31866571261E+02 -0.77428214483E+01 -0.15424278392E+02  0.36240005685E+02  0.51100000000E-03 0.  1.
         12    1    3    3    0    0  0.38868896368E+02  0.33940880946E+01  0.21374268905E+02  0.44487866998E+02  0.00000000000E+00 0. -1.
</event>
<event>
 7    1  0.2232484E-015  0.9000781E+02  0.7816164E-02  0.1186339E+00
        -11   -1    0    0    0    0  0.00000000000E+00  0.00000000000E+00  0.45593999997E+02  0.45594000000E+02  0.51100000000E-03 0.  1.
         11   -1    0    0    0    0 -0.00000000000E+00 -0.00000000000E+00 -0.45593999997E+02  0.45594000000E+02  0.51100000000E-03 0. -1.
    9900012    2    1    2    0    0 -0.96670955071E+00  0.20583543328E+00 -0.64494588999E+00  0.90007809006E+02  0.90000071285E+02 0.  0.
        -12    1    1    2    0    0  0.96670955071E+00 -0.20583543328E+00  0.64494588999E+00  0.11801909939E+01  0.00000000000E+00 0.  1.
         11    1    3    3    0    0 -0.42604100940E+01  0.69772028746E+01 -0.10868617924E+01  0.82470432847E+01  0.51100000000E-03 0. -1.
        -11    1    3    3    0    0 -0.21402930462E+02  0.29557977919E+02 -0.71322735718E+01  0.37183717103E+02  0.51100000000E-03 0.  1.
         12    1    3    3    0    0  0.24696631005E+02 -0.36329345361E+02  0.75741894742E+01  0.44577048618E+02  0.00000000000E+00 0. -1.
</event>
<event>
 7    1  0.4119688E-015  0.9000769E+02  0.7816164E-02  0.1186339E+00
        -11   -1    0    0    0    0  0.00000000000E+00  0.00000000000E+00  0.45593999997E+02  0.45594000000E+02  0.51100000000E-03 0. -1.
         11   -1    0    0    0    0 -0.00000000000E+00 -0.00000000000E+00 -0.45593999997E+02  0.45594000000E+02  0.51100000000E-03 0.  1.
    9900012    2    1    2    0    0  0.54046299601E+00 -0.41677219134E+00  0.96298206473E+00  0.90007689123E+02  0.89999949819E+02 0.  0.
        -12    1    1    2    0    0 -0.54046299601E+00  0.41677219134E+00 -0.96298206473E+00  0.11803108771E+01  0.00000000000E+00 0.  1.
         11    1    3    3    0    0 -0.99868098698E+01 -0.64031577951E+00 -0.66064133486E+00  0.10029098808E+02  0.51100000000E-03 0. -1.
        -11    1    3    3    0    0  0.13515083200E+02 -0.17048995253E+01 -0.37911135494E+02  0.40284219628E+02  0.51100000000E-03 0.  1.
         12    1    3    3    0    0 -0.29878103343E+01  0.19284431135E+01  0.39534758894E+02  0.39694370687E+02  0.00000000000E+00 0. -1.
</event>
<event>
 7    1  0.2232484E-015  0.9000775E+02  0.7816164E-02  0.1186339E+00
        -11   -1    0    0    0    0  0.00000000000E+00  0.00000000000E+00  0.45593999997E+02  0.45594000000E+02  0.51100000000E-03 0.  1.
         11   -1    0    0    0    0 -0.00000000000E+00 -0.00000000000E+00 -0.45593999997E+02  0.45594000000E+02  0.51100000000E-03 0. -1.
    9900012    2    1    2    0    0 -0.94395123583E+00 -0.66746919661E+00 -0.23754089936E+00  0.90007752254E+02  0.90000013783E+02 0.  0.
        -12    1    1    2    0    0  0.94395123583E+00  0.66746919661E+00  0.23754089936E+00  0.11802477464E+01  0.00000000000E+00 0.  1.
         11    1    3    3    0    0  0.53136402840E+01 -0.64591890701E+01  0.15682294569E+01  0.85097144724E+01  0.51100000000E-03 0. -1.
        -11    1    3    3    0    0  0.21250928791E+02  0.19213888251E+02  0.27072416802E+02  0.39416890135E+02  0.51100000000E-03 0.  1.
         12    1    3    3    0    0 -0.27508520311E+02 -0.13422168378E+02 -0.28878187158E+02  0.42081147646E+02  0.00000000000E+00 0. -1.
</event>
<event>
 7    1  0.2232484E-015  0.9000771E+02  0.7816164E-02  0.1186339E+00
        -11   -1    0    0    0    0  0.00000000000E+00  0.00000000000E+00  0.45593999997E+02  0.45594000000E+02  0.51100000000E-03 0.  1.
         11   -1    0    0    0    0 -0.00000000000E+00 -0.00000000000E+00 -0.45593999997E+02  0.45594000000E+02  0.51100000000E-03 0. -1.
    9900012    2    1    2    0    0  0.16625465035E+00 -0.89891071897E+00 -0.74658738141E+00  0.90007714523E+02  0.89999975555E+02 0.  0.
        -12    1    1    2    0    0 -0.16625465035E+00  0.89891071897E+00  0.74658738141E+00  0.11802854771E+01  0.00000000000E+00 0.  1.
         11    1    3    3    0    0  0.13491178422E+02 -0.16477222333E+02 -0.33366082483E+02  0.39582903021E+02  0.51100000000E-03 0. -1.
        -11    1    3    3    0    0  0.58343814218E+01 -0.58192731216E+01  0.20753085169E+01  0.84976968609E+01  0.51100000000E-03 0.  1.
        -12    1    3    3    0    0 -0.19159305194E+02  0.21397584736E+02  0.30544186585E+02  0.41927114641E+02  0.00000000000E+00 0.  1.
</event>
<event>
 7    1  0.2232484E-015  0.9000777E+02  0.7816164E-02  0.1186339E+00
        -11   -1    0    0    0    0  0.00000000000E+00  0.00000000000E+00  0.45593999997E+02  0.45594000000E+02  0.51100000000E-03 0.  1.
         11   -1    0    0    0    0 -0.00000000000E+00 -0.00000000000E+00 -0.45593999997E+02  0.45594000000E+02  0.51100000000E-03 0. -1.
    9900012    2    1    2    0    0 -0.49416725114E+00  0.41547864291E+00 -0.98798466051E+00  0.90007772283E+02  0.90000034077E+02 0.  0.
        -12    1    1    2    0    0  0.49416725114E+00 -0.41547864291E+00  0.98798466051E+00  0.11802277171E+01  0.00000000000E+00 0.  1.
         11    1    3    3    0    0 -0.28437669875E+01  0.40561686034E+01  0.79626084566E+01  0.93777741556E+01  0.51100000000E-03 0. -1.
        -11    1    3    3    0    0 -0.36823919385E+02 -0.12675460356E+02  0.18961246791E+01  0.38990558129E+02  0.51100000000E-03 0.  1.
         12    1    3    3    0    0  0.39173519122E+02  0.90347703954E+01 -0.10846717796E+02  0.41639439999E+02  0.00000000000E+00 0. -1.
</event>
<event>
 7    1  0.2232484E-015  0.9000774E+02  0.7816164E-02  0.1186339E+00
        -11   -1    0    0    0    0  0.00000000000E+00  0.00000000000E+00  0.45593999997E+02  0.45594000000E+02  0.51100000000E-03 0.  1.
         11   -1    0    0    0    0 -0.00000000000E+00 -0.00000000000E+00 -0.45593999997E+02  0.45594000000E+02  0.51100000000E-03 0. -1.
    9900012    2    1    2    0    0 -0.15143777633E-02 -0.97938250293E+00 -0.65864720540E+00  0.90007742180E+02  0.90000003577E+02 0.  0.
        -12    1    1    2    0    0  0.15143777633E-02  0.97938250293E+00  0.65864720540E+00  0.11802578200E+01  0.00000000000E+00 0.  1.
         11    1    3    3    0    0 -0.35525109364E+01  0.56820923332E+00 -0.91525304643E+01  0.98342264489E+01  0.51100000000E-03 0. -1.
        -11    1    3    3    0    0  0.39527422370E+02  0.10996587826E+02 -0.47565940866E+00  0.41031308962E+02  0.51100000000E-03 0.  1.
         12    1    3    3    0    0 -0.35976425811E+02 -0.12544179562E+02  0.89695426676E+01  0.39142206769E+02  0.00000000000E+00 0. -1.
</event>
<event>
 7    1  0.2232484E-015  0.9000763E+02  0.7816164E-02  0.1186339E+00
        -11   -1    0    0    0    0  0.00000000000E+00  0.00000000000E+00  0.45593999997E+02  0.45594000000E+02  0.51100000000E-03 0.  1.
         11   -1    0    0    0    0 -0.00000000000E+00 -0.00000000000E+00 -0.45593999997E+02  0.45594000000E+02  0.51100000000E-03 0. -1.
    9900012    2    1    2    0    0 -0.53342956449E+00  0.96907608109E+00 -0.41184452775E+00  0.90007630792E+02  0.89999890719E+02 0.  0.
        -12    1    1    2    0    0  0.53342956449E+00 -0.96907608109E+00  0.41184452775E+00  0.11803692076E+01  0.00000000000E+00 0.  1.
         11    1    3    3    0    0  0.56752393971E+01  0.40587231697E+02  0.11423690111E+02  0.42544475729E+02  0.51100000000E-03 0. -1.
        -11    1    3    3    0    0 -0.37196675556E+01 -0.21133845683E+01 -0.87617445459E+01  0.97504096738E+01  0.51100000000E-03 0.  1.
        -12    1    3    3    0    0 -0.24890014059E+01 -0.37504771047E+02 -0.30737900929E+01  0.37712745390E+02  0.00000000000E+00 0.  1.
</event>
<event>
 7    1  0.2232484E-015  0.9000813E+02  0.7816164E-02  0.1186338E+00
        -11   -1    0    0    0    0  0.00000000000E+00  0.00000000000E+00  0.45593999997E+02  0.45594000000E+02  0.51100000000E-03 0.  1.
         11   -1    0    0    0    0 -0.00000000000E+00 -0.00000000000E+00 -0.45593999997E+02  0.45594000000E+02  0.51100000000E-03 0. -1.
    9900012    2    1    2    0    0 -0.94561020453E+00 -0.39758927223E+00  0.58296047294E+00  0.90008127633E+02  0.90000394117E+02 0.  0.
        -12    1    1    2    0    0  0.94561020453E+00  0.39758927223E+00 -0.58296047294E+00  0.11798723665E+01  0.00000000000E+00 0.  1.
         11    1    3    3    0    0 -0.16466615163E+02 -0.60370591734E+01 -0.25753823579E+02  0.31158545017E+02  0.51100000000E-03 0. -1.
        -11    1    3    3    0    0  0.39630396055E+01  0.13996130504E+02 -0.11416881764E+02  0.18491688443E+02  0.51100000000E-03 0.  1.
        -12    1    3    3    0    0  0.11557965353E+02 -0.83566606031E+01  0.37753665816E+02  0.40357894173E+02  0.00000000000E+00 0.  1.
</event>
<event>
 7    1  0.2232484E-015  0.9000764E+02  0.7816164E-02  0.1186339E+00
        -11   -1    0    0    0    0  0.00000000000E+00  0.00000000000E+00  0.45593999997E+02  0.45594000000E+02  0.51100000000E-03 0. -1.
         11   -1    0    0    0    0 -0.00000000000E+00 -0.00000000000E+00 -0.45593999997E+02  0.45594000000E+02  0.51100000000E-03 0.  1.
    9900012    2    1    2    0    0  0.42971599267E+00  0.65138686481E-01  0.10974288783E+01  0.90007640298E+02  0.89999900350E+02 0.  0.
        -12    1    1    2    0    0 -0.42971599267E+00 -0.65138686481E-01 -0.10974288783E+01  0.11803597018E+01  0.00000000000E+00 0.  1.
         11    1    3    3    0    0  0.71829587746E+01 -0.11441365584E+02  0.35372570033E+02  0.37864474830E+02  0.51100000000E-03 0. -1.
        -11    1    3    3    0    0 -0.43805467357E+01 -0.71995398542E+01  0.41103630782E+01  0.93764411538E+01  0.51100000000E-03 0.  1.
        -12    1    3    3    0    0 -0.23726960462E+01  0.18706044125E+02 -0.38385504233E+02  0.42766724314E+02  0.00000000000E+00 0.  1.
</event>
<event>
 7    1  0.2232484E-015  0.9000771E+02  0.7816164E-02  0.1186339E+00
        -11   -1    0    0    0    0  0.00000000000E+00  0.00000000000E+00  0.45593999997E+02  0.45594000000E+02  0.51100000000E-03 0.  1.
         11   -1    0    0    0    0 -0.00000000000E+00 -0.00000000000E+00 -0.45593999997E+02  0.45594000000E+02  0.51100000000E-03 0. -1.
    9900012    2    1    2    0    0  0.95487180277E+00 -0.33507300904E+00  0.60748197369E+00  0.90007708329E+02  0.89999969279E+02 0.  0.
        -12    1    1    2    0    0 -0.95487180277E+00  0.33507300904E+00 -0.60748197369E+00  0.11802916714E+01  0.00000000000E+00 0.  1.
         11    1    3    3    0    0 -0.33125892034E+02  0.16239258909E+02  0.66364393967E+01  0.37484404505E+02  0.51100000000E-03 0. -1.
        -11    1    3    3    0    0 -0.19376091851E+01 -0.99323223066E+01  0.84062456738E+01  0.13155619421E+02  0.51100000000E-03 0.  1.
        -12    1    3    3    0    0  0.36018373022E+02 -0.66420096112E+01 -0.14435203097E+02  0.39367684403E+02  0.00000000000E+00 0.  1.
</event>
<event>
 7    1  0.2232484E-015  0.9000772E+02  0.7816164E-02  0.1186339E+00
        -11   -1    0    0    0    0  0.00000000000E+00  0.00000000000E+00  0.45593999997E+02  0.45594000000E+02  0.51100000000E-03 0.  1.
         11   -1    0    0    0    0 -0.00000000000E+00 -0.00000000000E+00 -0.45593999997E+02  0.45594000000E+02  0.51100000000E-03 0. -1.
    9900012    2    1    2    0    0 -0.11574777050E+01  0.80468219761E-02 -0.23073188771E+00  0.90007721815E+02  0.89999982943E+02 0.  0.
        -12    1    1    2    0    0  0.11574777050E+01 -0.80468219761E-02  0.23073188771E+00  0.11802781845E+01  0.00000000000E+00 0.  1.
         11    1    3    3    0    0 -0.23766769818E+02  0.96383271056E+01 -0.17062479296E+01  0.25703462398E+02  0.51100000000E-03 0. -1.
        -11    1    3    3    0    0 -0.11806419003E+02  0.17048043284E+02  0.95640517266E-01  0.20737320387E+02  0.51100000000E-03 0.  1.
        -12    1    3    3    0    0  0.34415711116E+02 -0.26678323567E+02  0.13798755246E+01  0.43566939030E+02  0.00000000000E+00 0.  1.
</event>
<event>
 7    1  0.2232484E-015  0.9000771E+02  0.7816164E-02  0.1186339E+00
        -11   -1    0    0    0    0  0.00000000000E+00  0.00000000000E+00  0.45593999997E+02  0.45594000000E+02  0.51100000000E-03 0. -1.
         11   -1    0    0    0    0 -0.00000000000E+00 -0.00000000000E+00 -0.45593999997E+02  0.45594000000E+02  0.51100000000E-03 0.  1.
    9900012    2    1    2    0    0  0.37581350504E+00  0.11184652743E+01 -0.29686507528E-01  0.90007711201E+02  0.89999972189E+02 0.  0.
        -12    1    1    2    0    0 -0.37581350504E+00 -0.11184652743E+01  0.29686507528E-01  0.11802887990E+01  0.00000000000E+00 0.  1.
         11    1    3    3    0    0 -0.20525169447E+02 -0.30912213794E+02 -0.16476449782E+01  0.37142459217E+02  0.51100000000E-03 0. -1.
        -11    1    3    3    0    0 -0.84661255363E+01  0.18585529532E+01 -0.53532786113E+01  0.10187595046E+02  0.51100000000E-03 0.  1.
        -12    1    3    3    0    0  0.29367108488E+02  0.30172126115E+02  0.69712370819E+01  0.42677656938E+02  0.00000000000E+00 0.  1.
</event>
<event>
 7    1  0.2232484E-015  0.9000771E+02  0.7816164E-02  0.1186339E+00
        -11   -1    0    0    0    0  0.00000000000E+00  0.00000000000E+00  0.45593999997E+02  0.45594000000E+02  0.51100000000E-03 0. -1.
         11   -1    0    0    0    0 -0.00000000000E+00 -0.00000000000E+00 -0.45593999997E+02  0.45594000000E+02  0.51100000000E-03 0.  1.
    9900012    2    1    2    0    0  0.62165461712E+00  0.27043914756E+00  0.96617464007E+00  0.90007709684E+02  0.89999970652E+02 0.  0.
        -12    1    1    2    0    0 -0.62165461712E+00 -0.27043914756E+00 -0.96617464007E+00  0.11802903163E+01  0.00000000000E+00 0.  1.
         11    1    3    3    0    0  0.13234232649E+02 -0.33824597030E+02  0.16344408359E+02  0.39829486099E+02  0.51100000000E-03 0. -1.
        -11    1    3    3    0    0 -0.22422440873E+00 -0.54559775710E+01 -0.51116856477E+01  0.74797926618E+01  0.51100000000E-03 0.  1.
        -12    1    3    3    0    0 -0.12388353623E+02  0.39551013748E+02 -0.10266548072E+02  0.42698430923E+02  0.00000000000E+00 0.  1.
</event>
<event>
 7    1  0.2232484E-015  0.9000785E+02  0.7816164E-02  0.1186339E+00
        -11   -1    0    0    0    0  0.00000000000E+00  0.00000000000E+00  0.45593999997E+02  0.45594000000E+02  0.51100000000E-03 0.  1.
         11   -1    0    0    0    0 -0.00000000000E+00 -0.00000000000E+00 -0.45593999997E+02  0.45594000000E+02  0.51100000000E-03 0. -1.
    9900012    2    1    2    0    0 -0.47223008918E+00  0.55801999885E+00 -0.92647522434E+00  0.90007854281E+02  0.90000117158E+02 0.  0.
        -12    1    1    2    0    0  0.47223008918E+00 -0.55801999885E+00  0.92647522434E+00  0.11801457188E+01  0.00000000000E+00 0.  1.
         11    1    3    3    0    0 -0.22869809690E+01  0.56511580049E+01 -0.39435182802E+02  0.39903627801E+02  0.51100000000E-03 0. -1.
        -11    1    3    3    0    0  0.65589686624E+01 -0.52328511896E+01 -0.25519733335E+01  0.87701407995E+01  0.51100000000E-03 0.  1.
        -12    1    3    3    0    0 -0.47442177826E+01  0.13971318350E+00  0.41060680912E+02  0.41334085681E+02  0.00000000000E+00 0.  1.
</event>
<event>
 7    1  0.2232484E-015  0.9000776E+02  0.7816164E-02  0.1186339E+00
        -11   -1    0    0    0    0  0.00000000000E+00  0.00000000000E+00  0.45593999997E+02  0.45594000000E+02  0.51100000000E-03 0. -1.
         11   -1    0    0    0    0 -0.00000000000E+00 -0.00000000000E+00 -0.45593999997E+02  0.45594000000E+02  0.51100000000E-03 0.  1.
    9900012    2    1    2    0    0  0.25422939574E+00  0.36694491351E-01 -0.11519508798E+01  0.90007758541E+02  0.90000020154E+02 0.  0.
        -12    1    1    2    0    0 -0.25422939574E+00 -0.36694491351E-01  0.11519508798E+01  0.11802414587E+01  0.00000000000E+00 0.  1.
         11    1    3    3    0    0  0.72022736382E+01 -0.55177474160E+01 -0.25226265402E+01  0.94171082095E+01  0.51100000000E-03 0. -1.
        -11    1    3    3    0    0  0.10677209051E+02 -0.27125347631E+02 -0.22173092045E+02  0.36625582429E+02  0.51100000000E-03 0.  1.
         12    1    3    3    0    0 -0.17625253294E+02  0.32679789538E+02  0.23543767705E+02  0.43965067902E+02  0.00000000000E+00 0. -1.
</event>
<event>
 7    1  0.2232484E-015  0.9000773E+02  0.7816164E-02  0.1186339E+00
        -11   -1    0    0    0    0  0.00000000000E+00  0.00000000000E+00  0.45593999997E+02  0.45594000000E+02  0.51100000000E-03 0.  1.
         11   -1    0    0    0    0 -0.00000000000E+00 -0.00000000000E+00 -0.45593999997E+02  0.45594000000E+02  0.51100000000E-03 0. -1.
    9900012    2    1    2    0    0 -0.63851617945E+00 -0.30106078388E+00 -0.94588807424E+00  0.90007726830E+02  0.89999988024E+02 0.  0.
        -12    1    1    2    0    0  0.63851617945E+00  0.30106078388E+00  0.94588807424E+00  0.11802731701E+01  0.00000000000E+00 0.  1.
         11    1    3    3    0    0 -0.58094989621E+00 -0.30885508938E+01  0.12351238636E+02  0.12744792878E+02  0.51100000000E-03 0. -1.
        -11    1    3    3    0    0 -0.80874606528E+01  0.24654984825E+02  0.22639954823E+02  0.34436069044E+02  0.51100000000E-03 0.  1.
         12    1    3    3    0    0  0.80298943696E+01 -0.21867494715E+02 -0.35937081533E+02  0.42826864908E+02  0.00000000000E+00 0. -1.
</event>
<event>
 7    1  0.2232484E-015  0.9000770E+02  0.7816164E-02  0.1186339E+00
        -11   -1    0    0    0    0  0.00000000000E+00  0.00000000000E+00  0.45593999997E+02  0.45594000000E+02  0.51100000000E-03 0.  1.
         11   -1    0    0    0    0 -0.00000000000E+00 -0.00000000000E+00 -0.45593999997E+02  0.45594000000E+02  0.51100000000E-03 0. -1.
    9900012    2    1    2    0    0  0.48712937450E-01  0.10484203754E+01 -0.53996013477E+00  0.90007696996E+02  0.89999957796E+02 0.  0.
        -12    1    1    2    0    0 -0.48712937450E-01 -0.10484203754E+01  0.53996013477E+00  0.11803030038E+01  0.00000000000E+00 0.  1.
         11    1    3    3    0    0 -0.35852987504E+02  0.21951490506E+01 -0.65835139082E+01  0.36518461741E+02  0.51100000000E-03 0. -1.
        -11    1    3    3    0    0 -0.78467599840E+01 -0.37136306836E+01  0.41564981746E+01  0.96249245419E+01  0.51100000000E-03 0.  1.
        -12    1    3    3    0    0  0.43748460425E+02  0.25669020084E+01  0.18870555988E+01  0.43864310713E+02  0.00000000000E+00 0.  1.
</event>
<event>
 7    1  0.2232484E-015  0.9000780E+02  0.7816164E-02  0.1186339E+00
        -11   -1    0    0    0    0  0.00000000000E+00  0.00000000000E+00  0.45593999997E+02  0.45594000000E+02  0.51100000000E-03 0. -1.
         11   -1    0    0    0    0 -0.00000000000E+00 -0.00000000000E+00 -0.45593999997E+02  0.45594000000E+02  0.51100000000E-03 0.  1.
    9900012    2    1    2    0    0  0.79419713710E+00  0.86882231997E+00 -0.85332422400E-01  0.90007795383E+02  0.90000057482E+02 0.  0.
        -12    1    1    2    0    0 -0.79419713710E+00 -0.86882231997E+00  0.85332422400E-01  0.11802046172E+01  0.00000000000E+00 0.  1.
         11    1    3    3    0    0  0.10734204849E+02 -0.40462279759E+02  0.79112505225E+01  0.42602900396E+02  0.51100000000E-03 0. -1.
        -11    1    3    3    0    0 -0.23436197795E+01  0.66472018374E+01  0.59836959892E+01  0.92456727116E+01  0.51100000000E-03 0.  1.
        -12    1    3    3    0    0 -0.75963879328E+01  0.34683900241E+02 -0.13980278934E+02  0.38159222275E+02  0.00000000000E+00 0.  1.
</event>
<event>
 7    1  0.2232484E-015  0.9000842E+02  0.7816164E-02  0.1186338E+00
        -11   -1    0    0    0    0  0.00000000000E+00  0.00000000000E+00  0.45593999997E+02  0.45594000000E+02  0.51100000000E-03 0. -1.
         11   -1    0    0    0    0 -0.00000000000E+00 -0.00000000000E+00 -0.45593999997E+02  0.45594000000E+02  0.51100000000E-03 0.  1.
    9900012    2    1    2    0    0 -0.48677866982E-01  0.11628239454E+01 -0.19204376673E+00  0.90008419621E+02  0.90000689957E+02 0.  0.
        -12    1    1    2    0    0  0.48677866982E-01 -0.11628239454E+01  0.19204376673E+00  0.11795803793E+01  0.00000000000E+00 0.  1.
         11    1    3    3    0    0 -0.19465801018E+01  0.77881254515E+01 -0.17787763185E+02  0.19515342465E+02  0.51100000000E-03 0. -1.
        -11    1    3    3    0    0 -0.28801985789E+02  0.29951165297E+01 -0.72417269904E+01  0.29849082373E+02  0.51100000000E-03 0.  1.
         12    1    3    3    0    0  0.30699888024E+02 -0.96204180357E+01  0.24837446408E+02  0.40643994783E+02  0.00000000000E+00 0. -1.
</event>
<event>
 7    1  0.2232484E-015  0.9000768E+02  0.7816164E-02  0.1186339E+00
        -11   -1    0    0    0    0  0.00000000000E+00  0.00000000000E+00  0.45593999997E+02  0.45594000000E+02  0.51100000000E-03 0.  1.
         11   -1    0    0    0    0 -0.00000000000E+00 -0.00000000000E+00 -0.45593999997E+02  0.45594000000E+02  0.51100000000E-03 0. -1.
    9900012    2    1    2    0    0  0.83780687222E+00 -0.44743293074E+00 -0.70074932980E+00  0.90007675381E+02  0.89999935896E+02 0.  0.
        -12    1    1    2    0    0 -0.83780687222E+00  0.44743293074E+00  0.70074932980E+00  0.11803246188E+01  0.00000000000E+00 0.  1.
         11    1    3    3    0    0 -0.64568875860E+01  0.33980050733E+02 -0.15308224445E+02  0.37824290886E+02  0.51100000000E-03 0. -1.
        -11    1    3    3    0    0 -0.16201737656E+00  0.23206815874E+01 -0.80453493025E+01  0.83749303472E+01  0.51100000000E-03 0.  1.
        -12    1    3    3    0    0  0.74567118347E+01 -0.36748165251E+02  0.22652824418E+02  0.43808454148E+02  0.00000000000E+00 0.  1.
</event>
<event>
 7    1  0.2237333E-015  0.9000762E+02  0.7816164E-02  0.1186339E+00
        -11   -1    0    0    0    0  0.00000000000E+00  0.00000000000E+00  0.45593999997E+02  0.45594000000E+02  0.51100000000E-03 0.  1.
         11   -1    0    0    0    0 -0.00000000000E+00 -0.00000000000E+00 -0.45593999997E+02  0.45594000000E+02  0.51100000000E-03 0. -1.
    9900012    2    1    2    0    0 -0.21174494801E+00  0.34514556764E+00 -0.11087583577E+01  0.90007615960E+02  0.89999875691E+02 0.  0.
        -12    1    1    2    0    0  0.21174494801E+00 -0.34514556764E+00  0.11087583577E+01  0.11803840399E+01  0.00000000000E+00 0.  1.
         11    1    3    3    0    0  0.91271613156E+01  0.42337331871E+01  0.15662713129E+01  0.10182473986E+02  0.51100000000E-03 0. -1.
        -11    1    3    3    0    0 -0.92436796416E+01 -0.73423553789E+00  0.37955729571E+02  0.39072012012E+02  0.51100000000E-03 0.  1.
         12    1    3    3    0    0 -0.95226622064E-01 -0.31543520815E+01 -0.40630759242E+02  0.40753129962E+02  0.00000000000E+00 0. -1.
</event>
<event>
 7    1  0.2232484E-015  0.9000839E+02  0.7816164E-02  0.1186338E+00
        -11   -1    0    0    0    0  0.00000000000E+00  0.00000000000E+00  0.45593999997E+02  0.45594000000E+02  0.51100000000E-03 0.  1.
         11   -1    0    0    0    0 -0.00000000000E+00 -0.00000000000E+00 -0.45593999997E+02  0.45594000000E+02  0.51100000000E-03 0. -1.
    9900012    2    1    2    0    0 -0.11861008177E-01  0.10042195532E+01 -0.61876974217E+00  0.90008392613E+02  0.90000662593E+02 0.  0.
        -12    1    1    2    0    0  0.11861008177E-01 -0.10042195532E+01  0.61876974217E+00  0.11796073874E+01  0.00000000000E+00 0.  1.
         11    1    3    3    0    0 -0.13718922221E+02 -0.34296986901E+02 -0.41033738594E+01  0.37166245636E+02  0.51100000000E-03 0. -1.
        -11    1    3    3    0    0 -0.35798978878E+01 -0.48319767062E+01 -0.55916099826E+01  0.82115632029E+01  0.51100000000E-03 0.  1.
        -12    1    3    3    0    0  0.17286959100E+02  0.40133183161E+02  0.90762140998E+01  0.44630583773E+02  0.00000000000E+00 0.  1.
</event>
<event>
 7    1  0.2232484E-015  0.9000773E+02  0.7816164E-02  0.1186339E+00
        -11   -1    0    0    0    0  0.00000000000E+00  0.00000000000E+00  0.45593999997E+02  0.45594000000E+02  0.51100000000E-03 0. -1.
         11   -1    0    0    0    0 -0.00000000000E+00 -0.00000000000E+00 -0.45593999997E+02  0.45594000000E+02  0.51100000000E-03 0.  1.
    9900012    2    1    2    0    0 -0.97036047831E+00 -0.54241483258E-01  0.66970185991E+00  0.90007727922E+02  0.89999989131E+02 0.  0.
        -12    1    1    2    0    0  0.97036047831E+00  0.54241483258E-01 -0.66970185991E+00  0.11802720778E+01  0.00000000000E+00 0.  1.
         11    1    3    3    0    0 -0.12005372636E+02 -0.34321427836E+02  0.10095066351E+02  0.37735921160E+02  0.51100000000E-03 0. -1.
        -11    1    3    3    0    0  0.68783475279E+01 -0.54444520909E+01  0.46580021262E+01  0.99323062455E+01  0.51100000000E-03 0.  1.
        -12    1    3    3    0    0  0.41566646302E+01  0.39711638444E+02 -0.14083366617E+02  0.42339500517E+02  0.00000000000E+00 0.  1.
</event>
<event>
 7    1  0.2232484E-015  0.9000751E+02  0.7816164E-02  0.1186339E+00
        -11   -1    0    0    0    0  0.00000000000E+00  0.00000000000E+00  0.45593999997E+02  0.45594000000E+02  0.51100000000E-03 0.  1.
         11   -1    0    0    0    0 -0.00000000000E+00 -0.00000000000E+00 -0.45593999997E+02  0.45594000000E+02  0.51100000000E-03 0. -1.
    9900012    2    1    2    0    0  0.70394202240E+00 -0.92294261759E+00  0.21492557373E+00  0.90007512622E+02  0.89999770989E+02 0.  0.
        -12    1    1    2    0    0 -0.70394202240E+00  0.92294261759E+00 -0.21492557373E+00  0.11804873775E+01  0.00000000000E+00 0.  1.
         11    1    3    3    0    0 -0.71823552993E+01  0.20332710956E+01  0.77306845291E+01  0.10746343683E+02  0.51100000000E-03 0. -1.
        -11    1    3    3    0    0 -0.86769749000E+01  0.26795769802E+02  0.20768430949E+02  0.34994726703E+02  0.51100000000E-03 0.  1.
         12    1    3    3    0    0  0.16563272222E+02 -0.29751983515E+02 -0.28284189904E+02  0.44266442237E+02  0.00000000000E+00 0. -1.
</event>
<event>
 7    1  0.2232484E-015  0.9000776E+02  0.7816164E-02  0.1186339E+00
        -11   -1    0    0    0    0  0.00000000000E+00  0.00000000000E+00  0.45593999997E+02  0.45594000000E+02  0.51100000000E-03 0. -1.
         11   -1    0    0    0    0 -0.00000000000E+00 -0.00000000000E+00 -0.45593999997E+02  0.45594000000E+02  0.51100000000E-03 0.  1.
    9900012    2    1    2    0    0  0.14838836443E-01 -0.55733742147E+00  0.10402512767E+01  0.90007759384E+02  0.90000021008E+02 0.  0.
        -12    1    1    2    0    0 -0.14838836443E-01  0.55733742147E+00 -0.10402512767E+01  0.11802406157E+01  0.00000000000E+00 0.  1.
         11    1    3    3    0    0 -0.26281597745E+01  0.63036899596E+01  0.17073372680E+01  0.70397962836E+01  0.51100000000E-03 0. -1.
        -11    1    3    3    0    0 -0.22565173659E+02  0.53462073621E+01 -0.32909467188E+02  0.40259185613E+02  0.51100000000E-03 0.  1.
         12    1    3    3    0    0  0.25208172269E+02 -0.12207234743E+02  0.32242381196E+02  0.42708777487E+02  0.00000000000E+00 0. -1.
</event>
<event>
 7    1  0.2232484E-015  0.9000777E+02  0.7816164E-02  0.1186339E+00
        -11   -1    0    0    0    0  0.00000000000E+00  0.00000000000E+00  0.45593999997E+02  0.45594000000E+02  0.51100000000E-03 0.  1.
         11   -1    0    0    0    0 -0.00000000000E+00 -0.00000000000E+00 -0.45593999997E+02  0.45594000000E+02  0.51100000000E-03 0. -1.
    9900012    2    1    2    0    0  0.33094415452E-01 -0.11060169209E+01 -0.41059216142E+00  0.90007765026E+02  0.90000026725E+02 0.  0.
        -12    1    1    2    0    0 -0.33094415452E-01  0.11060169209E+01  0.41059216142E+00  0.11802349735E+01  0.00000000000E+00 0.  1.
         11    1    3    3    0    0 -0.14558292349E+02 -0.15603508208E+02 -0.32915213051E+02  0.39227854835E+02  0.51100000000E-03 0. -1.
        -11    1    3    3    0    0 -0.80220961104E+01 -0.41063384204E+01  0.38183258933E+01  0.97875254337E+01  0.51100000000E-03 0.  1.
        -12    1    3    3    0    0  0.22613482875E+02  0.18603829707E+02  0.28686294996E+02  0.40992384758E+02  0.00000000000E+00 0.  1.
</event>
<event>
 7    1  0.2232484E-015  0.9000777E+02  0.7816164E-02  0.1186339E+00
        -11   -1    0    0    0    0  0.00000000000E+00  0.00000000000E+00  0.45593999997E+02  0.45594000000E+02  0.51100000000E-03 0.  1.
         11   -1    0    0    0    0 -0.00000000000E+00 -0.00000000000E+00 -0.45593999997E+02  0.45594000000E+02  0.51100000000E-03 0. -1.
    9900012    2    1    2    0    0 -0.26678268254E+00  0.80360190708E+00 -0.82218220705E+00  0.90007774341E+02  0.90000036162E+02 0.  0.
        -12    1    1    2    0    0  0.26678268254E+00 -0.80360190708E+00  0.82218220705E+00  0.11802256591E+01  0.00000000000E+00 0.  1.
         11    1    3    3    0    0  0.73826999718E+01 -0.17299685929E+02 -0.32131007362E+02  0.37231505831E+02  0.51100000000E-03 0. -1.
        -11    1    3    3    0    0  0.10618919513E+02  0.86075614161E+01 -0.18004788378E+01  0.13787432301E+02  0.51100000000E-03 0.  1.
        -12    1    3    3    0    0 -0.18268402167E+02  0.94957264197E+01  0.33109303993E+02  0.38988836208E+02  0.00000000000E+00 0.  1.
</event>
<event>
 7    1  0.2232484E-015  0.9000780E+02  0.7816164E-02  0.1186339E+00
        -11   -1    0    0    0    0  0.00000000000E+00  0.00000000000E+00  0.45593999997E+02  0.45594000000E+02  0.51100000000E-03 0.  1.
         11   -1    0    0    0    0 -0.00000000000E+00 -0.00000000000E+00 -0.45593999997E+02  0.45594000000E+02  0.51100000000E-03 0. -1.
    9900012    2    1    2    0    0 -0.11183671670E+01 -0.37151479370E+00  0.64031723043E-01  0.90007801532E+02  0.90000063712E+02 0.  0.
        -12    1    1    2    0    0  0.11183671670E+01  0.37151479370E+00 -0.64031723043E-01  0.11801984680E+01  0.00000000000E+00 0.  1.
         11    1    3    3    0    0 -0.50173213187E+01 -0.83113553256E+01 -0.62279321635E+00  0.97283098334E+01  0.51100000000E-03 0. -1.
        -11    1    3    3    0    0  0.18024175327E+02 -0.13154292194E+02  0.32596965833E+02  0.39502765487E+02  0.51100000000E-03 0.  1.
         12    1    3    3    0    0 -0.14125221175E+02  0.21094132726E+02 -0.31910140893E+02  0.40776726212E+02  0.00000000000E+00 0. -1.
</event>
<event>
 7    1  0.2232484E-015  0.9000774E+02  0.7816164E-02  0.1186339E+00
        -11   -1    0    0    0    0  0.00000000000E+00  0.00000000000E+00  0.45593999997E+02  0.45594000000E+02  0.51100000000E-03 0.  1.
         11   -1    0    0    0    0 -0.00000000000E+00 -0.00000000000E+00 -0.45593999997E+02  0.45594000000E+02  0.51100000000E-03 0. -1.
    9900012    2    1    2    0    0 -0.21147154881E+00  0.83107213984E+00  0.81093194673E+00  0.90007740817E+02  0.90000002195E+02 0.  0.
        -12    1    1    2    0    0  0.21147154881E+00 -0.83107213984E+00 -0.81093194673E+00  0.11802591833E+01  0.00000000000E+00 0.  1.
         11    1    3    3    0    0  0.43994517050E+00 -0.68047890409E+01  0.85064681050E+01  0.10902233970E+02  0.51100000000E-03 0. -1.
        -11    1    3    3    0    0  0.87767283207E+01  0.10886213032E+02  0.33720890768E+02  0.36505329319E+02  0.51100000000E-03 0.  1.
         12    1    3    3    0    0 -0.94281450400E+01 -0.32503518517E+01 -0.41416426927E+02  0.42600177528E+02  0.00000000000E+00 0. -1.
</event>
<event>
 7    1  0.2232484E-015  0.9000773E+02  0.7816164E-02  0.1186339E+00
        -11   -1    0    0    0    0  0.00000000000E+00  0.00000000000E+00  0.45593999997E+02  0.45594000000E+02  0.51100000000E-03 0.  1.
         11   -1    0    0    0    0 -0.00000000000E+00 -0.00000000000E+00 -0.45593999997E+02  0.45594000000E+02  0.51100000000E-03 0. -1.
    9900012    2    1    2    0    0 -0.67891864242E+00  0.31928550429E+00 -0.91113225569E+00  0.90007730648E+02  0.89999991892E+02 0.  0.
        -12    1    1    2    0    0  0.67891864242E+00 -0.31928550429E+00  0.91113225569E+00  0.11802693522E+01  0.00000000000E+00 0.  1.
         11    1    3    3    0    0 -0.83790891432E+01  0.96204125217E+01  0.31609552516E+01  0.13143557750E+02  0.51100000000E-03 0. -1.
        -11    1    3    3    0    0 -0.29507331772E+02  0.42647602156E+01  0.14464328426E+02  0.33137404924E+02  0.51100000000E-03 0.  1.
         12    1    3    3    0    0  0.37207502273E+02 -0.13565887233E+02 -0.18536415933E+02  0.43726767974E+02  0.00000000000E+00 0. -1.
</event>
<event>
 7    1  0.2232484E-015  0.9000772E+02  0.7816164E-02  0.1186339E+00
        -11   -1    0    0    0    0  0.00000000000E+00  0.00000000000E+00  0.45593999997E+02  0.45594000000E+02  0.51100000000E-03 0.  1.
         11   -1    0    0    0    0 -0.00000000000E+00 -0.00000000000E+00 -0.45593999997E+02  0.45594000000E+02  0.51100000000E-03 0. -1.
    9900012    2    1    2    0    0 -0.36515394021E-01 -0.10736209606E+01 -0.48893217075E+00  0.90007724605E+02  0.89999985770E+02 0.  0.
        -12    1    1    2    0    0  0.36515394021E-01  0.10736209606E+01  0.48893217075E+00  0.11802753952E+01  0.00000000000E+00 0.  1.
         11    1    3    3    0    0 -0.14051949617E+02  0.38451022657E+02 -0.88999862043E+01  0.41894488732E+02  0.51100000000E-03 0. -1.
        -11    1    3    3    0    0 -0.58560420652E+01 -0.68531510721E+01  0.29523665648E+01  0.94855351394E+01  0.51100000000E-03 0.  1.
        -12    1    3    3    0    0  0.19871476289E+02 -0.32671492546E+02  0.54586874688E+01  0.38627700733E+02  0.00000000000E+00 0.  1.
</event>
<event>
 7    1  0.2232484E-015  0.9000779E+02  0.7816164E-02  0.1186339E+00
        -11   -1    0    0    0    0  0.00000000000E+00  0.00000000000E+00  0.45593999997E+02  0.45594000000E+02  0.51100000000E-03 0. -1.
         11   -1    0    0    0    0 -0.00000000000E+00 -0.00000000000E+00 -0.45593999997E+02  0.45594000000E+02  0.51100000000E-03 0.  1.
    9900012    2    1    2    0    0 -0.98192139440E+00  0.43682650868E+00  0.48776601094E+00  0.90007787009E+02  0.90000048997E+02 0.  0.
        -12    1    1    2    0    0  0.98192139440E+00 -0.43682650868E+00 -0.48776601094E+00  0.11802129913E+01  0.00000000000E+00 0.  1.
         11    1    3    3    0    0  0.27865743455E+02  0.15859546156E+01  0.16540674941E+02  0.32443933764E+02  0.51100000000E-03 0. -1.
        -11    1    3    3    0    0  0.71856813668E+01 -0.36647198575E+01  0.10131593716E+02  0.12950420064E+02  0.51100000000E-03 0.  1.
        -12    1    3    3    0    0 -0.36033346216E+02  0.25155917506E+01 -0.26184502646E+02  0.44613433181E+02  0.00000000000E+00 0.  1.
</event>
<event>
 7    1  0.2232484E-015  0.9000771E+02  0.7816164E-02  0.1186339E+00
        -11   -1    0    0    0    0  0.00000000000E+00  0.00000000000E+00  0.45593999997E+02  0.45594000000E+02  0.51100000000E-03 0.  1.
         11   -1    0    0    0    0 -0.00000000000E+00 -0.00000000000E+00 -0.45593999997E+02  0.45594000000E+02  0.51100000000E-03 0. -1.
    9900012    2    1    2    0    0  0.21134968032E+00 -0.76348826739E+00  0.87493531137E+00  0.90007705621E+02  0.89999966535E+02 0.  0.
        -12    1    1    2    0    0 -0.21134968032E+00  0.76348826739E+00 -0.87493531137E+00  0.11802943789E+01  0.00000000000E+00 0.  1.
         11    1    3    3    0    0 -0.87952694021E+01  0.84101504731E+00 -0.46773760296E+01  0.99970954256E+01  0.51100000000E-03 0. -1.
        -11    1    3    3    0    0 -0.99860503264E+01  0.27217929533E+02  0.26796950647E+02  0.39479278786E+02  0.51100000000E-03 0.  1.
         12    1    3    3    0    0  0.18992669409E+02 -0.28822432848E+02 -0.21244639306E+02  0.40531331409E+02  0.00000000000E+00 0. -1.
</event>
<event>
 7    1  0.2232484E-015  0.9000771E+02  0.7816164E-02  0.1186339E+00
        -11   -1    0    0    0    0  0.00000000000E+00  0.00000000000E+00  0.45593999997E+02  0.45594000000E+02  0.51100000000E-03 0. -1.
         11   -1    0    0    0    0 -0.00000000000E+00 -0.00000000000E+00 -0.45593999997E+02  0.45594000000E+02  0.51100000000E-03 0.  1.
    9900012    2    1    2    0    0  0.84164950603E+00  0.80051763160E+00  0.20947957717E+00  0.90007710178E+02  0.89999971153E+02 0.  0.
        -12    1    1    2    0    0 -0.84164950603E+00 -0.80051763160E+00 -0.20947957717E+00  0.11802898215E+01  0.00000000000E+00 0.  1.
         11    1    3    3    0    0 -0.88770476549E+01 -0.33919178398E+02  0.16164598134E+02  0.38608378253E+02  0.51100000000E-03 0. -1.
        -11    1    3    3    0    0 -0.83958341410E+01 -0.17665714093E+00 -0.73295964867E+01  0.11146489294E+02  0.51100000000E-03 0.  1.
        -12    1    3    3    0    0  0.18114531302E+02  0.34896353171E+02 -0.86255220699E+01  0.40252842631E+02  0.00000000000E+00 0.  1.
</event>
<event>
 7    1  0.2232484E-015  0.9000770E+02  0.7816164E-02  0.1186339E+00
        -11   -1    0    0    0    0  0.00000000000E+00  0.00000000000E+00  0.45593999997E+02  0.45594000000E+02  0.51100000000E-03 0. -1.
         11   -1    0    0    0    0 -0.00000000000E+00 -0.00000000000E+00 -0.45593999997E+02  0.45594000000E+02  0.51100000000E-03 0.  1.
    9900012    2    1    2    0    0  0.92471352803E+00  0.69873238396E+00  0.22314449345E+00  0.90007696853E+02  0.89999957652E+02 0.  0.
        -12    1    1    2    0    0 -0.92471352803E+00 -0.69873238396E+00 -0.22314449345E+00  0.11803031468E+01  0.00000000000E+00 0.  1.
         11    1    3    3    0    0  0.39811370842E+01  0.84004544626E+00  0.68400428182E+01  0.79587257053E+01  0.51100000000E-03 0. -1.
        -11    1    3    3    0    0 -0.31081784000E+02 -0.25716132024E+02  0.84667924273E+01  0.41219938345E+02  0.51100000000E-03 0.  1.
         12    1    3    3    0    0  0.28025360444E+02  0.25574818962E+02 -0.15083690752E+02  0.40829032803E+02  0.00000000000E+00 0. -1.
</event>
<event>
 7    1  0.2232484E-015  0.9000767E+02  0.7816164E-02  0.1186339E+00
        -11   -1    0    0    0    0  0.00000000000E+00  0.00000000000E+00  0.45593999997E+02  0.45594000000E+02  0.51100000000E-03 0.  1.
         11   -1    0    0    0    0 -0.00000000000E+00 -0.00000000000E+00 -0.45593999997E+02  0.45594000000E+02  0.51100000000E-03 0. -1.
    9900012    2    1    2    0    0  0.10915816245E+01 -0.35671861700E+00  0.27272303732E+00  0.90007671033E+02  0.89999931491E+02 0.  0.
        -12    1    1    2    0    0 -0.10915816245E+01  0.35671861700E+00 -0.27272303732E+00  0.11803289668E+01  0.00000000000E+00 0.  1.
         11    1    3    3    0    0 -0.66373755085E+01 -0.29481691435E+01 -0.38895281313E+02  0.39567529157E+02  0.51100000000E-03 0. -1.
        -11    1    3    3    0    0  0.69739195561E+01  0.11527128328E+02  0.38650192386E+01  0.14016012823E+02  0.51100000000E-03 0.  1.
        -12    1    3    3    0    0  0.75503757697E+00 -0.89356778018E+01  0.35302985111E+02  0.36424129053E+02  0.00000000000E+00 0.  1.
</event>
<event>
 7    1  0.2232484E-015  0.9000783E+02  0.7816164E-02  0.1186339E+00
        -11   -1    0    0    0    0  0.00000000000E+00  0.00000000000E+00  0.45593999997E+02  0.45594000000E+02  0.51100000000E-03 0.  1.
         11   -1    0    0    0    0 -0.00000000000E+00 -0.00000000000E+00 -0.45593999997E+02  0.45594000000E+02  0.51100000000E-03 0. -1.
    9900012    2    1    2    0    0  0.14757333662E+00 -0.94530076986E+00 -0.69096695725E+00  0.90007827652E+02  0.90000090177E+02 0.  0.
        -12    1    1    2    0    0 -0.14757333662E+00  0.94530076986E+00  0.69096695725E+00  0.11801723481E+01  0.00000000000E+00 0.  1.
         11    1    3    3    0    0  0.48458149876E+01  0.54469641791E+01 -0.53796312114E+01  0.90604510867E+01  0.51100000000E-03 0. -1.
        -11    1    3    3    0    0  0.50109617789E+01  0.17039166096E+02  0.36303943002E+02  0.40415581116E+02  0.51100000000E-03 0.  1.
         12    1    3    3    0    0 -0.97092034299E+01 -0.23431431045E+02 -0.31615278748E+02  0.40531795449E+02  0.00000000000E+00 0. -1.
</event>
<event>
 7    1  0.2232484E-015  0.9000773E+02  0.7816164E-02  0.1186339E+00
        -11   -1    0    0    0    0  0.00000000000E+00  0.00000000000E+00  0.45593999997E+02  0.45594000000E+02  0.51100000000E-03 0.  1.
         11   -1    0    0    0    0 -0.00000000000E+00 -0.00000000000E+00 -0.45593999997E+02  0.45594000000E+02  0.51100000000E-03 0. -1.
    9900012    2    1    2    0    0  0.87364055607E+00  0.13869893415E+00 -0.78137309564E+00  0.90007733450E+02  0.89999994731E+02 0.  0.
        -12    1    1    2    0    0 -0.87364055607E+00 -0.13869893415E+00  0.78137309564E+00  0.11802665505E+01  0.00000000000E+00 0.  1.
         11    1    3    3    0    0  0.39151309577E+01  0.11806693623E+01  0.66873501690E+01  0.78385510845E+01  0.51100000000E-03 0. -1.
        -11    1    3    3    0    0  0.22557694240E+02  0.14436608370E+00  0.29531128159E+02  0.37161242466E+02  0.51100000000E-03 0.  1.
         12    1    3    3    0    0 -0.25599184642E+02 -0.11863365119E+01 -0.36999851423E+02  0.45007939900E+02  0.00000000000E+00 0. -1.
</event>
<event>
 7    1  0.2232484E-015  0.9000766E+02  0.7816164E-02  0.1186339E+00
        -11   -1    0    0    0    0  0.00000000000E+00  0.00000000000E+00  0.45593999997E+02  0.45594000000E+02  0.51100000000E-03 0. -1.
         11   -1    0    0    0    0 -0.00000000000E+00 -0.00000000000E+00 -0.45593999997E+02  0.45594000000E+02  0.51100000000E-03 0.  1.
    9900012    2    1    2    0    0  0.74627978911E+00  0.17318890299E+00  0.89793202773E+00  0.90007656895E+02  0.89999917166E+02 0.  0.
        -12    1    1    2    0    0 -0.74627978911E+00 -0.17318890299E+00 -0.89793202773E+00  0.11803431053E+01  0.00000000000E+00 0.  1.
         11    1    3    3    0    0 -0.26057839960E+01  0.56661264605E+01 -0.71246079963E+01  0.94686397472E+01  0.51100000000E-03 0. -1.
        -11    1    3    3    0    0 -0.25861944467E+02  0.18325707688E+02  0.23840136245E+02  0.39661364454E+02  0.51100000000E-03 0.  1.
         12    1    3    3    0    0  0.29214008252E+02 -0.23818645245E+02 -0.15817596221E+02  0.40877652693E+02  0.00000000000E+00 0. -1.
</event>
<event>
 7    1  0.2232484E-015  0.9000775E+02  0.7816164E-02  0.1186339E+00
        -11   -1    0    0    0    0  0.00000000000E+00  0.00000000000E+00  0.45593999997E+02  0.45594000000E+02  0.51100000000E-03 0.  1.
         11   -1    0    0    0    0 -0.00000000000E+00 -0.00000000000E+00 -0.45593999997E+02  0.45594000000E+02  0.51100000000E-03 0. -1.
    9900012    2    1    2    0    0  0.98400889912E+00  0.57343265749E+00 -0.30964940618E+00  0.90007753720E+02  0.90000015269E+02 0.  0.
        -12    1    1    2    0    0 -0.98400889912E+00 -0.57343265749E+00  0.30964940618E+00  0.11802462798E+01  0.00000000000E+00 0.  1.
         11    1    3    3    0    0  0.24908261207E+02  0.63806010081E+01 -0.27069609516E+02  0.37334934113E+02  0.51100000000E-03 0. -1.
        -11    1    3    3    0    0  0.38130870362E+01  0.62722715883E+01 -0.49441543929E+01  0.88501800290E+01  0.51100000000E-03 0.  1.
        -12    1    3    3    0    0 -0.27737339345E+02 -0.12079439939E+02  0.31704114503E+02  0.43822639578E+02  0.00000000000E+00 0.  1.
</event>
<event>
 7    1  0.2232484E-015  0.9000765E+02  0.7816164E-02  0.1186339E+00
        -11   -1    0    0    0    0  0.00000000000E+00  0.00000000000E+00  0.45593999997E+02  0.45594000000E+02  0.51100000000E-03 0.  1.
         11   -1    0    0    0    0 -0.00000000000E+00 -0.00000000000E+00 -0.45593999997E+02  0.45594000000E+02  0.51100000000E-03 0. -1.
    9900012    2    1    2    0    0 -0.48772000166E+00  0.10196433477E+01  0.34012688809E+00  0.90007648503E+02  0.89999908663E+02 0.  0.
        -12    1    1    2    0    0  0.48772000166E+00 -0.10196433477E+01 -0.34012688809E+00  0.11803514970E+01  0.00000000000E+00 0.  1.
         11    1    3    3    0    0  0.10162303376E+01  0.10289945760E+02  0.55209949545E+01  0.11721650626E+02  0.51100000000E-03 0. -1.
        -11    1    3    3    0    0  0.10467054067E+02 -0.11412224012E+02  0.33946823262E+02  0.37311993883E+02  0.51100000000E-03 0.  1.
         12    1    3    3    0    0 -0.11971004406E+02  0.21419215999E+01 -0.39127691328E+02  0.40974003994E+02  0.00000000000E+00 0. -1.
</event>
<event>
 7    1  0.2232484E-015  0.9000788E+02  0.7816164E-02  0.1186339E+00
        -11   -1    0    0    0    0  0.00000000000E+00  0.00000000000E+00  0.45593999997E+02  0.45594000000E+02  0.51100000000E-03 0.  1.
         11   -1    0    0    0    0 -0.00000000000E+00 -0.00000000000E+00 -0.45593999997E+02  0.45594000000E+02  0.51100000000E-03 0. -1.
    9900012    2    1    2    0    0  0.85167260777E+00  0.35850718569E+00 -0.73404338197E+00  0.90007875719E+02  0.90000138878E+02 0.  0.
        -12    1    1    2    0    0 -0.85167260777E+00 -0.35850718569E+00  0.73404338197E+00  0.11801242814E+01  0.00000000000E+00 0.  1.
         11    1    3    3    0    0  0.39176080667E+02  0.59985486067E+01  0.17947769784E+02  0.43507129557E+02  0.51100000000E-03 0. -1.
        -11    1    3    3    0    0 -0.10098336758E+02  0.23251998695E+01  0.20775257050E+01  0.10568778218E+02  0.51100000000E-03 0.  1.
        -12    1    3    3    0    0 -0.28226071301E+02 -0.79652412906E+01 -0.20759338871E+02  0.35931967943E+02  0.00000000000E+00 0.  1.
</event>
<event>
 7    1  0.2232484E-015  0.9000769E+02  0.7816164E-02  0.1186339E+00
        -11   -1    0    0    0    0  0.00000000000E+00  0.00000000000E+00  0.45593999997E+02  0.45594000000E+02  0.51100000000E-03 0.  1.
         11   -1    0    0    0    0 -0.00000000000E+00 -0.00000000000E+00 -0.45593999997E+02  0.45594000000E+02  0.51100000000E-03 0. -1.
    9900012    2    1    2    0    0 -0.51835664037E+00 -0.66645544685E+00 -0.82478489536E+00  0.90007692162E+02  0.89999952898E+02 0.  0.
        -12    1    1    2    0    0  0.51835664037E+00  0.66645544685E+00  0.82478489536E+00  0.11803078382E+01  0.00000000000E+00 0.  1.
         11    1    3    3    0    0  0.26287153732E+02 -0.16579255112E+02  0.18522430864E+02  0.36179643404E+02  0.51100000000E-03 0. -1.
        -11    1    3    3    0    0  0.27073247024E+01 -0.20858733391E+01  0.86779547585E+01  0.93267021868E+01  0.51100000000E-03 0.  1.
        -12    1    3    3    0    0 -0.29512835075E+02  0.17998673004E+02 -0.28025170518E+02  0.44501346571E+02  0.00000000000E+00 0.  1.
</event>
<event>
 7    1  0.2232484E-015  0.9000758E+02  0.7816164E-02  0.1186339E+00
        -11   -1    0    0    0    0  0.00000000000E+00  0.00000000000E+00  0.45593999997E+02  0.45594000000E+02  0.51100000000E-03 0. -1.
         11   -1    0    0    0    0 -0.00000000000E+00 -0.00000000000E+00 -0.45593999997E+02  0.45594000000E+02  0.51100000000E-03 0.  1.
    9900012    2    1    2    0    0 -0.86278766022E-01  0.50357842804E+00  0.10641218821E+01  0.90007580313E+02  0.89999839573E+02 0.  0.
        -12    1    1    2    0    0  0.86278766022E-01 -0.50357842804E+00 -0.10641218821E+01  0.11804196875E+01  0.00000000000E+00 0.  1.
         11    1    3    3    0    0  0.28403406634E+01  0.10529498696E+02  0.10169819755E+01  0.10953179012E+02  0.51100000000E-03 0. -1.
        -11    1    3    3    0    0 -0.12000548586E+02  0.17836911053E+02 -0.30115399662E+02  0.37001430504E+02  0.51100000000E-03 0.  1.
         12    1    3    3    0    0  0.90739291566E+01 -0.27862831321E+02  0.30162539569E+02  0.42052970796E+02  0.00000000000E+00 0. -1.
</event>
<event>
 7    1  0.2232484E-015  0.9000779E+02  0.7816164E-02  0.1186339E+00
        -11   -1    0    0    0    0  0.00000000000E+00  0.00000000000E+00  0.45593999997E+02  0.45594000000E+02  0.51100000000E-03 0.  1.
         11   -1    0    0    0    0 -0.00000000000E+00 -0.00000000000E+00 -0.45593999997E+02  0.45594000000E+02  0.51100000000E-03 0. -1.
    9900012    2    1    2    0    0 -0.61243837499E+00  0.73080537085E+00  0.69550469971E+00  0.90007794916E+02  0.90000057009E+02 0.  0.
        -12    1    1    2    0    0  0.61243837499E+00 -0.73080537085E+00 -0.69550469971E+00  0.11802050841E+01  0.00000000000E+00 0.  1.
         11    1    3    3    0    0  0.70719232258E+01 -0.40906091279E+01  0.54204973856E+01  0.98044364100E+01  0.51100000000E-03 0. -1.
        -11    1    3    3    0    0 -0.73497134611E+01  0.22282570454E+02  0.31916281627E+02  0.39612880066E+02  0.51100000000E-03 0.  1.
         12    1    3    3    0    0 -0.33464813969E+00 -0.17461155955E+02 -0.36641274313E+02  0.40590478440E+02  0.00000000000E+00 0. -1.
</event>
<event>
 7    1  0.2232484E-015  0.9000780E+02  0.7816164E-02  0.1186339E+00
        -11   -1    0    0    0    0  0.00000000000E+00  0.00000000000E+00  0.45593999997E+02  0.45594000000E+02  0.51100000000E-03 0.  1.
         11   -1    0    0    0    0 -0.00000000000E+00 -0.00000000000E+00 -0.45593999997E+02  0.45594000000E+02  0.51100000000E-03 0. -1.
    9900012    2    1    2    0    0  0.90769934441E+00  0.65699163193E+00 -0.37056551462E+00  0.90007798786E+02  0.90000060930E+02 0.  0.
        -12    1    1    2    0    0 -0.90769934441E+00 -0.65699163193E+00  0.37056551462E+00  0.11802012137E+01  0.00000000000E+00 0.  1.
         11    1    3    3    0    0  0.15797533947E+02  0.13679321786E+02 -0.31243195204E+02  0.37587540092E+02  0.51100000000E-03 0. -1.
        -11    1    3    3    0    0  0.10706421925E+02  0.25255245255E+01  0.27527454189E+01  0.11339459959E+02  0.51100000000E-03 0.  1.
        -12    1    3    3    0    0 -0.25596256528E+02 -0.15547854680E+02  0.28119884271E+02  0.41080798736E+02  0.00000000000E+00 0.  1.
</event>
<event>
 7    1  0.2232484E-015  0.9000774E+02  0.7816164E-02  0.1186339E+00
        -11   -1    0    0    0    0  0.00000000000E+00  0.00000000000E+00  0.45593999997E+02  0.45594000000E+02  0.51100000000E-03 0.  1.
         11   -1    0    0    0    0 -0.00000000000E+00 -0.00000000000E+00 -0.45593999997E+02  0.45594000000E+02  0.51100000000E-03 0. -1.
    9900012    2    1    2    0    0  0.11715542482E+01  0.14291935823E+00 -0.73887969737E-02  0.90007737362E+02  0.89999998696E+02 0.  0.
        -12    1    1    2    0    0 -0.11715542482E+01 -0.14291935823E+00  0.73887969737E-02  0.11802626376E+01  0.00000000000E+00 0.  1.
         11    1    3    3    0    0  0.61305376068E+01 -0.40694025370E+01  0.73063176463E+01  0.10369465086E+02  0.51100000000E-03 0. -1.
        -11    1    3    3    0    0 -0.11892215723E+02  0.35874103253E+01  0.34801380916E+02  0.36951730969E+02  0.51100000000E-03 0.  1.
         12    1    3    3    0    0  0.69332323649E+01  0.62491156995E+00 -0.42115087360E+02  0.42686541308E+02  0.00000000000E+00 0. -1.
</event>
<event>
 7    1  0.2232484E-015  0.9000750E+02  0.7816164E-02  0.1186340E+00
        -11   -1    0    0    0    0  0.00000000000E+00  0.00000000000E+00  0.45593999997E+02  0.45594000000E+02  0.51100000000E-03 0. -1.
         11   -1    0    0    0    0 -0.00000000000E+00 -0.00000000000E+00 -0.45593999997E+02  0.45594000000E+02  0.51100000000E-03 0.  1.
    9900012    2    1    2    0    0  0.61769408915E+00 -0.70866564147E+00  0.71402154720E+00  0.90007500212E+02  0.89999758415E+02 0.  0.
        -12    1    1    2    0    0 -0.61769408915E+00  0.70866564147E+00 -0.71402154720E+00  0.11804997878E+01  0.00000000000E+00 0.  1.
         11    1    3    3    0    0 -0.10895476520E+01  0.32025465203E+01 -0.95009094148E+01  0.10085172198E+02  0.51100000000E-03 0. -1.
        -11    1    3    3    0    0 -0.28008858719E+02 -0.22141297837E+02 -0.13046011369E+02  0.38012256570E+02  0.51100000000E-03 0.  1.
         12    1    3    3    0    0  0.29716100460E+02  0.18230085675E+02  0.23260942331E+02  0.41910071444E+02  0.00000000000E+00 0. -1.
</event>
<event>
 7    1  0.2232484E-015  0.9000775E+02  0.7816164E-02  0.1186339E+00
        -11   -1    0    0    0    0  0.00000000000E+00  0.00000000000E+00  0.45593999997E+02  0.45594000000E+02  0.51100000000E-03 0.  1.
         11   -1    0    0    0    0 -0.00000000000E+00 -0.00000000000E+00 -0.45593999997E+02  0.45594000000E+02  0.51100000000E-03 0. -1.
    9900012    2    1    2    0    0  0.45709846995E+00 -0.11433376009E+00 -0.10821179547E+01  0.90007749820E+02  0.90000011317E+02 0.  0.
        -12    1    1    2    0    0 -0.45709846995E+00  0.11433376009E+00  0.10821179547E+01  0.11802501802E+01  0.00000000000E+00 0.  1.
         11    1    3    3    0    0  0.30307203925E+02 -0.41115780818E+01 -0.21221572705E+02  0.37226157905E+02  0.51100000000E-03 0. -1.
        -11    1    3    3    0    0 -0.50369188209E+01  0.15011741963E+01 -0.11412175430E+02  0.12564307521E+02  0.51100000000E-03 0.  1.
        -12    1    3    3    0    0 -0.24813186634E+02  0.24960701254E+01  0.31551630180E+02  0.40217284394E+02  0.00000000000E+00 0.  1.
</event>
<event>
 7    1  0.2232484E-015  0.9000773E+02  0.7816164E-02  0.1186339E+00
        -11   -1    0    0    0    0  0.00000000000E+00  0.00000000000E+00  0.45593999997E+02  0.45594000000E+02  0.51100000000E-03 0. -1.
         11   -1    0    0    0    0 -0.00000000000E+00 -0.00000000000E+00 -0.45593999997E+02  0.45594000000E+02  0.51100000000E-03 0.  1.
    9900012    2    1    2    0    0  0.11195988545E+01 -0.37139224417E+00  0.40064222573E-01  0.90007729295E+02  0.89999990522E+02 0.  0.
        -12    1    1    2    0    0 -0.11195988545E+01  0.37139224417E+00 -0.40064222573E-01  0.11802707046E+01  0.00000000000E+00 0.  1.
         11    1    3    3    0    0  0.11520360521E+01  0.33817079857E+01 -0.85545408283E+01  0.92705612025E+01  0.51100000000E-03 0. -1.
        -11    1    3    3    0    0 -0.10158754637E+02 -0.39556737169E+02 -0.49526136593E+01  0.41139568952E+02  0.51100000000E-03 0.  1.
         12    1    3    3    0    0  0.10126317440E+02  0.35803636939E+02  0.13547218710E+02  0.39597599141E+02  0.00000000000E+00 0. -1.
</event>
<event>
 7    1  0.2232484E-015  0.9000762E+02  0.7816164E-02  0.1186339E+00
        -11   -1    0    0    0    0  0.00000000000E+00  0.00000000000E+00  0.45593999997E+02  0.45594000000E+02  0.51100000000E-03 0. -1.
         11   -1    0    0    0    0 -0.00000000000E+00 -0.00000000000E+00 -0.45593999997E+02  0.45594000000E+02  0.51100000000E-03 0.  1.
    9900012    2    1    2    0    0 -0.10878379174E+01  0.24699695328E+00  0.38587509835E+00  0.90007619375E+02  0.89999879150E+02 0.  0.
        -12    1    1    2    0    0  0.10878379174E+01 -0.24699695328E+00 -0.38587509835E+00  0.11803806255E+01  0.00000000000E+00 0.  1.
         11    1    3    3    0    0 -0.16709741992E+02 -0.86130615082E+01  0.32514729648E+02  0.37558061057E+02  0.51100000000E-03 0. -1.
        -11    1    3    3    0    0  0.11423793146E+02  0.65152734340E+01  0.56878148218E+01  0.14328401009E+02  0.51100000000E-03 0.  1.
        -12    1    3    3    0    0  0.41981109290E+01  0.23447850274E+01 -0.37816669372E+02  0.38121157309E+02  0.00000000000E+00 0.  1.
</event>
<event>
 7    1  0.2232484E-015  0.9000743E+02  0.7816164E-02  0.1186340E+00
        -11   -1    0    0    0    0  0.00000000000E+00  0.00000000000E+00  0.45593999997E+02  0.45594000000E+02  0.51100000000E-03 0.  1.
         11   -1    0    0    0    0 -0.00000000000E+00 -0.00000000000E+00 -0.45593999997E+02  0.45594000000E+02  0.51100000000E-03 0. -1.
    9900012    2    1    2    0    0  0.18896714585E+00  0.11574710005E+01 -0.13523399469E+00  0.90007434063E+02  0.89999691392E+02 0.  0.
        -12    1    1    2    0    0 -0.18896714585E+00 -0.11574710005E+01  0.13523399469E+00  0.11805659374E+01  0.00000000000E+00 0.  1.
         11    1    3    3    0    0  0.63261814171E+01  0.82455845456E+01  0.16780021375E+01  0.10527389385E+02  0.51100000000E-03 0. -1.
        -11    1    3    3    0    0  0.16813853895E+02 -0.34805089271E+02 -0.14557720681E+02  0.41304081562E+02  0.51100000000E-03 0.  1.
         12    1    3    3    0    0 -0.22951068167E+02  0.27716975726E+02  0.12744484549E+02  0.38175963116E+02  0.00000000000E+00 0. -1.
</event>
<event>
 7    1  0.2232484E-015  0.9000775E+02  0.7816164E-02  0.1186339E+00
        -11   -1    0    0    0    0  0.00000000000E+00  0.00000000000E+00  0.45593999997E+02  0.45594000000E+02  0.51100000000E-03 0. -1.
         11   -1    0    0    0    0 -0.00000000000E+00 -0.00000000000E+00 -0.45593999997E+02  0.45594000000E+02  0.51100000000E-03 0.  1.
    9900012    2    1    2    0    0  0.69115336503E-01 -0.11568190759E+01  0.22358394883E+00  0.90007747024E+02  0.90000008485E+02 0.  0.
        -12    1    1    2    0    0 -0.69115336503E-01  0.11568190759E+01 -0.22358394883E+00  0.11802529756E+01  0.00000000000E+00 0.  1.
         11    1    3    3    0    0  0.27389999888E+02 -0.30265368111E+02  0.79409504573E+00  0.40826892950E+02  0.51100000000E-03 0. -1.
        -11    1    3    3    0    0  0.95383291837E+00 -0.37421332417E+01 -0.41761343477E+01  0.56880099143E+01  0.51100000000E-03 0.  1.
        -12    1    3    3    0    0 -0.28274717470E+02  0.32850682277E+02  0.36056232508E+01  0.43492844160E+02  0.00000000000E+00 0.  1.
</event>
<event>
 7    1  0.2232484E-015  0.9000779E+02  0.7816164E-02  0.1186339E+00
        -11   -1    0    0    0    0  0.00000000000E+00  0.00000000000E+00  0.45593999997E+02  0.45594000000E+02  0.51100000000E-03 0.  1.
         11   -1    0    0    0    0 -0.00000000000E+00 -0.00000000000E+00 -0.45593999997E+02  0.45594000000E+02  0.51100000000E-03 0. -1.
    9900012    2    1    2    0    0  0.90359847600E+00 -0.15666820052E+00 -0.74287928511E+00  0.90007786137E+02  0.90000048114E+02 0.  0.
        -12    1    1    2    0    0 -0.90359847600E+00  0.15666820052E+00  0.74287928511E+00  0.11802138633E+01  0.00000000000E+00 0.  1.
         11    1    3    3    0    0 -0.44421371838E+01  0.10051100385E+02 -0.27253008673E+01  0.11321857921E+02  0.51100000000E-03 0. -1.
        -11    1    3    3    0    0 -0.33353658461E+02  0.64499021103E+01  0.10788088155E+02  0.35643381101E+02  0.51100000000E-03 0.  1.
         12    1    3    3    0    0  0.38699394121E+02 -0.16657670695E+02 -0.88056665729E+01  0.43042547115E+02  0.00000000000E+00 0. -1.
</event>
<event>
 7    1  0.2301029E-015  0.9000773E+02  0.7816164E-02  0.1186339E+00
        -11   -1    0    0    0    0  0.00000000000E+00  0.00000000000E+00  0.45593999997E+02  0.45594000000E+02  0.51100000000E-03 0.  1.
         11   -1    0    0    0    0 -0.00000000000E+00 -0.00000000000E+00 -0.45593999997E+02  0.45594000000E+02  0.51100000000E-03 0. -1.
    9900012    2    1    2    0    0  0.64031503037E+00  0.79838613496E+00 -0.58788394940E+00  0.90007732532E+02  0.89999993801E+02 0.  0.
        -12    1    1    2    0    0 -0.64031503037E+00 -0.79838613496E+00  0.58788394940E+00  0.11802674682E+01  0.00000000000E+00 0.  1.
         11    1    3    3    0    0 -0.80249633905E+01  0.56156096235E+01 -0.26755593792E+01  0.10153508119E+02  0.51100000000E-03 0. -1.
        -11    1    3    3    0    0  0.44179762225E+01 -0.43551831774E+00  0.40609808925E+02  0.40851741349E+02  0.51100000000E-03 0.  1.
         12    1    3    3    0    0  0.42473021984E+01 -0.43817051708E+01 -0.38522133495E+02  0.39002483064E+02  0.00000000000E+00 0. -1.
</event>
<event>
 7    1  0.2232484E-015  0.9000763E+02  0.7816164E-02  0.1186339E+00
        -11   -1    0    0    0    0  0.00000000000E+00  0.00000000000E+00  0.45593999997E+02  0.45594000000E+02  0.51100000000E-03 0. -1.
         11   -1    0    0    0    0 -0.00000000000E+00 -0.00000000000E+00 -0.45593999997E+02  0.45594000000E+02  0.51100000000E-03 0.  1.
    9900012    2    1    2    0    0 -0.26452417016E+00  0.98245937428E+00  0.59838714312E+00  0.90007632840E+02  0.89999892794E+02 0.  0.
        -12    1    1    2    0    0  0.26452417016E+00 -0.98245937428E+00 -0.59838714312E+00  0.11803671597E+01  0.00000000000E+00 0.  1.
         11    1    3    3    0    0  0.32632096076E+02 -0.95058504794E+01  0.18178573299E+02  0.38544460239E+02  0.51100000000E-03 0. -1.
        -11    1    3    3    0    0  0.14350631352E+01  0.97207713469E+01  0.43200944470E+01  0.10733872464E+02  0.51100000000E-03 0.  1.
        -12    1    3    3    0    0 -0.34331683382E+02  0.76753850674E+00 -0.21900280603E+02  0.40729300137E+02  0.00000000000E+00 0.  1.
</event>
<event>
 7    1  0.2232484E-015  0.9000768E+02  0.7816164E-02  0.1186339E+00
        -11   -1    0    0    0    0  0.00000000000E+00  0.00000000000E+00  0.45593999997E+02  0.45594000000E+02  0.51100000000E-03 0. -1.
         11   -1    0    0    0    0 -0.00000000000E+00 -0.00000000000E+00 -0.45593999997E+02  0.45594000000E+02  0.51100000000E-03 0.  1.
    9900012    2    1    2    0    0  0.60047507844E+00 -0.22139488224E+00  0.99174561727E+00  0.90007684202E+02  0.89999944833E+02 0.  0.
        -12    1    1    2    0    0 -0.60047507844E+00  0.22139488224E+00 -0.99174561727E+00  0.11803157980E+01  0.00000000000E+00 0.  1.
         11    1    3    3    0    0 -0.29786088733E+02  0.61861008096E+01  0.25560438210E+02  0.39734304159E+02  0.51100000000E-03 0. -1.
        -11    1    3    3    0    0 -0.55829522440E+01 -0.54798758618E+01 -0.34289447923E+01  0.85414318395E+01  0.51100000000E-03 0.  1.
        -12    1    3    3    0    0  0.35969516055E+02 -0.92761983001E+00 -0.21139747800E+02  0.41731948204E+02  0.00000000000E+00 0.  1.
</event>
<event>
 7    1  0.2232484E-015  0.9000785E+02  0.7816164E-02  0.1186339E+00
        -11   -1    0    0    0    0  0.00000000000E+00  0.00000000000E+00  0.45593999997E+02  0.45594000000E+02  0.51100000000E-03 0.  1.
         11   -1    0    0    0    0 -0.00000000000E+00 -0.00000000000E+00 -0.45593999997E+02  0.45594000000E+02  0.51100000000E-03 0. -1.
    9900012    2    1    2    0    0  0.10192733041E+01 -0.60056329511E-02  0.59481295218E+00  0.90007848915E+02  0.90000111720E+02 0.  0.
        -12    1    1    2    0    0 -0.10192733041E+01  0.60056329511E-02 -0.59481295218E+00  0.11801510853E+01  0.00000000000E+00 0.  1.
         11    1    3    3    0    0  0.11682718328E+02 -0.36919323106E+01  0.35222595606E+01  0.12748434586E+02  0.51100000000E-03 0. -1.
        -11    1    3    3    0    0  0.22630052463E+02  0.10734406264E+02  0.23366064316E+02  0.34253754746E+02  0.51100000000E-03 0.  1.
         12    1    3    3    0    0 -0.33293497487E+02 -0.70484795860E+01 -0.26293510925E+02  0.43005659583E+02  0.00000000000E+00 0. -1.
</event>
<event>
 7    1  0.2232484E-015  0.9000773E+02  0.7816164E-02  0.1186339E+00
        -11   -1    0    0    0    0  0.00000000000E+00  0.00000000000E+00  0.45593999997E+02  0.45594000000E+02  0.51100000000E-03 0.  1.
         11   -1    0    0    0    0 -0.00000000000E+00 -0.00000000000E+00 -0.45593999997E+02  0.45594000000E+02  0.51100000000E-03 0. -1.
    9900012    2    1    2    0    0 -0.50460997785E+00  0.45612594337E+00 -0.96454516784E+00  0.90007733298E+02  0.89999994578E+02 0.  0.
        -12    1    1    2    0    0  0.50460997785E+00 -0.45612594337E+00  0.96454516784E+00  0.11802667015E+01  0.00000000000E+00 0.  1.
         11    1    3    3    0    0 -0.35889777605E+02 -0.14946578297E+01 -0.22857745825E+02  0.42576832703E+02  0.51100000000E-03 0. -1.
        -11    1    3    3    0    0  0.82261196988E+01 -0.21824993436E+01 -0.42454912936E+01  0.95108645911E+01  0.51100000000E-03 0.  1.
        -12    1    3    3    0    0  0.27159047928E+02  0.41332831167E+01  0.26138691951E+02  0.37920036004E+02  0.00000000000E+00 0.  1.
</event>
<event>
 7    1  0.2232484E-015  0.9000774E+02  0.7816164E-02  0.1186339E+00
        -11   -1    0    0    0    0  0.00000000000E+00  0.00000000000E+00  0.45593999997E+02  0.45594000000E+02  0.51100000000E-03 0. -1.
         11   -1    0    0    0    0 -0.00000000000E+00 -0.00000000000E+00 -0.45593999997E+02  0.45594000000E+02  0.51100000000E-03 0.  1.
    9900012    2    1    2    0    0  0.52858451072E-01 -0.78860741990E+00  0.87653211222E+00  0.90007744001E+02  0.90000005422E+02 0.  0.
        -12    1    1    2    0    0 -0.52858451072E-01  0.78860741990E+00 -0.87653211222E+00  0.11802559986E+01  0.00000000000E+00 0.  1.
         11    1    3    3    0    0 -0.27931872100E+02 -0.23005404039E+02 -0.10768772745E+02  0.37754530333E+02  0.51100000000E-03 0. -1.
        -11    1    3    3    0    0 -0.55217730358E+01  0.55776876934E+01 -0.69433083172E+01  0.10479031831E+02  0.51100000000E-03 0.  1.
        -12    1    3    3    0    0  0.33506503587E+02  0.16639108926E+02  0.18588613174E+02  0.41774181837E+02  0.00000000000E+00 0.  1.
</event>
<event>
 7    1  0.2420970E-015  0.9000765E+02  0.7816164E-02  0.1186339E+00
        -11   -1    0    0    0    0  0.00000000000E+00  0.00000000000E+00  0.45593999997E+02  0.45594000000E+02  0.51100000000E-03 0.  1.
         11   -1    0    0    0    0 -0.00000000000E+00 -0.00000000000E+00 -0.45593999997E+02  0.45594000000E+02  0.51100000000E-03 0. -1.
    9900012    2    1    2    0    0 -0.13869655378E-01 -0.89456525215E+00 -0.76992826050E+00  0.90007648830E+02  0.89999908995E+02 0.  0.
        -12    1    1    2    0    0  0.13869655378E-01  0.89456525215E+00  0.76992826050E+00  0.11803511698E+01  0.00000000000E+00 0.  1.
         11    1    3    3    0    0 -0.57167208674E+01 -0.63926153627E+01  0.52879746258E+01  0.10075172681E+02  0.51100000000E-03 0. -1.
        -11    1    3    3    0    0 -0.58827807907E+01  0.20521153737E+00  0.35747912763E+02  0.36229304283E+02  0.51100000000E-03 0.  1.
         12    1    3    3    0    0  0.11585632003E+02  0.52928385732E+01 -0.41805815650E+02  0.43703171866E+02  0.00000000000E+00 0. -1.
</event>
<event>
 7    1  0.2232484E-015  0.9000779E+02  0.7816164E-02  0.1186339E+00
        -11   -1    0    0    0    0  0.00000000000E+00  0.00000000000E+00  0.45593999997E+02  0.45594000000E+02  0.51100000000E-03 0. -1.
         11   -1    0    0    0    0 -0.00000000000E+00 -0.00000000000E+00 -0.45593999997E+02  0.45594000000E+02  0.51100000000E-03 0.  1.
    9900012    2    1    2    0    0  0.10917259843E+01 -0.10668035523E+00  0.43547846014E+00  0.90007793318E+02  0.90000055390E+02 0.  0.
        -12    1    1    2    0    0 -0.10917259843E+01  0.10668035523E+00 -0.43547846014E+00  0.11802066820E+01  0.00000000000E+00 0.  1.
         11    1    3    3    0    0  0.23163910178E+02  0.15361955849E+02  0.26844749812E+02  0.38641907497E+02  0.51100000000E-03 0. -1.
        -11    1    3    3    0    0  0.43297739226E+01 -0.61196417302E+01  0.52072893577E+01  0.91275856525E+01  0.51100000000E-03 0.  1.
        -12    1    3    3    0    0 -0.26401958116E+02 -0.93489944743E+01 -0.31616560709E+02  0.42238300169E+02  0.00000000000E+00 0.  1.
</event>
<event>
 7    1  0.2232484E-015  0.9000791E+02  0.7816164E-02  0.1186339E+00
        -11   -1    0    0    0    0  0.00000000000E+00  0.00000000000E+00  0.45593999997E+02  0.45594000000E+02  0.51100000000E-03 0.  1.
         11   -1    0    0    0    0 -0.00000000000E+00 -0.00000000000E+00 -0.45593999997E+02  0.45594000000E+02  0.51100000000E-03 0. -1.
    9900012    2    1    2    0    0  0.71472430264E+00 -0.85013072265E+00  0.39883480595E+00  0.90007905819E+02  0.90000169375E+02 0.  0.
        -12    1    1    2    0    0 -0.71472430264E+00  0.85013072265E+00 -0.39883480595E+00  0.11800941813E+01  0.00000000000E+00 0.  1.
         11    1    3    3    0    0 -0.16588619057E+02  0.26479518156E+00 -0.18367753138E+01  0.16692098206E+02  0.51100000000E-03 0. -1.
        -11    1    3    3    0    0 -0.61851154497E+01  0.43892543028E+00  0.33562454636E+02  0.34130436126E+02  0.51100000000E-03 0.  1.
        -12    1    3    3    0    0  0.23488458809E+02 -0.15538513345E+01 -0.31326844517E+02  0.39185371487E+02  0.00000000000E+00 0.  1.
</event>
<event>
 7    1  0.2232484E-015  0.9000777E+02  0.7816164E-02  0.1186339E+00
        -11   -1    0    0    0    0  0.00000000000E+00  0.00000000000E+00  0.45593999997E+02  0.45594000000E+02  0.51100000000E-03 0. -1.
         11   -1    0    0    0    0 -0.00000000000E+00 -0.00000000000E+00 -0.45593999997E+02  0.45594000000E+02  0.51100000000E-03 0.  1.
    9900012    2    1    2    0    0 -0.13117682824E-01  0.96616028513E+00  0.67771968747E+00  0.90007770469E+02  0.90000032240E+02 0.  0.
        -12    1    1    2    0    0  0.13117682824E-01 -0.96616028513E+00 -0.67771968747E+00  0.11802295306E+01  0.00000000000E+00 0.  1.
         11    1    3    3    0    0  0.71405721532E+01 -0.63051725561E+01 -0.42746861589E+00  0.95354969097E+01  0.51100000000E-03 0. -1.
        -11    1    3    3    0    0  0.33720576297E+02 -0.48050681669E+01 -0.11625685578E+02  0.35990589205E+02  0.51100000000E-03 0.  1.
         12    1    3    3    0    0 -0.40874266133E+02  0.12076401008E+02  0.12730873881E+02  0.44481684355E+02  0.00000000000E+00 0. -1.
</event>
<event>
 7    1  0.2232484E-015  0.9000761E+02  0.7816164E-02  0.1186339E+00
        -11   -1    0    0    0    0  0.00000000000E+00  0.00000000000E+00  0.45593999997E+02  0.45594000000E+02  0.51100000000E-03 0. -1.
         11   -1    0    0    0    0 -0.00000000000E+00 -0.00000000000E+00 -0.45593999997E+02  0.45594000000E+02  0.51100000000E-03 0.  1.
    9900012    2    1    2    0    0 -0.61684664863E+00  0.37163444856E+00  0.93525788810E+00  0.90007610544E+02  0.89999870203E+02 0.  0.
        -12    1    1    2    0    0  0.61684664863E+00 -0.37163444856E+00 -0.93525788810E+00  0.11803894563E+01  0.00000000000E+00 0.  1.
         11    1    3    3    0    0 -0.11519878363E+02  0.41396417531E+01 -0.21224527046E+02  0.24501526073E+02  0.51100000000E-03 0. -1.
        -11    1    3    3    0    0 -0.17317389898E+02 -0.22036327488E+02  0.10008219753E+02  0.29759976225E+02  0.51100000000E-03 0.  1.
         12    1    3    3    0    0  0.28220421612E+02  0.18268320183E+02  0.12151565182E+02  0.35746108245E+02  0.00000000000E+00 0. -1.
</event>
<event>
 7    1  0.2232484E-015  0.9000773E+02  0.7816164E-02  0.1186339E+00
        -11   -1    0    0    0    0  0.00000000000E+00  0.00000000000E+00  0.45593999997E+02  0.45594000000E+02  0.51100000000E-03 0.  1.
         11   -1    0    0    0    0 -0.00000000000E+00 -0.00000000000E+00 -0.45593999997E+02  0.45594000000E+02  0.51100000000E-03 0. -1.
    9900012    2    1    2    0    0 -0.20791149079E+00  0.76157857239E+00 -0.87739176697E+00  0.90007726547E+02  0.89999987738E+02 0.  0.
        -12    1    1    2    0    0  0.20791149079E+00 -0.76157857239E+00  0.87739176697E+00  0.11802734525E+01  0.00000000000E+00 0.  1.
         11    1    3    3    0    0 -0.90511694245E+00 -0.88143415506E+01  0.62516179901E+01  0.10844103532E+02  0.51100000000E-03 0. -1.
        -11    1    3    3    0    0 -0.17580943285E+02 -0.29637625824E+02  0.34283202217E+01  0.34629926524E+02  0.51100000000E-03 0.  1.
         12    1    3    3    0    0  0.18278148737E+02  0.39213545947E+02 -0.10557329979E+02  0.44533696492E+02  0.00000000000E+00 0. -1.
</event>
<event>
 7    1  0.2232484E-015  0.9000778E+02  0.7816164E-02  0.1186339E+00
        -11   -1    0    0    0    0  0.00000000000E+00  0.00000000000E+00  0.45593999997E+02  0.45594000000E+02  0.51100000000E-03 0. -1.
         11   -1    0    0    0    0 -0.00000000000E+00 -0.00000000000E+00 -0.45593999997E+02  0.45594000000E+02  0.51100000000E-03 0.  1.
    9900012    2    1    2    0    0 -0.10335444156E+01 -0.54758265919E+00  0.15765066768E+00  0.90007781986E+02  0.90000043908E+02 0.  0.
        -12    1    1    2    0    0  0.10335444156E+01  0.54758265919E+00 -0.15765066768E+00  0.11802180140E+01  0.00000000000E+00 0.  1.
         11    1    3    3    0    0 -0.25472294432E+02 -0.27711889643E+02  0.62674059183E+01  0.38158445833E+02  0.51100000000E-03 0. -1.
        -11    1    3    3    0    0 -0.82781451035E+00 -0.78828365889E+01 -0.31946304148E+01  0.85457623007E+01  0.51100000000E-03 0.  1.
        -12    1    3    3    0    0  0.25266564526E+02  0.35047143573E+02 -0.29151248358E+01  0.43303573852E+02  0.00000000000E+00 0.  1.
</event>
<event>
 7    1  0.2232484E-015  0.9000775E+02  0.7816164E-02  0.1186339E+00
        -11   -1    0    0    0    0  0.00000000000E+00  0.00000000000E+00  0.45593999997E+02  0.45594000000E+02  0.51100000000E-03 0.  1.
         11   -1    0    0    0    0 -0.00000000000E+00 -0.00000000000E+00 -0.45593999997E+02  0.45594000000E+02  0.51100000000E-03 0. -1.
    9900012    2    1    2    0    0 -0.10609007238E+01  0.27567300471E+00 -0.43757558927E+00  0.90007754963E+02  0.90000016528E+02 0.  0.
        -12    1    1    2    0    0  0.10609007238E+01 -0.27567300471E+00  0.43757558927E+00  0.11802450371E+01  0.00000000000E+00 0.  1.
         11    1    3    3    0    0  0.15290241796E+02  0.21576896734E+02 -0.25100490795E+02  0.36460781742E+02  0.51100000000E-03 0. -1.
        -11    1    3    3    0    0  0.72533793892E+01  0.73572272668E+01  0.41919802645E+01  0.11149574181E+02  0.51100000000E-03 0.  1.
        -12    1    3    3    0    0 -0.23604521909E+02 -0.28658450996E+02  0.20470934941E+02  0.42397399040E+02  0.00000000000E+00 0.  1.
</event>
<event>
 7    1  0.2232484E-015  0.9000696E+02  0.7816164E-02  0.1186341E+00
        -11   -1    0    0    0    0  0.00000000000E+00  0.00000000000E+00  0.45593999997E+02  0.45594000000E+02  0.51100000000E-03 0.  1.
         11   -1    0    0    0    0 -0.00000000000E+00 -0.00000000000E+00 -0.45593999997E+02  0.45594000000E+02  0.51100000000E-03 0. -1.
    9900012    2    1    2    0    0 -0.63102035258E+00 -0.55349351351E+00  0.83084430105E+00  0.90006964858E+02  0.89999215990E+02 0.  0.
        -12    1    1    2    0    0  0.63102035258E+00  0.55349351351E+00 -0.83084430105E+00  0.11810351423E+01  0.00000000000E+00 0.  1.
         11    1    3    3    0    0 -0.38187212399E+01 -0.81187339177E+01 -0.27706417671E+01  0.93900441105E+01  0.51100000000E-03 0. -1.
        -11    1    3    3    0    0 -0.13421328039E+02 -0.31775471654E+02  0.13052310494E+02  0.36880556593E+02  0.51100000000E-03 0.  1.
         12    1    3    3    0    0  0.16609028926E+02  0.39340712058E+02 -0.94508244254E+01  0.43736364154E+02  0.00000000000E+00 0. -1.
</event>
<event>
 7    1  0.2232484E-015  0.9000771E+02  0.7816164E-02  0.1186339E+00
        -11   -1    0    0    0    0  0.00000000000E+00  0.00000000000E+00  0.45593999997E+02  0.45594000000E+02  0.51100000000E-03 0.  1.
         11   -1    0    0    0    0 -0.00000000000E+00 -0.00000000000E+00 -0.45593999997E+02  0.45594000000E+02  0.51100000000E-03 0. -1.
    9900012    2    1    2    0    0 -0.70897448133E+00 -0.90016403209E+00 -0.28310204934E+00  0.90007708989E+02  0.89999969948E+02 0.  0.
        -12    1    1    2    0    0  0.70897448133E+00  0.90016403209E+00  0.28310204934E+00  0.11802910108E+01  0.00000000000E+00 0.  1.
         11    1    3    3    0    0  0.47508735074E+01  0.71822702985E+01 -0.12656578848E+02  0.15308324340E+02  0.51100000000E-03 0. -1.
        -11    1    3    3    0    0  0.25838812635E+02  0.50880818586E+01 -0.15683175287E+02  0.30651179467E+02  0.51100000000E-03 0.  1.
        -12    1    3    3    0    0 -0.31298660624E+02 -0.13170516189E+02  0.28056652085E+02  0.44048205182E+02  0.00000000000E+00 0.  1.
</event>
<event>
 7    1  0.2232484E-015  0.9000767E+02  0.7816164E-02  0.1186339E+00
        -11   -1    0    0    0    0  0.00000000000E+00  0.00000000000E+00  0.45593999997E+02  0.45594000000E+02  0.51100000000E-03 0. -1.
         11   -1    0    0    0    0 -0.00000000000E+00 -0.00000000000E+00 -0.45593999997E+02  0.45594000000E+02  0.51100000000E-03 0.  1.
    9900012    2    1    2    0    0  0.59519169763E+00 -0.10931245694E+00  0.10133972419E+01  0.90007671088E+02  0.89999931546E+02 0.  0.
        -12    1    1    2    0    0 -0.59519169763E+00  0.10931245694E+00 -0.10133972419E+01  0.11803289118E+01  0.00000000000E+00 0.  1.
         11    1    3    3    0    0 -0.63954183700E+01 -0.36673053828E+01  0.64860901766E+01  0.98193620434E+01  0.51100000000E-03 0. -1.
        -11    1    3    3    0    0 -0.75044041181E+00  0.33147732997E+02  0.21409870900E+02  0.39467935541E+02  0.51100000000E-03 0.  1.
         12    1    3    3    0    0  0.77410504794E+01 -0.29589740071E+02 -0.26882563834E+02  0.40720373504E+02  0.00000000000E+00 0. -1.
</event>
<event>
 7    1  0.2232484E-015  0.9000772E+02  0.7816164E-02  0.1186339E+00
        -11   -1    0    0    0    0  0.00000000000E+00  0.00000000000E+00  0.45593999997E+02  0.45594000000E+02  0.51100000000E-03 0.  1.
         11   -1    0    0    0    0 -0.00000000000E+00 -0.00000000000E+00 -0.45593999997E+02  0.45594000000E+02  0.51100000000E-03 0. -1.
    9900012    2    1    2    0    0 -0.22550984189E+00  0.37050246924E+00 -0.10976967837E+01  0.90007718255E+02  0.89999979336E+02 0.  0.
        -12    1    1    2    0    0  0.22550984189E+00 -0.37050246924E+00  0.10976967837E+01  0.11802817449E+01  0.00000000000E+00 0.  1.
         11    1    3    3    0    0  0.65978512633E+00  0.97188465298E+01 -0.62650274604E+00  0.97613421328E+01  0.51100000000E-03 0. -1.
        -11    1    3    3    0    0  0.24681879082E+02  0.26437499968E+02 -0.21660610850E+01  0.36232973663E+02  0.51100000000E-03 0.  1.
         12    1    3    3    0    0 -0.25567174050E+02 -0.35785844028E+02  0.16948670474E+01  0.44013402459E+02  0.00000000000E+00 0. -1.
</event>
<event>
 7    1  0.2232484E-015  0.9000776E+02  0.7816164E-02  0.1186339E+00
        -11   -1    0    0    0    0  0.00000000000E+00  0.00000000000E+00  0.45593999997E+02  0.45594000000E+02  0.51100000000E-03 0.  1.
         11   -1    0    0    0    0 -0.00000000000E+00 -0.00000000000E+00 -0.45593999997E+02  0.45594000000E+02  0.51100000000E-03 0. -1.
    9900012    2    1    2    0    0  0.50451852032E+00  0.10435138799E+01  0.22252567628E+00  0.90007755182E+02  0.90000016750E+02 0.  0.
        -12    1    1    2    0    0 -0.50451852032E+00 -0.10435138799E+01 -0.22252567628E+00  0.11802448184E+01  0.00000000000E+00 0.  1.
         11    1    3    3    0    0  0.11195662155E+02 -0.51361310791E+00  0.93019780480E+01  0.14564801591E+02  0.51100000000E-03 0. -1.
        -11    1    3    3    0    0  0.30716461027E+02 -0.54120954477E+01  0.40422629250E+01  0.31450463351E+02  0.51100000000E-03 0.  1.
         12    1    3    3    0    0 -0.41407604662E+02  0.69692224355E+01 -0.13121715297E+02  0.43992490240E+02  0.00000000000E+00 0. -1.
</event>
<event>
 7    1  0.2232484E-015  0.9000758E+02  0.7816164E-02  0.1186339E+00
        -11   -1    0    0    0    0  0.00000000000E+00  0.00000000000E+00  0.45593999997E+02  0.45594000000E+02  0.51100000000E-03 0.  1.
         11   -1    0    0    0    0 -0.00000000000E+00 -0.00000000000E+00 -0.45593999997E+02  0.45594000000E+02  0.51100000000E-03 0. -1.
    9900012    2    1    2    0    0 -0.30838529268E+00  0.30087959163E+00 -0.10989830852E+01  0.90007578957E+02  0.89999838199E+02 0.  0.
        -12    1    1    2    0    0  0.30838529268E+00 -0.30087959163E+00  0.10989830852E+01  0.11804210431E+01  0.00000000000E+00 0.  1.
         11    1    3    3    0    0  0.15056210879E+02 -0.92817238288E+01 -0.34577984115E+02  0.38839115194E+02  0.51100000000E-03 0. -1.
        -11    1    3    3    0    0 -0.28810616844E+01 -0.11344805090E+01 -0.69017859310E+01  0.75645364533E+01  0.51100000000E-03 0.  1.
        -12    1    3    3    0    0 -0.12483534488E+02  0.10717083929E+02  0.40380786961E+02  0.43603927310E+02  0.00000000000E+00 0.  1.
</event>
<event>
 7    1  0.2232484E-015  0.9000776E+02  0.7816164E-02  0.1186339E+00
        -11   -1    0    0    0    0  0.00000000000E+00  0.00000000000E+00  0.45593999997E+02  0.45594000000E+02  0.51100000000E-03 0.  1.
         11   -1    0    0    0    0 -0.00000000000E+00 -0.00000000000E+00 -0.45593999997E+02  0.45594000000E+02  0.51100000000E-03 0. -1.
    9900012    2    1    2    0    0  0.38337811456E+00 -0.11137189621E+01 -0.74898279423E-01  0.90007763389E+02  0.90000025066E+02 0.  0.
        -12    1    1    2    0    0 -0.38337811456E+00  0.11137189621E+01  0.74898279423E-01  0.11802366108E+01  0.00000000000E+00 0.  1.
         11    1    3    3    0    0  0.53592945770E+01 -0.58432344682E+01 -0.60194127308E+01  0.99548358750E+01  0.51100000000E-03 0. -1.
        -11    1    3    3    0    0 -0.77066320332E+01  0.19918185587E+01  0.42527572488E+02  0.43266083026E+02  0.51100000000E-03 0.  1.
         12    1    3    3    0    0  0.27307155707E+01  0.27376969475E+01 -0.36583058036E+02  0.36786844488E+02  0.00000000000E+00 0. -1.
</event>
<event>
 7    1  0.2232484E-015  0.9000782E+02  0.7816164E-02  0.1186339E+00
        -11   -1    0    0    0    0  0.00000000000E+00  0.00000000000E+00  0.45593999997E+02  0.45594000000E+02  0.51100000000E-03 0. -1.
         11   -1    0    0    0    0 -0.00000000000E+00 -0.00000000000E+00 -0.45593999997E+02  0.45594000000E+02  0.51100000000E-03 0.  1.
    9900012    2    1    2    0    0 -0.20768649524E+00 -0.35986942081E+00  0.11046165227E+01  0.90007823173E+02  0.90000085639E+02 0.  0.
        -12    1    1    2    0    0  0.20768649524E+00  0.35986942081E+00 -0.11046165227E+01  0.11801768268E+01  0.00000000000E+00 0.  1.
         11    1    3    3    0    0  0.74024362741E+01 -0.34176651928E+02  0.23166779548E+02  0.41946862513E+02  0.51100000000E-03 0. -1.
        -11    1    3    3    0    0  0.56655426133E+01  0.10931983150E+00 -0.65252302390E+01  0.86422771225E+01  0.51100000000E-03 0.  1.
        -12    1    3    3    0    0 -0.13275665383E+02  0.33707462676E+02 -0.15536932786E+02  0.39418683537E+02  0.00000000000E+00 0.  1.
</event>
<event>
 7    1  0.2232484E-015  0.9000773E+02  0.7816164E-02  0.1186339E+00
        -11   -1    0    0    0    0  0.00000000000E+00  0.00000000000E+00  0.45593999997E+02  0.45594000000E+02  0.51100000000E-03 0. -1.
         11   -1    0    0    0    0 -0.00000000000E+00 -0.00000000000E+00 -0.45593999997E+02  0.45594000000E+02  0.51100000000E-03 0.  1.
    9900012    2    1    2    0    0  0.58878432295E+00 -0.71698662456E-01  0.10204068352E+01  0.90007729782E+02  0.89999991016E+02 0.  0.
        -12    1    1    2    0    0 -0.58878432295E+00  0.71698662456E-01 -0.10204068352E+01  0.11802702176E+01  0.00000000000E+00 0.  1.
         11    1    3    3    0    0 -0.32826287093E+01  0.25474889182E+01 -0.10074090503E+02  0.10897368983E+02  0.51100000000E-03 0. -1.
        -11    1    3    3    0    0 -0.37159733219E+02  0.31514740977E+00  0.41448943109E+01  0.37391512940E+02  0.51100000000E-03 0.  1.
         12    1    3    3    0    0  0.41031146251E+02 -0.29343349904E+01  0.69496030270E+01  0.41718847860E+02  0.00000000000E+00 0. -1.
</event>
<event>
 7    1  0.2232484E-015  0.9000790E+02  0.7816164E-02  0.1186339E+00
        -11   -1    0    0    0    0  0.00000000000E+00  0.00000000000E+00  0.45593999997E+02  0.45594000000E+02  0.51100000000E-03 0.  1.
         11   -1    0    0    0    0 -0.00000000000E+00 -0.00000000000E+00 -0.45593999997E+02  0.45594000000E+02  0.51100000000E-03 0. -1.
    9900012    2    1    2    0    0 -0.24249947494E+00 -0.62964802932E+00 -0.96818192557E+00  0.90007898785E+02  0.90000162249E+02 0.  0.
        -12    1    1    2    0    0  0.24249947494E+00  0.62964802932E+00  0.96818192557E+00  0.11801012148E+01  0.00000000000E+00 0.  1.
         11    1    3    3    0    0 -0.44745680319E+01 -0.20162373860E+02  0.71622835238E+01  0.21859583351E+02  0.51100000000E-03 0. -1.
        -11    1    3    3    0    0 -0.18695923806E+02 -0.14956927669E+02 -0.11567741241E+02  0.26590597773E+02  0.51100000000E-03 0.  1.
         12    1    3    3    0    0  0.22927992363E+02  0.34489653500E+02  0.34372757919E+01  0.41557717661E+02  0.00000000000E+00 0. -1.
</event>
<event>
 7    1  0.5894295E-015  0.9000758E+02  0.7816164E-02  0.1186339E+00
        -11   -1    0    0    0    0  0.00000000000E+00  0.00000000000E+00  0.45593999997E+02  0.45594000000E+02  0.51100000000E-03 0. -1.
         11   -1    0    0    0    0 -0.00000000000E+00 -0.00000000000E+00 -0.45593999997E+02  0.45594000000E+02  0.51100000000E-03 0.  1.
    9900012    2    1    2    0    0 -0.56529639795E+00 -0.24200723485E+00  0.10075978324E+01  0.90007584433E+02  0.89999843747E+02 0.  0.
        -12    1    1    2    0    0  0.56529639795E+00  0.24200723485E+00 -0.10075978324E+01  0.11804155671E+01  0.00000000000E+00 0.  1.
         11    1    3    3    0    0 -0.25702707810E+01  0.51484695138E+01 -0.72681917857E+01  0.92703636562E+01  0.51100000000E-03 0. -1.
        -11    1    3    3    0    0 -0.92405331804E+01 -0.40210325420E+01 -0.34782830249E+02  0.36213277076E+02  0.51100000000E-03 0.  1.
         12    1    3    3    0    0  0.11245507563E+02 -0.13694442067E+01  0.43058619867E+02  0.44523943701E+02  0.00000000000E+00 0. -1.
</event>
<event>
 7    1  0.2232484E-015  0.9000763E+02  0.7816164E-02  0.1186339E+00
        -11   -1    0    0    0    0  0.00000000000E+00  0.00000000000E+00  0.45593999997E+02  0.45594000000E+02  0.51100000000E-03 0. -1.
         11   -1    0    0    0    0 -0.00000000000E+00 -0.00000000000E+00 -0.45593999997E+02  0.45594000000E+02  0.51100000000E-03 0.  1.
    9900012    2    1    2    0    0  0.10734032890E+01  0.41495536430E+00  0.26246543859E+00  0.90007631125E+02  0.89999891056E+02 0.  0.
        -12    1    1    2    0    0 -0.10734032890E+01 -0.41495536430E+00 -0.26246543859E+00  0.11803688752E+01  0.00000000000E+00 0.  1.
         11    1    3    3    0    0 -0.45617994612E+01 -0.41403915866E+01  0.69094184793E+01  0.92570470885E+01  0.51100000000E-03 0. -1.
        -11    1    3    3    0    0  0.17903698897E+02 -0.34762803265E+02 -0.59831065784E+01  0.39557458078E+02  0.51100000000E-03 0.  1.
         12    1    3    3    0    0 -0.12268496147E+02  0.39318150216E+02 -0.66384646236E+00  0.41193125958E+02  0.00000000000E+00 0. -1.
</event>
<event>
 7    1  0.2232484E-015  0.9000777E+02  0.7816164E-02  0.1186339E+00
        -11   -1    0    0    0    0  0.00000000000E+00  0.00000000000E+00  0.45593999997E+02  0.45594000000E+02  0.51100000000E-03 0. -1.
         11   -1    0    0    0    0 -0.00000000000E+00 -0.00000000000E+00 -0.45593999997E+02  0.45594000000E+02  0.51100000000E-03 0.  1.
    9900012    2    1    2    0    0 -0.91602406880E+00  0.19831472255E+00  0.71729778194E+00  0.90007769119E+02  0.90000030872E+02 0.  0.
        -12    1    1    2    0    0  0.91602406880E+00 -0.19831472255E+00 -0.71729778194E+00  0.11802308807E+01  0.00000000000E+00 0.  1.
         11    1    3    3    0    0  0.41382010747E+01 -0.35293408165E+01  0.71043658992E+01  0.89472325232E+01  0.51100000000E-03 0. -1.
        -11    1    3    3    0    0  0.33641725859E+02 -0.57435378385E+01  0.13293701117E+02  0.36626171453E+02  0.51100000000E-03 0.  1.
         12    1    3    3    0    0 -0.38695951002E+02  0.94711933776E+01 -0.19680769235E+02  0.44434365143E+02  0.00000000000E+00 0. -1.
</event>
<event>
 7    1  0.2232484E-015  0.9000766E+02  0.7816164E-02  0.1186339E+00
        -11   -1    0    0    0    0  0.00000000000E+00  0.00000000000E+00  0.45593999997E+02  0.45594000000E+02  0.51100000000E-03 0.  1.
         11   -1    0    0    0    0 -0.00000000000E+00 -0.00000000000E+00 -0.45593999997E+02  0.45594000000E+02  0.51100000000E-03 0. -1.
    9900012    2    1    2    0    0  0.74642202166E+00  0.82763193799E+00 -0.38869155253E+00  0.90007660395E+02  0.89999920713E+02 0.  0.
        -12    1    1    2    0    0 -0.74642202166E+00 -0.82763193799E+00  0.38869155253E+00  0.11803396046E+01  0.00000000000E+00 0.  1.
         11    1    3    3    0    0  0.28009981528E+01  0.26203365829E+00 -0.12661809446E+02  0.12970569416E+02  0.51100000000E-03 0. -1.
        -11    1    3    3    0    0 -0.27912640820E+02  0.20871761759E+02  0.23791794441E+02  0.42199472028E+02  0.51100000000E-03 0.  1.
         12    1    3    3    0    0  0.25858064689E+02 -0.20306163480E+02 -0.11518676548E+02  0.34837618950E+02  0.00000000000E+00 0. -1.
</event>
<event>
 7    1  0.2232484E-015  0.9000769E+02  0.7816164E-02  0.1186339E+00
        -11   -1    0    0    0    0  0.00000000000E+00  0.00000000000E+00  0.45593999997E+02  0.45594000000E+02  0.51100000000E-03 0.  1.
         11   -1    0    0    0    0 -0.00000000000E+00 -0.00000000000E+00 -0.45593999997E+02  0.45594000000E+02  0.51100000000E-03 0. -1.
    9900012    2    1    2    0    0  0.97525545982E-01  0.11618796772E+01 -0.18346438870E+00  0.90007688686E+02  0.89999949376E+02 0.  0.
        -12    1    1    2    0    0 -0.97525545982E-01 -0.11618796772E+01  0.18346438870E+00  0.11803113141E+01  0.00000000000E+00 0.  1.
         11    1    3    3    0    0 -0.21897264343E+02 -0.29643178510E+02  0.48821460394E+01  0.37175846569E+02  0.51100000000E-03 0. -1.
        -11    1    3    3    0    0 -0.47590623580E-01 -0.32939895638E+01  0.92184992867E+01  0.97894515410E+01  0.51100000000E-03 0.  1.
        -12    1    3    3    0    0  0.22042380512E+02  0.34099047751E+02 -0.14284109715E+02  0.43042390576E+02  0.00000000000E+00 0.  1.
</event>
<event>
 7    1  0.2232484E-015  0.9000772E+02  0.7816164E-02  0.1186339E+00
        -11   -1    0    0    0    0  0.00000000000E+00  0.00000000000E+00  0.45593999997E+02  0.45594000000E+02  0.51100000000E-03 0.  1.
         11   -1    0    0    0    0 -0.00000000000E+00 -0.00000000000E+00 -0.45593999997E+02  0.45594000000E+02  0.51100000000E-03 0. -1.
    9900012    2    1    2    0    0  0.51835262017E+00  0.62608474392E+00  0.85579592516E+00  0.90007721130E+02  0.89999982249E+02 0.  0.
        -12    1    1    2    0    0 -0.51835262017E+00 -0.62608474392E+00 -0.85579592516E+00  0.11802788700E+01  0.00000000000E+00 0.  1.
         11    1    3    3    0    0 -0.78811649498E+01 -0.81059947132E+01 -0.31569014052E+01  0.11738225505E+02  0.51100000000E-03 0. -1.
        -11    1    3    3    0    0  0.16112797593E+02 -0.29069866157E+02 -0.13533119123E+02  0.35886274229E+02  0.51100000000E-03 0.  1.
         12    1    3    3    0    0 -0.77132800225E+01  0.37801945614E+02  0.17545816453E+02  0.42383221396E+02  0.00000000000E+00 0. -1.
</event>
<event>
 7    1  0.2232484E-015  0.9000774E+02  0.7816164E-02  0.1186339E+00
        -11   -1    0    0    0    0  0.00000000000E+00  0.00000000000E+00  0.45593999997E+02  0.45594000000E+02  0.51100000000E-03 0. -1.
         11   -1    0    0    0    0 -0.00000000000E+00 -0.00000000000E+00 -0.45593999997E+02  0.45594000000E+02  0.51100000000E-03 0.  1.
    9900012    2    1    2    0    0 -0.23518660312E+00  0.57820432280E+00  0.10016915122E+01  0.90007737799E+02  0.89999999138E+02 0.  0.
        -12    1    1    2    0    0  0.23518660312E+00 -0.57820432280E+00 -0.10016915122E+01  0.11802622008E+01  0.00000000000E+00 0.  1.
         11    1    3    3    0    0 -0.74089807196E+01  0.40050138396E+01  0.40072578967E+02  0.40948073416E+02  0.51100000000E-03 0. -1.
        -11    1    3    3    0    0 -0.49409629387E+01  0.72197532954E+01 -0.25132021497E+01  0.91024248261E+01  0.51100000000E-03 0.  1.
        -12    1    3    3    0    0  0.12114757055E+02 -0.10646562812E+02 -0.36557685305E+02  0.39957239557E+02  0.00000000000E+00 0.  1.
</event>
<event>
 7    1  0.2232484E-015  0.9000764E+02  0.7816164E-02  0.1186339E+00
        -11   -1    0    0    0    0  0.00000000000E+00  0.00000000000E+00  0.45593999997E+02  0.45594000000E+02  0.51100000000E-03 0. -1.
         11   -1    0    0    0    0 -0.00000000000E+00 -0.00000000000E+00 -0.45593999997E+02  0.45594000000E+02  0.51100000000E-03 0.  1.
    9900012    2    1    2    0    0  0.11721575377E+01  0.54308361361E-01 -0.12783108312E+00  0.90007642649E+02  0.89999902731E+02 0.  0.
        -12    1    1    2    0    0 -0.11721575377E+01 -0.54308361361E-01  0.12783108312E+00  0.11803573515E+01  0.00000000000E+00 0.  1.
         11    1    3    3    0    0 -0.85835597507E+01 -0.26487982368E+01 -0.11726236268E+02  0.14771535037E+02  0.51100000000E-03 0. -1.
        -11    1    3    3    0    0  0.36052089087E+01  0.34325329751E+02 -0.10609862162E+02  0.36108101157E+02  0.51100000000E-03 0.  1.
         12    1    3    3    0    0  0.61505083797E+01 -0.31622223153E+02  0.22208267347E+02  0.39128006454E+02  0.00000000000E+00 0. -1.
</event>
<event>
 7    1  0.2232484E-015  0.9000774E+02  0.7816164E-02  0.1186339E+00
        -11   -1    0    0    0    0  0.00000000000E+00  0.00000000000E+00  0.45593999997E+02  0.45594000000E+02  0.51100000000E-03 0.  1.
         11   -1    0    0    0    0 -0.00000000000E+00 -0.00000000000E+00 -0.45593999997E+02  0.45594000000E+02  0.51100000000E-03 0. -1.
    9900012    2    1    2    0    0  0.58253589208E+00 -0.89327311595E+00  0.50568561259E+00  0.90007744577E+02  0.90000006005E+02 0.  0.
        -12    1    1    2    0    0 -0.58253589208E+00  0.89327311595E+00 -0.50568561259E+00  0.11802554232E+01  0.00000000000E+00 0.  1.
         11    1    3    3    0    0 -0.21490691171E+02 -0.33493159098E+02 -0.52517963002E+01  0.40140040833E+02  0.51100000000E-03 0. -1.
        -11    1    3    3    0    0  0.40400541829E+01 -0.35044134406E+01  0.78014519042E+01  0.94586258747E+01  0.51100000000E-03 0.  1.
        -12    1    3    3    0    0  0.18033172880E+02  0.36104299423E+02 -0.20439699913E+01  0.40409077870E+02  0.00000000000E+00 0.  1.
</event>
<event>
 7    1  0.2232484E-015  0.9000775E+02  0.7816164E-02  0.1186339E+00
        -11   -1    0    0    0    0  0.00000000000E+00  0.00000000000E+00  0.45593999997E+02  0.45594000000E+02  0.51100000000E-03 0.  1.
         11   -1    0    0    0    0 -0.00000000000E+00 -0.00000000000E+00 -0.45593999997E+02  0.45594000000E+02  0.51100000000E-03 0. -1.
    9900012    2    1    2    0    0 -0.10154837032E+01 -0.40477041252E+00 -0.44491395718E+00  0.90007748049E+02  0.90000009523E+02 0.  0.
        -12    1    1    2    0    0  0.10154837032E+01  0.40477041252E+00  0.44491395718E+00  0.11802519509E+01  0.00000000000E+00 0.  1.
         11    1    3    3    0    0  0.47108972272E+01  0.14728704522E+02 -0.55830048411E+01  0.16440718747E+02  0.51100000000E-03 0. -1.
        -11    1    3    3    0    0  0.53559338510E+01  0.18789341756E+02  0.25774581833E+02  0.32342765187E+02  0.51100000000E-03 0.  1.
         12    1    3    3    0    0 -0.11082314781E+02 -0.33922816691E+02 -0.20636490949E+02  0.41224264115E+02  0.00000000000E+00 0. -1.
</event>
<event>
 7    1  0.2291417E-015  0.9000778E+02  0.7816164E-02  0.1186339E+00
        -11   -1    0    0    0    0  0.00000000000E+00  0.00000000000E+00  0.45593999997E+02  0.45594000000E+02  0.51100000000E-03 0.  1.
         11   -1    0    0    0    0 -0.00000000000E+00 -0.00000000000E+00 -0.45593999997E+02  0.45594000000E+02  0.51100000000E-03 0. -1.
    9900012    2    1    2    0    0 -0.37122886489E+00 -0.23091458373E+00 -0.10962590481E+01  0.90007781242E+02  0.90000043155E+02 0.  0.
        -12    1    1    2    0    0  0.37122886489E+00  0.23091458373E+00  0.10962590481E+01  0.11802187575E+01  0.00000000000E+00 0.  1.
         11    1    3    3    0    0  0.39874274040E+01 -0.24497148946E+01  0.88070328916E+01  0.99731895090E+01  0.51100000000E-03 0. -1.
        -11    1    3    3    0    0  0.19120696691E+02  0.28334358368E+02  0.14644384951E+02  0.37187295101E+02  0.51100000000E-03 0.  1.
         12    1    3    3    0    0 -0.23479352960E+02 -0.26115558057E+02 -0.24547676891E+02  0.42847296633E+02  0.00000000000E+00 0. -1.
</event>
<event>
 7    1  0.2232484E-015  0.9000778E+02  0.7816164E-02  0.1186339E+00
        -11   -1    0    0    0    0  0.00000000000E+00  0.00000000000E+00  0.45593999997E+02  0.45594000000E+02  0.51100000000E-03 0.  1.
         11   -1    0    0    0    0 -0.00000000000E+00 -0.00000000000E+00 -0.45593999997E+02  0.45594000000E+02  0.51100000000E-03 0. -1.
    9900012    2    1    2    0    0  0.35417310375E+00  0.76592195039E-01 -0.11232131193E+01  0.90007782790E+02  0.90000044723E+02 0.  0.
        -12    1    1    2    0    0 -0.35417310375E+00 -0.76592195039E-01  0.11232131193E+01  0.11802172101E+01  0.00000000000E+00 0.  1.
         11    1    3    3    0    0  0.56358428837E+01  0.89730345138E+00 -0.90454578373E+01  0.10695241290E+02  0.51100000000E-03 0. -1.
        -11    1    3    3    0    0 -0.59345573263E+01 -0.39412534745E+02  0.83068791734E+01  0.40713279253E+02  0.51100000000E-03 0.  1.
         12    1    3    3    0    0  0.65288754637E+00  0.38591823489E+02 -0.38463445533E+00  0.38599262247E+02  0.00000000000E+00 0. -1.
</event>
<event>
 7    1  0.2232484E-015  0.9000769E+02  0.7816164E-02  0.1186339E+00
        -11   -1    0    0    0    0  0.00000000000E+00  0.00000000000E+00  0.45593999997E+02  0.45594000000E+02  0.51100000000E-03 0.  1.
         11   -1    0    0    0    0 -0.00000000000E+00 -0.00000000000E+00 -0.45593999997E+02  0.45594000000E+02  0.51100000000E-03 0. -1.
    9900012    2    1    2    0    0  0.58609794589E+00  0.84701865823E+00 -0.57634700623E+00  0.90007691870E+02  0.89999952603E+02 0.  0.
        -12    1    1    2    0    0 -0.58609794589E+00 -0.84701865823E+00  0.57634700623E+00  0.11803081298E+01  0.00000000000E+00 0.  1.
         11    1    3    3    0    0  0.10216016522E+02 -0.33803054449E+02  0.73861458823E+01  0.36077259248E+02  0.51100000000E-03 0. -1.
        -11    1    3    3    0    0 -0.13308016012E+01 -0.55764079874E+01  0.80186510907E+01  0.98572878886E+01  0.51100000000E-03 0.  1.
        -12    1    3    3    0    0 -0.82991169745E+01  0.40226481094E+02 -0.15981143979E+02  0.44073144733E+02  0.00000000000E+00 0.  1.
</event>
<event>
 7    1  0.2232484E-015  0.9000774E+02  0.7816164E-02  0.1186339E+00
        -11   -1    0    0    0    0  0.00000000000E+00  0.00000000000E+00  0.45593999997E+02  0.45594000000E+02  0.51100000000E-03 0. -1.
         11   -1    0    0    0    0 -0.00000000000E+00 -0.00000000000E+00 -0.45593999997E+02  0.45594000000E+02  0.51100000000E-03 0.  1.
    9900012    2    1    2    0    0  0.39088725078E+00 -0.78812758234E+00  0.78681297602E+00  0.90007740457E+02  0.90000001831E+02 0.  0.
        -12    1    1    2    0    0 -0.39088725078E+00  0.78812758234E+00 -0.78681297602E+00  0.11802595427E+01  0.00000000000E+00 0.  1.
         11    1    3    3    0    0  0.78121875639E+00 -0.36503375667E+02 -0.14846800576E+01  0.36541907626E+02  0.51100000000E-03 0. -1.
        -11    1    3    3    0    0  0.15257987098E+01 -0.76552178383E+01  0.60686536596E+01  0.98873140618E+01  0.51100000000E-03 0.  1.
        -12    1    3    3    0    0 -0.19161302154E+01  0.43370465923E+02 -0.37971606260E+01  0.43578518770E+02  0.00000000000E+00 0.  1.
</event>
<event>
 7    1  0.2232484E-015  0.9000776E+02  0.7816164E-02  0.1186339E+00
        -11   -1    0    0    0    0  0.00000000000E+00  0.00000000000E+00  0.45593999997E+02  0.45594000000E+02  0.51100000000E-03 0.  1.
         11   -1    0    0    0    0 -0.00000000000E+00 -0.00000000000E+00 -0.45593999997E+02  0.45594000000E+02  0.51100000000E-03 0. -1.
    9900012    2    1    2    0    0 -0.10572691101E+01 -0.51377654210E+00  0.10579234582E+00  0.90007755819E+02  0.90000017396E+02 0.  0.
        -12    1    1    2    0    0  0.10572691101E+01  0.51377654210E+00 -0.10579234582E+00  0.11802441810E+01  0.00000000000E+00 0.  1.
         11    1    3    3    0    0 -0.29545955539E-01  0.54702228037E+01 -0.95613256345E+01  0.11015587076E+02  0.51100000000E-03 0. -1.
        -11    1    3    3    0    0  0.36747962128E+02  0.61087088717E+01 -0.29522742058E+01  0.37369037556E+02  0.51100000000E-03 0.  1.
         12    1    3    3    0    0 -0.37775685283E+02 -0.12092708218E+02  0.12619392186E+02  0.41623131186E+02  0.00000000000E+00 0. -1.
</event>
<event>
 7    1  0.2232484E-015  0.9000777E+02  0.7816164E-02  0.1186339E+00
        -11   -1    0    0    0    0  0.00000000000E+00  0.00000000000E+00  0.45593999997E+02  0.45594000000E+02  0.51100000000E-03 0.  1.
         11   -1    0    0    0    0 -0.00000000000E+00 -0.00000000000E+00 -0.45593999997E+02  0.45594000000E+02  0.51100000000E-03 0. -1.
    9900012    2    1    2    0    0  0.11325812194E+01 -0.24312385474E+00  0.22604967623E+00  0.90007767869E+02  0.90000029605E+02 0.  0.
        -12    1    1    2    0    0 -0.11325812194E+01  0.24312385474E+00 -0.22604967623E+00  0.11802321312E+01  0.00000000000E+00 0.  1.
         11    1    3    3    0    0 -0.15764600181E+02 -0.16260212648E+02 -0.30349090697E+02  0.37867987016E+02  0.51100000000E-03 0. -1.
        -11    1    3    3    0    0  0.37546036140E+01 -0.10023810117E+02  0.12481970200E+01  0.10776447170E+02  0.51100000000E-03 0.  1.
        -12    1    3    3    0    0  0.13142577787E+02  0.26040898910E+02  0.29326943353E+02  0.41363333683E+02  0.00000000000E+00 0.  1.
</event>
<event>
 7    1  0.2232484E-015  0.9000807E+02  0.7816164E-02  0.1186338E+00
        -11   -1    0    0    0    0  0.00000000000E+00  0.00000000000E+00  0.45593999997E+02  0.45594000000E+02  0.51100000000E-03 0. -1.
         11   -1    0    0    0    0 -0.00000000000E+00 -0.00000000000E+00 -0.45593999997E+02  0.45594000000E+02  0.51100000000E-03 0.  1.
    9900012    2    1    2    0    0 -0.53231590751E-02 -0.75822397858E+00  0.90405205121E+00  0.90008066930E+02  0.90000332613E+02 0.  0.
        -12    1    1    2    0    0  0.53231590751E-02  0.75822397858E+00 -0.90405205121E+00  0.11799330697E+01  0.00000000000E+00 0.  1.
         11    1    3    3    0    0 -0.44432356130E+01  0.20188589341E+02  0.32244960485E+02  0.38302205671E+02  0.51100000000E-03 0. -1.
        -11    1    3    3    0    0  0.49406230244E+01  0.35700249151E+01  0.49873682609E+01  0.78758286036E+01  0.51100000000E-03 0.  1.
        -12    1    3    3    0    0 -0.50271057042E+00 -0.24516838235E+02 -0.36328276695E+02  0.43830032656E+02  0.00000000000E+00 0.  1.
</event>
<event>
 7    1  0.2232484E-015  0.9000769E+02  0.7816164E-02  0.1186339E+00
        -11   -1    0    0    0    0  0.00000000000E+00  0.00000000000E+00  0.45593999997E+02  0.45594000000E+02  0.51100000000E-03 0.  1.
         11   -1    0    0    0    0 -0.00000000000E+00 -0.00000000000E+00 -0.45593999997E+02  0.45594000000E+02  0.51100000000E-03 0. -1.
    9900012    2    1    2    0    0 -0.22167754544E+00  0.70662932638E+00 -0.91906146690E+00  0.90007686517E+02  0.89999947179E+02 0.  0.
        -12    1    1    2    0    0  0.22167754544E+00 -0.70662932638E+00  0.91906146690E+00  0.11803134834E+01  0.00000000000E+00 0.  1.
         11    1    3    3    0    0  0.65028006820E+01  0.81123972699E+01 -0.14581853873E+01  0.10498748071E+02  0.51100000000E-03 0. -1.
        -11    1    3    3    0    0  0.29585054747E+02 -0.87433351253E+01  0.21462065883E+02  0.37581134173E+02  0.51100000000E-03 0.  1.
         12    1    3    3    0    0 -0.36309532974E+02  0.13375671817E+01 -0.20922941962E+02  0.41927804273E+02  0.00000000000E+00 0. -1.
</event>
<event>
 7    1  0.2232484E-015  0.9000773E+02  0.7816164E-02  0.1186339E+00
        -11   -1    0    0    0    0  0.00000000000E+00  0.00000000000E+00  0.45593999997E+02  0.45594000000E+02  0.51100000000E-03 0.  1.
         11   -1    0    0    0    0 -0.00000000000E+00 -0.00000000000E+00 -0.45593999997E+02  0.45594000000E+02  0.51100000000E-03 0. -1.
    9900012    2    1    2    0    0  0.98350786730E-01  0.66193353618E-01 -0.11743043856E+01  0.90007726630E+02  0.89999987822E+02 0.  0.
        -12    1    1    2    0    0 -0.98350786730E-01 -0.66193353618E-01  0.11743043856E+01  0.11802733698E+01  0.00000000000E+00 0.  1.
         11    1    3    3    0    0  0.21540199272E+02  0.20011622051E+02 -0.22548865016E+02  0.37052618201E+02  0.51100000000E-03 0. -1.
        -11    1    3    3    0    0 -0.25327712093E+01  0.61210833479E+01 -0.72847055314E+01  0.98462950540E+01  0.51100000000E-03 0.  1.
        -12    1    3    3    0    0 -0.18909077276E+02 -0.26066512045E+02  0.28659266162E+02  0.43108813375E+02  0.00000000000E+00 0.  1.
</event>
<event>
 7    1  0.2508607E-015  0.9000799E+02  0.7816164E-02  0.1186339E+00
        -11   -1    0    0    0    0  0.00000000000E+00  0.00000000000E+00  0.45593999997E+02  0.45594000000E+02  0.51100000000E-03 0.  1.
         11   -1    0    0    0    0 -0.00000000000E+00 -0.00000000000E+00 -0.45593999997E+02  0.45594000000E+02  0.51100000000E-03 0. -1.
    9900012    2    1    2    0    0 -0.13592121699E+00 -0.11036193654E+01 -0.39494761766E+00  0.90007985635E+02  0.90000250245E+02 0.  0.
        -12    1    1    2    0    0  0.13592121699E+00  0.11036193654E+01  0.39494761766E+00  0.11800143650E+01  0.00000000000E+00 0.  1.
         11    1    3    3    0    0 -0.35756538721E+01  0.87066673148E+01 -0.12458967550E+01  0.94943991558E+01  0.51100000000E-03 0. -1.
        -11    1    3    3    0    0 -0.75133066882E+01  0.24045332379E+02  0.26565856459E+02  0.36611098266E+02  0.51100000000E-03 0.  1.
         12    1    3    3    0    0  0.10953039343E+02 -0.33855619059E+02 -0.25714907322E+02  0.43902488213E+02  0.00000000000E+00 0. -1.
</event>
<event>
 7    1  0.2232484E-015  0.9000710E+02  0.7816164E-02  0.1186340E+00
        -11   -1    0    0    0    0  0.00000000000E+00  0.00000000000E+00  0.45593999997E+02  0.45594000000E+02  0.51100000000E-03 0. -1.
         11   -1    0    0    0    0 -0.00000000000E+00 -0.00000000000E+00 -0.45593999997E+02  0.45594000000E+02  0.51100000000E-03 0.  1.
    9900012    2    1    2    0    0  0.10511946092E+01  0.56726506531E-01 -0.53506294605E+00  0.90007101885E+02  0.89999354827E+02 0.  0.
        -12    1    1    2    0    0 -0.10511946092E+01 -0.56726506531E-01  0.53506294605E+00  0.11808981155E+01  0.00000000000E+00 0.  1.
         11    1    3    3    0    0 -0.13328676427E+02 -0.33473825881E+02 -0.40108704383E+01  0.36252416697E+02  0.51100000000E-03 0. -1.
        -11    1    3    3    0    0 -0.98179691570E+01 -0.25482463084E+01 -0.30944223094E+00  0.10147996471E+02  0.51100000000E-03 0.  1.
        -12    1    3    3    0    0  0.24197840193E+02  0.36078798696E+02  0.37852497232E+01  0.43606688717E+02  0.00000000000E+00 0.  1.
</event>
<event>
 7    1  0.2232484E-015  0.9000777E+02  0.7816164E-02  0.1186339E+00
        -11   -1    0    0    0    0  0.00000000000E+00  0.00000000000E+00  0.45593999997E+02  0.45594000000E+02  0.51100000000E-03 0.  1.
         11   -1    0    0    0    0 -0.00000000000E+00 -0.00000000000E+00 -0.45593999997E+02  0.45594000000E+02  0.51100000000E-03 0. -1.
    9900012    2    1    2    0    0 -0.14090880472E+00  0.11499326913E+01 -0.22526526397E+00  0.90007769122E+02  0.90000030875E+02 0.  0.
        -12    1    1    2    0    0  0.14090880472E+00 -0.11499326913E+01  0.22526526397E+00  0.11802308778E+01  0.00000000000E+00 0.  1.
         11    1    3    3    0    0  0.16652431429E+01  0.34774544223E+02 -0.18140129206E+02  0.39256926121E+02  0.51100000000E-03 0. -1.
        -11    1    3    3    0    0 -0.64225254733E+01  0.52521120101E+01  0.39061514694E+01  0.91701435968E+01  0.51100000000E-03 0.  1.
        -12    1    3    3    0    0  0.46163735256E+01 -0.38876723541E+02  0.14008712472E+02  0.41580699404E+02  0.00000000000E+00 0.  1.
</event>
<event>
 7    1  0.2232484E-015  0.9000779E+02  0.7816164E-02  0.1186339E+00
        -11   -1    0    0    0    0  0.00000000000E+00  0.00000000000E+00  0.45593999997E+02  0.45594000000E+02  0.51100000000E-03 0. -1.
         11   -1    0    0    0    0 -0.00000000000E+00 -0.00000000000E+00 -0.45593999997E+02  0.45594000000E+02  0.51100000000E-03 0.  1.
    9900012    2    1    2    0    0 -0.87218201427E+00  0.11377780630E+00  0.78692252911E+00  0.90007790730E+02  0.90000052767E+02 0.  0.
        -12    1    1    2    0    0  0.87218201427E+00 -0.11377780630E+00 -0.78692252911E+00  0.11802092704E+01  0.00000000000E+00 0.  1.
         11    1    3    3    0    0  0.57563999194E+01  0.53118167673E+01  0.40035119028E+01  0.87965700826E+01  0.51100000000E-03 0. -1.
        -11    1    3    3    0    0  0.10359128381E+02  0.35160209371E+02  0.38528546440E+01  0.36856428923E+02  0.51100000000E-03 0.  1.
         12    1    3    3    0    0 -0.16987710314E+02 -0.40358248332E+02 -0.70694440177E+01  0.44354791724E+02  0.00000000000E+00 0. -1.
</event>
<event>
 7    1  0.2232484E-015  0.9000783E+02  0.7816164E-02  0.1186339E+00
        -11   -1    0    0    0    0  0.00000000000E+00  0.00000000000E+00  0.45593999997E+02  0.45594000000E+02  0.51100000000E-03 0.  1.
         11   -1    0    0    0    0 -0.00000000000E+00 -0.00000000000E+00 -0.45593999997E+02  0.45594000000E+02  0.51100000000E-03 0. -1.
    9900012    2    1    2    0    0 -0.10751000010E+01  0.48618869117E+00 -0.24167645802E-01  0.90007829025E+02  0.90000091568E+02 0.  0.
        -12    1    1    2    0    0  0.10751000010E+01 -0.48618869117E+00  0.24167645802E-01  0.11801709752E+01  0.00000000000E+00 0.  1.
         11    1    3    3    0    0  0.43681718198E+01  0.81280861131E+01 -0.35205339215E+01  0.98762780572E+01  0.51100000000E-03 0. -1.
        -11    1    3    3    0    0 -0.23063086767E+02  0.30363267587E+02  0.48062605086E+00  0.38132204125E+02  0.51100000000E-03 0.  1.
         12    1    3    3    0    0  0.17619814946E+02 -0.38005165009E+02  0.30157402248E+01  0.41999346842E+02  0.00000000000E+00 0. -1.
</event>
<event>
 7    1  0.2232484E-015  0.9000787E+02  0.7816164E-02  0.1186339E+00
        -11   -1    0    0    0    0  0.00000000000E+00  0.00000000000E+00  0.45593999997E+02  0.45594000000E+02  0.51100000000E-03 0. -1.
         11   -1    0    0    0    0 -0.00000000000E+00 -0.00000000000E+00 -0.45593999997E+02  0.45594000000E+02  0.51100000000E-03 0.  1.
    9900012    2    1    2    0    0  0.11071828065E+01 -0.19609144066E+00 -0.35833384080E+00  0.90007869176E+02  0.90000132249E+02 0.  0.
        -12    1    1    2    0    0 -0.11071828065E+01  0.19609144066E+00  0.35833384080E+00  0.11801308239E+01  0.00000000000E+00 0.  1.
         11    1    3    3    0    0  0.16490426876E+02 -0.35596530255E+01  0.32541133351E+02  0.36654203964E+02  0.51100000000E-03 0. -1.
        -11    1    3    3    0    0 -0.15476155623E+01  0.85827660424E+01  0.67553301375E+01  0.11031476438E+02  0.51100000000E-03 0.  1.
        -12    1    3    3    0    0 -0.13835628507E+02 -0.52192044576E+01 -0.39654797330E+02  0.42322188774E+02  0.00000000000E+00 0.  1.
</event>
<event>
 7    1  0.2232484E-015  0.9000776E+02  0.7816164E-02  0.1186339E+00
        -11   -1    0    0    0    0  0.00000000000E+00  0.00000000000E+00  0.45593999997E+02  0.45594000000E+02  0.51100000000E-03 0.  1.
         11   -1    0    0    0    0 -0.00000000000E+00 -0.00000000000E+00 -0.45593999997E+02  0.45594000000E+02  0.51100000000E-03 0. -1.
    9900012    2    1    2    0    0 -0.21435060955E+00  0.69568555585E+00 -0.92900161562E+00  0.90007759102E+02  0.90000020722E+02 0.  0.
        -12    1    1    2    0    0  0.21435060955E+00 -0.69568555585E+00  0.92900161562E+00  0.11802408984E+01  0.00000000000E+00 0.  1.
         11    1    3    3    0    0  0.26264361064E+02  0.19330604180E+02 -0.24132506448E+02  0.40569283797E+02  0.51100000000E-03 0. -1.
        -11    1    3    3    0    0 -0.23273642113E+01  0.48332965021E+01  0.13293399592E+02  0.14334986998E+02  0.51100000000E-03 0.  1.
        -12    1    3    3    0    0 -0.24151347462E+02 -0.23468215126E+02  0.99101052405E+01  0.35103488307E+02  0.00000000000E+00 0.  1.
</event>
<event>
 7    1  0.2232484E-015  0.9000774E+02  0.7816164E-02  0.1186339E+00
        -11   -1    0    0    0    0  0.00000000000E+00  0.00000000000E+00  0.45593999997E+02  0.45594000000E+02  0.51100000000E-03 0. -1.
         11   -1    0    0    0    0 -0.00000000000E+00 -0.00000000000E+00 -0.45593999997E+02  0.45594000000E+02  0.51100000000E-03 0.  1.
    9900012    2    1    2    0    0  0.80681085408E+00 -0.33235671085E+00  0.79474071939E+00  0.90007738356E+02  0.89999999702E+02 0.  0.
        -12    1    1    2    0    0 -0.80681085408E+00  0.33235671085E+00 -0.79474071939E+00  0.11802616441E+01  0.00000000000E+00 0.  1.
         11    1    3    3    0    0 -0.65647289099E+01 -0.27730847685E+02  0.24222120086E+02  0.37400624069E+02  0.51100000000E-03 0. -1.
        -11    1    3    3    0    0 -0.54850200725E+01 -0.68988693897E+01  0.54727119495E+00  0.88305917171E+01  0.51100000000E-03 0.  1.
        -12    1    3    3    0    0  0.12856559837E+02  0.34297360364E+02 -0.23974650562E+02  0.43776522570E+02  0.00000000000E+00 0.  1.
</event>
<event>
 7    1  0.2232484E-015  0.9000770E+02  0.7816164E-02  0.1186339E+00
        -11   -1    0    0    0    0  0.00000000000E+00  0.00000000000E+00  0.45593999997E+02  0.45594000000E+02  0.51100000000E-03 0.  1.
         11   -1    0    0    0    0 -0.00000000000E+00 -0.00000000000E+00 -0.45593999997E+02  0.45594000000E+02  0.51100000000E-03 0. -1.
    9900012    2    1    2    0    0 -0.11797699596E+01 -0.32323112258E-01  0.14603139222E-01  0.90007696991E+02  0.89999957791E+02 0.  0.
        -12    1    1    2    0    0  0.11797699596E+01  0.32323112258E-01 -0.14603139222E-01  0.11803030089E+01  0.00000000000E+00 0.  1.
         11    1    3    3    0    0  0.14463105882E+02 -0.14759511344E+01 -0.28808033698E+02  0.32268601911E+02  0.51100000000E-03 0. -1.
        -11    1    3    3    0    0  0.11703770562E+02  0.70270463925E+01 -0.44051134632E+01  0.14344429276E+02  0.51100000000E-03 0.  1.
        -12    1    3    3    0    0 -0.27346646403E+02 -0.55834183704E+01  0.33227750301E+02  0.43394665804E+02  0.00000000000E+00 0.  1.
</event>
<event>
 7    1  0.2232484E-015  0.9000784E+02  0.7816164E-02  0.1186339E+00
        -11   -1    0    0    0    0  0.00000000000E+00  0.00000000000E+00  0.45593999997E+02  0.45594000000E+02  0.51100000000E-03 0.  1.
         11   -1    0    0    0    0 -0.00000000000E+00 -0.00000000000E+00 -0.45593999997E+02  0.45594000000E+02  0.51100000000E-03 0. -1.
    9900012    2    1    2    0    0  0.99852400531E+00  0.36675394326E+00 -0.51108671192E+00  0.90007843963E+02  0.90000106703E+02 0.  0.
        -12    1    1    2    0    0 -0.99852400531E+00 -0.36675394326E+00  0.51108671192E+00  0.11801560368E+01  0.00000000000E+00 0.  1.
         11    1    3    3    0    0  0.53445515290E+01 -0.78602242848E+01  0.16860785052E+01  0.96535080588E+01  0.51100000000E-03 0. -1.
        -11    1    3    3    0    0  0.19130899952E+01 -0.30392509649E+02  0.18963966966E+02  0.35874734835E+02  0.51100000000E-03 0.  1.
         12    1    3    3    0    0 -0.62591175189E+01  0.38619487877E+02 -0.21161132183E+02  0.44479601070E+02  0.00000000000E+00 0. -1.
</event>
<event>
 7    1  0.2232484E-015  0.9000781E+02  0.7816164E-02  0.1186339E+00
        -11   -1    0    0    0    0  0.00000000000E+00  0.00000000000E+00  0.45593999997E+02  0.45594000000E+02  0.51100000000E-03 0. -1.
         11   -1    0    0    0    0 -0.00000000000E+00 -0.00000000000E+00 -0.45593999997E+02  0.45594000000E+02  0.51100000000E-03 0.  1.
    9900012    2    1    2    0    0 -0.54814684434E+00  0.53308348450E+00  0.89900575961E+00  0.90007807507E+02  0.90000069766E+02 0.  0.
        -12    1    1    2    0    0  0.54814684434E+00 -0.53308348450E+00 -0.89900575961E+00  0.11801924929E+01  0.00000000000E+00 0.  1.
         11    1    3    3    0    0  0.37255849646E+02  0.77020194493E+01 -0.38425732340E+01  0.38237217548E+02  0.51100000000E-03 0. -1.
        -11    1    3    3    0    0  0.31867695124E+01  0.70811887992E+00  0.92289622180E+01  0.97893143864E+01  0.51100000000E-03 0.  1.
        -12    1    3    3    0    0 -0.40990766003E+02 -0.78770548447E+01 -0.44873832244E+01  0.41981275573E+02  0.00000000000E+00 0.  1.
</event>
<event>
 7    1  0.2232484E-015  0.9000776E+02  0.7816164E-02  0.1186339E+00
        -11   -1    0    0    0    0  0.00000000000E+00  0.00000000000E+00  0.45593999997E+02  0.45594000000E+02  0.51100000000E-03 0.  1.
         11   -1    0    0    0    0 -0.00000000000E+00 -0.00000000000E+00 -0.45593999997E+02  0.45594000000E+02  0.51100000000E-03 0. -1.
    9900012    2    1    2    0    0  0.29106141711E+00  0.66213188440E+00 -0.93265188728E+00  0.90007756413E+02  0.90000017998E+02 0.  0.
        -12    1    1    2    0    0 -0.29106141711E+00 -0.66213188440E+00  0.93265188728E+00  0.11802435866E+01  0.00000000000E+00 0.  1.
         11    1    3    3    0    0  0.60566759289E+00  0.22708492284E+02  0.33403031472E+02  0.40395605786E+02  0.51100000000E-03 0. -1.
        -11    1    3    3    0    0 -0.18047108465E+01  0.67444003362E+01 -0.66923757575E+01  0.96711845539E+01  0.51100000000E-03 0.  1.
        -12    1    3    3    0    0  0.14901046708E+01 -0.28790760736E+02 -0.27643307602E+02  0.39940966073E+02  0.00000000000E+00 0.  1.
</event>
<event>
 7    1  0.2232484E-015  0.9000772E+02  0.7816164E-02  0.1186339E+00
        -11   -1    0    0    0    0  0.00000000000E+00  0.00000000000E+00  0.45593999997E+02  0.45594000000E+02  0.51100000000E-03 0. -1.
         11   -1    0    0    0    0 -0.00000000000E+00 -0.00000000000E+00 -0.45593999997E+02  0.45594000000E+02  0.51100000000E-03 0.  1.
    9900012    2    1    2    0    0  0.39387539053E+00 -0.62333495091E+00  0.92162179392E+00  0.90007715706E+02  0.89999976753E+02 0.  0.
        -12    1    1    2    0    0 -0.39387539053E+00  0.62333495091E+00 -0.92162179392E+00  0.11802842943E+01  0.00000000000E+00 0.  1.
         11    1    3    3    0    0 -0.28441827559E+02  0.24334881660E+02  0.67372555276E+01  0.38033072879E+02  0.51100000000E-03 0. -1.
        -11    1    3    3    0    0 -0.15667576220E+01  0.59239960145E+01 -0.60877406966E+01  0.86376527643E+01  0.51100000000E-03 0.  1.
        -12    1    3    3    0    0  0.30402460572E+02 -0.30882212626E+02  0.27210696296E+00  0.43336990062E+02  0.00000000000E+00 0.  1.
</event>
<event>
 7    1  0.2232484E-015  0.9000681E+02  0.7816164E-02  0.1186341E+00
        -11   -1    0    0    0    0  0.00000000000E+00  0.00000000000E+00  0.45593999997E+02  0.45594000000E+02  0.51100000000E-03 0.  1.
         11   -1    0    0    0    0 -0.00000000000E+00 -0.00000000000E+00 -0.45593999997E+02  0.45594000000E+02  0.51100000000E-03 0. -1.
    9900012    2    1    2    0    0 -0.10194724875E+01  0.58003904151E+00  0.13942647822E+00  0.90006810267E+02  0.89999059358E+02 0.  0.
        -12    1    1    2    0    0  0.10194724875E+01 -0.58003904151E+00 -0.13942647822E+00  0.11811897329E+01  0.00000000000E+00 0.  1.
         11    1    3    3    0    0 -0.18807161314E+02 -0.30164503800E+02 -0.34299036780E+01  0.35712334644E+02  0.51100000000E-03 0. -1.
        -11    1    3    3    0    0 -0.64629189677E+01 -0.29394859874E+01 -0.84948256348E+01  0.11071222258E+02  0.51100000000E-03 0.  1.
        -12    1    3    3    0    0  0.24250607794E+02  0.33684028829E+02  0.12064155791E+02  0.43223253366E+02  0.00000000000E+00 0.  1.
</event>
<event>
 7    1  0.2232484E-015  0.9000771E+02  0.7816164E-02  0.1186339E+00
        -11   -1    0    0    0    0  0.00000000000E+00  0.00000000000E+00  0.45593999997E+02  0.45594000000E+02  0.51100000000E-03 0. -1.
         11   -1    0    0    0    0 -0.00000000000E+00 -0.00000000000E+00 -0.45593999997E+02  0.45594000000E+02  0.51100000000E-03 0.  1.
    9900012    2    1    2    0    0  0.10737242168E+01  0.73756291619E-01 -0.48451351176E+00  0.90007713159E+02  0.89999974173E+02 0.  0.
        -12    1    1    2    0    0 -0.10737242168E+01 -0.73756291619E-01  0.48451351176E+00  0.11802868412E+01  0.00000000000E+00 0.  1.
         11    1    3    3    0    0 -0.82954536856E+01 -0.27958903303E+01 -0.42093488722E+01  0.97134017099E+01  0.51100000000E-03 0. -1.
        -11    1    3    3    0    0 -0.14266912944E+02 -0.16347411723E+02 -0.28585839707E+02  0.35887782141E+02  0.51100000000E-03 0.  1.
         12    1    3    3    0    0  0.23636090846E+02  0.19217058345E+02  0.32310675067E+02  0.44406529308E+02  0.00000000000E+00 0. -1.
</event>
<event>
 7    1  0.2232484E-015  0.9000789E+02  0.7816164E-02  0.1186339E+00
        -11   -1    0    0    0    0  0.00000000000E+00  0.00000000000E+00  0.45593999997E+02  0.45594000000E+02  0.51100000000E-03 0. -1.
         11   -1    0    0    0    0 -0.00000000000E+00 -0.00000000000E+00 -0.45593999997E+02  0.45594000000E+02  0.51100000000E-03 0.  1.
    9900012    2    1    2    0    0 -0.41241606606E-01 -0.11611759292E+01  0.20648292040E+00  0.90007887461E+02  0.90000150775E+02 0.  0.
        -12    1    1    2    0    0  0.41241606606E-01  0.11611759292E+01 -0.20648292040E+00  0.11801125392E+01  0.00000000000E+00 0.  1.
         11    1    3    3    0    0  0.31094223412E+00 -0.28678440156E+01 -0.10882116571E+02  0.11257960548E+02  0.51100000000E-03 0. -1.
        -11    1    3    3    0    0 -0.18573623936E+02 -0.31877024833E+02 -0.51174754850E+01  0.37246647821E+02  0.51100000000E-03 0.  1.
         12    1    3    3    0    0  0.18221440095E+02  0.33583692920E+02  0.16206074976E+02  0.41503279092E+02  0.00000000000E+00 0. -1.
</event>
<event>
 7    1  0.2232484E-015  0.9000770E+02  0.7816164E-02  0.1186339E+00
        -11   -1    0    0    0    0  0.00000000000E+00  0.00000000000E+00  0.45593999997E+02  0.45594000000E+02  0.51100000000E-03 0.  1.
         11   -1    0    0    0    0 -0.00000000000E+00 -0.00000000000E+00 -0.45593999997E+02  0.45594000000E+02  0.51100000000E-03 0. -1.
    9900012    2    1    2    0    0  0.94195766981E+00  0.33231587492E+00  0.62880366083E+00  0.90007698286E+02  0.89999959103E+02 0.  0.
        -12    1    1    2    0    0 -0.94195766981E+00 -0.33231587492E+00 -0.62880366083E+00  0.11803017141E+01  0.00000000000E+00 0.  1.
         11    1    3    3    0    0  0.37895354440E+02 -0.17861039723E+02  0.36090019648E+01  0.42048775529E+02  0.51100000000E-03 0. -1.
        -11    1    3    3    0    0 -0.36605254026E+01 -0.55554618772E+01  0.14968910887E+01  0.68193317917E+01  0.51100000000E-03 0.  1.
        -12    1    3    3    0    0 -0.33292871367E+02  0.23748817475E+02 -0.44770893927E+01  0.41139590965E+02  0.00000000000E+00 0.  1.
</event>
<event>
 7    1  0.2232484E-015  0.9000777E+02  0.7816164E-02  0.1186339E+00
        -11   -1    0    0    0    0  0.00000000000E+00  0.00000000000E+00  0.45593999997E+02  0.45594000000E+02  0.51100000000E-03 0. -1.
         11   -1    0    0    0    0 -0.00000000000E+00 -0.00000000000E+00 -0.45593999997E+02  0.45594000000E+02  0.51100000000E-03 0.  1.
    9900012    2    1    2    0    0  0.58267583596E-01  0.82918523062E+00 -0.83785563929E+00  0.90007768950E+02  0.90000030701E+02 0.  0.
        -12    1    1    2    0    0 -0.58267583596E-01 -0.82918523062E+00  0.83785563929E+00  0.11802310495E+01  0.00000000000E+00 0.  1.
         11    1    3    3    0    0 -0.49647015379E+01  0.68590548193E+01 -0.22067364909E+01  0.87501188892E+01  0.51100000000E-03 0. -1.
        -11    1    3    3    0    0  0.64187342778E+01  0.12728128823E+02 -0.36384834125E+02  0.39077635133E+02  0.51100000000E-03 0.  1.
         12    1    3    3    0    0 -0.13957651564E+01 -0.18757998411E+02  0.37753714977E+02  0.42180014928E+02  0.00000000000E+00 0. -1.
</event>
<event>
 7    1  0.2232484E-015  0.9000769E+02  0.7816164E-02  0.1186339E+00
        -11   -1    0    0    0    0  0.00000000000E+00  0.00000000000E+00  0.45593999997E+02  0.45594000000E+02  0.51100000000E-03 0. -1.
         11   -1    0    0    0    0 -0.00000000000E+00 -0.00000000000E+00 -0.45593999997E+02  0.45594000000E+02  0.51100000000E-03 0.  1.
    9900012    2    1    2    0    0  0.88648014221E+00  0.61407403006E+00  0.47978710515E+00  0.90007690878E+02  0.89999951598E+02 0.  0.
        -12    1    1    2    0    0 -0.88648014221E+00 -0.61407403006E+00 -0.47978710515E+00  0.11803091219E+01  0.00000000000E+00 0.  1.
         11    1    3    3    0    0 -0.28479485407E+01  0.11639567719E+02 -0.45676705517E+01  0.12823960469E+02  0.51100000000E-03 0. -1.
        -11    1    3    3    0    0 -0.30257482802E+02  0.90578518082E+01 -0.12513663212E+02  0.33972808423E+02  0.51100000000E-03 0.  1.
         12    1    3    3    0    0  0.33991911485E+02 -0.20083345497E+02  0.17561120868E+02  0.43210921986E+02  0.00000000000E+00 0. -1.
</event>
<event>
 7    1  0.2232484E-015  0.9000775E+02  0.7816164E-02  0.1186339E+00
        -11   -1    0    0    0    0  0.00000000000E+00  0.00000000000E+00  0.45593999997E+02  0.45594000000E+02  0.51100000000E-03 0. -1.
         11   -1    0    0    0    0 -0.00000000000E+00 -0.00000000000E+00 -0.45593999997E+02  0.45594000000E+02  0.51100000000E-03 0.  1.
    9900012    2    1    2    0    0  0.10219072482E+01 -0.54813409265E+00 -0.21966779300E+00  0.90007746067E+02  0.90000007515E+02 0.  0.
        -12    1    1    2    0    0 -0.10219072482E+01  0.54813409265E+00  0.21966779300E+00  0.11802539331E+01  0.00000000000E+00 0.  1.
         11    1    3    3    0    0  0.90759830789E+01  0.44933416556E+01  0.15962097435E+01  0.10252388692E+02  0.51100000000E-03 0. -1.
        -11    1    3    3    0    0  0.30421727485E+01 -0.11470473818E+02 -0.38819328690E+02  0.40592694723E+02  0.51100000000E-03 0.  1.
         12    1    3    3    0    0 -0.11096248579E+02  0.64289980693E+01  0.37003451154E+02  0.39162662652E+02  0.00000000000E+00 0. -1.
</event>
<event>
 7    1  0.2232484E-015  0.9000774E+02  0.7816164E-02  0.1186339E+00
        -11   -1    0    0    0    0  0.00000000000E+00  0.00000000000E+00  0.45593999997E+02  0.45594000000E+02  0.51100000000E-03 0. -1.
         11   -1    0    0    0    0 -0.00000000000E+00 -0.00000000000E+00 -0.45593999997E+02  0.45594000000E+02  0.51100000000E-03 0.  1.
    9900012    2    1    2    0    0 -0.85847414385E+00 -0.77219467963E+00  0.24443344279E+00  0.90007741475E+02  0.90000002862E+02 0.  0.
        -12    1    1    2    0    0  0.85847414385E+00  0.77219467963E+00 -0.24443344279E+00  0.11802585254E+01  0.00000000000E+00 0.  1.
         11    1    3    3    0    0  0.32097060036E+01 -0.12498901929E+01 -0.88472435266E+01  0.94941116701E+01  0.51100000000E-03 0. -1.
        -11    1    3    3    0    0  0.21667303756E+02 -0.25843044168E+02 -0.14587138935E+02  0.36743973743E+02  0.51100000000E-03 0.  1.
         12    1    3    3    0    0 -0.25735483903E+02  0.26320739681E+02  0.23678815904E+02  0.43769656061E+02  0.00000000000E+00 0. -1.
</event>
<event>
 7    1  0.2232484E-015  0.9000787E+02  0.7816164E-02  0.1186339E+00
        -11   -1    0    0    0    0  0.00000000000E+00  0.00000000000E+00  0.45593999997E+02  0.45594000000E+02  0.51100000000E-03 0. -1.
         11   -1    0    0    0    0 -0.00000000000E+00 -0.00000000000E+00 -0.45593999997E+02  0.45594000000E+02  0.51100000000E-03 0.  1.
    9900012    2    1    2    0    0 -0.58580123835E+00  0.10122661580E+01 -0.15763944389E+00  0.90007874558E+02  0.90000137702E+02 0.  0.
        -12    1    1    2    0    0  0.58580123835E+00 -0.10122661580E+01  0.15763944389E+00  0.11801254424E+01  0.00000000000E+00 0.  1.
         11    1    3    3    0    0  0.31469367177E+01  0.44452234227E+01  0.56604556299E+01  0.78551881061E+01  0.51100000000E-03 0. -1.
        -11    1    3    3    0    0 -0.14607322830E+02  0.35705012992E+02  0.77064965171E+01  0.39339699056E+02  0.51100000000E-03 0.  1.
         12    1    3    3    0    0  0.10874584874E+02 -0.39137970257E+02 -0.13524591591E+02  0.42812987395E+02  0.00000000000E+00 0. -1.
</event>
<event>
 7    1  0.2232484E-015  0.9000778E+02  0.7816164E-02  0.1186339E+00
        -11   -1    0    0    0    0  0.00000000000E+00  0.00000000000E+00  0.45593999997E+02  0.45594000000E+02  0.51100000000E-03 0. -1.
         11   -1    0    0    0    0 -0.00000000000E+00 -0.00000000000E+00 -0.45593999997E+02  0.45594000000E+02  0.51100000000E-03 0.  1.
    9900012    2    1    2    0    0 -0.75536300723E-01 -0.10094126293E+01 -0.60687175402E+00  0.90007782683E+02  0.90000044615E+02 0.  0.
        -12    1    1    2    0    0  0.75536300723E-01  0.10094126293E+01  0.60687175402E+00  0.11802173167E+01  0.00000000000E+00 0.  1.
         11    1    3    3    0    0  0.93335437228E+01 -0.28568634976E+01  0.53281793063E+01  0.11120530673E+02  0.51100000000E-03 0. -1.
        -11    1    3    3    0    0  0.11064981456E+02  0.36412356404E+02 -0.70223141486E+01  0.38698920008E+02  0.51100000000E-03 0.  1.
         12    1    3    3    0    0 -0.20474061480E+02 -0.34564905535E+02  0.10872630883E+01  0.40188332003E+02  0.00000000000E+00 0. -1.
</event>
<event>
 7    1  0.2232484E-015  0.9000764E+02  0.7816164E-02  0.1186339E+00
        -11   -1    0    0    0    0  0.00000000000E+00  0.00000000000E+00  0.45593999997E+02  0.45594000000E+02  0.51100000000E-03 0.  1.
         11   -1    0    0    0    0 -0.00000000000E+00 -0.00000000000E+00 -0.45593999997E+02  0.45594000000E+02  0.51100000000E-03 0. -1.
    9900012    2    1    2    0    0  0.69510397401E+00 -0.64653996837E+00 -0.70147897098E+00  0.90007637254E+02  0.89999897266E+02 0.  0.
        -12    1    1    2    0    0 -0.69510397401E+00  0.64653996837E+00  0.70147897098E+00  0.11803627460E+01  0.00000000000E+00 0.  1.
         11    1    3    3    0    0  0.16321894626E+01  0.58916025913E+01 -0.75502543165E+01  0.97150071560E+01  0.51100000000E-03 0. -1.
        -11    1    3    3    0    0 -0.25181671169E+02 -0.34414517423E+02 -0.39158443195E+00  0.42645385577E+02  0.51100000000E-03 0.  1.
         12    1    3    3    0    0  0.24244585681E+02  0.27876374863E+02  0.72403597775E+01  0.37647244522E+02  0.00000000000E+00 0. -1.
</event>
<event>
 7    1  0.2232484E-015  0.9000784E+02  0.7816164E-02  0.1186339E+00
        -11   -1    0    0    0    0  0.00000000000E+00  0.00000000000E+00  0.45593999997E+02  0.45594000000E+02  0.51100000000E-03 0.  1.
         11   -1    0    0    0    0 -0.00000000000E+00 -0.00000000000E+00 -0.45593999997E+02  0.45594000000E+02  0.51100000000E-03 0. -1.
    9900012    2    1    2    0    0 -0.11170613774E+01 -0.36358081431E+00 -0.11299890331E+00  0.90007836502E+02  0.90000099144E+02 0.  0.
        -12    1    1    2    0    0  0.11170613774E+01  0.36358081431E+00  0.11299890331E+00  0.11801634978E+01  0.00000000000E+00 0.  1.
         11    1    3    3    0    0 -0.42102968119E+00 -0.88577914991E+01  0.70647043615E+01  0.11337891524E+02  0.51100000000E-03 0. -1.
        -11    1    3    3    0    0 -0.33254053648E+02 -0.21089070263E+01  0.16358621595E+02  0.37119860905E+02  0.51100000000E-03 0.  1.
         12    1    3    3    0    0  0.32558021952E+02  0.10603117711E+02 -0.23536324860E+02  0.41550084073E+02  0.00000000000E+00 0. -1.
</event>
<event>
 7    1  0.2232484E-015  0.9000769E+02  0.7816164E-02  0.1186339E+00
        -11   -1    0    0    0    0  0.00000000000E+00  0.00000000000E+00  0.45593999997E+02  0.45594000000E+02  0.51100000000E-03 0. -1.
         11   -1    0    0    0    0 -0.00000000000E+00 -0.00000000000E+00 -0.45593999997E+02  0.45594000000E+02  0.51100000000E-03 0.  1.
    9900012    2    1    2    0    0 -0.69718652777E+00 -0.94053711430E+00 -0.14983066214E+00  0.90007691420E+02  0.89999952146E+02 0.  0.
        -12    1    1    2    0    0  0.69718652777E+00  0.94053711430E+00  0.14983066214E+00  0.11803085805E+01  0.00000000000E+00 0.  1.
         11    1    3    3    0    0  0.69944188030E+01  0.88377103749E+00 -0.87060173204E+01  0.11202574860E+02  0.51100000000E-03 0. -1.
        -11    1    3    3    0    0  0.24399996392E+02  0.23104178013E+02 -0.86152243620E+01  0.34689839387E+02  0.51100000000E-03 0.  1.
         12    1    3    3    0    0 -0.32091601723E+02 -0.24928486165E+02  0.17171411020E+02  0.44115277173E+02  0.00000000000E+00 0. -1.
</event>
<event>
 7    1  0.2232484E-015  0.9000779E+02  0.7816164E-02  0.1186339E+00
        -11   -1    0    0    0    0  0.00000000000E+00  0.00000000000E+00  0.45593999997E+02  0.45594000000E+02  0.51100000000E-03 0.  1.
         11   -1    0    0    0    0 -0.00000000000E+00 -0.00000000000E+00 -0.45593999997E+02  0.45594000000E+02  0.51100000000E-03 0. -1.
    9900012    2    1    2    0    0  0.62285902848E+00  0.94927869157E+00  0.32220620958E+00  0.90007788051E+02  0.90000050053E+02 0.  0.
        -12    1    1    2    0    0 -0.62285902848E+00 -0.94927869157E+00 -0.32220620958E+00  0.11802119492E+01  0.00000000000E+00 0.  1.
         11    1    3    3    0    0 -0.11229571206E+02  0.17485267799E+01  0.48964438450E+01  0.12374804158E+02  0.51100000000E-03 0. -1.
        -11    1    3    3    0    0 -0.25690048652E+02 -0.20874575304E+02 -0.10322026583E+02  0.34673775781E+02  0.51100000000E-03 0.  1.
         12    1    3    3    0    0  0.37542478887E+02  0.20075327215E+02  0.57477889478E+01  0.42959208111E+02  0.00000000000E+00 0. -1.
</event>
<event>
 7    1  0.2232484E-015  0.9000774E+02  0.7816164E-02  0.1186339E+00
        -11   -1    0    0    0    0  0.00000000000E+00  0.00000000000E+00  0.45593999997E+02  0.45594000000E+02  0.51100000000E-03 0.  1.
         11   -1    0    0    0    0 -0.00000000000E+00 -0.00000000000E+00 -0.45593999997E+02  0.45594000000E+02  0.51100000000E-03 0. -1.
    9900012    2    1    2    0    0  0.55899215127E+00  0.19717784845E+00 -0.10206191063E+01  0.90007739567E+02  0.90000000929E+02 0.  0.
        -12    1    1    2    0    0 -0.55899215127E+00 -0.19717784845E+00  0.10206191063E+01  0.11802604328E+01  0.00000000000E+00 0.  1.
         11    1    3    3    0    0  0.78481540557E+01 -0.35812048773E+02  0.84170574691E+01  0.37615730966E+02  0.51100000000E-03 0. -1.
        -11    1    3    3    0    0 -0.15746244875E+01 -0.54419191933E+01  0.55643270536E+01  0.79407595735E+01  0.51100000000E-03 0.  1.
        -12    1    3    3    0    0 -0.57145374169E+01  0.41451145815E+02 -0.15002003629E+02  0.44451249028E+02  0.00000000000E+00 0.  1.
</event>
<event>
 7    1  0.2232484E-015  0.9000790E+02  0.7816164E-02  0.1186339E+00
        -11   -1    0    0    0    0  0.00000000000E+00  0.00000000000E+00  0.45593999997E+02  0.45594000000E+02  0.51100000000E-03 0.  1.
         11   -1    0    0    0    0 -0.00000000000E+00 -0.00000000000E+00 -0.45593999997E+02  0.45594000000E+02  0.51100000000E-03 0. -1.
    9900012    2    1    2    0    0 -0.53526429556E+00 -0.98277296084E+00 -0.37454530411E+00  0.90007900537E+02  0.90000164024E+02 0.  0.
        -12    1    1    2    0    0  0.53526429556E+00  0.98277296084E+00  0.37454530411E+00  0.11800994634E+01  0.00000000000E+00 0.  1.
         11    1    3    3    0    0  0.82907290471E+01  0.50345207124E+01 -0.35815461826E+02  0.37105658503E+02  0.51100000000E-03 0. -1.
        -11    1    3    3    0    0 -0.66139845314E+01  0.18793478774E+01 -0.69198186708E+01  0.97550310365E+01  0.51100000000E-03 0.  1.
        -12    1    3    3    0    0 -0.22120088113E+01 -0.78966415506E+01  0.42360735192E+02  0.43147210997E+02  0.00000000000E+00 0.  1.
</event>
<event>
 7    1  0.2232484E-015  0.9000775E+02  0.7816164E-02  0.1186339E+00
        -11   -1    0    0    0    0  0.00000000000E+00  0.00000000000E+00  0.45593999997E+02  0.45594000000E+02  0.51100000000E-03 0.  1.
         11   -1    0    0    0    0 -0.00000000000E+00 -0.00000000000E+00 -0.45593999997E+02  0.45594000000E+02  0.51100000000E-03 0. -1.
    9900012    2    1    2    0    0 -0.86232905635E+00  0.38350020701E-01  0.80492683941E+00  0.90007750305E+02  0.90000011809E+02 0.  0.
        -12    1    1    2    0    0  0.86232905635E+00 -0.38350020701E-01 -0.80492683941E+00  0.11802496949E+01  0.00000000000E+00 0.  1.
         11    1    3    3    0    0 -0.19444946273E+02 -0.14483237889E+02 -0.26568165449E+02  0.35968563092E+02  0.51100000000E-03 0. -1.
        -11    1    3    3    0    0 -0.46348507796E+01 -0.92008828545E+01 -0.10281705674E+01  0.10353512545E+02  0.51100000000E-03 0.  1.
        -12    1    3    3    0    0  0.23217467997E+02  0.23722470764E+02  0.28401262856E+02  0.43685674667E+02  0.00000000000E+00 0.  1.
</event>
<event>
 7    1  0.2232484E-015  0.9000771E+02  0.7816164E-02  0.1186339E+00
        -11   -1    0    0    0    0  0.00000000000E+00  0.00000000000E+00  0.45593999997E+02  0.45594000000E+02  0.51100000000E-03 0. -1.
         11   -1    0    0    0    0 -0.00000000000E+00 -0.00000000000E+00 -0.45593999997E+02  0.45594000000E+02  0.51100000000E-03 0.  1.
    9900012    2    1    2    0    0 -0.12753212928E-01  0.72425474333E+00  0.93187327182E+00  0.90007705387E+02  0.89999966299E+02 0.  0.
        -12    1    1    2    0    0  0.12753212928E-01 -0.72425474333E+00 -0.93187327182E+00  0.11802946125E+01  0.00000000000E+00 0.  1.
         11    1    3    3    0    0 -0.67640152102E+01 -0.43348757661E+01  0.23586201726E+01  0.83729408843E+01  0.51100000000E-03 0. -1.
        -11    1    3    3    0    0 -0.37344780430E+02  0.21824121154E+01 -0.16409173357E+01  0.37444467656E+02  0.51100000000E-03 0.  1.
         12    1    3    3    0    0  0.44096042428E+02  0.28767183940E+01  0.21417043493E+00  0.44190296848E+02  0.00000000000E+00 0. -1.
</event>
<event>
 7    1  0.2232484E-015  0.9000769E+02  0.7816164E-02  0.1186339E+00
        -11   -1    0    0    0    0  0.00000000000E+00  0.00000000000E+00  0.45593999997E+02  0.45594000000E+02  0.51100000000E-03 0.  1.
         11   -1    0    0    0    0 -0.00000000000E+00 -0.00000000000E+00 -0.45593999997E+02  0.45594000000E+02  0.51100000000E-03 0. -1.
    9900012    2    1    2    0    0 -0.46624317248E+00 -0.10450774588E+01  0.28906301795E+00  0.90007691981E+02  0.89999952715E+02 0.  0.
        -12    1    1    2    0    0  0.46624317248E+00  0.10450774588E+01 -0.28906301795E+00  0.11803080187E+01  0.00000000000E+00 0.  1.
         11    1    3    3    0    0 -0.10259258440E+02  0.44078501496E+01  0.14312070242E-01  0.11166097428E+02  0.51100000000E-03 0. -1.
        -11    1    3    3    0    0 -0.76526954578E+01 -0.13412019458E+02  0.35512400715E+02  0.38724367245E+02  0.51100000000E-03 0.  1.
         12    1    3    3    0    0  0.17445710725E+02  0.79590918499E+01 -0.35237649767E+02  0.40117227308E+02  0.00000000000E+00 0. -1.
</event>
<event>
 7    1  0.2232484E-015  0.9000768E+02  0.7816164E-02  0.1186339E+00
        -11   -1    0    0    0    0  0.00000000000E+00  0.00000000000E+00  0.45593999997E+02  0.45594000000E+02  0.51100000000E-03 0.  1.
         11   -1    0    0    0    0 -0.00000000000E+00 -0.00000000000E+00 -0.45593999997E+02  0.45594000000E+02  0.51100000000E-03 0. -1.
    9900012    2    1    2    0    0 -0.61431453277E+00 -0.71425283448E+00 -0.71106454139E+00  0.90007681298E+02  0.89999941891E+02 0.  0.
        -12    1    1    2    0    0  0.61431453277E+00  0.71425283448E+00  0.71106454139E+00  0.11803187022E+01  0.00000000000E+00 0.  1.
         11    1    3    3    0    0 -0.71397271256E+01 -0.70068000750E+00 -0.77244756929E+01  0.10542019773E+02  0.51100000000E-03 0. -1.
        -11    1    3    3    0    0 -0.83932700538E+01  0.35560694170E+02 -0.91091819304E+01  0.37656170115E+02  0.51100000000E-03 0.  1.
         12    1    3    3    0    0  0.14918682647E+02 -0.35574266997E+02  0.16122593082E+02  0.41809491410E+02  0.00000000000E+00 0. -1.
</event>
<event>
 7    1  0.2232484E-015  0.9000765E+02  0.7816164E-02  0.1186339E+00
        -11   -1    0    0    0    0  0.00000000000E+00  0.00000000000E+00  0.45593999997E+02  0.45594000000E+02  0.51100000000E-03 0. -1.
         11   -1    0    0    0    0 -0.00000000000E+00 -0.00000000000E+00 -0.45593999997E+02  0.45594000000E+02  0.51100000000E-03 0.  1.
    9900012    2    1    2    0    0 -0.70708055151E+00  0.94440890681E+00  0.36672084053E-01  0.90007654317E+02  0.89999914554E+02 0.  0.
        -12    1    1    2    0    0  0.70708055151E+00 -0.94440890681E+00 -0.36672084053E-01  0.11803456830E+01  0.00000000000E+00 0.  1.
         11    1    3    3    0    0  0.86366930075E+01  0.14958348678E+01  0.18368809199E+00  0.87671962242E+01  0.51100000000E-03 0. -1.
        -11    1    3    3    0    0  0.31425887652E+02 -0.17866495333E+02  0.55791471898E+01  0.36577656484E+02  0.51100000000E-03 0.  1.
         12    1    3    3    0    0 -0.40769661211E+02  0.17315069372E+02 -0.57261631978E+01  0.44662801609E+02  0.00000000000E+00 0. -1.
</event>
<event>
 7    1  0.2232484E-015  0.9000778E+02  0.7816164E-02  0.1186339E+00
        -11   -1    0    0    0    0  0.00000000000E+00  0.00000000000E+00  0.45593999997E+02  0.45594000000E+02  0.51100000000E-03 0.  1.
         11   -1    0    0    0    0 -0.00000000000E+00 -0.00000000000E+00 -0.45593999997E+02  0.45594000000E+02  0.51100000000E-03 0. -1.
    9900012    2    1    2    0    0 -0.54298874811E+00 -0.82302236982E+00 -0.64861774695E+00  0.90007784942E+02  0.90000046903E+02 0.  0.
        -12    1    1    2    0    0  0.54298874811E+00  0.82302236982E+00  0.64861774695E+00  0.11802150581E+01  0.00000000000E+00 0.  1.
         11    1    3    3    0    0 -0.60394683783E+00 -0.40663728403E+01  0.91470357666E+01  0.10028379901E+02  0.51100000000E-03 0. -1.
        -11    1    3    3    0    0 -0.10735278401E+02  0.36008608973E+02 -0.21813869764E+02  0.43447796686E+02  0.51100000000E-03 0.  1.
         12    1    3    3    0    0  0.10796236491E+02 -0.32765258503E+02  0.12018216251E+02  0.36531608355E+02  0.00000000000E+00 0. -1.
</event>
<event>
 7    1  0.2232484E-015  0.9000783E+02  0.7816164E-02  0.1186339E+00
        -11   -1    0    0    0    0  0.00000000000E+00  0.00000000000E+00  0.45593999997E+02  0.45594000000E+02  0.51100000000E-03 0.  1.
         11   -1    0    0    0    0 -0.00000000000E+00 -0.00000000000E+00 -0.45593999997E+02  0.45594000000E+02  0.51100000000E-03 0. -1.
    9900012    2    1    2    0    0 -0.64785682809E+00 -0.37953690265E+00 -0.91051229948E+00  0.90007830784E+02  0.90000093351E+02 0.  0.
        -12    1    1    2    0    0  0.64785682809E+00  0.37953690265E+00  0.91051229948E+00  0.11801692157E+01  0.00000000000E+00 0.  1.
         11    1    3    3    0    0 -0.50068656544E+01  0.23264160132E+01 -0.24649105357E-01  0.55210074251E+01  0.51100000000E-03 0. -1.
        -11    1    3    3    0    0 -0.11695349030E+02  0.22164000391E+02  0.31735203650E+02  0.40436954055E+02  0.51100000000E-03 0.  1.
         12    1    3    3    0    0  0.16054357857E+02 -0.24869953307E+02 -0.32621066844E+02  0.44049869304E+02  0.00000000000E+00 0. -1.
</event>
<event>
 7    1  0.2232484E-015  0.9000778E+02  0.7816164E-02  0.1186339E+00
        -11   -1    0    0    0    0  0.00000000000E+00  0.00000000000E+00  0.45593999997E+02  0.45594000000E+02  0.51100000000E-03 0. -1.
         11   -1    0    0    0    0 -0.00000000000E+00 -0.00000000000E+00 -0.45593999997E+02  0.45594000000E+02  0.51100000000E-03 0.  1.
    9900012    2    1    2    0    0 -0.15037401727E+00  0.11533537079E+01 -0.20022691235E+00  0.90007776319E+02  0.90000038166E+02 0.  0.
        -12    1    1    2    0    0  0.15037401727E+00 -0.11533537079E+01  0.20022691235E+00  0.11802236809E+01  0.00000000000E+00 0.  1.
         11    1    3    3    0    0  0.12711760375E+02  0.30701309906E+02  0.13978419177E+02  0.36049347910E+02  0.51100000000E-03 0. -1.
        -11    1    3    3    0    0  0.31344817110E+01  0.84200939659E+01  0.27793424224E+01  0.94046638724E+01  0.51100000000E-03 0.  1.
        -12    1    3    3    0    0 -0.15996616104E+02 -0.37968050164E+02 -0.16957988512E+02  0.44553764537E+02  0.00000000000E+00 0.  1.
</event>
<event>
 7    1  0.2232484E-015  0.9000765E+02  0.7816164E-02  0.1186339E+00
        -11   -1    0    0    0    0  0.00000000000E+00  0.00000000000E+00  0.45593999997E+02  0.45594000000E+02  0.51100000000E-03 0. -1.
         11   -1    0    0    0    0 -0.00000000000E+00 -0.00000000000E+00 -0.45593999997E+02  0.45594000000E+02  0.51100000000E-03 0.  1.
    9900012    2    1    2    0    0 -0.99395436609E+00  0.45280971884E+00 -0.44748078898E+00  0.90007652178E+02  0.89999912387E+02 0.  0.
        -12    1    1    2    0    0  0.99395436609E+00 -0.45280971884E+00  0.44748078898E+00  0.11803478216E+01  0.00000000000E+00 0.  1.
         11    1    3    3    0    0 -0.11322237785E+01  0.49313965411E+00 -0.72270841204E+01  0.73318389608E+01  0.51100000000E-03 0. -1.
        -11    1    3    3    0    0  0.16272317121E+02  0.28744051055E+02 -0.21337960316E+02  0.39323241553E+02  0.51100000000E-03 0.  1.
         12    1    3    3    0    0 -0.16134047709E+02 -0.28784380990E+02  0.28117563647E+02  0.43352571664E+02  0.00000000000E+00 0. -1.
</event>
<event>
 7    1  0.2232484E-015  0.9000773E+02  0.7816164E-02  0.1186339E+00
        -11   -1    0    0    0    0  0.00000000000E+00  0.00000000000E+00  0.45593999997E+02  0.45594000000E+02  0.51100000000E-03 0.  1.
         11   -1    0    0    0    0 -0.00000000000E+00 -0.00000000000E+00 -0.45593999997E+02  0.45594000000E+02  0.51100000000E-03 0. -1.
    9900012    2    1    2    0    0 -0.41583518620E+00  0.86524026247E+00 -0.68665001737E+00  0.90007725515E+02  0.89999986692E+02 0.  0.
        -12    1    1    2    0    0  0.41583518620E+00 -0.86524026247E+00  0.68665001737E+00  0.11802744851E+01  0.00000000000E+00 0.  1.
         11    1    3    3    0    0  0.10479446912E+02  0.97004692126E+01 -0.35562770667E+02  0.38322689993E+02  0.51100000000E-03 0. -1.
        -11    1    3    3    0    0  0.10320640758E+02 -0.11318476931E+01  0.29140337358E+00  0.10386607774E+02  0.51100000000E-03 0.  1.
        -12    1    3    3    0    0 -0.21215922857E+02 -0.77033812570E+01  0.34584717276E+02  0.41298427748E+02  0.00000000000E+00 0.  1.
</event>
<event>
 7    1  0.2232484E-015  0.9000766E+02  0.7816164E-02  0.1186339E+00
        -11   -1    0    0    0    0  0.00000000000E+00  0.00000000000E+00  0.45593999997E+02  0.45594000000E+02  0.51100000000E-03 0.  1.
         11   -1    0    0    0    0 -0.00000000000E+00 -0.00000000000E+00 -0.45593999997E+02  0.45594000000E+02  0.51100000000E-03 0. -1.
    9900012    2    1    2    0    0  0.19719421578E+00  0.11422103916E+01 -0.22288141686E+00  0.90007658412E+02  0.89999918703E+02 0.  0.
        -12    1    1    2    0    0 -0.19719421578E+00 -0.11422103916E+01  0.22288141686E+00  0.11803415876E+01  0.00000000000E+00 0.  1.
         11    1    3    3    0    0 -0.53516441764E+01 -0.75081870958E+01 -0.48117775570E+01  0.10400296745E+02  0.51100000000E-03 0. -1.
        -11    1    3    3    0    0 -0.25432357585E+02  0.18984189802E+02  0.25598883906E+02  0.40773853537E+02  0.51100000000E-03 0.  1.
         12    1    3    3    0    0  0.30981195977E+02 -0.10333792315E+02 -0.21009987766E+02  0.38833508130E+02  0.00000000000E+00 0. -1.
</event>
<event>
 7    1  0.2232484E-015  0.9000769E+02  0.7816164E-02  0.1186339E+00
        -11   -1    0    0    0    0  0.00000000000E+00  0.00000000000E+00  0.45593999997E+02  0.45594000000E+02  0.51100000000E-03 0.  1.
         11   -1    0    0    0    0 -0.00000000000E+00 -0.00000000000E+00 -0.45593999997E+02  0.45594000000E+02  0.51100000000E-03 0. -1.
    9900012    2    1    2    0    0 -0.36916983309E+00  0.99265220833E+00  0.52104881219E+00  0.90007687907E+02  0.89999948587E+02 0.  0.
        -12    1    1    2    0    0  0.36916983309E+00 -0.99265220833E+00 -0.52104881219E+00  0.11803120931E+01  0.00000000000E+00 0.  1.
         11    1    3    3    0    0  0.99617337931E+01  0.37439081273E+02 -0.16073575204E+02  0.41943781027E+02  0.51100000000E-03 0. -1.
        -11    1    3    3    0    0 -0.17836405800E+01 -0.73169389726E+01 -0.64776285079E+01  0.99337123471E+01  0.51100000000E-03 0.  1.
        -12    1    3    3    0    0 -0.85472630461E+01 -0.29129490092E+02  0.23072252524E+02  0.38130194533E+02  0.00000000000E+00 0.  1.
</event>
<event>
 7    1  0.2232484E-015  0.9000762E+02  0.7816164E-02  0.1186339E+00
        -11   -1    0    0    0    0  0.00000000000E+00  0.00000000000E+00  0.45593999997E+02  0.45594000000E+02  0.51100000000E-03 0. -1.
         11   -1    0    0    0    0 -0.00000000000E+00 -0.00000000000E+00 -0.45593999997E+02  0.45594000000E+02  0.51100000000E-03 0.  1.
    9900012    2    1    2    0    0  0.90730535456E+00  0.44091013886E-02  0.75503471866E+00  0.90007618759E+02  0.89999878527E+02 0.  0.
        -12    1    1    2    0    0 -0.90730535456E+00 -0.44091013886E-02 -0.75503471866E+00  0.11803812405E+01  0.00000000000E+00 0.  1.
         11    1    3    3    0    0 -0.31002360707E+01 -0.56365446951E+01  0.74003417140E+01  0.98054656972E+01  0.51100000000E-03 0. -1.
        -11    1    3    3    0    0 -0.36738787693E+02 -0.50716834067E+01 -0.84304640004E+01  0.38033317200E+02  0.51100000000E-03 0.  1.
         12    1    3    3    0    0  0.40746329118E+02  0.10712637203E+02  0.17851570051E+01  0.42168835862E+02  0.00000000000E+00 0. -1.
</event>
<event>
 7    1  0.2232484E-015  0.9000777E+02  0.7816164E-02  0.1186339E+00
        -11   -1    0    0    0    0  0.00000000000E+00  0.00000000000E+00  0.45593999997E+02  0.45594000000E+02  0.51100000000E-03 0.  1.
         11   -1    0    0    0    0 -0.00000000000E+00 -0.00000000000E+00 -0.45593999997E+02  0.45594000000E+02  0.51100000000E-03 0. -1.
    9900012    2    1    2    0    0 -0.11670261603E+01  0.13765024940E+00 -0.10971693982E+00  0.90007773133E+02  0.90000034939E+02 0.  0.
        -12    1    1    2    0    0  0.11670261603E+01 -0.13765024940E+00  0.10971693982E+00  0.11802268667E+01  0.00000000000E+00 0.  1.
         11    1    3    3    0    0  0.21591350829E+02  0.57368837948E+01  0.40995112029E+01  0.22713525897E+02  0.51100000000E-03 0. -1.
        -11    1    3    3    0    0 -0.74494155075E+01  0.25656042783E+02  0.11530130050E+02  0.29097598216E+02  0.51100000000E-03 0.  1.
         12    1    3    3    0    0 -0.15308961482E+02 -0.31255276329E+02 -0.15739358193E+02  0.38196649020E+02  0.00000000000E+00 0. -1.
</event>
<event>
 7    1  0.2232484E-015  0.9000772E+02  0.7816164E-02  0.1186339E+00
        -11   -1    0    0    0    0  0.00000000000E+00  0.00000000000E+00  0.45593999997E+02  0.45594000000E+02  0.51100000000E-03 0.  1.
         11   -1    0    0    0    0 -0.00000000000E+00 -0.00000000000E+00 -0.45593999997E+02  0.45594000000E+02  0.51100000000E-03 0. -1.
    9900012    2    1    2    0    0 -0.87421113865E-01  0.91606818296E+00 -0.73908158075E+00  0.90007718275E+02  0.89999979356E+02 0.  0.
        -12    1    1    2    0    0  0.87421113865E-01 -0.91606818296E+00  0.73908158075E+00  0.11802817248E+01  0.00000000000E+00 0.  1.
         11    1    3    3    0    0  0.20208518561E+02  0.10768021477E+02 -0.32325173747E+02  0.39613777489E+02  0.51100000000E-03 0. -1.
        -11    1    3    3    0    0  0.68259520645E+01 -0.59855915778E+01  0.69575687970E+00  0.91052186146E+01  0.51100000000E-03 0.  1.
        -12    1    3    3    0    0 -0.27121891739E+02 -0.38663617157E+01  0.30890335286E+02  0.41288722171E+02  0.00000000000E+00 0.  1.
</event>
<event>
 7    1  0.2232484E-015  0.9000773E+02  0.7816164E-02  0.1186339E+00
        -11   -1    0    0    0    0  0.00000000000E+00  0.00000000000E+00  0.45593999997E+02  0.45594000000E+02  0.51100000000E-03 0.  1.
         11   -1    0    0    0    0 -0.00000000000E+00 -0.00000000000E+00 -0.45593999997E+02  0.45594000000E+02  0.51100000000E-03 0. -1.
    9900012    2    1    2    0    0  0.10319001751E+00 -0.34154565784E+00 -0.11250500896E+01  0.90007729133E+02  0.89999990357E+02 0.  0.
        -12    1    1    2    0    0 -0.10319001751E+00  0.34154565784E+00  0.11250500896E+01  0.11802708673E+01  0.00000000000E+00 0.  1.
         11    1    3    3    0    0  0.51943108519E+01  0.67411263819E+01  0.47437731905E+00  0.85234197494E+01  0.51100000000E-03 0. -1.
        -11    1    3    3    0    0  0.64252504039E+01 -0.24467699817E+02  0.32700071387E+02  0.41343038665E+02  0.51100000000E-03 0.  1.
         12    1    3    3    0    0 -0.11516371238E+02  0.17385027777E+02 -0.34299498795E+02  0.40141270719E+02  0.00000000000E+00 0. -1.
</event>
<event>
 7    1  0.2232484E-015  0.9000758E+02  0.7816164E-02  0.1186339E+00
        -11   -1    0    0    0    0  0.00000000000E+00  0.00000000000E+00  0.45593999997E+02  0.45594000000E+02  0.51100000000E-03 0.  1.
         11   -1    0    0    0    0 -0.00000000000E+00 -0.00000000000E+00 -0.45593999997E+02  0.45594000000E+02  0.51100000000E-03 0. -1.
    9900012    2    1    2    0    0  0.13721923270E+00  0.11720717312E+01 -0.28617557005E-01  0.90007576252E+02  0.89999835458E+02 0.  0.
        -12    1    1    2    0    0 -0.13721923270E+00 -0.11720717312E+01  0.28617557005E-01  0.11804237482E+01  0.00000000000E+00 0.  1.
         11    1    3    3    0    0 -0.15935484506E+01 -0.12148695001E+02 -0.73078443217E+01  0.14266561456E+02  0.51100000000E-03 0. -1.
        -11    1    3    3    0    0 -0.26827514423E+02  0.14250961363E+02  0.27307456669E+02  0.40847308601E+02  0.51100000000E-03 0.  1.
         12    1    3    3    0    0  0.28558282107E+02 -0.93019463119E+00 -0.20028229905E+02  0.34893706195E+02  0.00000000000E+00 0. -1.
</event>
<event>
 7    1  0.2232484E-015  0.9000767E+02  0.7816164E-02  0.1186339E+00
        -11   -1    0    0    0    0  0.00000000000E+00  0.00000000000E+00  0.45593999997E+02  0.45594000000E+02  0.51100000000E-03 0. -1.
         11   -1    0    0    0    0 -0.00000000000E+00 -0.00000000000E+00 -0.45593999997E+02  0.45594000000E+02  0.51100000000E-03 0.  1.
    9900012    2    1    2    0    0 -0.21738106475E+00 -0.55713701225E+00  0.10176037090E+01  0.90007672297E+02  0.89999932771E+02 0.  0.
        -12    1    1    2    0    0  0.21738106475E+00  0.55713701225E+00 -0.10176037090E+01  0.11803277029E+01  0.00000000000E+00 0.  1.
         11    1    3    3    0    0  0.30930088225E+02 -0.70899597772E+01 -0.18561705699E+02  0.36762410231E+02  0.51100000000E-03 0. -1.
        -11    1    3    3    0    0 -0.34011814833E+01  0.22525417894E+01 -0.11000516829E+02  0.11732576476E+02  0.51100000000E-03 0.  1.
        -12    1    3    3    0    0 -0.27746287806E+02  0.42802809756E+01  0.30579826237E+02  0.41512685591E+02  0.00000000000E+00 0.  1.
</event>
<event>
 7    1  0.2232484E-015  0.9000766E+02  0.7816164E-02  0.1186339E+00
        -11   -1    0    0    0    0  0.00000000000E+00  0.00000000000E+00  0.45593999997E+02  0.45594000000E+02  0.51100000000E-03 0. -1.
         11   -1    0    0    0    0 -0.00000000000E+00 -0.00000000000E+00 -0.45593999997E+02  0.45594000000E+02  0.51100000000E-03 0.  1.
    9900012    2    1    2    0    0  0.27209720615E+00 -0.55787680292E+00 -0.10039647982E+01  0.90007657366E+02  0.89999917644E+02 0.  0.
        -12    1    1    2    0    0 -0.27209720615E+00  0.55787680292E+00  0.10039647982E+01  0.11803426336E+01  0.00000000000E+00 0.  1.
         11    1    3    3    0    0 -0.63023884999E+01  0.44595727968E+01 -0.26627652043E+01  0.81668971542E+01  0.51100000000E-03 0. -1.
        -11    1    3    3    0    0 -0.17298831673E+02  0.10109028989E+02 -0.32083683406E+02  0.37825980298E+02  0.51100000000E-03 0.  1.
         12    1    3    3    0    0  0.23873317379E+02 -0.15126478589E+02  0.33742483812E+02  0.44014779915E+02  0.00000000000E+00 0. -1.
</event>
<event>
 7    1  0.2232484E-015  0.9000773E+02  0.7816164E-02  0.1186339E+00
        -11   -1    0    0    0    0  0.00000000000E+00  0.00000000000E+00  0.45593999997E+02  0.45594000000E+02  0.51100000000E-03 0.  1.
         11   -1    0    0    0    0 -0.00000000000E+00 -0.00000000000E+00 -0.45593999997E+02  0.45594000000E+02  0.51100000000E-03 0. -1.
    9900012    2    1    2    0    0  0.11168622638E+01  0.34407031957E+00 -0.16511817201E+00  0.90007733203E+02  0.89999994481E+02 0.  0.
        -12    1    1    2    0    0 -0.11168622638E+01 -0.34407031957E+00  0.16511817201E+00  0.11802667968E+01  0.00000000000E+00 0.  1.
         11    1    3    3    0    0 -0.44330015962E+01 -0.33039368287E+01  0.67496471458E+01  0.87249778552E+01  0.51100000000E-03 0. -1.
        -11    1    3    3    0    0  0.38478522691E+01 -0.50762257715E+01  0.36457123099E+02  0.37009402320E+02  0.51100000000E-03 0.  1.
         12    1    3    3    0    0  0.17020115908E+01  0.87242329197E+01 -0.43371888417E+02  0.44273353028E+02  0.00000000000E+00 0. -1.
</event>
<event>
 7    1  0.2232484E-015  0.9000785E+02  0.7816164E-02  0.1186339E+00
        -11   -1    0    0    0    0  0.00000000000E+00  0.00000000000E+00  0.45593999997E+02  0.45594000000E+02  0.51100000000E-03 0.  1.
         11   -1    0    0    0    0 -0.00000000000E+00 -0.00000000000E+00 -0.45593999997E+02  0.45594000000E+02  0.51100000000E-03 0. -1.
    9900012    2    1    2    0    0  0.12268188771E+00  0.10747808793E+01 -0.47174943102E+00  0.90007850726E+02  0.90000113555E+02 0.  0.
        -12    1    1    2    0    0 -0.12268188771E+00 -0.10747808793E+01  0.47174943102E+00  0.11801492744E+01  0.00000000000E+00 0.  1.
         11    1    3    3    0    0 -0.33494912661E+02  0.15912409426E+02 -0.23808835791E+01  0.37158882582E+02  0.51100000000E-03 0. -1.
        -11    1    3    3    0    0 -0.79475225838E+01  0.10831623887E+01  0.22756660521E+01  0.83375663249E+01  0.51100000000E-03 0.  1.
        -12    1    3    3    0    0  0.41565117132E+02 -0.15920790935E+02 -0.36653190404E+00  0.44511401819E+02  0.00000000000E+00 0.  1.
</event>
<event>
 7    1  0.2232484E-015  0.9000770E+02  0.7816164E-02  0.1186339E+00
        -11   -1    0    0    0    0  0.00000000000E+00  0.00000000000E+00  0.45593999997E+02  0.45594000000E+02  0.51100000000E-03 0.  1.
         11   -1    0    0    0    0 -0.00000000000E+00 -0.00000000000E+00 -0.45593999997E+02  0.45594000000E+02  0.51100000000E-03 0. -1.
    9900012    2    1    2    0    0 -0.36938869335E+00  0.89536484885E+00 -0.67452087809E+00  0.90007701464E+02  0.89999962323E+02 0.  0.
        -12    1    1    2    0    0  0.36938869335E+00 -0.89536484885E+00  0.67452087809E+00  0.11802985361E+01  0.00000000000E+00 0.  1.
         11    1    3    3    0    0 -0.20845320344E+02 -0.60066914896E+01 -0.36726250867E+02  0.42654721027E+02  0.51100000000E-03 0. -1.
        -11    1    3    3    0    0  0.26531520486E+01  0.88860947366E+01  0.29950394807E+01  0.97453659353E+01  0.51100000000E-03 0.  1.
        -12    1    3    3    0    0  0.17822779602E+02 -0.19840383981E+01  0.33056690508E+02  0.37607614501E+02  0.00000000000E+00 0.  1.
</event>
<event>
 7    1  0.2232484E-015  0.9000774E+02  0.7816164E-02  0.1186339E+00
        -11   -1    0    0    0    0  0.00000000000E+00  0.00000000000E+00  0.45593999997E+02  0.45594000000E+02  0.51100000000E-03 0. -1.
         11   -1    0    0    0    0 -0.00000000000E+00 -0.00000000000E+00 -0.45593999997E+02  0.45594000000E+02  0.51100000000E-03 0.  1.
    9900012    2    1    2    0    0  0.69021520860E+00  0.88518447808E+00  0.36476836118E+00  0.90007743862E+02  0.90000005281E+02 0.  0.
        -12    1    1    2    0    0 -0.69021520860E+00 -0.88518447808E+00 -0.36476836118E+00  0.11802561382E+01  0.00000000000E+00 0.  1.
         11    1    3    3    0    0  0.65601725058E+01  0.38003291131E+01  0.40279920891E+01  0.85850500991E+01  0.51100000000E-03 0. -1.
        -11    1    3    3    0    0  0.32743452929E+02  0.62693909129E+01 -0.19576140264E+02  0.38660887730E+02  0.51100000000E-03 0.  1.
         12    1    3    3    0    0 -0.38613410226E+02 -0.91845355480E+01  0.15912916536E+02  0.42761806033E+02  0.00000000000E+00 0. -1.
</event>
<event>
 7    1  0.2232484E-015  0.9000765E+02  0.7816164E-02  0.1186339E+00
        -11   -1    0    0    0    0  0.00000000000E+00  0.00000000000E+00  0.45593999997E+02  0.45594000000E+02  0.51100000000E-03 0. -1.
         11   -1    0    0    0    0 -0.00000000000E+00 -0.00000000000E+00 -0.45593999997E+02  0.45594000000E+02  0.51100000000E-03 0.  1.
    9900012    2    1    2    0    0 -0.35176870014E+00  0.10974776650E+01 -0.25499590108E+00  0.90007652020E+02  0.89999912227E+02 0.  0.
        -12    1    1    2    0    0  0.35176870014E+00 -0.10974776650E+01  0.25499590108E+00  0.11803479797E+01  0.00000000000E+00 0.  1.
         11    1    3    3    0    0 -0.16256664675E+02  0.66074225357E+01 -0.33823619462E+02  0.38104782019E+02  0.51100000000E-03 0. -1.
        -11    1    3    3    0    0 -0.87929774234E+01  0.26155536990E+01 -0.33205764361E+00  0.91797513943E+01  0.51100000000E-03 0.  1.
        -12    1    3    3    0    0  0.24697873398E+02 -0.81254985696E+01  0.33900681205E+02  0.42723118607E+02  0.00000000000E+00 0.  1.
</event>
<event>
 7    1  0.2232484E-015  0.9000779E+02  0.7816164E-02  0.1186339E+00
        -11   -1    0    0    0    0  0.00000000000E+00  0.00000000000E+00  0.45593999997E+02  0.45594000000E+02  0.51100000000E-03 0. -1.
         11   -1    0    0    0    0 -0.00000000000E+00 -0.00000000000E+00 -0.45593999997E+02  0.45594000000E+02  0.51100000000E-03 0.  1.
    9900012    2    1    2    0    0  0.67813813642E+00  0.92714652428E+00  0.27095693950E+00  0.90007792530E+02  0.90000054591E+02 0.  0.
        -12    1    1    2    0    0 -0.67813813642E+00 -0.92714652428E+00 -0.27095693950E+00  0.11802074702E+01  0.00000000000E+00 0.  1.
         11    1    3    3    0    0  0.13975733292E+02 -0.35540116170E+02  0.10959454451E+02  0.39730726403E+02  0.51100000000E-03 0. -1.
        -11    1    3    3    0    0  0.58738929989E+00 -0.21621752582E+01 -0.89122614486E+01  0.91895828211E+01  0.51100000000E-03 0.  1.
        -12    1    3    3    0    0 -0.13884984456E+02  0.38629437952E+02 -0.17762360629E+01  0.41087483306E+02  0.00000000000E+00 0.  1.
</event>
<event>
 7    1  0.2232484E-015  0.9000770E+02  0.7816164E-02  0.1186339E+00
        -11   -1    0    0    0    0  0.00000000000E+00  0.00000000000E+00  0.45593999997E+02  0.45594000000E+02  0.51100000000E-03 0.  1.
         11   -1    0    0    0    0 -0.00000000000E+00 -0.00000000000E+00 -0.45593999997E+02  0.45594000000E+02  0.51100000000E-03 0. -1.
    9900012    2    1    2    0    0 -0.89784230255E+00  0.31887435445E+00 -0.69663884297E+00  0.90007700321E+02  0.89999961165E+02 0.  0.
        -12    1    1    2    0    0  0.89784230255E+00 -0.31887435445E+00  0.69663884297E+00  0.11802996788E+01  0.00000000000E+00 0.  1.
         11    1    3    3    0    0 -0.15540870638E+01  0.69491382330E+01  0.38466115474E+00  0.71311761477E+01  0.51100000000E-03 0. -1.
        -11    1    3    3    0    0  0.21066968706E+02  0.41905713222E+01  0.34389277144E+02  0.40546275306E+02  0.51100000000E-03 0.  1.
         12    1    3    3    0    0 -0.20410723945E+02 -0.10820835201E+02 -0.35470577142E+02  0.42330248867E+02  0.00000000000E+00 0. -1.
</event>
<event>
 7    1  0.2232484E-015  0.9000777E+02  0.7816164E-02  0.1186339E+00
        -11   -1    0    0    0    0  0.00000000000E+00  0.00000000000E+00  0.45593999997E+02  0.45594000000E+02  0.51100000000E-03 0.  1.
         11   -1    0    0    0    0 -0.00000000000E+00 -0.00000000000E+00 -0.45593999997E+02  0.45594000000E+02  0.51100000000E-03 0. -1.
    9900012    2    1    2    0    0  0.11241300968E+01  0.35572446004E+00  0.52190306411E-01  0.90007774516E+02  0.90000036339E+02 0.  0.
        -12    1    1    2    0    0 -0.11241300968E+01 -0.35572446004E+00 -0.52190306411E-01  0.11802254845E+01  0.00000000000E+00 0.  1.
         11    1    3    3    0    0 -0.39750008660E+01  0.99556342626E+01  0.73183819375E+00  0.10744806786E+02  0.51100000000E-03 0. -1.
        -11    1    3    3    0    0 -0.32618848568E+02  0.12398232301E+02  0.49214314229E+01  0.35240969532E+02  0.51100000000E-03 0.  1.
         12    1    3    3    0    0  0.37717979530E+02 -0.21998142104E+02 -0.56010793102E+01  0.44021998198E+02  0.00000000000E+00 0. -1.
</event>
<event>
 7    1  0.2232484E-015  0.9000766E+02  0.7816164E-02  0.1186339E+00
        -11   -1    0    0    0    0  0.00000000000E+00  0.00000000000E+00  0.45593999997E+02  0.45594000000E+02  0.51100000000E-03 0. -1.
         11   -1    0    0    0    0 -0.00000000000E+00 -0.00000000000E+00 -0.45593999997E+02  0.45594000000E+02  0.51100000000E-03 0.  1.
    9900012    2    1    2    0    0 -0.36904850489E+00  0.28479535994E+00  0.10843909828E+01  0.90007657253E+02  0.89999917529E+02 0.  0.
        -12    1    1    2    0    0  0.36904850489E+00 -0.28479535994E+00 -0.10843909828E+01  0.11803427466E+01  0.00000000000E+00 0.  1.
         11    1    3    3    0    0 -0.64274787811E+01 -0.81967106534E+01 -0.17825335125E+01  0.10567685414E+02  0.51100000000E-03 0. -1.
        -11    1    3    3    0    0 -0.24897499735E+02  0.25475820774E+02  0.19272831136E+02  0.40501172297E+02  0.51100000000E-03 0.  1.
         12    1    3    3    0    0  0.30955930012E+02 -0.16994314761E+02 -0.16405906641E+02  0.38938799542E+02  0.00000000000E+00 0. -1.
</event>
<event>
 7    1  0.2232484E-015  0.9000773E+02  0.7816164E-02  0.1186339E+00
        -11   -1    0    0    0    0  0.00000000000E+00  0.00000000000E+00  0.45593999997E+02  0.45594000000E+02  0.51100000000E-03 0. -1.
         11   -1    0    0    0    0 -0.00000000000E+00 -0.00000000000E+00 -0.45593999997E+02  0.45594000000E+02  0.51100000000E-03 0.  1.
    9900012    2    1    2    0    0 -0.10052316908E+00 -0.99897372860E+00  0.62047953975E+00  0.90007725338E+02  0.89999986513E+02 0.  0.
        -12    1    1    2    0    0  0.10052316908E+00  0.99897372860E+00 -0.62047953975E+00  0.11802746618E+01  0.00000000000E+00 0.  1.
         11    1    3    3    0    0  0.89590174029E+01 -0.31821961850E+02 -0.18994979325E+02  0.38127555503E+02  0.51100000000E-03 0.  1.
        -11    1    3    3    0    0 -0.20056783105E+02  0.10368278296E+02  0.18750798827E+01  0.22655941123E+02  0.51100000000E-03 0. -1.
        -12    1    3    3    0    0  0.10997242533E+02  0.20454709826E+02  0.17740378982E+02  0.29224228712E+02  0.00000000000E+00 0.  1.
</event>
<event>
 7    1  0.2232484E-015  0.9000771E+02  0.7816164E-02  0.1186339E+00
        -11   -1    0    0    0    0  0.00000000000E+00  0.00000000000E+00  0.45593999997E+02  0.45594000000E+02  0.51100000000E-03 0.  1.
         11   -1    0    0    0    0 -0.00000000000E+00 -0.00000000000E+00 -0.45593999997E+02  0.45594000000E+02  0.51100000000E-03 0. -1.
    9900012    2    1    2    0    0  0.84542600368E+00  0.81231599137E+00 -0.13593311858E+00  0.90007711811E+02  0.89999972806E+02 0.  0.
        -12    1    1    2    0    0 -0.84542600368E+00 -0.81231599137E+00  0.13593311858E+00  0.11802881895E+01  0.00000000000E+00 0.  1.
         11    1    3    3    0    0  0.12346874725E+02 -0.92667239719E+01 -0.25891053847E+02  0.30144056765E+02  0.51100000000E-03 0. -1.
        -11    1    3    3    0    0 -0.38020951968E+01  0.17268652193E+02 -0.11536398313E+02  0.21112810395E+02  0.51100000000E-03 0.  1.
        -12    1    3    3    0    0 -0.76993535244E+01 -0.71896122299E+01  0.37291519042E+02  0.38750844651E+02  0.00000000000E+00 0.  1.
</event>
<event>
 7    1  0.2232484E-015  0.9000782E+02  0.7816164E-02  0.1186339E+00
        -11   -1    0    0    0    0  0.00000000000E+00  0.00000000000E+00  0.45593999997E+02  0.45594000000E+02  0.51100000000E-03 0.  1.
         11   -1    0    0    0    0 -0.00000000000E+00 -0.00000000000E+00 -0.45593999997E+02  0.45594000000E+02  0.51100000000E-03 0. -1.
    9900012    2    1    2    0    0  0.46610896710E+00  0.59043396041E+00 -0.90936827074E+00  0.90007821843E+02  0.90000084291E+02 0.  0.
        -12    1    1    2    0    0 -0.46610896710E+00 -0.59043396041E+00  0.90936827074E+00  0.11801781572E+01  0.00000000000E+00 0.  1.
         11    1    3    3    0    0 -0.51919654985E+01 -0.56032327745E+01  0.67830490838E+01  0.10215795534E+02  0.51100000000E-03 0. -1.
        -11    1    3    3    0    0 -0.26668666930E+02  0.63602246159E+01 -0.29903728529E+02  0.40569732969E+02  0.51100000000E-03 0.  1.
         12    1    3    3    0    0  0.32326741395E+02 -0.16655788102E+00  0.22211311174E+02  0.39222293340E+02  0.00000000000E+00 0. -1.
</event>
<event>
 7    1  0.2232484E-015  0.9000772E+02  0.7816164E-02  0.1186339E+00
        -11   -1    0    0    0    0  0.00000000000E+00  0.00000000000E+00  0.45593999997E+02  0.45594000000E+02  0.51100000000E-03 0.  1.
         11   -1    0    0    0    0 -0.00000000000E+00 -0.00000000000E+00 -0.45593999997E+02  0.45594000000E+02  0.51100000000E-03 0. -1.
    9900012    2    1    2    0    0  0.26746932604E+00  0.10271306460E+01 -0.51625206844E+00  0.90007723167E+02  0.89999984313E+02 0.  0.
        -12    1    1    2    0    0 -0.26746932604E+00 -0.10271306460E+01  0.51625206844E+00  0.11802768330E+01  0.00000000000E+00 0.  1.
         11    1    3    3    0    0 -0.82218045397E+01 -0.49799284504E+01  0.19522662943E+00  0.96143575426E+01  0.51100000000E-03 0. -1.
        -11    1    3    3    0    0 -0.29990189702E+02  0.51315352340E+01  0.20266971191E+02  0.36558094230E+02  0.51100000000E-03 0.  1.
         12    1    3    3    0    0  0.38479463567E+02  0.87552386232E+00 -0.20978449889E+02  0.43835271394E+02  0.00000000000E+00 0. -1.
</event>
<event>
 7    1  0.2232484E-015  0.9000771E+02  0.7816164E-02  0.1186339E+00
        -11   -1    0    0    0    0  0.00000000000E+00  0.00000000000E+00  0.45593999997E+02  0.45594000000E+02  0.51100000000E-03 0. -1.
         11   -1    0    0    0    0 -0.00000000000E+00 -0.00000000000E+00 -0.45593999997E+02  0.45594000000E+02  0.51100000000E-03 0.  1.
    9900012    2    1    2    0    0 -0.79147944236E+00 -0.25939906363E+00  0.83627493930E+00  0.90007710478E+02  0.89999971456E+02 0.  0.
        -12    1    1    2    0    0  0.79147944236E+00  0.25939906363E+00 -0.83627493930E+00  0.11802895221E+01  0.00000000000E+00 0.  1.
         11    1    3    3    0    0  0.30934440654E+02  0.17473707354E+01  0.43800332424E+01  0.31291813858E+02  0.51100000000E-03 0. -1.
        -11    1    3    3    0    0  0.56099931271E+01  0.11138059308E+02 -0.13005308448E+02  0.18018502605E+02  0.51100000000E-03 0.  1.
        -12    1    3    3    0    0 -0.37335913223E+02 -0.13144829107E+02  0.94615501447E+01  0.40697394015E+02  0.00000000000E+00 0.  1.
</event>
<event>
 7    1  0.2232484E-015  0.9000773E+02  0.7816164E-02  0.1186339E+00
        -11   -1    0    0    0    0  0.00000000000E+00  0.00000000000E+00  0.45593999997E+02  0.45594000000E+02  0.51100000000E-03 0. -1.
         11   -1    0    0    0    0 -0.00000000000E+00 -0.00000000000E+00 -0.45593999997E+02  0.45594000000E+02  0.51100000000E-03 0.  1.
    9900012    2    1    2    0    0  0.39896127089E+00 -0.46751803562E-01  0.11098072034E+01  0.90007733990E+02  0.89999995278E+02 0.  0.
        -12    1    1    2    0    0 -0.39896127089E+00  0.46751803562E-01 -0.11098072034E+01  0.11802660105E+01  0.00000000000E+00 0.  1.
         11    1    3    3    0    0 -0.96007802084E+01  0.21582939142E+01 -0.51536991020E+01  0.11108277451E+02  0.51100000000E-03 0. -1.
        -11    1    3    3    0    0 -0.63585502662E+01  0.23487503908E+02 -0.25254199824E+02  0.35069482608E+02  0.51100000000E-03 0.  1.
         12    1    3    3    0    0  0.16358291746E+02 -0.25692549626E+02  0.31517706130E+02  0.43829973931E+02  0.00000000000E+00 0. -1.
</event>
<event>
 7    1  0.2232484E-015  0.9000769E+02  0.7816164E-02  0.1186339E+00
        -11   -1    0    0    0    0  0.00000000000E+00  0.00000000000E+00  0.45593999997E+02  0.45594000000E+02  0.51100000000E-03 0. -1.
         11   -1    0    0    0    0 -0.00000000000E+00 -0.00000000000E+00 -0.45593999997E+02  0.45594000000E+02  0.51100000000E-03 0.  1.
    9900012    2    1    2    0    0  0.27334243778E+00 -0.82989923424E+00  0.79352449208E+00  0.90007690741E+02  0.89999951459E+02 0.  0.
        -12    1    1    2    0    0 -0.27334243778E+00  0.82989923424E+00 -0.79352449208E+00  0.11803092590E+01  0.00000000000E+00 0.  1.
         11    1    3    3    0    0  0.21943294077E+02  0.60314506925E+01  0.35782596579E+02  0.42406140718E+02  0.51100000000E-03 0. -1.
        -11    1    3    3    0    0  0.27625103035E+01 -0.72683529201E+01 -0.72039072369E+01  0.10599844201E+02  0.51100000000E-03 0.  1.
        -12    1    3    3    0    0 -0.24432461943E+02  0.40700299345E+00 -0.27785164850E+02  0.37001705822E+02  0.00000000000E+00 0.  1.
</event>
<event>
 7    1  0.2232484E-015  0.9000771E+02  0.7816164E-02  0.1186339E+00
        -11   -1    0    0    0    0  0.00000000000E+00  0.00000000000E+00  0.45593999997E+02  0.45594000000E+02  0.51100000000E-03 0. -1.
         11   -1    0    0    0    0 -0.00000000000E+00 -0.00000000000E+00 -0.45593999997E+02  0.45594000000E+02  0.51100000000E-03 0.  1.
    9900012    2    1    2    0    0  0.41888207010E+00 -0.10299315429E+01 -0.39605205590E+00  0.90007712576E+02  0.89999973582E+02 0.  0.
        -12    1    1    2    0    0 -0.41888207010E+00  0.10299315429E+01  0.39605205590E+00  0.11802874238E+01  0.00000000000E+00 0.  1.
         11    1    3    3    0    0  0.42752799435E+01  0.65714601459E+01  0.56965437457E+01  0.96908574415E+01  0.51100000000E-03 0. -1.
        -11    1    3    3    0    0 -0.30068222203E+02  0.22377809034E+02 -0.13447978555E+02  0.39821005149E+02  0.51100000000E-03 0.  1.
         12    1    3    3    0    0  0.26211824329E+02 -0.29979200723E+02  0.73553827530E+01  0.40495849986E+02  0.00000000000E+00 0. -1.
</event>
<event>
 7    1  0.2232484E-015  0.9000772E+02  0.7816164E-02  0.1186339E+00
        -11   -1    0    0    0    0  0.00000000000E+00  0.00000000000E+00  0.45593999997E+02  0.45594000000E+02  0.51100000000E-03 0. -1.
         11   -1    0    0    0    0 -0.00000000000E+00 -0.00000000000E+00 -0.45593999997E+02  0.45594000000E+02  0.51100000000E-03 0.  1.
    9900012    2    1    2    0    0 -0.47104054301E+00  0.95204316268E+00 -0.51458797659E+00  0.90007717762E+02  0.89999978836E+02 0.  0.
        -12    1    1    2    0    0  0.47104054301E+00 -0.95204316268E+00  0.51458797659E+00  0.11802822385E+01  0.00000000000E+00 0.  1.
         11    1    3    3    0    0  0.19066504364E+02 -0.34464174688E+02 -0.12086048176E+02  0.41199314149E+02  0.51100000000E-03 0. -1.
        -11    1    3    3    0    0 -0.81346531382E+01 -0.13814509485E+01  0.52219020101E+01  0.97646940181E+01  0.51100000000E-03 0.  1.
        -12    1    3    3    0    0 -0.11402891768E+02  0.36797668799E+02  0.63495581895E+01  0.39043709595E+02  0.00000000000E+00 0.  1.
</event>
<event>
 7    1  0.2232484E-015  0.9000783E+02  0.7816164E-02  0.1186339E+00
        -11   -1    0    0    0    0  0.00000000000E+00  0.00000000000E+00  0.45593999997E+02  0.45594000000E+02  0.51100000000E-03 0.  1.
         11   -1    0    0    0    0 -0.00000000000E+00 -0.00000000000E+00 -0.45593999997E+02  0.45594000000E+02  0.51100000000E-03 0. -1.
    9900012    2    1    2    0    0  0.20336911414E+00  0.97454634504E+00 -0.63379061403E+00  0.90007834707E+02  0.90000097326E+02 0.  0.
        -12    1    1    2    0    0 -0.20336911414E+00 -0.97454634504E+00  0.63379061403E+00  0.11801652925E+01  0.00000000000E+00 0.  1.
         11    1    3    3    0    0 -0.53502708156E+00  0.88955894961E+01 -0.21580597319E+01  0.91692414369E+01  0.51100000000E-03 0. -1.
        -11    1    3    3    0    0 -0.18125129046E+02  0.30869840453E+02 -0.79647009709E+01  0.36672930266E+02  0.51100000000E-03 0.  1.
         12    1    3    3    0    0  0.18863525241E+02 -0.38790883604E+02  0.94889700887E+01  0.44165663004E+02  0.00000000000E+00 0. -1.
</event>
<event>
 7    1  0.2232484E-015  0.9000765E+02  0.7816164E-02  0.1186339E+00
        -11   -1    0    0    0    0  0.00000000000E+00  0.00000000000E+00  0.45593999997E+02  0.45594000000E+02  0.51100000000E-03 0.  1.
         11   -1    0    0    0    0 -0.00000000000E+00 -0.00000000000E+00 -0.45593999997E+02  0.45594000000E+02  0.51100000000E-03 0. -1.
    9900012    2    1    2    0    0  0.10465646831E+01 -0.16002139716E+00 -0.52183583656E+00  0.90007653812E+02  0.89999914042E+02 0.  0.
        -12    1    1    2    0    0 -0.10465646831E+01  0.16002139716E+00  0.52183583656E+00  0.11803461881E+01  0.00000000000E+00 0.  1.
         11    1    3    3    0    0  0.41909878599E+01  0.39785056534E+01  0.19591709376E+01  0.61017405304E+01  0.51100000000E-03 0. -1.
        -11    1    3    3    0    0  0.48258741051E+01 -0.18582407101E+02  0.36686235654E+02  0.41406216940E+02  0.51100000000E-03 0.  1.
         12    1    3    3    0    0 -0.79702972819E+01  0.14443880051E+02 -0.39167242428E+02  0.42499696341E+02  0.00000000000E+00 0. -1.
</event>
<event>
 7    1  0.2232484E-015  0.9000775E+02  0.7816164E-02  0.1186339E+00
        -11   -1    0    0    0    0  0.00000000000E+00  0.00000000000E+00  0.45593999997E+02  0.45594000000E+02  0.51100000000E-03 0.  1.
         11   -1    0    0    0    0 -0.00000000000E+00 -0.00000000000E+00 -0.45593999997E+02  0.45594000000E+02  0.51100000000E-03 0. -1.
    9900012    2    1    2    0    0  0.17358517977E+00 -0.11466835040E+01 -0.21902882403E+00  0.90007750662E+02  0.90000012171E+02 0.  0.
        -12    1    1    2    0    0 -0.17358517977E+00  0.11466835040E+01  0.21902882403E+00  0.11802493376E+01  0.00000000000E+00 0.  1.
         11    1    3    3    0    0 -0.85877806322E+01 -0.16343724356E+01 -0.13094823813E+01  0.88394509905E+01  0.51100000000E-03 0. -1.
        -11    1    3    3    0    0 -0.94556092785E+01 -0.16628803652E+02 -0.33448975813E+02  0.38532578955E+02  0.51100000000E-03 0.  1.
         12    1    3    3    0    0  0.18216975090E+02  0.17116492583E+02  0.34539429371E+02  0.42635720717E+02  0.00000000000E+00 0. -1.
</event>
<event>
 7    1  0.2232484E-015  0.9000769E+02  0.7816164E-02  0.1186339E+00
        -11   -1    0    0    0    0  0.00000000000E+00  0.00000000000E+00  0.45593999997E+02  0.45594000000E+02  0.51100000000E-03 0. -1.
         11   -1    0    0    0    0 -0.00000000000E+00 -0.00000000000E+00 -0.45593999997E+02  0.45594000000E+02  0.51100000000E-03 0.  1.
    9900012    2    1    2    0    0  0.62509447905E+00  0.70021661676E+00 -0.71559388135E+00  0.90007694522E+02  0.89999955290E+02 0.  0.
        -12    1    1    2    0    0 -0.62509447905E+00 -0.70021661676E+00  0.71559388135E+00  0.11803054779E+01  0.00000000000E+00 0.  1.
         11    1    3    3    0    0  0.23165938496E+02  0.21787148845E+02  0.20862249200E+02  0.38033853382E+02  0.51100000000E-03 0. -1.
        -11    1    3    3    0    0 -0.13413688423E+01  0.85241319808E+01  0.16416831743E+01  0.87838044322E+01  0.51100000000E-03 0.  1.
        -12    1    3    3    0    0 -0.21199475175E+02 -0.29611064209E+02 -0.23219526255E+02  0.43190036707E+02  0.00000000000E+00 0.  1.
</event>
<event>
 7    1  0.2232484E-015  0.9000777E+02  0.7816164E-02  0.1186339E+00
        -11   -1    0    0    0    0  0.00000000000E+00  0.00000000000E+00  0.45593999997E+02  0.45594000000E+02  0.51100000000E-03 0. -1.
         11   -1    0    0    0    0 -0.00000000000E+00 -0.00000000000E+00 -0.45593999997E+02  0.45594000000E+02  0.51100000000E-03 0.  1.
    9900012    2    1    2    0    0  0.15533086955E+00 -0.21374130022E-01  0.11697707206E+01  0.90007767789E+02  0.90000029524E+02 0.  0.
        -12    1    1    2    0    0 -0.15533086955E+00  0.21374130022E-01 -0.11697707206E+01  0.11802322107E+01  0.00000000000E+00 0.  1.
         11    1    3    3    0    0 -0.82492378475E+01  0.48343130574E+01  0.47641817025E+01  0.10682599653E+02  0.51100000000E-03 0. -1.
        -11    1    3    3    0    0  0.43319971137E+02  0.22983774435E+01 -0.49248549998E+01  0.43659553768E+02  0.51100000000E-03 0.  1.
         12    1    3    3    0    0 -0.34915402420E+02 -0.71540646308E+01  0.13304440179E+01  0.35665614367E+02  0.00000000000E+00 0. -1.
</event>
<event>
 7    1  0.2232484E-015  0.9000774E+02  0.7816164E-02  0.1186339E+00
        -11   -1    0    0    0    0  0.00000000000E+00  0.00000000000E+00  0.45593999997E+02  0.45594000000E+02  0.51100000000E-03 0.  1.
         11   -1    0    0    0    0 -0.00000000000E+00 -0.00000000000E+00 -0.45593999997E+02  0.45594000000E+02  0.51100000000E-03 0. -1.
    9900012    2    1    2    0    0  0.10787229714E+01 -0.47842882010E+00  0.21901623709E-01  0.90007738560E+02  0.89999999909E+02 0.  0.
        -12    1    1    2    0    0 -0.10787229714E+01  0.47842882010E+00 -0.21901623709E-01  0.11802614397E+01  0.00000000000E+00 0.  1.
         11    1    3    3    0    0  0.13814982289E+02 -0.35184301351E+02  0.11269594064E+02  0.39443536199E+02  0.51100000000E-03 0. -1.
        -11    1    3    3    0    0  0.24099449464E+01 -0.42772436829E+01 -0.69677725655E+01  0.85236437603E+01  0.51100000000E-03 0.  1.
        -12    1    3    3    0    0 -0.15146204264E+02  0.38983116214E+02 -0.42799198745E+01  0.42040558601E+02  0.00000000000E+00 0.  1.
</event>
<event>
 7    1  0.2232484E-015  0.9000770E+02  0.7816164E-02  0.1186339E+00
        -11   -1    0    0    0    0  0.00000000000E+00  0.00000000000E+00  0.45593999997E+02  0.45594000000E+02  0.51100000000E-03 0. -1.
         11   -1    0    0    0    0 -0.00000000000E+00 -0.00000000000E+00 -0.45593999997E+02  0.45594000000E+02  0.51100000000E-03 0.  1.
    9900012    2    1    2    0    0 -0.36042174778E+00  0.97628134059E+00 -0.55684061557E+00  0.90007703188E+02  0.89999964071E+02 0.  0.
        -12    1    1    2    0    0  0.36042174778E+00 -0.97628134059E+00  0.55684061557E+00  0.11802968116E+01  0.00000000000E+00 0.  1.
         11    1    3    3    0    0  0.95685381041E+01  0.18515349535E+01  0.11315563354E+01  0.98114995355E+01  0.51100000000E-03 0. -1.
        -11    1    3    3    0    0  0.23106662025E+02  0.21817441313E+02 -0.18457723516E+02  0.36750593642E+02  0.51100000000E-03 0.  1.
         12    1    3    3    0    0 -0.33035621877E+02 -0.22692694926E+02  0.16769326565E+02  0.43445610011E+02  0.00000000000E+00 0. -1.
</event>
<event>
 7    1  0.2232484E-015  0.9000780E+02  0.7816164E-02  0.1186339E+00
        -11   -1    0    0    0    0  0.00000000000E+00  0.00000000000E+00  0.45593999997E+02  0.45594000000E+02  0.51100000000E-03 0.  1.
         11   -1    0    0    0    0 -0.00000000000E+00 -0.00000000000E+00 -0.45593999997E+02  0.45594000000E+02  0.51100000000E-03 0. -1.
    9900012    2    1    2    0    0 -0.20349093150E+00 -0.11351533233E+01  0.25075743502E+00  0.90007804712E+02  0.90000066934E+02 0.  0.
        -12    1    1    2    0    0  0.20349093150E+00  0.11351533233E+01 -0.25075743502E+00  0.11801952880E+01  0.00000000000E+00 0.  1.
         11    1    3    3    0    0 -0.20062885571E+02  0.33713669063E+02  0.11652076224E+02  0.40925563402E+02  0.51100000000E-03 0. -1.
        -11    1    3    3    0    0 -0.61052186100E+01 -0.65393694548E+01  0.22126652409E+00  0.89490785156E+01  0.51100000000E-03 0.  1.
        -12    1    3    3    0    0  0.25964613250E+02 -0.28309452932E+02 -0.11622585313E+02  0.40133162794E+02  0.00000000000E+00 0.  1.
</event>
<event>
 7    1  0.2232484E-015  0.9000779E+02  0.7816164E-02  0.1186339E+00
        -11   -1    0    0    0    0  0.00000000000E+00  0.00000000000E+00  0.45593999997E+02  0.45594000000E+02  0.51100000000E-03 0.  1.
         11   -1    0    0    0    0 -0.00000000000E+00 -0.00000000000E+00 -0.45593999997E+02  0.45594000000E+02  0.51100000000E-03 0. -1.
    9900012    2    1    2    0    0  0.10268116126E+01  0.37317387544E+00  0.44643745827E+00  0.90007785090E+02  0.90000047053E+02 0.  0.
        -12    1    1    2    0    0 -0.10268116126E+01 -0.37317387544E+00 -0.44643745827E+00  0.11802149097E+01  0.00000000000E+00 0.  1.
         11    1    3    3    0    0 -0.31838100641E+02 -0.20234358912E+02  0.42683794494E+01  0.37964628227E+02  0.51100000000E-03 0. -1.
        -11    1    3    3    0    0 -0.60141198362E+00 -0.12678892695E+01  0.97273765525E+01  0.98280768429E+01  0.51100000000E-03 0.  1.
        -12    1    3    3    0    0  0.33466324238E+02  0.21875422057E+02 -0.13549318544E+02  0.42215080020E+02  0.00000000000E+00 0.  1.
</event>
<event>
 7    1  0.2232484E-015  0.9000771E+02  0.7816164E-02  0.1186339E+00
        -11   -1    0    0    0    0  0.00000000000E+00  0.00000000000E+00  0.45593999997E+02  0.45594000000E+02  0.51100000000E-03 0.  1.
         11   -1    0    0    0    0 -0.00000000000E+00 -0.00000000000E+00 -0.45593999997E+02  0.45594000000E+02  0.51100000000E-03 0. -1.
    9900012    2    1    2    0    0 -0.25529884168E+00 -0.79007370195E+00 -0.83885641377E+00  0.90007714426E+02  0.89999975457E+02 0.  0.
        -12    1    1    2    0    0  0.25529884168E+00  0.79007370195E+00  0.83885641377E+00  0.11802855739E+01  0.00000000000E+00 0.  1.
         11    1    3    3    0    0  0.13250857079E+02  0.41146268207E+01 -0.34257943684E+02  0.36961088633E+02  0.51100000000E-03 0. -1.
        -11    1    3    3    0    0  0.12895326976E+02  0.28932470139E+01  0.72972117551E+01  0.15096676315E+02  0.51100000000E-03 0.  1.
        -12    1    3    3    0    0 -0.26401482897E+02 -0.77979475365E+01  0.26121875515E+02  0.37949949478E+02  0.00000000000E+00 0.  1.
</event>
<event>
 7    1  0.2232484E-015  0.9000774E+02  0.7816164E-02  0.1186339E+00
        -11   -1    0    0    0    0  0.00000000000E+00  0.00000000000E+00  0.45593999997E+02  0.45594000000E+02  0.51100000000E-03 0.  1.
         11   -1    0    0    0    0 -0.00000000000E+00 -0.00000000000E+00 -0.45593999997E+02  0.45594000000E+02  0.51100000000E-03 0. -1.
    9900012    2    1    2    0    0  0.79970057674E+00 -0.83307514614E+00  0.24387893953E+00  0.90007740643E+02  0.90000002020E+02 0.  0.
        -12    1    1    2    0    0 -0.79970057674E+00  0.83307514614E+00 -0.24387893953E+00  0.11802593565E+01  0.00000000000E+00 0.  1.
         11    1    3    3    0    0 -0.12972031681E+02  0.17102333584E+01  0.11493873062E+01  0.13134671503E+02  0.51100000000E-03 0. -1.
        -11    1    3    3    0    0 -0.43409269901E+01  0.32905728774E+02  0.11579640608E+02  0.35152790930E+02  0.51100000000E-03 0.  1.
         12    1    3    3    0    0  0.18112659247E+02 -0.35449037279E+02 -0.12485148975E+02  0.41720278210E+02  0.00000000000E+00 0. -1.
</event>
<event>
 7    1  0.2232484E-015  0.9000769E+02  0.7816164E-02  0.1186339E+00
        -11   -1    0    0    0    0  0.00000000000E+00  0.00000000000E+00  0.45593999997E+02  0.45594000000E+02  0.51100000000E-03 0.  1.
         11   -1    0    0    0    0 -0.00000000000E+00 -0.00000000000E+00 -0.45593999997E+02  0.45594000000E+02  0.51100000000E-03 0. -1.
    9900012    2    1    2    0    0  0.17603214856E+00 -0.69383476332E+00 -0.93847870357E+00  0.90007688061E+02  0.89999948743E+02 0.  0.
        -12    1    1    2    0    0 -0.17603214856E+00  0.69383476332E+00  0.93847870357E+00  0.11803119389E+01  0.00000000000E+00 0.  1.
         11    1    3    3    0    0 -0.17091907437E+01  0.23203449003E+01  0.10074276456E+02  0.10478376774E+02  0.51100000000E-03 0. -1.
        -11    1    3    3    0    0 -0.35497694852E+02 -0.15164399101E+02  0.38252984270E+00  0.38603000780E+02  0.51100000000E-03 0.  1.
         12    1    3    3    0    0  0.37382917744E+02  0.12150219437E+02 -0.11395285002E+02  0.40926310507E+02  0.00000000000E+00 0. -1.
</event>
<event>
 7    1  0.2232484E-015  0.9000738E+02  0.7816164E-02  0.1186340E+00
        -11   -1    0    0    0    0  0.00000000000E+00  0.00000000000E+00  0.45593999997E+02  0.45594000000E+02  0.51100000000E-03 0. -1.
         11   -1    0    0    0    0 -0.00000000000E+00 -0.00000000000E+00 -0.45593999997E+02  0.45594000000E+02  0.51100000000E-03 0.  1.
    9900012    2    1    2    0    0 -0.51736167144E-01  0.82503333317E+00  0.84291734599E+00  0.90007378857E+02  0.89999635457E+02 0.  0.
        -12    1    1    2    0    0  0.51736167144E-01 -0.82503333317E+00 -0.84291734599E+00  0.11806211433E+01  0.00000000000E+00 0.  1.
         11    1    3    3    0    0  0.62586440938E+01 -0.42878512248E+01 -0.50775199633E+01  0.91289376851E+01  0.51100000000E-03 0. -1.
        -11    1    3    3    0    0  0.59072979484E+01  0.27229076010E+02 -0.27389140539E+02  0.39070241478E+02  0.51100000000E-03 0.  1.
         12    1    3    3    0    0 -0.12217678209E+02 -0.22116191452E+02  0.33309577848E+02  0.41808199694E+02  0.00000000000E+00 0. -1.
</event>
<event>
 7    1  0.2340134E-015  0.9000776E+02  0.7816164E-02  0.1186339E+00
        -11   -1    0    0    0    0  0.00000000000E+00  0.00000000000E+00  0.45593999997E+02  0.45594000000E+02  0.51100000000E-03 0.  1.
         11   -1    0    0    0    0 -0.00000000000E+00 -0.00000000000E+00 -0.45593999997E+02  0.45594000000E+02  0.51100000000E-03 0. -1.
    9900012    2    1    2    0    0 -0.26251210574E+00 -0.59280802121E+00 -0.98621795451E+00  0.90007762816E+02  0.90000024486E+02 0.  0.
        -12    1    1    2    0    0  0.26251210574E+00  0.59280802121E+00  0.98621795451E+00  0.11802371836E+01  0.00000000000E+00 0.  1.
         11    1    3    3    0    0 -0.54310375919E+01 -0.15817470158E+01  0.75018017964E+01  0.93954842025E+01  0.51100000000E-03 0. -1.
        -11    1    3    3    0    0  0.26484414464E+02 -0.26208752331E+02  0.13527178526E+02  0.39639720828E+02  0.51100000000E-03 0.  1.
         12    1    3    3    0    0 -0.21315888978E+02  0.27197691325E+02 -0.22015198277E+02  0.40972557786E+02  0.00000000000E+00 0. -1.
</event>
<event>
 7    1  0.2232484E-015  0.9000757E+02  0.7816164E-02  0.1186339E+00
        -11   -1    0    0    0    0  0.00000000000E+00  0.00000000000E+00  0.45593999997E+02  0.45594000000E+02  0.51100000000E-03 0. -1.
         11   -1    0    0    0    0 -0.00000000000E+00 -0.00000000000E+00 -0.45593999997E+02  0.45594000000E+02  0.51100000000E-03 0.  1.
    9900012    2    1    2    0    0  0.14051763385E+00  0.64060840609E+00 -0.98147923269E+00  0.90007565411E+02  0.89999824474E+02 0.  0.
        -12    1    1    2    0    0 -0.14051763385E+00 -0.64060840609E+00  0.98147923269E+00  0.11804345893E+01  0.00000000000E+00 0.  1.
         11    1    3    3    0    0  0.62059489930E+01  0.10928411007E+02  0.50086259596E+01  0.13528869291E+02  0.51100000000E-03 0. -1.
        -11    1    3    3    0    0  0.18481358291E+02  0.23885932597E+02 -0.14577892168E+02  0.33535254891E+02  0.51100000000E-03 0.  1.
         12    1    3    3    0    0 -0.24546789650E+02 -0.34173735197E+02  0.85877869753E+01  0.42943441229E+02  0.00000000000E+00 0. -1.
</event>
<event>
 7    1  0.2232484E-015  0.9000763E+02  0.7816164E-02  0.1186339E+00
        -11   -1    0    0    0    0  0.00000000000E+00  0.00000000000E+00  0.45593999997E+02  0.45594000000E+02  0.51100000000E-03 0.  1.
         11   -1    0    0    0    0 -0.00000000000E+00 -0.00000000000E+00 -0.45593999997E+02  0.45594000000E+02  0.51100000000E-03 0. -1.
    9900012    2    1    2    0    0 -0.13847454423E+00 -0.10663059731E+01 -0.48691521894E+00  0.90007631389E+02  0.89999891323E+02 0.  0.
        -12    1    1    2    0    0  0.13847454423E+00  0.10663059731E+01  0.48691521894E+00  0.11803686111E+01  0.00000000000E+00 0.  1.
         11    1    3    3    0    0 -0.25542026354E+02 -0.94902682630E+01 -0.24358118838E+02  0.36548300310E+02  0.51100000000E-03 0. -1.
        -11    1    3    3    0    0  0.40510900898E+00 -0.58796622578E+01 -0.83639241765E+01  0.10231801868E+02  0.51100000000E-03 0.  1.
        -12    1    3    3    0    0  0.24998442801E+02  0.14303624548E+02  0.32235127795E+02  0.43227529211E+02  0.00000000000E+00 0.  1.
</event>
<event>
 7    1  0.2232484E-015  0.9000750E+02  0.7816164E-02  0.1186340E+00
        -11   -1    0    0    0    0  0.00000000000E+00  0.00000000000E+00  0.45593999997E+02  0.45594000000E+02  0.51100000000E-03 0.  1.
         11   -1    0    0    0    0 -0.00000000000E+00 -0.00000000000E+00 -0.45593999997E+02  0.45594000000E+02  0.51100000000E-03 0. -1.
    9900012    2    1    2    0    0  0.11643403607E+01 -0.18990345742E+00  0.42709735929E-01  0.90007501834E+02  0.89999760058E+02 0.  0.
        -12    1    1    2    0    0 -0.11643403607E+01  0.18990345742E+00 -0.42709735929E-01  0.11804981662E+01  0.00000000000E+00 0.  1.
         11    1    3    3    0    0  0.44748151038E+01 -0.44723319984E+01  0.82343182730E+01  0.10384109081E+02  0.51100000000E-03 0. -1.
        -11    1    3    3    0    0 -0.62659355910E+01  0.16443298082E+02  0.32550541244E+02  0.37002455813E+02  0.51100000000E-03 0.  1.
         12    1    3    3    0    0  0.29554608480E+01 -0.12160869541E+02 -0.40742149781E+02  0.42620936940E+02  0.00000000000E+00 0. -1.
</event>
<event>
 7    1  0.2232484E-015  0.9000771E+02  0.7816164E-02  0.1186339E+00
        -11   -1    0    0    0    0  0.00000000000E+00  0.00000000000E+00  0.45593999997E+02  0.45594000000E+02  0.51100000000E-03 0. -1.
         11   -1    0    0    0    0 -0.00000000000E+00 -0.00000000000E+00 -0.45593999997E+02  0.45594000000E+02  0.51100000000E-03 0.  1.
    9900012    2    1    2    0    0 -0.97652506549E+00 -0.58956047992E+00  0.30315158012E+00  0.90007710356E+02  0.89999971333E+02 0.  0.
        -12    1    1    2    0    0  0.97652506549E+00  0.58956047992E+00 -0.30315158012E+00  0.11802896439E+01  0.00000000000E+00 0.  1.
         11    1    3    3    0    0  0.10700834404E+02  0.88382372330E+01  0.32541887387E+02  0.35377913015E+02  0.51100000000E-03 0. -1.
        -11    1    3    3    0    0  0.11750073473E+02 -0.87406994434E+01  0.15622293630E+00  0.14645424516E+02  0.51100000000E-03 0.  1.
        -12    1    3    3    0    0 -0.23427432942E+02 -0.68709826956E+00 -0.32394958743E+02  0.39984372826E+02  0.00000000000E+00 0.  1.
</event>
<event>
 7    1  0.2232484E-015  0.9000773E+02  0.7816164E-02  0.1186339E+00
        -11   -1    0    0    0    0  0.00000000000E+00  0.00000000000E+00  0.45593999997E+02  0.45594000000E+02  0.51100000000E-03 0.  1.
         11   -1    0    0    0    0 -0.00000000000E+00 -0.00000000000E+00 -0.45593999997E+02  0.45594000000E+02  0.51100000000E-03 0. -1.
    9900012    2    1    2    0    0  0.28194933308E+00  0.10818060553E+01  0.37848018471E+00  0.90007725872E+02  0.89999987053E+02 0.  0.
        -12    1    1    2    0    0 -0.28194933308E+00 -0.10818060553E+01 -0.37848018471E+00  0.11802741283E+01  0.00000000000E+00 0.  1.
         11    1    3    3    0    0  0.36558101967E+00  0.24938111917E+02  0.27440290630E+02  0.37081162678E+02  0.51100000000E-03 0. -1.
        -11    1    3    3    0    0 -0.45750059740E+01  0.25094343940E+01  0.75546713474E+01  0.91815576057E+01  0.51100000000E-03 0.  1.
        -12    1    3    3    0    0  0.44913742874E+01 -0.26365740255E+02 -0.34616481792E+02  0.43745005588E+02  0.00000000000E+00 0.  1.
</event>
<event>
 7    1  0.2232484E-015  0.9000762E+02  0.7816164E-02  0.1186339E+00
        -11   -1    0    0    0    0  0.00000000000E+00  0.00000000000E+00  0.45593999997E+02  0.45594000000E+02  0.51100000000E-03 0. -1.
         11   -1    0    0    0    0 -0.00000000000E+00 -0.00000000000E+00 -0.45593999997E+02  0.45594000000E+02  0.51100000000E-03 0.  1.
    9900012    2    1    2    0    0 -0.85565745250E+00 -0.33112939368E+00  0.74262595887E+00  0.90007623083E+02  0.89999882908E+02 0.  0.
        -12    1    1    2    0    0  0.85565745250E+00  0.33112939368E+00 -0.74262595887E+00  0.11803769170E+01  0.00000000000E+00 0.  1.
         11    1    3    3    0    0  0.21436352738E+02  0.21777781692E+02 -0.35113029753E+01  0.30759035144E+02  0.51100000000E-03 0. -1.
        -11    1    3    3    0    0  0.11131688580E+01  0.13930188174E+02  0.80185666282E+01  0.16111694464E+02  0.51100000000E-03 0.  1.
        -12    1    3    3    0    0 -0.23405179048E+02 -0.36039099260E+02 -0.37646376940E+01  0.43136893475E+02  0.00000000000E+00 0.  1.
</event>
<event>
 7    1  0.2232484E-015  0.9000769E+02  0.7816164E-02  0.1186339E+00
        -11   -1    0    0    0    0  0.00000000000E+00  0.00000000000E+00  0.45593999997E+02  0.45594000000E+02  0.51100000000E-03 0.  1.
         11   -1    0    0    0    0 -0.00000000000E+00 -0.00000000000E+00 -0.45593999997E+02  0.45594000000E+02  0.51100000000E-03 0. -1.
    9900012    2    1    2    0    0 -0.10921675977E+01  0.32887900470E-01 -0.44633691341E+00  0.90007691432E+02  0.89999952159E+02 0.  0.
        -12    1    1    2    0    0  0.10921675977E+01 -0.32887900470E-01  0.44633691341E+00  0.11803085680E+01  0.00000000000E+00 0.  1.
         11    1    3    3    0    0  0.96396141457E+00  0.28535571760E+02 -0.28740941996E+02  0.40512341631E+02  0.51100000000E-03 0. -1.
        -11    1    3    3    0    0 -0.92233191357E+01 -0.31487428442E+01 -0.13447166886E+01  0.98383159439E+01  0.51100000000E-03 0.  1.
        -12    1    3    3    0    0  0.71671901235E+01 -0.25353941016E+02  0.29639321771E+02  0.39657033857E+02  0.00000000000E+00 0.  1.
</event>
<event>
 7    1  0.2232484E-015  0.9000769E+02  0.7816164E-02  0.1186339E+00
        -11   -1    0    0    0    0  0.00000000000E+00  0.00000000000E+00  0.45593999997E+02  0.45594000000E+02  0.51100000000E-03 0.  1.
         11   -1    0    0    0    0 -0.00000000000E+00 -0.00000000000E+00 -0.45593999997E+02  0.45594000000E+02  0.51100000000E-03 0. -1.
    9900012    2    1    2    0    0  0.99213015799E+00 -0.39219981831E+00 -0.50497175475E+00  0.90007686728E+02  0.89999947392E+02 0.  0.
        -12    1    1    2    0    0 -0.99213015799E+00  0.39219981831E+00  0.50497175475E+00  0.11803132724E+01  0.00000000000E+00 0.  1.
         11    1    3    3    0    0 -0.56144734781E+01 -0.17462418216E+02 -0.31271960009E+02  0.36254569994E+02  0.51100000000E-03 0. -1.
        -11    1    3    3    0    0 -0.12316949783E+01  0.22638481179E+01 -0.96570466659E+01  0.99950303346E+01  0.51100000000E-03 0.  1.
        -12    1    3    3    0    0  0.78382986144E+01  0.14806370280E+02  0.40424034920E+02  0.43758086399E+02  0.00000000000E+00 0.  1.
</event>
<event>
 7    1  0.2232484E-015  0.9000769E+02  0.7816164E-02  0.1186339E+00
        -11   -1    0    0    0    0  0.00000000000E+00  0.00000000000E+00  0.45593999997E+02  0.45594000000E+02  0.51100000000E-03 0.  1.
         11   -1    0    0    0    0 -0.00000000000E+00 -0.00000000000E+00 -0.45593999997E+02  0.45594000000E+02  0.51100000000E-03 0. -1.
    9900012    2    1    2    0    0  0.87488828987E+00 -0.79857825793E-01 -0.78824604427E+00  0.90007687068E+02  0.89999947737E+02 0.  0.
        -12    1    1    2    0    0 -0.87488828987E+00  0.79857825793E-01  0.78824604427E+00  0.11803129324E+01  0.00000000000E+00 0.  1.
         11    1    3    3    0    0  0.34204702524E+01  0.27048117399E+02 -0.33410200144E+02  0.43122404218E+02  0.51100000000E-03 0. -1.
        -11    1    3    3    0    0 -0.73964485230E+01 -0.29229826088E+01  0.34478873264E+01  0.86682873373E+01  0.51100000000E-03 0.  1.
        -12    1    3    3    0    0  0.48508665605E+01 -0.24204992616E+02  0.29174066773E+02  0.38216995513E+02  0.00000000000E+00 0.  1.
</event>
<event>
 7    1  0.2557423E-015  0.9000779E+02  0.7816164E-02  0.1186339E+00
        -11   -1    0    0    0    0  0.00000000000E+00  0.00000000000E+00  0.45593999997E+02  0.45594000000E+02  0.51100000000E-03 0. -1.
         11   -1    0    0    0    0 -0.00000000000E+00 -0.00000000000E+00 -0.45593999997E+02  0.45594000000E+02  0.51100000000E-03 0.  1.
    9900012    2    1    2    0    0  0.37051333240E+00  0.37063194034E+00  0.10574776966E+01  0.90007785086E+02  0.90000047049E+02 0.  0.
        -12    1    1    2    0    0 -0.37051333240E+00 -0.37063194034E+00 -0.10574776966E+01  0.11802149141E+01  0.00000000000E+00 0.  1.
         11    1    3    3    0    0 -0.51149446251E+01 -0.84478645516E+01 -0.58715690916E+00  0.98931202104E+01  0.51100000000E-03 0. -1.
        -11    1    3    3    0    0 -0.18253908412E+02  0.21434724470E+02 -0.28268056856E+02  0.39896561557E+02  0.51100000000E-03 0.  1.
         12    1    3    3    0    0  0.23739366369E+02 -0.12616227978E+02  0.29912691462E+02  0.40218103318E+02  0.00000000000E+00 0. -1.
</event>
<event>
 7    1  0.2232484E-015  0.9000787E+02  0.7816164E-02  0.1186339E+00
        -11   -1    0    0    0    0  0.00000000000E+00  0.00000000000E+00  0.45593999997E+02  0.45594000000E+02  0.51100000000E-03 0. -1.
         11   -1    0    0    0    0 -0.00000000000E+00 -0.00000000000E+00 -0.45593999997E+02  0.45594000000E+02  0.51100000000E-03 0.  1.
    9900012    2    1    2    0    0 -0.12664579698E+00 -0.76831044297E+00  0.88677280255E+00  0.90007870305E+02  0.90000133393E+02 0.  0.
        -12    1    1    2    0    0  0.12664579698E+00  0.76831044297E+00 -0.88677280255E+00  0.11801296954E+01  0.00000000000E+00 0.  1.
         11    1    3    3    0    0 -0.43171265815E+01  0.30496367863E+00 -0.96218687409E+01  0.10550400139E+02  0.51100000000E-03 0. -1.
        -11    1    3    3    0    0  0.83149297302E+01 -0.39045820045E+02  0.30635779755E+00  0.39922524654E+02  0.51100000000E-03 0.  1.
         12    1    3    3    0    0 -0.41244489456E+01  0.37972545923E+02  0.10202283746E+02  0.39534945512E+02  0.00000000000E+00 0. -1.
</event>
<event>
 7    1  0.2232484E-015  0.9000775E+02  0.7816164E-02  0.1186339E+00
        -11   -1    0    0    0    0  0.00000000000E+00  0.00000000000E+00  0.45593999997E+02  0.45594000000E+02  0.51100000000E-03 0.  1.
         11   -1    0    0    0    0 -0.00000000000E+00 -0.00000000000E+00 -0.45593999997E+02  0.45594000000E+02  0.51100000000E-03 0. -1.
    9900012    2    1    2    0    0 -0.37485626658E+00 -0.11018081216E+01  0.19622063406E+00  0.90007745411E+02  0.90000006851E+02 0.  0.
        -12    1    1    2    0    0  0.37485626658E+00  0.11018081216E+01 -0.19622063406E+00  0.11802545889E+01  0.00000000000E+00 0.  1.
         11    1    3    3    0    0 -0.40113349392E+01 -0.17047412141E+02 -0.30233106188E+02  0.34939172554E+02  0.51100000000E-03 0. -1.
        -11    1    3    3    0    0  0.11296138778E+02  0.33634399996E+01 -0.77771219613E+01  0.14120874838E+02  0.51100000000E-03 0.  1.
        -12    1    3    3    0    0 -0.76596601057E+01  0.12582164020E+02  0.38206448784E+02  0.40947698019E+02  0.00000000000E+00 0.  1.
</event>
<event>
 7    1  0.2232484E-015  0.9000770E+02  0.7816164E-02  0.1186339E+00
        -11   -1    0    0    0    0  0.00000000000E+00  0.00000000000E+00  0.45593999997E+02  0.45594000000E+02  0.51100000000E-03 0.  1.
         11   -1    0    0    0    0 -0.00000000000E+00 -0.00000000000E+00 -0.45593999997E+02  0.45594000000E+02  0.51100000000E-03 0. -1.
    9900012    2    1    2    0    0  0.75459047655E+00  0.14144266005E+00 -0.89648441987E+00  0.90007704644E+02  0.89999965545E+02 0.  0.
        -12    1    1    2    0    0 -0.75459047655E+00 -0.14144266005E+00  0.89648441987E+00  0.11802953565E+01  0.00000000000E+00 0.  1.
         11    1    3    3    0    0  0.10368198231E+00  0.20029974556E+01  0.79079217821E+01  0.81583071733E+01  0.51100000000E-03 0. -1.
        -11    1    3    3    0    0 -0.25560005169E+02 -0.26014513437E+02  0.14519206340E+02  0.39253995040E+02  0.51100000000E-03 0.  1.
         12    1    3    3    0    0  0.26210913664E+02  0.24152958641E+02 -0.23323612542E+02  0.42595402430E+02  0.00000000000E+00 0. -1.
</event>
<event>
 7    1  0.2232484E-015  0.9000782E+02  0.7816164E-02  0.1186339E+00
        -11   -1    0    0    0    0  0.00000000000E+00  0.00000000000E+00  0.45593999997E+02  0.45594000000E+02  0.51100000000E-03 0. -1.
         11   -1    0    0    0    0 -0.00000000000E+00 -0.00000000000E+00 -0.45593999997E+02  0.45594000000E+02  0.51100000000E-03 0.  1.
    9900012    2    1    2    0    0  0.38855546558E+00  0.79691080069E+00  0.77895934503E+00  0.90007822117E+02  0.90000084569E+02 0.  0.
        -12    1    1    2    0    0 -0.38855546558E+00 -0.79691080069E+00 -0.77895934503E+00  0.11801778829E+01  0.00000000000E+00 0.  1.
         11    1    3    3    0    0  0.17416953449E+01 -0.49083538340E+01 -0.99805340587E+01  0.11257730695E+02  0.51100000000E-03 0. -1.
        -11    1    3    3    0    0  0.29668899821E+02  0.21161852464E+02 -0.10705076755E+02  0.37982447063E+02  0.51100000000E-03 0.  1.
         12    1    3    3    0    0 -0.31022039701E+02 -0.15456587829E+02  0.21464570159E+02  0.40767644359E+02  0.00000000000E+00 0. -1.
</event>
<event>
 7    1  0.2232484E-015  0.9000719E+02  0.7816164E-02  0.1186340E+00
        -11   -1    0    0    0    0  0.00000000000E+00  0.00000000000E+00  0.45593999997E+02  0.45594000000E+02  0.51100000000E-03 0.  1.
         11   -1    0    0    0    0 -0.00000000000E+00 -0.00000000000E+00 -0.45593999997E+02  0.45594000000E+02  0.51100000000E-03 0. -1.
    9900012    2    1    2    0    0 -0.93269672995E+00 -0.56533810095E+00 -0.45252197821E+00  0.90007192438E+02  0.89999446576E+02 0.  0.
        -12    1    1    2    0    0  0.93269672995E+00  0.56533810095E+00  0.45252197821E+00  0.11808075623E+01  0.00000000000E+00 0.  1.
         11    1    3    3    0    0 -0.17919623107E+02 -0.56298195588E+01 -0.20531687122E+02  0.27827287632E+02  0.51100000000E-03 0. -1.
        -11    1    3    3    0    0 -0.15460333296E+02 -0.14167929088E+02  0.93834699874E+01  0.22973933697E+02  0.51100000000E-03 0.  1.
        -12    1    3    3    0    0  0.32447259673E+02  0.19232410546E+02  0.10695695157E+02  0.39205971109E+02  0.00000000000E+00 0.  1.
</event>
<event>
 7    1  0.2232484E-015  0.9000775E+02  0.7816164E-02  0.1186339E+00
        -11   -1    0    0    0    0  0.00000000000E+00  0.00000000000E+00  0.45593999997E+02  0.45594000000E+02  0.51100000000E-03 0.  1.
         11   -1    0    0    0    0 -0.00000000000E+00 -0.00000000000E+00 -0.45593999997E+02  0.45594000000E+02  0.51100000000E-03 0. -1.
    9900012    2    1    2    0    0 -0.17227650588E+00  0.87086942613E+00 -0.77775171759E+00  0.90007749821E+02  0.90000011318E+02 0.  0.
        -12    1    1    2    0    0  0.17227650588E+00 -0.87086942613E+00  0.77775171759E+00  0.11802501794E+01  0.00000000000E+00 0.  1.
         11    1    3    3    0    0 -0.22541324746E+02 -0.18958475689E+02 -0.20763906571E+02  0.36037132767E+02  0.51100000000E-03 0. -1.
        -11    1    3    3    0    0 -0.96351155939E+01 -0.30358563596E+01  0.60057763862E+00  0.10119909590E+02  0.51100000000E-03 0.  1.
        -12    1    3    3    0    0  0.32004163834E+02  0.22865201474E+02  0.19385577214E+02  0.43850707464E+02  0.00000000000E+00 0.  1.
</event>
<event>
 7    1  0.2232484E-015  0.9000780E+02  0.7816164E-02  0.1186339E+00
        -11   -1    0    0    0    0  0.00000000000E+00  0.00000000000E+00  0.45593999997E+02  0.45594000000E+02  0.51100000000E-03 0.  1.
         11   -1    0    0    0    0 -0.00000000000E+00 -0.00000000000E+00 -0.45593999997E+02  0.45594000000E+02  0.51100000000E-03 0. -1.
    9900012    2    1    2    0    0  0.21975466741E+00  0.10364758809E+01 -0.51990237817E+00  0.90007799657E+02  0.90000061813E+02 0.  0.
        -12    1    1    2    0    0 -0.21975466741E+00 -0.10364758809E+01  0.51990237817E+00  0.11802003425E+01  0.00000000000E+00 0.  1.
         11    1    3    3    0    0 -0.29558568785E+01  0.34223141833E+02 -0.15223659742E+02  0.37572867112E+02  0.51100000000E-03 0. -1.
        -11    1    3    3    0    0 -0.18707518648E+01  0.68035959043E+01  0.94394109352E+01  0.11785207204E+02  0.51100000000E-03 0.  1.
        -12    1    3    3    0    0  0.50463634107E+01 -0.39990261857E+02  0.52643464286E+01  0.40649725342E+02  0.00000000000E+00 0.  1.
</event>
<event>
 7    1  0.2232484E-015  0.9000761E+02  0.7816164E-02  0.1186339E+00
        -11   -1    0    0    0    0  0.00000000000E+00  0.00000000000E+00  0.45593999997E+02  0.45594000000E+02  0.51100000000E-03 0.  1.
         11   -1    0    0    0    0 -0.00000000000E+00 -0.00000000000E+00 -0.45593999997E+02  0.45594000000E+02  0.51100000000E-03 0. -1.
    9900012    2    1    2    0    0  0.38146935194E+00 -0.10713114782E+00 -0.11119004726E+01  0.90007610823E+02  0.89999870485E+02 0.  0.
        -12    1    1    2    0    0 -0.38146935194E+00  0.10713114782E+00  0.11119004726E+01  0.11803891774E+01  0.00000000000E+00 0.  1.
         11    1    3    3    0    0  0.13365372919E+01 -0.33966214867E+01  0.87149800530E+01  0.94485050163E+01  0.51100000000E-03 0. -1.
        -11    1    3    3    0    0 -0.12211231277E+02 -0.34274163255E+02  0.83607183774E+01  0.37332747664E+02  0.51100000000E-03 0.  1.
         12    1    3    3    0    0  0.11256163337E+02  0.37563653594E+02 -0.18187598903E+02  0.43226358142E+02  0.00000000000E+00 0. -1.
</event>
<event>
 7    1  0.2781728E-015  0.9000774E+02  0.7816164E-02  0.1186339E+00
        -11   -1    0    0    0    0  0.00000000000E+00  0.00000000000E+00  0.45593999997E+02  0.45594000000E+02  0.51100000000E-03 0.  1.
         11   -1    0    0    0    0 -0.00000000000E+00 -0.00000000000E+00 -0.45593999997E+02  0.45594000000E+02  0.51100000000E-03 0. -1.
    9900012    2    1    2    0    0  0.98895567862E+00  0.44440419197E+00 -0.46635675760E+00  0.90007738569E+02  0.89999999918E+02 0.  0.
        -12    1    1    2    0    0 -0.98895567862E+00 -0.44440419197E+00  0.46635675760E+00  0.11802614310E+01  0.00000000000E+00 0.  1.
         11    1    3    3    0    0 -0.51051206953E+01 -0.84092484641E+01  0.58294585738E+00  0.98548233458E+01  0.51100000000E-03 0. -1.
        -11    1    3    3    0    0  0.20108375243E+02  0.20581240184E+02  0.31599993315E+02  0.42737498525E+02  0.51100000000E-03 0.  1.
         12    1    3    3    0    0 -0.14014298869E+02 -0.11727587528E+02 -0.32649295930E+02  0.37415416698E+02  0.00000000000E+00 0. -1.
</event>
<event>
 7    1  0.2232484E-015  0.9000775E+02  0.7816164E-02  0.1186339E+00
        -11   -1    0    0    0    0  0.00000000000E+00  0.00000000000E+00  0.45593999997E+02  0.45594000000E+02  0.51100000000E-03 0.  1.
         11   -1    0    0    0    0 -0.00000000000E+00 -0.00000000000E+00 -0.45593999997E+02  0.45594000000E+02  0.51100000000E-03 0. -1.
    9900012    2    1    2    0    0 -0.61211838584E+00 -0.39135173161E+00 -0.93013730882E+00  0.90007745574E+02  0.90000007016E+02 0.  0.
        -12    1    1    2    0    0  0.61211838584E+00  0.39135173161E+00  0.93013730882E+00  0.11802544257E+01  0.00000000000E+00 0.  1.
         11    1    3    3    0    0  0.25773234240E+02 -0.20450654166E+02  0.17889512605E+02  0.37450280646E+02  0.51100000000E-03 0. -1.
        -11    1    3    3    0    0 -0.22944183006E+00 -0.89506087588E+01  0.52587839315E+00  0.89689792648E+01  0.51100000000E-03 0.  1.
        -12    1    3    3    0    0 -0.26155910795E+02  0.29009911193E+02 -0.19345528307E+02  0.43588485663E+02  0.00000000000E+00 0.  1.
</event>
<event>
 7    1  0.2232484E-015  0.9000681E+02  0.7816164E-02  0.1186341E+00
        -11   -1    0    0    0    0  0.00000000000E+00  0.00000000000E+00  0.45593999997E+02  0.45594000000E+02  0.51100000000E-03 0. -1.
         11   -1    0    0    0    0 -0.00000000000E+00 -0.00000000000E+00 -0.45593999997E+02  0.45594000000E+02  0.51100000000E-03 0.  1.
    9900012    2    1    2    0    0  0.29739018977E+00  0.94148387058E+00  0.64837121168E+00  0.90006806522E+02  0.89999055563E+02 0.  0.
        -12    1    1    2    0    0 -0.29739018977E+00 -0.94148387058E+00 -0.64837121168E+00  0.11811934777E+01  0.00000000000E+00 0.  1.
         11    1    3    3    0    0  0.22694260381E+01  0.26746091147E+01  0.87151641818E+01  0.93945684007E+01  0.51100000000E-03 0. -1.
        -11    1    3    3    0    0  0.12141157463E+02 -0.33896965084E+02 -0.22697649696E+02  0.42562838820E+02  0.51100000000E-03 0.  1.
         12    1    3    3    0    0 -0.14113193312E+02  0.32163839840E+02  0.14630856726E+02  0.38049399302E+02  0.00000000000E+00 0. -1.
</event>
<event>
 7    1  0.3487017E-015  0.9000774E+02  0.7816164E-02  0.1186339E+00
        -11   -1    0    0    0    0  0.00000000000E+00  0.00000000000E+00  0.45593999997E+02  0.45594000000E+02  0.51100000000E-03 0.  1.
         11   -1    0    0    0    0 -0.00000000000E+00 -0.00000000000E+00 -0.45593999997E+02  0.45594000000E+02  0.51100000000E-03 0. -1.
    9900012    2    1    2    0    0 -0.30350698542E+00  0.11177053300E+01 -0.22723853544E+00  0.90007737721E+02  0.89999999059E+02 0.  0.
        -12    1    1    2    0    0  0.30350698542E+00 -0.11177053300E+01  0.22723853544E+00  0.11802622788E+01  0.00000000000E+00 0.  1.
         11    1    3    3    0    0  0.60436725538E+01 -0.29508226466E+01 -0.65063775285E+01  0.93576856665E+01  0.51100000000E-03 0. -1.
        -11    1    3    3    0    0  0.27891630392E+02 -0.17271128284E+02  0.19537231049E+02  0.38182958443E+02  0.51100000000E-03 0.  1.
         12    1    3    3    0    0 -0.34238809931E+02  0.21339656261E+02 -0.13258092056E+02  0.42467093611E+02  0.00000000000E+00 0. -1.
</event>
<event>
 7    1  0.2232484E-015  0.9000768E+02  0.7816164E-02  0.1186339E+00
        -11   -1    0    0    0    0  0.00000000000E+00  0.00000000000E+00  0.45593999997E+02  0.45594000000E+02  0.51100000000E-03 0.  1.
         11   -1    0    0    0    0 -0.00000000000E+00 -0.00000000000E+00 -0.45593999997E+02  0.45594000000E+02  0.51100000000E-03 0. -1.
    9900012    2    1    2    0    0 -0.48000010877E+00  0.10620968588E+01  0.18626852087E+00  0.90007684024E+02  0.89999944653E+02 0.  0.
        -12    1    1    2    0    0  0.48000010877E+00 -0.10620968588E+01 -0.18626852087E+00  0.11803159762E+01  0.00000000000E+00 0.  1.
         11    1    3    3    0    0 -0.27365898262E+02  0.19676260089E+02  0.14883044558E+02  0.36844980857E+02  0.51100000000E-03 0. -1.
        -11    1    3    3    0    0 -0.63320602751E+01  0.67184930823E+01 -0.15050554638E+01  0.93540541389E+01  0.51100000000E-03 0.  1.
        -12    1    3    3    0    0  0.33217958428E+02 -0.25332656312E+02 -0.13191720573E+02  0.43808649028E+02  0.00000000000E+00 0.  1.
</event>
<event>
 7    1  0.2232484E-015  0.9000772E+02  0.7816164E-02  0.1186339E+00
        -11   -1    0    0    0    0  0.00000000000E+00  0.00000000000E+00  0.45593999997E+02  0.45594000000E+02  0.51100000000E-03 0. -1.
         11   -1    0    0    0    0 -0.00000000000E+00 -0.00000000000E+00 -0.45593999997E+02  0.45594000000E+02  0.51100000000E-03 0.  1.
    9900012    2    1    2    0    0  0.74040274617E+00  0.86214872196E+00  0.31868957665E+00  0.90007720503E+02  0.89999981613E+02 0.  0.
        -12    1    1    2    0    0 -0.74040274617E+00 -0.86214872196E+00 -0.31868957665E+00  0.11802794972E+01  0.00000000000E+00 0.  1.
         11    1    3    3    0    0 -0.29911668269E+02  0.35662160183E+00  0.29200386306E+02  0.41803081684E+02  0.51100000000E-03 0. -1.
        -11    1    3    3    0    0  0.35736271610E+01  0.94124699584E+01 -0.68517065858E+01  0.12178312083E+02  0.51100000000E-03 0.  1.
        -12    1    3    3    0    0  0.27078443854E+02 -0.89069428383E+01 -0.22029990144E+02  0.36026326735E+02  0.00000000000E+00 0.  1.
</event>
<event>
 7    1  0.2232484E-015  0.9000761E+02  0.7816164E-02  0.1186339E+00
        -11   -1    0    0    0    0  0.00000000000E+00  0.00000000000E+00  0.45593999997E+02  0.45594000000E+02  0.51100000000E-03 0.  1.
         11   -1    0    0    0    0 -0.00000000000E+00 -0.00000000000E+00 -0.45593999997E+02  0.45594000000E+02  0.51100000000E-03 0. -1.
    9900012    2    1    2    0    0 -0.38140909131E+00 -0.78025587133E+00 -0.79940415356E+00  0.90007610606E+02  0.89999870266E+02 0.  0.
        -12    1    1    2    0    0  0.38140909131E+00  0.78025587133E+00  0.79940415356E+00  0.11803893936E+01  0.00000000000E+00 0.  1.
         11    1    3    3    0    0 -0.22575470554E+02  0.28282920600E+02  0.13245004604E+02  0.38535770598E+02  0.51100000000E-03 0. -1.
        -11    1    3    3    0    0  0.43883213991E+01  0.54103515614E+01 -0.10377109331E+02  0.12498546598E+02  0.51100000000E-03 0.  1.
         12    1    3    3    0    0  0.17805740063E+02 -0.34473528032E+02 -0.36672994263E+01  0.38973293411E+02  0.00000000000E+00 0. -1.
</event>
<event>
 7    1  0.2232484E-015  0.9000766E+02  0.7816164E-02  0.1186339E+00
        -11   -1    0    0    0    0  0.00000000000E+00  0.00000000000E+00  0.45593999997E+02  0.45594000000E+02  0.51100000000E-03 0. -1.
         11   -1    0    0    0    0 -0.00000000000E+00 -0.00000000000E+00 -0.45593999997E+02  0.45594000000E+02  0.51100000000E-03 0.  1.
    9900012    2    1    2    0    0  0.40460778594E+00 -0.12951682096E+00  0.11012347966E+01  0.90007661004E+02  0.89999921330E+02 0.  0.
        -12    1    1    2    0    0 -0.40460778594E+00  0.12951682096E+00 -0.11012347966E+01  0.11803389956E+01  0.00000000000E+00 0.  1.
         11    1    3    3    0    0 -0.21014267944E+02 -0.24709778491E+02  0.18663863279E+02  0.37423420515E+02  0.51100000000E-03 0. -1.
        -11    1    3    3    0    0  0.17532317237E+02 -0.47784776009E+01 -0.13617001230E+02  0.22707679728E+02  0.51100000000E-03 0.  1.
        -12    1    3    3    0    0  0.38865584935E+01  0.29358739271E+02 -0.39456272528E+01  0.29876560761E+02  0.00000000000E+00 0.  1.
</event>
<event>
 7    1  0.2232484E-015  0.9000784E+02  0.7816164E-02  0.1186339E+00
        -11   -1    0    0    0    0  0.00000000000E+00  0.00000000000E+00  0.45593999997E+02  0.45594000000E+02  0.51100000000E-03 0.  1.
         11   -1    0    0    0    0 -0.00000000000E+00 -0.00000000000E+00 -0.45593999997E+02  0.45594000000E+02  0.51100000000E-03 0. -1.
    9900012    2    1    2    0    0 -0.47679683587E+00 -0.46079183116E+00 -0.97627838977E+00  0.90007837372E+02  0.90000100025E+02 0.  0.
        -12    1    1    2    0    0  0.47679683587E+00  0.46079183116E+00  0.97627838977E+00  0.11801626281E+01  0.00000000000E+00 0.  1.
         11    1    3    3    0    0  0.26429757029E+02 -0.96083223626E+01 -0.31979781431E+02  0.42585893626E+02  0.51100000000E-03 0. -1.
        -11    1    3    3    0    0 -0.89443563751E+01  0.41584991551E+01 -0.14750460202E+01  0.99734842062E+01  0.51100000000E-03 0.  1.
        -12    1    3    3    0    0 -0.17962197490E+02  0.49890313763E+01  0.32478549062E+02  0.37448459540E+02  0.00000000000E+00 0.  1.
</event>
<event>
 7    1  0.2232484E-015  0.9000777E+02  0.7816164E-02  0.1186339E+00
        -11   -1    0    0    0    0  0.00000000000E+00  0.00000000000E+00  0.45593999997E+02  0.45594000000E+02  0.51100000000E-03 0.  1.
         11   -1    0    0    0    0 -0.00000000000E+00 -0.00000000000E+00 -0.45593999997E+02  0.45594000000E+02  0.51100000000E-03 0. -1.
    9900012    2    1    2    0    0  0.47009466068E+00 -0.60154423189E+00 -0.90005736443E+00  0.90007767941E+02  0.90000029678E+02 0.  0.
        -12    1    1    2    0    0 -0.47009466068E+00  0.60154423189E+00  0.90005736443E+00  0.11802320586E+01  0.00000000000E+00 0.  1.
         11    1    3    3    0    0 -0.13084737131E+01 -0.11277773949E+01 -0.97582627466E+01  0.99099786782E+01  0.51100000000E-03 0. -1.
        -11    1    3    3    0    0  0.94350457436E+01 -0.38298924830E+02  0.92871102551E+01  0.40522563449E+02  0.51100000000E-03 0.  1.
         12    1    3    3    0    0 -0.76564773698E+01  0.38825157993E+02 -0.42890487290E+00  0.39575225815E+02  0.00000000000E+00 0. -1.
</event>
<event>
 7    1  0.2232484E-015  0.9000763E+02  0.7816164E-02  0.1186339E+00
        -11   -1    0    0    0    0  0.00000000000E+00  0.00000000000E+00  0.45593999997E+02  0.45594000000E+02  0.51100000000E-03 0.  1.
         11   -1    0    0    0    0 -0.00000000000E+00 -0.00000000000E+00 -0.45593999997E+02  0.45594000000E+02  0.51100000000E-03 0. -1.
    9900012    2    1    2    0    0 -0.92912378339E-01 -0.84176856480E+00  0.82223196764E+00  0.90007630382E+02  0.89999890303E+02 0.  0.
        -12    1    1    2    0    0  0.92912378339E-01  0.84176856480E+00 -0.82223196764E+00  0.11803696181E+01  0.00000000000E+00 0.  1.
         11    1    3    3    0    0  0.17670893437E+02  0.35489815205E+02 -0.63413790835E+01  0.40149726613E+02  0.51100000000E-03 0. -1.
        -11    1    3    3    0    0 -0.54459145472E+01 -0.24620470236E+01  0.12086378009E+02  0.13483330243E+02  0.51100000000E-03 0.  1.
        -12    1    3    3    0    0 -0.12317891268E+02 -0.33869536746E+02 -0.49227669579E+01  0.36374573526E+02  0.00000000000E+00 0.  1.
</event>
<event>
 7    1  0.2232484E-015  0.9000784E+02  0.7816164E-02  0.1186339E+00
        -11   -1    0    0    0    0  0.00000000000E+00  0.00000000000E+00  0.45593999997E+02  0.45594000000E+02  0.51100000000E-03 0. -1.
         11   -1    0    0    0    0 -0.00000000000E+00 -0.00000000000E+00 -0.45593999997E+02  0.45594000000E+02  0.51100000000E-03 0.  1.
    9900012    2    1    2    0    0 -0.15557076254E-01  0.69857343279E+00  0.95106307869E+00  0.90007844145E+02  0.90000106887E+02 0.  0.
        -12    1    1    2    0    0  0.15557076254E-01 -0.69857343279E+00 -0.95106307869E+00  0.11801558555E+01  0.00000000000E+00 0.  1.
         11    1    3    3    0    0  0.34855850283E+02 -0.23962087698E+01 -0.13544799734E+02  0.37471772250E+02  0.51100000000E-03 0. -1.
        -11    1    3    3    0    0  0.25363515714E+01  0.13510298789E+01 -0.82396657816E+01  0.87264227196E+01  0.51100000000E-03 0.  1.
        -12    1    3    3    0    0 -0.37407758931E+02  0.17437523236E+01  0.22735528594E+02  0.43809649175E+02  0.00000000000E+00 0.  1.
</event>
<event>
 7    1  0.2232484E-015  0.9000770E+02  0.7816164E-02  0.1186339E+00
        -11   -1    0    0    0    0  0.00000000000E+00  0.00000000000E+00  0.45593999997E+02  0.45594000000E+02  0.51100000000E-03 0. -1.
         11   -1    0    0    0    0 -0.00000000000E+00 -0.00000000000E+00 -0.45593999997E+02  0.45594000000E+02  0.51100000000E-03 0.  1.
    9900012    2    1    2    0    0 -0.55555230169E+00  0.10308063833E+01 -0.14801503049E+00  0.90007699780E+02  0.89999960617E+02 0.  0.
        -12    1    1    2    0    0  0.55555230169E+00 -0.10308063833E+01  0.14801503049E+00  0.11803002199E+01  0.00000000000E+00 0.  1.
         11    1    3    3    0    0  0.16930156750E+02 -0.34211044382E+02 -0.10450292300E+02  0.39575679081E+02  0.51100000000E-03 0. -1.
        -11    1    3    3    0    0 -0.13926646849E+02  0.26427189988E-01  0.39043198952E+01  0.14463606223E+02  0.51100000000E-03 0.  1.
        -12    1    3    3    0    0 -0.35590622027E+01  0.35215423576E+02  0.63979573739E+01  0.35968414476E+02  0.00000000000E+00 0.  1.
</event>
<event>
 7    1  0.2232484E-015  0.9000784E+02  0.7816164E-02  0.1186339E+00
        -11   -1    0    0    0    0  0.00000000000E+00  0.00000000000E+00  0.45593999997E+02  0.45594000000E+02  0.51100000000E-03 0.  1.
         11   -1    0    0    0    0 -0.00000000000E+00 -0.00000000000E+00 -0.45593999997E+02  0.45594000000E+02  0.51100000000E-03 0. -1.
    9900012    2    1    2    0    0  0.15359589308E+00 -0.47079992294E+00 -0.10712305491E+01  0.90007839352E+02  0.90000102031E+02 0.  0.
        -12    1    1    2    0    0 -0.15359589308E+00  0.47079992294E+00  0.10712305491E+01  0.11801606481E+01  0.00000000000E+00 0.  1.
         11    1    3    3    0    0 -0.12721008134E+02  0.10459427544E+00 -0.35937221118E+02  0.38122419255E+02  0.51100000000E-03 0. -1.
        -11    1    3    3    0    0 -0.52071051829E+01 -0.34967665370E+01 -0.49946488935E+01  0.80179697200E+01  0.51100000000E-03 0.  1.
        -12    1    3    3    0    0  0.18081709210E+02  0.29213723386E+01  0.39860639462E+02  0.43867450377E+02  0.00000000000E+00 0.  1.
</event>
<event>
 7    1  0.2232484E-015  0.9000747E+02  0.7816164E-02  0.1186340E+00
        -11   -1    0    0    0    0  0.00000000000E+00  0.00000000000E+00  0.45593999997E+02  0.45594000000E+02  0.51100000000E-03 0.  1.
         11   -1    0    0    0    0 -0.00000000000E+00 -0.00000000000E+00 -0.45593999997E+02  0.45594000000E+02  0.51100000000E-03 0. -1.
    9900012    2    1    2    0    0 -0.10723100446E+01 -0.43253467958E+00  0.23814204960E+00  0.90007471848E+02  0.89999729676E+02 0.  0.
        -12    1    1    2    0    0  0.10723100446E+01  0.43253467958E+00 -0.23814204960E+00  0.11805281515E+01  0.00000000000E+00 0.  1.
         11    1    3    3    0    0 -0.16152903550E+01 -0.95144274659E-03 -0.79224705163E+01  0.80854624591E+01  0.51100000000E-03 0. -1.
        -11    1    3    3    0    0 -0.34968916011E+02  0.17104847374E+02  0.15022401723E+02  0.41726172176E+02  0.51100000000E-03 0.  1.
         12    1    3    3    0    0  0.35511896321E+02 -0.17536430610E+02 -0.68617891571E+01  0.40195837214E+02  0.00000000000E+00 0. -1.
</event>
<event>
 7    1  0.2232484E-015  0.9000763E+02  0.7816164E-02  0.1186339E+00
        -11   -1    0    0    0    0  0.00000000000E+00  0.00000000000E+00  0.45593999997E+02  0.45594000000E+02  0.51100000000E-03 0.  1.
         11   -1    0    0    0    0 -0.00000000000E+00 -0.00000000000E+00 -0.45593999997E+02  0.45594000000E+02  0.51100000000E-03 0. -1.
    9900012    2    1    2    0    0 -0.44994025848E+00  0.15946086481E+00 -0.10795361718E+01  0.90007630418E+02  0.89999890340E+02 0.  0.
        -12    1    1    2    0    0  0.44994025848E+00 -0.15946086481E+00  0.10795361718E+01  0.11803695819E+01  0.00000000000E+00 0.  1.
         11    1    3    3    0    0  0.20340479776E+02 -0.24795669299E+02 -0.24073194959E+02  0.40100860954E+02  0.51100000000E-03 0. -1.
        -11    1    3    3    0    0 -0.65972930732E+01  0.47080454777E+00 -0.63291225853E+01  0.91544374910E+01  0.51100000000E-03 0.  1.
        -12    1    3    3    0    0 -0.14193126961E+02  0.24484325616E+02  0.29322781373E+02  0.40752331973E+02  0.00000000000E+00 0.  1.
</event>
<event>
 7    1  0.2232484E-015  0.9000772E+02  0.7816164E-02  0.1186339E+00
        -11   -1    0    0    0    0  0.00000000000E+00  0.00000000000E+00  0.45593999997E+02  0.45594000000E+02  0.51100000000E-03 0. -1.
         11   -1    0    0    0    0 -0.00000000000E+00 -0.00000000000E+00 -0.45593999997E+02  0.45594000000E+02  0.51100000000E-03 0.  1.
    9900012    2    1    2    0    0 -0.90377912123E+00 -0.56232179695E+00  0.50994095868E+00  0.90007719404E+02  0.89999980500E+02 0.  0.
        -12    1    1    2    0    0  0.90377912123E+00  0.56232179695E+00 -0.50994095868E+00  0.11802805957E+01  0.00000000000E+00 0.  1.
         11    1    3    3    0    0  0.27538674608E+02  0.28358989633E+02  0.94959233534E+01  0.40654439521E+02  0.51100000000E-03 0. -1.
        -11    1    3    3    0    0 -0.79977439583E+01  0.45976755860E+01 -0.25125825687E+01  0.95611505920E+01  0.51100000000E-03 0.  1.
        -12    1    3    3    0    0 -0.20444709771E+02 -0.33518987016E+02 -0.64733998260E+01  0.39792129291E+02  0.00000000000E+00 0.  1.
</event>
<event>
 7    1  0.2232484E-015  0.9000768E+02  0.7816164E-02  0.1186339E+00
        -11   -1    0    0    0    0  0.00000000000E+00  0.00000000000E+00  0.45593999997E+02  0.45594000000E+02  0.51100000000E-03 0.  1.
         11   -1    0    0    0    0 -0.00000000000E+00 -0.00000000000E+00 -0.45593999997E+02  0.45594000000E+02  0.51100000000E-03 0. -1.
    9900012    2    1    2    0    0  0.33994934884E+00 -0.65388904594E+00 -0.92196133553E+00  0.90007682607E+02  0.89999943217E+02 0.  0.
        -12    1    1    2    0    0 -0.33994934884E+00  0.65388904594E+00  0.92196133553E+00  0.11803173931E+01  0.00000000000E+00 0.  1.
         11    1    3    3    0    0  0.75460411011E+01  0.47863322697E+01 -0.52000599778E+00  0.89510959884E+01  0.51100000000E-03 0. -1.
        -11    1    3    3    0    0  0.22156241154E+01  0.36888771728E+02  0.52449410916E+01  0.37325592790E+02  0.51100000000E-03 0.  1.
         12    1    3    3    0    0 -0.94217158676E+01 -0.42328993043E+02 -0.56468964293E+01  0.43730993829E+02  0.00000000000E+00 0. -1.
</event>
<event>
 7    1  0.2232484E-015  0.9000775E+02  0.7816164E-02  0.1186339E+00
        -11   -1    0    0    0    0  0.00000000000E+00  0.00000000000E+00  0.45593999997E+02  0.45594000000E+02  0.51100000000E-03 0. -1.
         11   -1    0    0    0    0 -0.00000000000E+00 -0.00000000000E+00 -0.45593999997E+02  0.45594000000E+02  0.51100000000E-03 0.  1.
    9900012    2    1    2    0    0  0.78430295463E+00  0.57346783924E-01  0.88009480528E+00  0.90007751448E+02  0.90000012967E+02 0.  0.
        -12    1    1    2    0    0 -0.78430295463E+00 -0.57346783924E-01 -0.88009480528E+00  0.11802485520E+01  0.00000000000E+00 0.  1.
         11    1    3    3    0    0 -0.15041136933E+02 -0.11828534686E+02  0.35241404246E+02  0.40101204552E+02  0.51100000000E-03 0. -1.
        -11    1    3    3    0    0  0.55311700056E+01  0.98292181935E+01  0.25230541145E+01  0.11557386134E+02  0.51100000000E-03 0.  1.
        -12    1    3    3    0    0  0.10294269882E+02  0.20566632764E+01 -0.36884363555E+02  0.38349160762E+02  0.00000000000E+00 0.  1.
</event>
<event>
 7    1  0.2232484E-015  0.9000769E+02  0.7816164E-02  0.1186339E+00
        -11   -1    0    0    0    0  0.00000000000E+00  0.00000000000E+00  0.45593999997E+02  0.45594000000E+02  0.51100000000E-03 0.  1.
         11   -1    0    0    0    0 -0.00000000000E+00 -0.00000000000E+00 -0.45593999997E+02  0.45594000000E+02  0.51100000000E-03 0. -1.
    9900012    2    1    2    0    0  0.10936547474E+01 -0.24352171973E+00 -0.37114209147E+00  0.90007690724E+02  0.89999951442E+02 0.  0.
        -12    1    1    2    0    0 -0.10936547474E+01  0.24352171973E+00  0.37114209147E+00  0.11803092758E+01  0.00000000000E+00 0.  1.
         11    1    3    3    0    0 -0.14801086339E+01  0.10225661082E+02  0.50273509638E+01  0.11490392688E+02  0.51100000000E-03 0. -1.
        -11    1    3    3    0    0 -0.17457864545E+02 -0.31546810846E+02  0.18822835766E+02  0.40672809782E+02  0.51100000000E-03 0.  1.
         12    1    3    3    0    0  0.20031627927E+02  0.21077628044E+02 -0.24221328821E+02  0.37844488254E+02  0.00000000000E+00 0. -1.
</event>
<event>
 7    1  0.2232484E-015  0.9000772E+02  0.7816164E-02  0.1186339E+00
        -11   -1    0    0    0    0  0.00000000000E+00  0.00000000000E+00  0.45593999997E+02  0.45594000000E+02  0.51100000000E-03 0.  1.
         11   -1    0    0    0    0 -0.00000000000E+00 -0.00000000000E+00 -0.45593999997E+02  0.45594000000E+02  0.51100000000E-03 0. -1.
    9900012    2    1    2    0    0  0.37244185945E+00  0.52807133138E+00 -0.98766574769E+00  0.90007722109E+02  0.89999983241E+02 0.  0.
        -12    1    1    2    0    0 -0.37244185945E+00 -0.52807133138E+00  0.98766574769E+00  0.11802778905E+01  0.00000000000E+00 0.  1.
         11    1    3    3    0    0 -0.10432082211E+01 -0.34225234359E+01  0.13655516102E+02  0.14116482223E+02  0.51100000000E-03 0. -1.
        -11    1    3    3    0    0  0.24779270854E+02  0.20024242884E+01  0.21461557225E+02  0.32842356887E+02  0.51100000000E-03 0.  1.
         12    1    3    3    0    0 -0.23363620774E+02  0.19481704790E+01 -0.36104739075E+02  0.43048883000E+02  0.00000000000E+00 0. -1.
</event>
<event>
 7    1  0.2232484E-015  0.9000781E+02  0.7816164E-02  0.1186339E+00
        -11   -1    0    0    0    0  0.00000000000E+00  0.00000000000E+00  0.45593999997E+02  0.45594000000E+02  0.51100000000E-03 0. -1.
         11   -1    0    0    0    0 -0.00000000000E+00 -0.00000000000E+00 -0.45593999997E+02  0.45594000000E+02  0.51100000000E-03 0.  1.
    9900012    2    1    2    0    0 -0.59571535139E+00  0.63631929678E+00  0.79566077109E+00  0.90007807181E+02  0.90000069436E+02 0.  0.
        -12    1    1    2    0    0  0.59571535139E+00 -0.63631929678E+00 -0.79566077109E+00  0.11801928190E+01  0.00000000000E+00 0.  1.
         11    1    3    3    0    0  0.99896986728E+01  0.10217118249E+01  0.98620037499E+01  0.14074696901E+02  0.51100000000E-03 0. -1.
        -11    1    3    3    0    0 -0.42242481707E+02  0.36035815592E+01 -0.11515105046E+02  0.43931887113E+02  0.51100000000E-03 0.  1.
         12    1    3    3    0    0  0.31657067683E+02 -0.39889740874E+01  0.24487620674E+01  0.32001223167E+02  0.00000000000E+00 0. -1.
</event>
<event>
 7    1  0.2232484E-015  0.9000775E+02  0.7816164E-02  0.1186339E+00
        -11   -1    0    0    0    0  0.00000000000E+00  0.00000000000E+00  0.45593999997E+02  0.45594000000E+02  0.51100000000E-03 0. -1.
         11   -1    0    0    0    0 -0.00000000000E+00 -0.00000000000E+00 -0.45593999997E+02  0.45594000000E+02  0.51100000000E-03 0.  1.
    9900012    2    1    2    0    0  0.17844102603E+00 -0.14543263385E+00  0.11575801910E+01  0.90007752674E+02  0.90000014210E+02 0.  0.
        -12    1    1    2    0    0 -0.17844102603E+00  0.14543263385E+00 -0.11575801910E+01  0.11802473255E+01  0.00000000000E+00 0.  1.
         11    1    3    3    0    0 -0.23948292410E+02 -0.18615143520E+02  0.22119670668E+02  0.37540965735E+02  0.51100000000E-03 0. -1.
        -11    1    3    3    0    0  0.24379847788E+01 -0.93411066007E+01  0.26658985435E+01  0.10015341113E+02  0.51100000000E-03 0.  1.
        -12    1    3    3    0    0  0.21688748657E+02  0.27810817486E+02 -0.23627989021E+02  0.42451445826E+02  0.00000000000E+00 0.  1.
</event>
<event>
 7    1  0.2232484E-015  0.9000771E+02  0.7816164E-02  0.1186339E+00
        -11   -1    0    0    0    0  0.00000000000E+00  0.00000000000E+00  0.45593999997E+02  0.45594000000E+02  0.51100000000E-03 0. -1.
         11   -1    0    0    0    0 -0.00000000000E+00 -0.00000000000E+00 -0.45593999997E+02  0.45594000000E+02  0.51100000000E-03 0.  1.
    9900012    2    1    2    0    0 -0.28983238088E-01 -0.36953232775E-01  0.11793527347E+01  0.90007712559E+02  0.89999973565E+02 0.  0.
        -12    1    1    2    0    0  0.28983238088E-01  0.36953232775E-01 -0.11793527347E+01  0.11802874406E+01  0.00000000000E+00 0.  1.
         11    1    3    3    0    0  0.34609340345E+02 -0.13020535006E+02 -0.22282703845E+02  0.43172441000E+02  0.51100000000E-03 0. -1.
        -11    1    3    3    0    0 -0.14004700357E+02 -0.98405612147E+00  0.24707894754E+01  0.14254992089E+02  0.51100000000E-03 0.  1.
        -12    1    3    3    0    0 -0.20633623226E+02  0.13967637894E+02  0.20991267104E+02  0.32580279471E+02  0.00000000000E+00 0.  1.
</event>
<event>
 7    1  0.2232484E-015  0.9000776E+02  0.7816164E-02  0.1186339E+00
        -11   -1    0    0    0    0  0.00000000000E+00  0.00000000000E+00  0.45593999997E+02  0.45594000000E+02  0.51100000000E-03 0. -1.
         11   -1    0    0    0    0 -0.00000000000E+00 -0.00000000000E+00 -0.45593999997E+02  0.45594000000E+02  0.51100000000E-03 0.  1.
    9900012    2    1    2    0    0  0.44719820719E+00  0.10921526545E+01 -0.13835892903E-01  0.90007756343E+02  0.90000017927E+02 0.  0.
        -12    1    1    2    0    0 -0.44719820719E+00 -0.10921526545E+01  0.13835892903E-01  0.11802436567E+01  0.00000000000E+00 0.  1.
         11    1    3    3    0    0  0.38330914537E+02  0.43992807884E+01 -0.14878423705E+01  0.38611220596E+02  0.51100000000E-03 0. -1.
        -11    1    3    3    0    0  0.30710183887E+01  0.20866492094E+01  0.87016088106E+01  0.94606159959E+01  0.51100000000E-03 0.  1.
        -12    1    3    3    0    0 -0.40954734719E+02 -0.53937773433E+01 -0.72276023331E+01  0.41935919752E+02  0.00000000000E+00 0.  1.
</event>
<event>
 7    1  0.2232484E-015  0.9000723E+02  0.7816164E-02  0.1186340E+00
        -11   -1    0    0    0    0  0.00000000000E+00  0.00000000000E+00  0.45593999997E+02  0.45594000000E+02  0.51100000000E-03 0. -1.
         11   -1    0    0    0    0 -0.00000000000E+00 -0.00000000000E+00 -0.45593999997E+02  0.45594000000E+02  0.51100000000E-03 0.  1.
    9900012    2    1    2    0    0  0.54267403172E+00 -0.93583316762E+00  0.47322120164E+00  0.90007230282E+02  0.89999484920E+02 0.  0.
        -12    1    1    2    0    0 -0.54267403172E+00  0.93583316762E+00 -0.47322120164E+00  0.11807697185E+01  0.00000000000E+00 0.  1.
         11    1    3    3    0    0  0.73832619099E+01 -0.83121978685E+00  0.71547890071E+01  0.10314770417E+02  0.51100000000E-03 0. -1.
        -11    1    3    3    0    0  0.72709774639E+01  0.32451496492E+02  0.16684844661E+02  0.37206864682E+02  0.51100000000E-03 0.  1.
         12    1    3    3    0    0 -0.14111565342E+02 -0.32556109873E+02 -0.23366412466E+02  0.42485595182E+02  0.00000000000E+00 0. -1.
</event>
<event>
 7    1  0.2232484E-015  0.9000782E+02  0.7816164E-02  0.1186339E+00
        -11   -1    0    0    0    0  0.00000000000E+00  0.00000000000E+00  0.45593999997E+02  0.45594000000E+02  0.51100000000E-03 0.  1.
         11   -1    0    0    0    0 -0.00000000000E+00 -0.00000000000E+00 -0.45593999997E+02  0.45594000000E+02  0.51100000000E-03 0. -1.
    9900012    2    1    2    0    0 -0.12398612581E+00  0.11550012758E+01 -0.20840917812E+00  0.90007815738E+02  0.90000078106E+02 0.  0.
        -12    1    1    2    0    0  0.12398612581E+00 -0.11550012758E+01  0.20840917812E+00  0.11801842619E+01  0.00000000000E+00 0.  1.
         11    1    3    3    0    0  0.44820309864E+01  0.34383232831E+00 -0.75818578426E+01  0.88142720085E+01  0.51100000000E-03 0. -1.
        -11    1    3    3    0    0 -0.35991301112E+02 -0.20015305574E+01 -0.18412069737E+02  0.40476958786E+02  0.51100000000E-03 0.  1.
         12    1    3    3    0    0  0.31385283999E+02  0.28126995049E+01  0.25785518402E+02  0.40716584944E+02  0.00000000000E+00 0. -1.
</event>
<event>
 7    1  0.2232484E-015  0.9000766E+02  0.7816164E-02  0.1186339E+00
        -11   -1    0    0    0    0  0.00000000000E+00  0.00000000000E+00  0.45593999997E+02  0.45594000000E+02  0.51100000000E-03 0.  1.
         11   -1    0    0    0    0 -0.00000000000E+00 -0.00000000000E+00 -0.45593999997E+02  0.45594000000E+02  0.51100000000E-03 0. -1.
    9900012    2    1    2    0    0 -0.20516700695E+00  0.10989654860E+01 -0.37867217033E+00  0.90007656299E+02  0.89999916562E+02 0.  0.
        -12    1    1    2    0    0  0.20516700695E+00 -0.10989654860E+01  0.37867217033E+00  0.11803437011E+01  0.00000000000E+00 0.  1.
         11    1    3    3    0    0  0.17659089332E+02 -0.19327710802E+01 -0.88982423092E+00  0.17786816115E+02  0.51100000000E-03 0. -1.
        -11    1    3    3    0    0  0.20478502527E+02  0.16951161220E+02 -0.12539253937E+02  0.29392921290E+02  0.51100000000E-03 0.  1.
         12    1    3    3    0    0 -0.38342758865E+02 -0.13919424653E+02  0.13050405997E+02  0.42827918894E+02  0.00000000000E+00 0. -1.
</event>
<event>
 7    1  0.2232484E-015  0.9000778E+02  0.7816164E-02  0.1186339E+00
        -11   -1    0    0    0    0  0.00000000000E+00  0.00000000000E+00  0.45593999997E+02  0.45594000000E+02  0.51100000000E-03 0.  1.
         11   -1    0    0    0    0 -0.00000000000E+00 -0.00000000000E+00 -0.45593999997E+02  0.45594000000E+02  0.51100000000E-03 0. -1.
    9900012    2    1    2    0    0 -0.10083330496E+01 -0.79166316890E-01 -0.60819955668E+00  0.90007784111E+02  0.90000046061E+02 0.  0.
        -12    1    1    2    0    0  0.10083330496E+01  0.79166316890E-01  0.60819955668E+00  0.11802158893E+01  0.00000000000E+00 0.  1.
         11    1    3    3    0    0 -0.22132665496E+02  0.25187713636E+02 -0.15055747899E+02  0.36755290031E+02  0.51100000000E-03 0. -1.
        -11    1    3    3    0    0 -0.74449126033E+01  0.33727157143E+01  0.94468404701E+01  0.12491786505E+02  0.51100000000E-03 0.  1.
        -12    1    3    3    0    0  0.28569245050E+02 -0.28639595668E+02  0.50007078725E+01  0.40760707574E+02  0.00000000000E+00 0.  1.
</event>
<event>
 7    1  0.2232484E-015  0.9000777E+02  0.7816164E-02  0.1186339E+00
        -11   -1    0    0    0    0  0.00000000000E+00  0.00000000000E+00  0.45593999997E+02  0.45594000000E+02  0.51100000000E-03 0.  1.
         11   -1    0    0    0    0 -0.00000000000E+00 -0.00000000000E+00 -0.45593999997E+02  0.45594000000E+02  0.51100000000E-03 0. -1.
    9900012    2    1    2    0    0  0.31636610988E+00 -0.38330042621E+00 -0.10704870801E+01  0.90007767260E+02  0.90000028988E+02 0.  0.
        -12    1    1    2    0    0 -0.31636610988E+00  0.38330042621E+00  0.10704870801E+01  0.11802327401E+01  0.00000000000E+00 0.  1.
         11    1    3    3    0    0 -0.49625068628E+01 -0.79446136311E+01 -0.10863678032E-01  0.93671488935E+01  0.51100000000E-03 0. -1.
        -11    1    3    3    0    0  0.16570467008E+02 -0.33354587184E+02 -0.66360309283E+01  0.37830487306E+02  0.51100000000E-03 0.  1.
         12    1    3    3    0    0 -0.11291594036E+02  0.40915900389E+02  0.55764075263E+01  0.42810131060E+02  0.00000000000E+00 0. -1.
</event>
<event>
 7    1  0.2232484E-015  0.9000770E+02  0.7816164E-02  0.1186339E+00
        -11   -1    0    0    0    0  0.00000000000E+00  0.00000000000E+00  0.45593999997E+02  0.45594000000E+02  0.51100000000E-03 0. -1.
         11   -1    0    0    0    0 -0.00000000000E+00 -0.00000000000E+00 -0.45593999997E+02  0.45594000000E+02  0.51100000000E-03 0.  1.
    9900012    2    1    2    0    0 -0.10182814762E+01 -0.51706942629E+00 -0.29807331166E+00  0.90007701031E+02  0.89999961885E+02 0.  0.
        -12    1    1    2    0    0  0.10182814762E+01  0.51706942629E+00  0.29807331166E+00  0.11802989687E+01  0.00000000000E+00 0.  1.
         11    1    3    3    0    0 -0.47466581978E+01 -0.21693897912E+02  0.33796683499E+01  0.22462816588E+02  0.51100000000E-03 0. -1.
        -11    1    3    3    0    0 -0.89272359025E+01 -0.12007647280E+02 -0.22752001633E+02  0.27231098263E+02  0.51100000000E-03 0.  1.
        -12    1    3    3    0    0  0.12655612624E+02  0.33184475765E+02  0.19074259971E+02  0.40313786180E+02  0.00000000000E+00 0.  1.
</event>
<event>
 7    1  0.2232484E-015  0.9000767E+02  0.7816164E-02  0.1186339E+00
        -11   -1    0    0    0    0  0.00000000000E+00  0.00000000000E+00  0.45593999997E+02  0.45594000000E+02  0.51100000000E-03 0.  1.
         11   -1    0    0    0    0 -0.00000000000E+00 -0.00000000000E+00 -0.45593999997E+02  0.45594000000E+02  0.51100000000E-03 0. -1.
    9900012    2    1    2    0    0 -0.35230825069E+00 -0.74474289399E+00 -0.84523413347E+00  0.90007667919E+02  0.89999928335E+02 0.  0.
        -12    1    1    2    0    0  0.35230825069E+00  0.74474289399E+00  0.84523413347E+00  0.11803320813E+01  0.00000000000E+00 0.  1.
         11    1    3    3    0    0 -0.17272926266E+02 -0.33167753328E+01 -0.11161897739E+02  0.20831297170E+02  0.51100000000E-03 0. -1.
        -11    1    3    3    0    0  0.13644277725E+02  0.32751460098E+01 -0.27679353234E+02  0.31032877594E+02  0.51100000000E-03 0.  1.
        -12    1    3    3    0    0  0.32763402898E+01 -0.70311357104E+00  0.37996016839E+02  0.38143493155E+02  0.00000000000E+00 0.  1.
</event>
<event>
 7    1  0.2232484E-015  0.9000775E+02  0.7816164E-02  0.1186339E+00
        -11   -1    0    0    0    0  0.00000000000E+00  0.00000000000E+00  0.45593999997E+02  0.45594000000E+02  0.51100000000E-03 0.  1.
         11   -1    0    0    0    0 -0.00000000000E+00 -0.00000000000E+00 -0.45593999997E+02  0.45594000000E+02  0.51100000000E-03 0. -1.
    9900012    2    1    2    0    0  0.36552085223E+00 -0.66424674367E+00 -0.90451918175E+00  0.90007752492E+02  0.90000014025E+02 0.  0.
        -12    1    1    2    0    0 -0.36552085223E+00  0.66424674367E+00  0.90451918175E+00  0.11802475080E+01  0.00000000000E+00 0.  1.
         11    1    3    3    0    0  0.14952327354E+02  0.23528304498E+02 -0.31877044017E+02  0.42347362862E+02  0.51100000000E-03 0. -1.
        -11    1    3    3    0    0  0.39101505299E+01 -0.75004105227E+01  0.74953248178E+00  0.84915978696E+01  0.51100000000E-03 0.  1.
        -12    1    3    3    0    0 -0.18496957031E+02 -0.16692140719E+02  0.30222992353E+02  0.39168791761E+02  0.00000000000E+00 0.  1.
</event>
<event>
 7    1  0.2232484E-015  0.9000771E+02  0.7816164E-02  0.1186339E+00
        -11   -1    0    0    0    0  0.00000000000E+00  0.00000000000E+00  0.45593999997E+02  0.45594000000E+02  0.51100000000E-03 0. -1.
         11   -1    0    0    0    0 -0.00000000000E+00 -0.00000000000E+00 -0.45593999997E+02  0.45594000000E+02  0.51100000000E-03 0.  1.
    9900012    2    1    2    0    0  0.10550861154E+01  0.52887116029E+00  0.13246434184E-01  0.90007708984E+02  0.89999969942E+02 0.  0.
        -12    1    1    2    0    0 -0.10550861154E+01 -0.52887116029E+00 -0.13246434184E-01  0.11802910163E+01  0.00000000000E+00 0.  1.
         11    1    3    3    0    0 -0.11914650844E+02  0.30297873567E+02 -0.58359147456E+01  0.33075337467E+02  0.51100000000E-03 0. -1.
        -11    1    3    3    0    0 -0.88972132264E+00  0.91262479745E+01 -0.91956425970E+01  0.12986140657E+02  0.51100000000E-03 0.  1.
        -12    1    3    3    0    0  0.13859458282E+02 -0.38895250381E+02  0.15044803777E+02  0.43946230860E+02  0.00000000000E+00 0.  1.
</event>
<event>
 7    1  0.2232484E-015  0.9000792E+02  0.7816164E-02  0.1186339E+00
        -11   -1    0    0    0    0  0.00000000000E+00  0.00000000000E+00  0.45593999997E+02  0.45594000000E+02  0.51100000000E-03 0.  1.
         11   -1    0    0    0    0 -0.00000000000E+00 -0.00000000000E+00 -0.45593999997E+02  0.45594000000E+02  0.51100000000E-03 0. -1.
    9900012    2    1    2    0    0 -0.66160565464E+00 -0.83249445058E+00 -0.51168605772E+00  0.90007918785E+02  0.90000182513E+02 0.  0.
        -12    1    1    2    0    0  0.66160565464E+00  0.83249445058E+00  0.51168605772E+00  0.11800812151E+01  0.00000000000E+00 0.  1.
         11    1    3    3    0    0 -0.23716427862E+02  0.18880298365E+02 -0.17932660024E+02  0.35220944233E+02  0.51100000000E-03 0. -1.
        -11    1    3    3    0    0 -0.52780216817E+01  0.95880777281E+01  0.15814166084E+01  0.11058464005E+02  0.51100000000E-03 0.  1.
        -12    1    3    3    0    0  0.28332843889E+02 -0.29300870543E+02  0.15839557358E+02  0.43728510548E+02  0.00000000000E+00 0.  1.
</event>
<event>
 7    1  0.2232484E-015  0.9000748E+02  0.7816164E-02  0.1186340E+00
        -11   -1    0    0    0    0  0.00000000000E+00  0.00000000000E+00  0.45593999997E+02  0.45594000000E+02  0.51100000000E-03 0. -1.
         11   -1    0    0    0    0 -0.00000000000E+00 -0.00000000000E+00 -0.45593999997E+02  0.45594000000E+02  0.51100000000E-03 0.  1.
    9900012    2    1    2    0    0 -0.11374366842E+01 -0.10192620493E+00  0.29912655750E+00  0.90007479835E+02  0.89999737769E+02 0.  0.
        -12    1    1    2    0    0  0.11374366842E+01  0.10192620493E+00 -0.29912655750E+00  0.11805201646E+01  0.00000000000E+00 0.  1.
         11    1    3    3    0    0 -0.36826970602E+02  0.23055014547E+02 -0.86393532399E+01  0.44298960306E+02  0.51100000000E-03 0. -1.
        -11    1    3    3    0    0  0.85779677736E+01  0.76651454876E+00  0.82281255041E+00  0.86513638481E+01  0.51100000000E-03 0.  1.
        -12    1    3    3    0    0  0.27111566144E+02 -0.23923455301E+02  0.81156672470E+01  0.37057155682E+02  0.00000000000E+00 0.  1.
</event>
<event>
 7    1  0.2232484E-015  0.9000768E+02  0.7816164E-02  0.1186339E+00
        -11   -1    0    0    0    0  0.00000000000E+00  0.00000000000E+00  0.45593999997E+02  0.45594000000E+02  0.51100000000E-03 0.  1.
         11   -1    0    0    0    0 -0.00000000000E+00 -0.00000000000E+00 -0.45593999997E+02  0.45594000000E+02  0.51100000000E-03 0. -1.
    9900012    2    1    2    0    0  0.11778099602E+01 -0.74060908607E-01  0.20608929767E-01  0.90007683920E+02  0.89999944548E+02 0.  0.
        -12    1    1    2    0    0 -0.11778099602E+01  0.74060908607E-01 -0.20608929767E-01  0.11803160799E+01  0.00000000000E+00 0.  1.
         11    1    3    3    0    0  0.23790192995E+00 -0.10576840244E+02  0.42229254677E+01  0.11391191625E+02  0.51100000000E-03 0. -1.
        -11    1    3    3    0    0 -0.37856754335E+02 -0.12223518296E+01 -0.69099953771E-01  0.37876546408E+02  0.51100000000E-03 0.  1.
         12    1    3    3    0    0  0.38796662365E+02  0.11725131165E+02 -0.41332165841E+01  0.40739945886E+02  0.00000000000E+00 0. -1.
</event>
<event>
 7    1  0.2447890E-015  0.9000774E+02  0.7816164E-02  0.1186339E+00
        -11   -1    0    0    0    0  0.00000000000E+00  0.00000000000E+00  0.45593999997E+02  0.45594000000E+02  0.51100000000E-03 0. -1.
         11   -1    0    0    0    0 -0.00000000000E+00 -0.00000000000E+00 -0.45593999997E+02  0.45594000000E+02  0.51100000000E-03 0.  1.
    9900012    2    1    2    0    0  0.39361979584E+00 -0.49952370444E+00  0.99425745624E+00  0.90007742247E+02  0.90000003644E+02 0.  0.
        -12    1    1    2    0    0 -0.39361979584E+00  0.49952370444E+00 -0.99425745624E+00  0.11802577533E+01  0.00000000000E+00 0.  1.
         11    1    3    3    0    0 -0.61138764171E+01 -0.85266804213E+00 -0.75998359328E+01  0.97910180319E+01  0.51100000000E-03 0. -1.
        -11    1    3    3    0    0  0.39839633093E+00 -0.31904216270E+02 -0.19167856006E+02  0.37221558801E+02  0.51100000000E-03 0.  1.
         12    1    3    3    0    0  0.61090998820E+01  0.32257360608E+02  0.27761949395E+02  0.42995165414E+02  0.00000000000E+00 0. -1.
</event>
<event>
 7    1  0.2232484E-015  0.9000766E+02  0.7816164E-02  0.1186339E+00
        -11   -1    0    0    0    0  0.00000000000E+00  0.00000000000E+00  0.45593999997E+02  0.45594000000E+02  0.51100000000E-03 0. -1.
         11   -1    0    0    0    0 -0.00000000000E+00 -0.00000000000E+00 -0.45593999997E+02  0.45594000000E+02  0.51100000000E-03 0.  1.
    9900012    2    1    2    0    0  0.11694432721E-01  0.10017055663E+01  0.62422583868E+00  0.90007657381E+02  0.89999917658E+02 0.  0.
        -12    1    1    2    0    0 -0.11694432721E-01 -0.10017055663E+01 -0.62422583868E+00  0.11803426193E+01  0.00000000000E+00 0.  1.
         11    1    3    3    0    0  0.24955441214E+02  0.19385933573E+02  0.20664482682E+02  0.37757241841E+02  0.51100000000E-03 0. -1.
        -11    1    3    3    0    0  0.28100795896E+01  0.80495329923E+01  0.90346926129E+00  0.85736681567E+01  0.51100000000E-03 0.  1.
        -12    1    3    3    0    0 -0.27753826371E+02 -0.26433760999E+02 -0.20943726105E+02  0.43676747383E+02  0.00000000000E+00 0.  1.
</event>
<event>
 7    1  0.2232484E-015  0.9000774E+02  0.7816164E-02  0.1186339E+00
        -11   -1    0    0    0    0  0.00000000000E+00  0.00000000000E+00  0.45593999997E+02  0.45594000000E+02  0.51100000000E-03 0. -1.
         11   -1    0    0    0    0 -0.00000000000E+00 -0.00000000000E+00 -0.45593999997E+02  0.45594000000E+02  0.51100000000E-03 0.  1.
    9900012    2    1    2    0    0 -0.10024341378E+01 -0.60740498022E+00 -0.13858670738E+00  0.90007736773E+02  0.89999998098E+02 0.  0.
        -12    1    1    2    0    0  0.10024341378E+01  0.60740498022E+00  0.13858670738E+00  0.11802632274E+01  0.00000000000E+00 0.  1.
         11    1    3    3    0    0  0.66044805611E+01  0.16169442189E+00 -0.64468051619E+01  0.92307424201E+01  0.51100000000E-03 0. -1.
        -11    1    3    3    0    0  0.11987462963E+01  0.20998667772E+02 -0.30540607053E+02  0.37082471874E+02  0.51100000000E-03 0.  1.
         12    1    3    3    0    0 -0.88056609953E+01 -0.21767767174E+02  0.36848825508E+02  0.43694522478E+02  0.00000000000E+00 0. -1.
</event>
<event>
 7    1  0.2232484E-015  0.9000775E+02  0.7816164E-02  0.1186339E+00
        -11   -1    0    0    0    0  0.00000000000E+00  0.00000000000E+00  0.45593999997E+02  0.45594000000E+02  0.51100000000E-03 0.  1.
         11   -1    0    0    0    0 -0.00000000000E+00 -0.00000000000E+00 -0.45593999997E+02  0.45594000000E+02  0.51100000000E-03 0. -1.
    9900012    2    1    2    0    0  0.11758186921E+01  0.10222421203E+00 -0.14766068914E-02  0.90007745126E+02  0.90000006562E+02 0.  0.
        -12    1    1    2    0    0 -0.11758186921E+01 -0.10222421203E+00  0.14766068914E-02  0.11802548736E+01  0.00000000000E+00 0.  1.
         11    1    3    3    0    0  0.63502911875E+01  0.59316798562E+01  0.55733902867E+01  0.10323454055E+02  0.51100000000E-03 0. -1.
        -11    1    3    3    0    0 -0.46717523742E+00  0.19330027323E+02  0.30100947611E+02  0.35776182808E+02  0.51100000000E-03 0.  1.
         12    1    3    3    0    0 -0.47072972579E+01 -0.25159482967E+02 -0.35675814504E+02  0.43908108263E+02  0.00000000000E+00 0. -1.
</event>
<event>
 7    1  0.2232484E-015  0.9000778E+02  0.7816164E-02  0.1186339E+00
        -11   -1    0    0    0    0  0.00000000000E+00  0.00000000000E+00  0.45593999997E+02  0.45594000000E+02  0.51100000000E-03 0. -1.
         11   -1    0    0    0    0 -0.00000000000E+00 -0.00000000000E+00 -0.45593999997E+02  0.45594000000E+02  0.51100000000E-03 0.  1.
    9900012    2    1    2    0    0  0.61849949783E+00  0.34437040140E+00  0.94435048928E+00  0.90007775255E+02  0.90000037088E+02 0.  0.
        -12    1    1    2    0    0 -0.61849949783E+00 -0.34437040140E+00 -0.94435048928E+00  0.11802247450E+01  0.00000000000E+00 0.  1.
         11    1    3    3    0    0  0.39715376733E+00 -0.79088087630E+01 -0.19528651453E+01  0.81560204574E+01  0.51100000000E-03 0. -1.
        -11    1    3    3    0    0  0.27299512625E+02 -0.18287753288E+02 -0.19109720023E+02  0.38011665440E+02  0.51100000000E-03 0.  1.
         12    1    3    3    0    0 -0.27078166894E+02  0.26540932453E+02  0.22006935658E+02  0.43840089358E+02  0.00000000000E+00 0. -1.
</event>
<event>
 7    1  0.3465343E-015  0.9000773E+02  0.7816164E-02  0.1186339E+00
        -11   -1    0    0    0    0  0.00000000000E+00  0.00000000000E+00  0.45593999997E+02  0.45594000000E+02  0.51100000000E-03 0. -1.
         11   -1    0    0    0    0 -0.00000000000E+00 -0.00000000000E+00 -0.45593999997E+02  0.45594000000E+02  0.51100000000E-03 0.  1.
    9900012    2    1    2    0    0 -0.13271424842E+00  0.13000190258E+00  0.11655591675E+01  0.90007728108E+02  0.89999989319E+02 0.  0.
        -12    1    1    2    0    0  0.13271424842E+00 -0.13000190258E+00 -0.11655591675E+01  0.11802718921E+01  0.00000000000E+00 0.  1.
         11    1    3    3    0    0  0.22668941984E+00 -0.76816097742E+01 -0.65369770938E+01  0.10089132104E+02  0.51100000000E-03 0. -1.
        -11    1    3    3    0    0  0.79213987956E+00  0.69951571432E+01 -0.35753325344E+02  0.36439813151E+02  0.51100000000E-03 0.  1.
         12    1    3    3    0    0 -0.11515435478E+01  0.81645453364E+00  0.43455861605E+02  0.43478782853E+02  0.00000000000E+00 0. -1.
</event>
<event>
 7    1  0.2232484E-015  0.9000773E+02  0.7816164E-02  0.1186339E+00
        -11   -1    0    0    0    0  0.00000000000E+00  0.00000000000E+00  0.45593999997E+02  0.45594000000E+02  0.51100000000E-03 0. -1.
         11   -1    0    0    0    0 -0.00000000000E+00 -0.00000000000E+00 -0.45593999997E+02  0.45594000000E+02  0.51100000000E-03 0.  1.
    9900012    2    1    2    0    0 -0.80872398131E+00  0.72966284931E+00  0.45451948990E+00  0.90007732946E+02  0.89999994221E+02 0.  0.
        -12    1    1    2    0    0  0.80872398131E+00 -0.72966284931E+00 -0.45451948990E+00  0.11802670538E+01  0.00000000000E+00 0.  1.
         11    1    3    3    0    0 -0.30690553995E+02 -0.14034719936E+02  0.86209289574E+01  0.34831076419E+02  0.51100000000E-03 0. -1.
        -11    1    3    3    0    0 -0.59446766970E+01 -0.91591448751E+01  0.15108889903E+01  0.11023243700E+02  0.51100000000E-03 0.  1.
        -12    1    3    3    0    0  0.35826506710E+02  0.23923527660E+02 -0.96772984577E+01  0.44153412827E+02  0.00000000000E+00 0.  1.
</event>
<event>
 7    1  0.2232484E-015  0.9000779E+02  0.7816164E-02  0.1186339E+00
        -11   -1    0    0    0    0  0.00000000000E+00  0.00000000000E+00  0.45593999997E+02  0.45594000000E+02  0.51100000000E-03 0. -1.
         11   -1    0    0    0    0 -0.00000000000E+00 -0.00000000000E+00 -0.45593999997E+02  0.45594000000E+02  0.51100000000E-03 0.  1.
    9900012    2    1    2    0    0  0.76240927731E+00  0.80246801442E+00  0.40947691587E+00  0.90007790627E+02  0.90000052663E+02 0.  0.
        -12    1    1    2    0    0 -0.76240927731E+00 -0.80246801442E+00 -0.40947691587E+00  0.11802093733E+01  0.00000000000E+00 0.  1.
         11    1    3    3    0    0 -0.12336785053E+01 -0.27308849784E-01  0.37224218067E+02  0.37244665650E+02  0.51100000000E-03 0. -1.
        -11    1    3    3    0    0 -0.79033951458E+01  0.11492237377E+02 -0.85762968971E+00  0.13973929430E+02  0.51100000000E-03 0.  1.
        -12    1    3    3    0    0  0.98994829284E+01 -0.10662460513E+02 -0.35957111462E+02  0.38789195546E+02  0.00000000000E+00 0.  1.
</event>
<event>
 7    1  0.2232484E-015  0.9000843E+02  0.7816164E-02  0.1186338E+00
        -11   -1    0    0    0    0  0.00000000000E+00  0.00000000000E+00  0.45593999997E+02  0.45594000000E+02  0.51100000000E-03 0. -1.
         11   -1    0    0    0    0 -0.00000000000E+00 -0.00000000000E+00 -0.45593999997E+02  0.45594000000E+02  0.51100000000E-03 0.  1.
    9900012    2    1    2    0    0 -0.21548494698E+00  0.70006448176E+00  0.92458530154E+00  0.90008431426E+02  0.90000701918E+02 0.  0.
        -12    1    1    2    0    0  0.21548494698E+00 -0.70006448176E+00 -0.92458530154E+00  0.11795685740E+01  0.00000000000E+00 0.  1.
         11    1    3    3    0    0  0.12412790114E+02  0.28827825367E+02 -0.25616981315E+02  0.40513585447E+02  0.51100000000E-03 0. -1.
        -11    1    3    3    0    0  0.81887748508E+01 -0.28899864644E+01  0.29908106965E+01  0.91843891580E+01  0.51100000000E-03 0.  1.
        -12    1    3    3    0    0 -0.20817049912E+02 -0.25237774421E+02  0.23550755920E+02  0.40310456821E+02  0.00000000000E+00 0.  1.
</event>
<event>
 7    1  0.2232484E-015  0.9000794E+02  0.7816164E-02  0.1186339E+00
        -11   -1    0    0    0    0  0.00000000000E+00  0.00000000000E+00  0.45593999997E+02  0.45594000000E+02  0.51100000000E-03 0. -1.
         11   -1    0    0    0    0 -0.00000000000E+00 -0.00000000000E+00 -0.45593999997E+02  0.45594000000E+02  0.51100000000E-03 0.  1.
    9900012    2    1    2    0    0  0.11346978597E+01  0.30345178317E+00 -0.11366077483E+00  0.90007940260E+02  0.90000204271E+02 0.  0.
        -12    1    1    2    0    0 -0.11346978597E+01 -0.30345178317E+00  0.11366077483E+00  0.11800597397E+01  0.00000000000E+00 0.  1.
         11    1    3    3    0    0 -0.27824374964E+02  0.24543620993E+02  0.67797037226E+01  0.37716701293E+02  0.51100000000E-03 0. -1.
        -11    1    3    3    0    0  0.10704562006E+02  0.89213107584E+01 -0.28380024745E+01  0.14220818953E+02  0.51100000000E-03 0.  1.
        -12    1    3    3    0    0  0.18254510818E+02 -0.33161479969E+02 -0.40553620230E+01  0.38070420014E+02  0.00000000000E+00 0.  1.
</event>
<event>
 7    1  0.2232484E-015  0.9000808E+02  0.7816164E-02  0.1186338E+00
        -11   -1    0    0    0    0  0.00000000000E+00  0.00000000000E+00  0.45593999997E+02  0.45594000000E+02  0.51100000000E-03 0.  1.
         11   -1    0    0    0    0 -0.00000000000E+00 -0.00000000000E+00 -0.45593999997E+02  0.45594000000E+02  0.51100000000E-03 0. -1.
    9900012    2    1    2    0    0 -0.38040090007E+00  0.24921296019E+00 -0.10887611593E+01  0.90008079322E+02  0.90000345168E+02 0.  0.
        -12    1    1    2    0    0  0.38040090007E+00 -0.24921296019E+00  0.10887611593E+01  0.11799206780E+01  0.00000000000E+00 0.  1.
         11    1    3    3    0    0 -0.39876676944E+01  0.71041530256E+01  0.42191085099E+01  0.91744951213E+01  0.51100000000E-03 0. -1.
        -11    1    3    3    0    0 -0.20286080791E+02  0.27771159104E+02  0.10396325626E+02  0.35928344502E+02  0.51100000000E-03 0.  1.
         12    1    3    3    0    0  0.23893347585E+02 -0.34626099170E+02 -0.15704195295E+02  0.44905239699E+02  0.00000000000E+00 0. -1.
</event>
<event>
 7    1  0.2232484E-015  0.9000781E+02  0.7816164E-02  0.1186339E+00
        -11   -1    0    0    0    0  0.00000000000E+00  0.00000000000E+00  0.45593999997E+02  0.45594000000E+02  0.51100000000E-03 0. -1.
         11   -1    0    0    0    0 -0.00000000000E+00 -0.00000000000E+00 -0.45593999997E+02  0.45594000000E+02  0.51100000000E-03 0.  1.
    9900012    2    1    2    0    0  0.70481882318E+00 -0.55006384801E+00  0.77038899354E+00  0.90007813993E+02  0.90000076337E+02 0.  0.
        -12    1    1    2    0    0 -0.70481882318E+00  0.55006384801E+00 -0.77038899354E+00  0.11801860073E+01  0.00000000000E+00 0.  1.
         11    1    3    3    0    0 -0.23692052985E+02 -0.30524919476E+02 -0.15828211706E+02  0.41756632644E+02  0.51100000000E-03 0. -1.
        -11    1    3    3    0    0 -0.43574798332E+01  0.35592325991E+01  0.49783751876E+01  0.75126551206E+01  0.51100000000E-03 0.  1.
        -12    1    3    3    0    0  0.28754351641E+02  0.26415623029E+02  0.11620225512E+02  0.40738526229E+02  0.00000000000E+00 0.  1.
</event>
<event>
 7    1  0.2232484E-015  0.9000770E+02  0.7816164E-02  0.1186339E+00
        -11   -1    0    0    0    0  0.00000000000E+00  0.00000000000E+00  0.45593999997E+02  0.45594000000E+02  0.51100000000E-03 0. -1.
         11   -1    0    0    0    0 -0.00000000000E+00 -0.00000000000E+00 -0.45593999997E+02  0.45594000000E+02  0.51100000000E-03 0.  1.
    9900012    2    1    2    0    0  0.28630250042E+00  0.89853311163E+00  0.70977387520E+00  0.90007699264E+02  0.89999960094E+02 0.  0.
        -12    1    1    2    0    0 -0.28630250042E+00 -0.89853311163E+00 -0.70977387520E+00  0.11803007364E+01  0.00000000000E+00 0.  1.
         11    1    3    3    0    0  0.82868225569E+01 -0.63678534765E+01 -0.12534487251E+01  0.10525783579E+02  0.51100000000E-03 0. -1.
        -11    1    3    3    0    0  0.25463839945E+02 -0.57999433139E+01  0.25526298364E+02  0.36519014166E+02  0.51100000000E-03 0.  1.
         12    1    3    3    0    0 -0.33464360002E+02  0.13066329902E+02 -0.23563075764E+02  0.42962901519E+02  0.00000000000E+00 0. -1.
</event>
<event>
 7    1  0.2232484E-015  0.9000781E+02  0.7816164E-02  0.1186339E+00
        -11   -1    0    0    0    0  0.00000000000E+00  0.00000000000E+00  0.45593999997E+02  0.45594000000E+02  0.51100000000E-03 0.  1.
         11   -1    0    0    0    0 -0.00000000000E+00 -0.00000000000E+00 -0.45593999997E+02  0.45594000000E+02  0.51100000000E-03 0. -1.
    9900012    2    1    2    0    0  0.94109539635E+00  0.18418307168E+00  0.68793755234E+00  0.90007812716E+02  0.90000075044E+02 0.  0.
        -12    1    1    2    0    0 -0.94109539635E+00 -0.18418307168E+00 -0.68793755234E+00  0.11801872838E+01  0.00000000000E+00 0.  1.
         11    1    3    3    0    0 -0.32825481744E+02 -0.23741882608E+02 -0.94986705859E+01  0.41610262973E+02  0.51100000000E-03 0. -1.
        -11    1    3    3    0    0 -0.10917779421E+01  0.86017321842E+01 -0.95436634061E+00  0.87231067297E+01  0.51100000000E-03 0.  1.
        -12    1    3    3    0    0  0.34858355082E+02  0.15324333496E+02  0.11140974479E+02  0.39674443014E+02  0.00000000000E+00 0.  1.
</event>
<event>
 7    1  0.2232484E-015  0.9000773E+02  0.7816164E-02  0.1186339E+00
        -11   -1    0    0    0    0  0.00000000000E+00  0.00000000000E+00  0.45593999997E+02  0.45594000000E+02  0.51100000000E-03 0. -1.
         11   -1    0    0    0    0 -0.00000000000E+00 -0.00000000000E+00 -0.45593999997E+02  0.45594000000E+02  0.51100000000E-03 0.  1.
    9900012    2    1    2    0    0  0.29980542509E+00 -0.87913178925E+00  0.72820521077E+00  0.90007729343E+02  0.89999990570E+02 0.  0.
        -12    1    1    2    0    0 -0.29980542509E+00  0.87913178925E+00 -0.72820521077E+00  0.11802706574E+01  0.00000000000E+00 0.  1.
         11    1    3    3    0    0 -0.33225297324E+02  0.17645673308E+02  0.46892535143E+01  0.37911466175E+02  0.51100000000E-03 0. -1.
        -11    1    3    3    0    0 -0.69611917578E+01 -0.69255939024E+01 -0.33179660974E+00  0.98250766329E+01  0.51100000000E-03 0.  1.
        -12    1    3    3    0    0  0.40486294507E+02 -0.11599211195E+02 -0.36292516938E+01  0.42271186535E+02  0.00000000000E+00 0.  1.
</event>
<event>
 7    1  0.2232484E-015  0.9000774E+02  0.7816164E-02  0.1186339E+00
        -11   -1    0    0    0    0  0.00000000000E+00  0.00000000000E+00  0.45593999997E+02  0.45594000000E+02  0.51100000000E-03 0.  1.
         11   -1    0    0    0    0 -0.00000000000E+00 -0.00000000000E+00 -0.45593999997E+02  0.45594000000E+02  0.51100000000E-03 0. -1.
    9900012    2    1    2    0    0  0.10586234822E+01 -0.46259132565E+00  0.24151990872E+00  0.90007743131E+02  0.90000004540E+02 0.  0.
        -12    1    1    2    0    0 -0.10586234822E+01  0.46259132565E+00 -0.24151990872E+00  0.11802568695E+01  0.00000000000E+00 0.  1.
         11    1    3    3    0    0  0.27505659818E+02  0.74459132948E+01 -0.20667015698E+02  0.35201256866E+02  0.51100000000E-03 0. -1.
        -11    1    3    3    0    0  0.55022539701E+01 -0.61738017167E+01 -0.81305692375E+01  0.11597274800E+02  0.51100000000E-03 0.  1.
        -12    1    3    3    0    0 -0.31949290306E+02 -0.17347029038E+01  0.29039104845E+02  0.43209211465E+02  0.00000000000E+00 0.  1.
</event>
<event>
 7    1  0.2232484E-015  0.9000831E+02  0.7816164E-02  0.1186338E+00
        -11   -1    0    0    0    0  0.00000000000E+00  0.00000000000E+00  0.45593999997E+02  0.45594000000E+02  0.51100000000E-03 0.  1.
         11   -1    0    0    0    0 -0.00000000000E+00 -0.00000000000E+00 -0.45593999997E+02  0.45594000000E+02  0.51100000000E-03 0. -1.
    9900012    2    1    2    0    0  0.46336453739E+00 -0.10228581967E+01 -0.36155821716E+00  0.90008309393E+02  0.90000578275E+02 0.  0.
        -12    1    1    2    0    0 -0.46336453739E+00  0.10228581967E+01  0.36155821716E+00  0.11796906075E+01  0.00000000000E+00 0.  1.
         11    1    3    3    0    0 -0.34787115440E+01  0.31683788902E+02  0.59114369623E+01  0.32417726639E+02  0.51100000000E-03 0. -1.
        -11    1    3    3    0    0 -0.20650190633E+01  0.10192131025E+02  0.67020047165E+01  0.12371770530E+02  0.51100000000E-03 0.  1.
        -12    1    3    3    0    0  0.60070951447E+01 -0.42898778124E+02 -0.12974999896E+02  0.45218812224E+02  0.00000000000E+00 0.  1.
</event>
<event>
 7    1  0.2232484E-015  0.9000789E+02  0.7816164E-02  0.1186339E+00
        -11   -1    0    0    0    0  0.00000000000E+00  0.00000000000E+00  0.45593999997E+02  0.45594000000E+02  0.51100000000E-03 0. -1.
         11   -1    0    0    0    0 -0.00000000000E+00 -0.00000000000E+00 -0.45593999997E+02  0.45594000000E+02  0.51100000000E-03 0.  1.
    9900012    2    1    2    0    0 -0.58891665032E-01 -0.13927099488E+00  0.11703801038E+01  0.90007892282E+02  0.90000155660E+02 0.  0.
        -12    1    1    2    0    0  0.58891665032E-01  0.13927099488E+00 -0.11703801038E+01  0.11801077178E+01  0.00000000000E+00 0.  1.
         11    1    3    3    0    0 -0.78869803060E+01  0.72801553023E+01  0.56170386559E+01  0.12114299117E+02  0.51100000000E-03 0. -1.
        -11    1    3    3    0    0 -0.15074161961E+02  0.18333119242E+02 -0.27579690404E+02  0.36386438999E+02  0.51100000000E-03 0.  1.
         12    1    3    3    0    0  0.22902250602E+02 -0.25752545539E+02  0.23133031852E+02  0.41507154167E+02  0.00000000000E+00 0. -1.
</event>
<event>
 7    1  0.2232484E-015  0.9000760E+02  0.7816164E-02  0.1186339E+00
        -11   -1    0    0    0    0  0.00000000000E+00  0.00000000000E+00  0.45593999997E+02  0.45594000000E+02  0.51100000000E-03 0.  1.
         11   -1    0    0    0    0 -0.00000000000E+00 -0.00000000000E+00 -0.45593999997E+02  0.45594000000E+02  0.51100000000E-03 0. -1.
    9900012    2    1    2    0    0  0.46067456742E+00 -0.98551445959E+00  0.45812719036E+00  0.90007601622E+02  0.89999861164E+02 0.  0.
        -12    1    1    2    0    0 -0.46067456742E+00  0.98551445959E+00 -0.45812719036E+00  0.11803983775E+01  0.00000000000E+00 0.  1.
         11    1    3    3    0    0  0.81210867134E+01 -0.83135216941E+01 -0.20112102063E+01  0.11794560573E+02  0.51100000000E-03 0. -1.
        -11    1    3    3    0    0  0.11266809716E+02 -0.31284610168E+02  0.96320752327E+01  0.34618560167E+02  0.51100000000E-03 0.  1.
         12    1    3    3    0    0 -0.18927221862E+02  0.38612617402E+02 -0.71627378360E+01  0.43594480882E+02  0.00000000000E+00 0. -1.
</event>
<event>
 7    1  0.2232484E-015  0.9000783E+02  0.7816164E-02  0.1186339E+00
        -11   -1    0    0    0    0  0.00000000000E+00  0.00000000000E+00  0.45593999997E+02  0.45594000000E+02  0.51100000000E-03 0.  1.
         11   -1    0    0    0    0 -0.00000000000E+00 -0.00000000000E+00 -0.45593999997E+02  0.45594000000E+02  0.51100000000E-03 0. -1.
    9900012    2    1    2    0    0  0.88432963397E+00 -0.19518590102E+00 -0.75674936953E+00  0.90007827959E+02  0.90000090488E+02 0.  0.
        -12    1    1    2    0    0 -0.88432963397E+00  0.19518590102E+00  0.75674936953E+00  0.11801720407E+01  0.00000000000E+00 0.  1.
         11    1    3    3    0    0  0.60301128049E+01 -0.32445945956E+02 -0.17965248421E+02  0.37574616705E+02  0.51100000000E-03 0. -1.
        -11    1    3    3    0    0 -0.52841939293E+01 -0.40014283897E+01 -0.63656189913E+01  0.91899532123E+01  0.51100000000E-03 0.  1.
        -12    1    3    3    0    0  0.13841075844E+00  0.36252188445E+02  0.23574118043E+02  0.43243258042E+02  0.00000000000E+00 0.  1.
</event>
<event>
 7    1  0.2232484E-015  0.9000776E+02  0.7816164E-02  0.1186339E+00
        -11   -1    0    0    0    0  0.00000000000E+00  0.00000000000E+00  0.45593999997E+02  0.45594000000E+02  0.51100000000E-03 0. -1.
         11   -1    0    0    0    0 -0.00000000000E+00 -0.00000000000E+00 -0.45593999997E+02  0.45594000000E+02  0.51100000000E-03 0.  1.
    9900012    2    1    2    0    0 -0.10114395795E+01 -0.42841188355E+00 -0.43175891616E+00  0.90007761665E+02  0.90000023319E+02 0.  0.
        -12    1    1    2    0    0  0.10114395795E+01  0.42841188355E+00  0.43175891616E+00  0.11802383347E+01  0.00000000000E+00 0.  1.
         11    1    3    3    0    0  0.18035157784E+02 -0.60512828004E+01  0.33568213892E+02  0.38583803907E+02  0.51100000000E-03 0. -1.
        -11    1    3    3    0    0  0.68779149505E+00  0.87159727291E+01  0.31097335731E+01  0.92796379731E+01  0.51100000000E-03 0.  1.
        -12    1    3    3    0    0 -0.19734388859E+02 -0.30931018122E+01 -0.37109706381E+02  0.42144319785E+02  0.00000000000E+00 0.  1.
</event>
<event>
 7    1  0.2232484E-015  0.9000767E+02  0.7816164E-02  0.1186339E+00
        -11   -1    0    0    0    0  0.00000000000E+00  0.00000000000E+00  0.45593999997E+02  0.45594000000E+02  0.51100000000E-03 0.  1.
         11   -1    0    0    0    0 -0.00000000000E+00 -0.00000000000E+00 -0.45593999997E+02  0.45594000000E+02  0.51100000000E-03 0. -1.
    9900012    2    1    2    0    0 -0.35608315334E+00 -0.68112553264E+00 -0.89580101483E+00  0.90007666716E+02  0.89999927117E+02 0.  0.
        -12    1    1    2    0    0  0.35608315334E+00  0.68112553264E+00  0.89580101483E+00  0.11803332841E+01  0.00000000000E+00 0.  1.
         11    1    3    3    0    0 -0.72285266652E+01  0.25066008878E+01 -0.52266298539E+01  0.92656519280E+01  0.51100000000E-03 0. -1.
        -11    1    3    3    0    0  0.63406325815E+01  0.37082957412E+02  0.12508274787E+02  0.39646012288E+02  0.51100000000E-03 0.  1.
         12    1    3    3    0    0  0.53181093033E+00 -0.40270683833E+02 -0.81774459479E+01  0.41096002500E+02  0.00000000000E+00 0. -1.
</event>
<event>
 7    1  0.2232484E-015  0.9000777E+02  0.7816164E-02  0.1186339E+00
        -11   -1    0    0    0    0  0.00000000000E+00  0.00000000000E+00  0.45593999997E+02  0.45594000000E+02  0.51100000000E-03 0.  1.
         11   -1    0    0    0    0 -0.00000000000E+00 -0.00000000000E+00 -0.45593999997E+02  0.45594000000E+02  0.51100000000E-03 0. -1.
    9900012    2    1    2    0    0 -0.72319411875E+00 -0.76837625209E+00  0.52870783692E+00  0.90007769609E+02  0.90000031368E+02 0.  0.
        -12    1    1    2    0    0  0.72319411875E+00  0.76837625209E+00 -0.52870783692E+00  0.11802303906E+01  0.00000000000E+00 0.  1.
         11    1    3    3    0    0  0.67158636402E+01 -0.12293436989E-01  0.12825338780E+02  0.14477302603E+02  0.51100000000E-03 0. -1.
        -11    1    3    3    0    0 -0.32688453495E+01 -0.69410892745E+01  0.30826492371E+02  0.31766912069E+02  0.51100000000E-03 0.  1.
         12    1    3    3    0    0 -0.41702124094E+01  0.61850064594E+01 -0.43123123314E+02  0.43763554938E+02  0.00000000000E+00 0. -1.
</event>
<event>
 7    1  0.2232484E-015  0.9000765E+02  0.7816164E-02  0.1186339E+00
        -11   -1    0    0    0    0  0.00000000000E+00  0.00000000000E+00  0.45593999997E+02  0.45594000000E+02  0.51100000000E-03 0.  1.
         11   -1    0    0    0    0 -0.00000000000E+00 -0.00000000000E+00 -0.45593999997E+02  0.45594000000E+02  0.51100000000E-03 0. -1.
    9900012    2    1    2    0    0 -0.10017124882E+01  0.21183761141E-01 -0.62397308071E+00  0.90007652989E+02  0.89999913208E+02 0.  0.
        -12    1    1    2    0    0  0.10017124882E+01 -0.21183761141E-01  0.62397308071E+00  0.11803470109E+01  0.00000000000E+00 0.  1.
         11    1    3    3    0    0  0.12428466507E+02  0.28216049226E+02  0.13421197767E+02  0.33626489014E+02  0.51100000000E-03 0. -1.
        -11    1    3    3    0    0 -0.34925114769E+01  0.83531292246E+01  0.84039052162E+01  0.12353057411E+02  0.51100000000E-03 0.  1.
        -12    1    3    3    0    0 -0.99376675186E+01 -0.36547994689E+02 -0.22449076064E+02  0.44028106564E+02  0.00000000000E+00 0.  1.
</event>
<event>
 7    1  0.2232484E-015  0.9000768E+02  0.7816164E-02  0.1186339E+00
        -11   -1    0    0    0    0  0.00000000000E+00  0.00000000000E+00  0.45593999997E+02  0.45594000000E+02  0.51100000000E-03 0.  1.
         11   -1    0    0    0    0 -0.00000000000E+00 -0.00000000000E+00 -0.45593999997E+02  0.45594000000E+02  0.51100000000E-03 0. -1.
    9900012    2    1    2    0    0  0.41778573787E+00  0.10235834962E+01  0.41339145460E+00  0.90007677760E+02  0.89999938306E+02 0.  0.
        -12    1    1    2    0    0 -0.41778573787E+00 -0.10235834962E+01 -0.41339145460E+00  0.11803222404E+01  0.00000000000E+00 0.  1.
         11    1    3    3    0    0 -0.37575044376E+02 -0.52250672897E+01  0.48671885419E+01  0.38247546491E+02  0.51100000000E-03 0. -1.
        -11    1    3    3    0    0 -0.11663642451E+01  0.54634458873E+01  0.87895494946E+01  0.10414692847E+02  0.51100000000E-03 0.  1.
        -12    1    3    3    0    0  0.39159194359E+02  0.78520489857E+00 -0.13243346582E+02  0.41345438421E+02  0.00000000000E+00 0.  1.
</event>
<event>
 7    1  0.2232484E-015  0.9000774E+02  0.7816164E-02  0.1186339E+00
        -11   -1    0    0    0    0  0.00000000000E+00  0.00000000000E+00  0.45593999997E+02  0.45594000000E+02  0.51100000000E-03 0.  1.
         11   -1    0    0    0    0 -0.00000000000E+00 -0.00000000000E+00 -0.45593999997E+02  0.45594000000E+02  0.51100000000E-03 0. -1.
    9900012    2    1    2    0    0 -0.54564506741E+00 -0.10464362875E+01  0.16203496010E-01  0.90007737319E+02  0.89999998651E+02 0.  0.
        -12    1    1    2    0    0  0.54564506741E+00  0.10464362875E+01 -0.16203496010E-01  0.11802626812E+01  0.00000000000E+00 0.  1.
         11    1    3    3    0    0 -0.23811934000E+02  0.31341336224E+02  0.74822315745E+01  0.40065837651E+02  0.51100000000E-03 0. -1.
        -11    1    3    3    0    0  0.74343005211E+01  0.46746761751E+01 -0.34676875032E+01  0.94417306920E+01  0.51100000000E-03 0.  1.
        -12    1    3    3    0    0  0.15831988412E+02 -0.37062448686E+02 -0.39983405753E+01  0.40500168975E+02  0.00000000000E+00 0.  1.
</event>
<event>
 7    1  0.2232484E-015  0.9000779E+02  0.7816164E-02  0.1186339E+00
        -11   -1    0    0    0    0  0.00000000000E+00  0.00000000000E+00  0.45593999997E+02  0.45594000000E+02  0.51100000000E-03 0.  1.
         11   -1    0    0    0    0 -0.00000000000E+00 -0.00000000000E+00 -0.45593999997E+02  0.45594000000E+02  0.51100000000E-03 0. -1.
    9900012    2    1    2    0    0  0.11624529365E+01  0.24625652770E-01  0.20248702021E+00  0.90007786356E+02  0.90000048336E+02 0.  0.
        -12    1    1    2    0    0 -0.11624529365E+01 -0.24625652770E-01 -0.20248702021E+00  0.11802136441E+01  0.00000000000E+00 0.  1.
         11    1    3    3    0    0 -0.39752367083E+02 -0.56161972173E+01 -0.45341798649E+01  0.40402365614E+02  0.51100000000E-03 0. -1.
        -11    1    3    3    0    0  0.20010937039E+01  0.10018652070E+02  0.12020418809E+01  0.10287014643E+02  0.51100000000E-03 0.  1.
        -12    1    3    3    0    0  0.38913726316E+02 -0.43778292004E+01  0.35346250042E+01  0.39318406099E+02  0.00000000000E+00 0.  1.
</event>
<event>
 7    1  0.2232484E-015  0.9000771E+02  0.7816164E-02  0.1186339E+00
        -11   -1    0    0    0    0  0.00000000000E+00  0.00000000000E+00  0.45593999997E+02  0.45594000000E+02  0.51100000000E-03 0. -1.
         11   -1    0    0    0    0 -0.00000000000E+00 -0.00000000000E+00 -0.45593999997E+02  0.45594000000E+02  0.51100000000E-03 0.  1.
    9900012    2    1    2    0    0 -0.11298091759E+00 -0.11271932958E+01  0.33129041092E+00  0.90007710735E+02  0.89999971716E+02 0.  0.
        -12    1    1    2    0    0  0.11298091759E+00  0.11271932958E+01 -0.33129041092E+00  0.11802892654E+01  0.00000000000E+00 0.  1.
         11    1    3    3    0    0 -0.15572245294E+02 -0.28996199467E+02  0.21389705862E+02  0.39252947968E+02  0.51100000000E-03 0. -1.
        -11    1    3    3    0    0  0.79451057585E+01  0.15679262385E+01  0.76224902392E+01  0.11121396311E+02  0.51100000000E-03 0.  1.
        -12    1    3    3    0    0  0.75141586176E+01  0.26301079933E+02 -0.28680905691E+02  0.39633366456E+02  0.00000000000E+00 0.  1.
</event>
<event>
 7    1  0.2232484E-015  0.9000779E+02  0.7816164E-02  0.1186339E+00
        -11   -1    0    0    0    0  0.00000000000E+00  0.00000000000E+00  0.45593999997E+02  0.45594000000E+02  0.51100000000E-03 0.  1.
         11   -1    0    0    0    0 -0.00000000000E+00 -0.00000000000E+00 -0.45593999997E+02  0.45594000000E+02  0.51100000000E-03 0. -1.
    9900012    2    1    2    0    0  0.10893624301E+01  0.45147885548E+00  0.48534528481E-01  0.90007788467E+02  0.90000050475E+02 0.  0.
        -12    1    1    2    0    0 -0.10893624301E+01 -0.45147885548E+00 -0.48534528481E-01  0.11802115325E+01  0.00000000000E+00 0.  1.
         11    1    3    3    0    0 -0.65508561814E+01 -0.67425363631E+01  0.47263668645E+01  0.10522074763E+02  0.51100000000E-03 0. -1.
        -11    1    3    3    0    0  0.13317845898E+02  0.28882314375E+02  0.26283450727E+02  0.41259821684E+02  0.51100000000E-03 0.  1.
         12    1    3    3    0    0 -0.56776272867E+01 -0.21688299156E+02 -0.30961283063E+02  0.38225892021E+02  0.00000000000E+00 0. -1.
</event>
<event>
 7    1  0.2762247E-015  0.9000770E+02  0.7816164E-02  0.1186339E+00
        -11   -1    0    0    0    0  0.00000000000E+00  0.00000000000E+00  0.45593999997E+02  0.45594000000E+02  0.51100000000E-03 0. -1.
         11   -1    0    0    0    0 -0.00000000000E+00 -0.00000000000E+00 -0.45593999997E+02  0.45594000000E+02  0.51100000000E-03 0.  1.
    9900012    2    1    2    0    0 -0.35683298413E+00 -0.30383757514E+00  0.10832661026E+01  0.90007698132E+02  0.89999958947E+02 0.  0.
        -12    1    1    2    0    0  0.35683298413E+00  0.30383757514E+00 -0.10832661026E+01  0.11803018680E+01  0.00000000000E+00 0.  1.
         11    1    3    3    0    0  0.49022260453E+01  0.58858890957E+01 -0.54253111637E+01  0.93866667209E+01  0.51100000000E-03 0. -1.
        -11    1    3    3    0    0 -0.15279269013E+02 -0.23363525288E+02 -0.28793527497E+02  0.40104583297E+02  0.51100000000E-03 0.  1.
         12    1    3    3    0    0  0.10020209984E+02  0.17173798617E+02  0.35302104763E+02  0.40516448114E+02  0.00000000000E+00 0. -1.
</event>
<event>
 7    1  0.2232484E-015  0.9000766E+02  0.7816164E-02  0.1186339E+00
        -11   -1    0    0    0    0  0.00000000000E+00  0.00000000000E+00  0.45593999997E+02  0.45594000000E+02  0.51100000000E-03 0. -1.
         11   -1    0    0    0    0 -0.00000000000E+00 -0.00000000000E+00 -0.45593999997E+02  0.45594000000E+02  0.51100000000E-03 0.  1.
    9900012    2    1    2    0    0 -0.41574989230E+00 -0.95243921929E+00  0.55965178575E+00  0.90007661675E+02  0.89999922009E+02 0.  0.
        -12    1    1    2    0    0  0.41574989230E+00  0.95243921929E+00 -0.55965178575E+00  0.11803383247E+01  0.00000000000E+00 0.  1.
         11    1    3    3    0    0 -0.12894411377E+02  0.11357046978E+02  0.92001798593E+00  0.17207405213E+02  0.51100000000E-03 0. -1.
        -11    1    3    3    0    0 -0.17428540993E+02 -0.24439053257E+02 -0.19005781598E+02  0.35528032589E+02  0.51100000000E-03 0.  1.
         12    1    3    3    0    0  0.29907202477E+02  0.12129567060E+02  0.18645415398E+02  0.37272223873E+02  0.00000000000E+00 0. -1.
</event>
<event>
 7    1  0.2232484E-015  0.9000770E+02  0.7816164E-02  0.1186339E+00
        -11   -1    0    0    0    0  0.00000000000E+00  0.00000000000E+00  0.45593999997E+02  0.45594000000E+02  0.51100000000E-03 0.  1.
         11   -1    0    0    0    0 -0.00000000000E+00 -0.00000000000E+00 -0.45593999997E+02  0.45594000000E+02  0.51100000000E-03 0. -1.
    9900012    2    1    2    0    0  0.21749249376E+00  0.11447401078E+01 -0.18810119018E+00  0.90007697091E+02  0.89999957893E+02 0.  0.
        -12    1    1    2    0    0 -0.21749249376E+00 -0.11447401078E+01  0.18810119018E+00  0.11803029090E+01  0.00000000000E+00 0.  1.
         11    1    3    3    0    0  0.26433210439E+02  0.30088743009E+02 -0.14080181595E+02  0.42453487301E+02  0.51100000000E-03 0. -1.
        -11    1    3    3    0    0 -0.62105591513E+01  0.28357069326E+01  0.62001326518E+01  0.92224684299E+01  0.51100000000E-03 0.  1.
        -12    1    3    3    0    0 -0.20005158794E+02 -0.31779709834E+02  0.76919477535E+01  0.38331741361E+02  0.00000000000E+00 0.  1.
</event>
<event>
 7    1  0.2232484E-015  0.9000746E+02  0.7816164E-02  0.1186340E+00
        -11   -1    0    0    0    0  0.00000000000E+00  0.00000000000E+00  0.45593999997E+02  0.45594000000E+02  0.51100000000E-03 0. -1.
         11   -1    0    0    0    0 -0.00000000000E+00 -0.00000000000E+00 -0.45593999997E+02  0.45594000000E+02  0.51100000000E-03 0.  1.
    9900012    2    1    2    0    0 -0.26070920695E+00 -0.86930381101E+00 -0.75499449800E+00  0.90007459828E+02  0.89999717497E+02 0.  0.
        -12    1    1    2    0    0  0.26070920695E+00  0.86930381101E+00  0.75499449800E+00  0.11805401723E+01  0.00000000000E+00 0.  1.
         11    1    3    3    0    0 -0.65981479578E+01 -0.58993609110E+01  0.67121442803E+01  0.11108145513E+02  0.51100000000E-03 0. -1.
        -11    1    3    3    0    0 -0.51218389174E+01 -0.33944910194E+02  0.83065667525E+01  0.35319813327E+02  0.51100000000E-03 0.  1.
         12    1    3    3    0    0  0.11459277668E+02  0.38974967294E+02 -0.15773705531E+02  0.43579500988E+02  0.00000000000E+00 0. -1.
</event>
<event>
 7    1  0.2232484E-015  0.9000763E+02  0.7816164E-02  0.1186339E+00
        -11   -1    0    0    0    0  0.00000000000E+00  0.00000000000E+00  0.45593999997E+02  0.45594000000E+02  0.51100000000E-03 0. -1.
         11   -1    0    0    0    0 -0.00000000000E+00 -0.00000000000E+00 -0.45593999997E+02  0.45594000000E+02  0.51100000000E-03 0.  1.
    9900012    2    1    2    0    0  0.10142358159E+01  0.22699480363E+00  0.55953750067E+00  0.90007625845E+02  0.89999885706E+02 0.  0.
        -12    1    1    2    0    0 -0.10142358159E+01 -0.22699480363E+00 -0.55953750067E+00  0.11803741550E+01  0.00000000000E+00 0.  1.
         11    1    3    3    0    0  0.21212701689E+02  0.24663271832E+02  0.19998699240E+02  0.38186432956E+02  0.51100000000E-03 0. -1.
        -11    1    3    3    0    0  0.17269200929E+01  0.75155399355E+01  0.13765552419E+01  0.78332942065E+01  0.51100000000E-03 0.  1.
        -12    1    3    3    0    0 -0.21925385966E+02 -0.31951816964E+02 -0.20815716981E+02  0.43987898682E+02  0.00000000000E+00 0.  1.
</event>
<event>
 7    1  0.2232484E-015  0.9000760E+02  0.7816164E-02  0.1186339E+00
        -11   -1    0    0    0    0  0.00000000000E+00  0.00000000000E+00  0.45593999997E+02  0.45594000000E+02  0.51100000000E-03 0.  1.
         11   -1    0    0    0    0 -0.00000000000E+00 -0.00000000000E+00 -0.45593999997E+02  0.45594000000E+02  0.51100000000E-03 0. -1.
    9900012    2    1    2    0    0  0.10904983827E+01  0.38394842735E+00  0.23822102825E+00  0.90007596520E+02  0.89999855994E+02 0.  0.
        -12    1    1    2    0    0 -0.10904983827E+01 -0.38394842735E+00 -0.23822102825E+00  0.11804034801E+01  0.00000000000E+00 0.  1.
         11    1    3    3    0    0 -0.48943672013E+01  0.44703655862E+01  0.74699253887E+01  0.99869306771E+01  0.51100000000E-03 0. -1.
        -11    1    3    3    0    0  0.67746144013E+01 -0.20695965511E+02  0.31256258768E+02  0.38094252862E+02  0.51100000000E-03 0.  1.
         12    1    3    3    0    0 -0.78974881726E+00  0.16609548352E+02 -0.38487963128E+02  0.41926412981E+02  0.00000000000E+00 0. -1.
</event>
<event>
 7    1  0.2232484E-015  0.9000775E+02  0.7816164E-02  0.1186339E+00
        -11   -1    0    0    0    0  0.00000000000E+00  0.00000000000E+00  0.45593999997E+02  0.45594000000E+02  0.51100000000E-03 0.  1.
         11   -1    0    0    0    0 -0.00000000000E+00 -0.00000000000E+00 -0.45593999997E+02  0.45594000000E+02  0.51100000000E-03 0. -1.
    9900012    2    1    2    0    0  0.71366532365E-01  0.58853249035E+00 -0.10205490506E+01  0.90007752552E+02  0.90000014086E+02 0.  0.
        -12    1    1    2    0    0 -0.71366532365E-01 -0.58853249035E+00  0.10205490506E+01  0.11802474481E+01  0.00000000000E+00 0.  1.
         11    1    3    3    0    0 -0.33925941399E+01  0.77062764727E+01 -0.39915528221E+01  0.93182018793E+01  0.51100000000E-03 0. -1.
        -11    1    3    3    0    0 -0.79543496223E+01  0.19907262739E+02  0.32584408340E+02  0.39004031264E+02  0.51100000000E-03 0.  1.
         12    1    3    3    0    0  0.11418310294E+02 -0.27025006721E+02 -0.29613404569E+02  0.41685519409E+02  0.00000000000E+00 0. -1.
</event>
<event>
 7    1  0.2232484E-015  0.9000772E+02  0.7816164E-02  0.1186339E+00
        -11   -1    0    0    0    0  0.00000000000E+00  0.00000000000E+00  0.45593999997E+02  0.45594000000E+02  0.51100000000E-03 0. -1.
         11   -1    0    0    0    0 -0.00000000000E+00 -0.00000000000E+00 -0.45593999997E+02  0.45594000000E+02  0.51100000000E-03 0.  1.
    9900012    2    1    2    0    0  0.73441668440E+00  0.79313118330E+00  0.47395628678E+00  0.90007720583E+02  0.89999981695E+02 0.  0.
        -12    1    1    2    0    0 -0.73441668440E+00 -0.79313118330E+00 -0.47395628678E+00  0.11802794169E+01  0.00000000000E+00 0.  1.
         11    1    3    3    0    0  0.29696150353E+02  0.79582574667E+00  0.13083262649E+02  0.32460228684E+02  0.51100000000E-03 0. -1.
        -11    1    3    3    0    0  0.52295440285E+01  0.17018192135E+02 -0.59918817773E+01  0.18784824774E+02  0.51100000000E-03 0.  1.
        -12    1    3    3    0    0 -0.34191277697E+02 -0.17020886698E+02 -0.66174245850E+01  0.38762667125E+02  0.00000000000E+00 0.  1.
</event>
<event>
 7    1  0.2232484E-015  0.9000746E+02  0.7816164E-02  0.1186340E+00
        -11   -1    0    0    0    0  0.00000000000E+00  0.00000000000E+00  0.45593999997E+02  0.45594000000E+02  0.51100000000E-03 0. -1.
         11   -1    0    0    0    0 -0.00000000000E+00 -0.00000000000E+00 -0.45593999997E+02  0.45594000000E+02  0.51100000000E-03 0.  1.
    9900012    2    1    2    0    0  0.36216881089E+00  0.46752999368E-01  0.11226376164E+01  0.90007463127E+02  0.89999720840E+02 0.  0.
        -12    1    1    2    0    0 -0.36216881089E+00 -0.46752999368E-01 -0.11226376164E+01  0.11805368729E+01  0.00000000000E+00 0.  1.
         11    1    3    3    0    0  0.53898729933E+01  0.30590855008E+02 -0.20692545257E+02  0.37323351544E+02  0.51100000000E-03 0. -1.
        -11    1    3    3    0    0 -0.66841679006E+01  0.43602755890E+01 -0.42950461875E+01  0.90629755461E+01  0.51100000000E-03 0.  1.
        -12    1    3    3    0    0  0.16564637182E+01 -0.34904377597E+02  0.26110229061E+02  0.43621136037E+02  0.00000000000E+00 0.  1.
</event>
<event>
 7    1  0.2232484E-015  0.9000784E+02  0.7816164E-02  0.1186339E+00
        -11   -1    0    0    0    0  0.00000000000E+00  0.00000000000E+00  0.45593999997E+02  0.45594000000E+02  0.51100000000E-03 0.  1.
         11   -1    0    0    0    0 -0.00000000000E+00 -0.00000000000E+00 -0.45593999997E+02  0.45594000000E+02  0.51100000000E-03 0. -1.
    9900012    2    1    2    0    0 -0.68467511872E+00 -0.95944953420E+00 -0.58747692820E-01  0.90007841232E+02  0.90000103936E+02 0.  0.
        -12    1    1    2    0    0  0.68467511872E+00  0.95944953420E+00  0.58747692820E-01  0.11801587682E+01  0.00000000000E+00 0.  1.
         11    1    3    3    0    0  0.31603207828E+02  0.14697597156E+02 -0.19738812188E+02  0.40054997366E+02  0.51100000000E-03 0. -1.
        -11    1    3    3    0    0 -0.31707866980E+01  0.10749866560E+01 -0.65398783864E+01  0.73470738505E+01  0.51100000000E-03 0.  1.
        -12    1    3    3    0    0 -0.29117096249E+02 -0.16732033347E+02  0.26219942881E+02  0.42605770015E+02  0.00000000000E+00 0.  1.
</event>
<event>
 7    1  0.2232484E-015  0.9000779E+02  0.7816164E-02  0.1186339E+00
        -11   -1    0    0    0    0  0.00000000000E+00  0.00000000000E+00  0.45593999997E+02  0.45594000000E+02  0.51100000000E-03 0.  1.
         11   -1    0    0    0    0 -0.00000000000E+00 -0.00000000000E+00 -0.45593999997E+02  0.45594000000E+02  0.51100000000E-03 0. -1.
    9900012    2    1    2    0    0  0.73132912274E+00 -0.43032626122E+00 -0.82028550936E+00  0.90007791843E+02  0.90000053895E+02 0.  0.
        -12    1    1    2    0    0 -0.73132912274E+00  0.43032626122E+00  0.82028550936E+00  0.11802081570E+01  0.00000000000E+00 0.  1.
         11    1    3    3    0    0 -0.33161028756E+01 -0.80213832109E+01  0.15037062756E+02  0.17362384153E+02  0.51100000000E-03 0. -1.
        -11    1    3    3    0    0  0.77501191302E+01 -0.25930208162E+02  0.11317022697E+02  0.29334536724E+02  0.51100000000E-03 0.  1.
         12    1    3    3    0    0 -0.37026871319E+01  0.33521265111E+02 -0.27174370962E+02  0.43310870966E+02  0.00000000000E+00 0. -1.
</event>
<event>
 7    1  0.2232484E-015  0.9000775E+02  0.7816164E-02  0.1186339E+00
        -11   -1    0    0    0    0  0.00000000000E+00  0.00000000000E+00  0.45593999997E+02  0.45594000000E+02  0.51100000000E-03 0.  1.
         11   -1    0    0    0    0 -0.00000000000E+00 -0.00000000000E+00 -0.45593999997E+02  0.45594000000E+02  0.51100000000E-03 0. -1.
    9900012    2    1    2    0    0  0.32821680251E+00  0.61544341765E+00 -0.95209886767E+00  0.90007750398E+02  0.90000011903E+02 0.  0.
        -12    1    1    2    0    0 -0.32821680251E+00 -0.61544341765E+00  0.95209886767E+00  0.11802496022E+01  0.00000000000E+00 0.  1.
         11    1    3    3    0    0 -0.34047253185E+01 -0.18347382396E+01 -0.71187625649E+01  0.81015553827E+01  0.51100000000E-03 0. -1.
        -11    1    3    3    0    0 -0.47781678929E+01  0.35906538813E+01  0.43341893901E+02  0.43752067961E+02  0.51100000000E-03 0.  1.
         12    1    3    3    0    0  0.85111100140E+01 -0.11404722240E+01 -0.37175230204E+02  0.38154127054E+02  0.00000000000E+00 0. -1.
</event>
<event>
 7    1  0.2232484E-015  0.9000818E+02  0.7816164E-02  0.1186338E+00
        -11   -1    0    0    0    0  0.00000000000E+00  0.00000000000E+00  0.45593999997E+02  0.45594000000E+02  0.51100000000E-03 0.  1.
         11   -1    0    0    0    0 -0.00000000000E+00 -0.00000000000E+00 -0.45593999997E+02  0.45594000000E+02  0.51100000000E-03 0. -1.
    9900012    2    1    2    0    0  0.83162226061E+00 -0.30466067670E+00 -0.77946190541E+00  0.90008180279E+02  0.90000447457E+02 0.  0.
        -12    1    1    2    0    0 -0.83162226061E+00  0.30466067670E+00  0.77946190541E+00  0.11798197211E+01  0.00000000000E+00 0.  1.
         11    1    3    3    0    0 -0.39093108336E+01  0.73361301441E+01 -0.23847151541E+01  0.86480277123E+01  0.51100000000E-03 0. -1.
        -11    1    3    3    0    0  0.92737877143E+01  0.36147500812E+02  0.34075447808E+00  0.37319714192E+02  0.51100000000E-03 0.  1.
         12    1    3    3    0    0 -0.45328546201E+01 -0.43788291632E+02  0.12644987706E+01  0.44040438375E+02  0.00000000000E+00 0. -1.
</event>
<event>
 7    1  0.2232484E-015  0.9000774E+02  0.7816164E-02  0.1186339E+00
        -11   -1    0    0    0    0  0.00000000000E+00  0.00000000000E+00  0.45593999997E+02  0.45594000000E+02  0.51100000000E-03 0.  1.
         11   -1    0    0    0    0 -0.00000000000E+00 -0.00000000000E+00 -0.45593999997E+02  0.45594000000E+02  0.51100000000E-03 0. -1.
    9900012    2    1    2    0    0  0.65333278517E+00  0.98262839584E+00  0.24854021741E-01  0.90007737311E+02  0.89999998644E+02 0.  0.
        -12    1    1    2    0    0 -0.65333278517E+00 -0.98262839584E+00 -0.24854021741E-01  0.11802626889E+01  0.00000000000E+00 0.  1.
         11    1    3    3    0    0 -0.77004349110E+01 -0.33462055518E+01  0.41541345004E+01  0.93675302574E+01  0.51100000000E-03 0. -1.
        -11    1    3    3    0    0 -0.21531064846E+02  0.15885479474E+02  0.25527077026E+02  0.36980628352E+02  0.51100000000E-03 0.  1.
         12    1    3    3    0    0  0.29884832543E+02 -0.11556645527E+02 -0.29656357505E+02  0.43659578702E+02  0.00000000000E+00 0. -1.
</event>
<event>
 7    1  0.2232484E-015  0.9000771E+02  0.7816164E-02  0.1186339E+00
        -11   -1    0    0    0    0  0.00000000000E+00  0.00000000000E+00  0.45593999997E+02  0.45594000000E+02  0.51100000000E-03 0. -1.
         11   -1    0    0    0    0 -0.00000000000E+00 -0.00000000000E+00 -0.45593999997E+02  0.45594000000E+02  0.51100000000E-03 0.  1.
    9900012    2    1    2    0    0 -0.35337216411E+00  0.10236189652E+01  0.46949398755E+00  0.90007706699E+02  0.89999967627E+02 0.  0.
        -12    1    1    2    0    0  0.35337216411E+00 -0.10236189652E+01 -0.46949398755E+00  0.11802933011E+01  0.00000000000E+00 0.  1.
         11    1    3    3    0    0 -0.31177334907E+02 -0.29150692635E+01  0.31164800467E+02  0.44178825574E+02  0.51100000000E-03 0. -1.
        -11    1    3    3    0    0  0.59445012186E+01  0.66114930495E+01 -0.64252128627E+01  0.10969607818E+02  0.51100000000E-03 0.  1.
        -12    1    3    3    0    0  0.24879461524E+02 -0.26728048208E+01 -0.24270093617E+02  0.34859273307E+02  0.00000000000E+00 0.  1.
</event>
<event>
 7    1  0.2232484E-015  0.9000775E+02  0.7816164E-02  0.1186339E+00
        -11   -1    0    0    0    0  0.00000000000E+00  0.00000000000E+00  0.45593999997E+02  0.45594000000E+02  0.51100000000E-03 0.  1.
         11   -1    0    0    0    0 -0.00000000000E+00 -0.00000000000E+00 -0.45593999997E+02  0.45594000000E+02  0.51100000000E-03 0. -1.
    9900012    2    1    2    0    0  0.92309101600E-01  0.79542316065E+00 -0.86704223358E+00  0.90007753750E+02  0.90000015300E+02 0.  0.
        -12    1    1    2    0    0 -0.92309101600E-01 -0.79542316065E+00  0.86704223358E+00  0.11802462495E+01  0.00000000000E+00 0.  1.
         11    1    3    3    0    0 -0.34121280061E+02 -0.22820085643E+02  0.10073605115E+02  0.42266956148E+02  0.51100000000E-03 0. -1.
        -11    1    3    3    0    0  0.67221305285E+01  0.13734825333E+02  0.26525644172E+01  0.15519940851E+02  0.51100000000E-03 0.  1.
        -12    1    3    3    0    0  0.27491458634E+02  0.98806834703E+01 -0.13593211766E+02  0.32220856751E+02  0.00000000000E+00 0.  1.
</event>
<event>
 7    1  0.2232484E-015  0.9000780E+02  0.7816164E-02  0.1186339E+00
        -11   -1    0    0    0    0  0.00000000000E+00  0.00000000000E+00  0.45593999997E+02  0.45594000000E+02  0.51100000000E-03 0.  1.
         11   -1    0    0    0    0 -0.00000000000E+00 -0.00000000000E+00 -0.45593999997E+02  0.45594000000E+02  0.51100000000E-03 0. -1.
    9900012    2    1    2    0    0 -0.40317845421E-01 -0.70878422133E+00 -0.94280054581E+00  0.90007799394E+02  0.90000061546E+02 0.  0.
        -12    1    1    2    0    0  0.40317845421E-01  0.70878422133E+00  0.94280054581E+00  0.11802006059E+01  0.00000000000E+00 0.  1.
         11    1    3    3    0    0 -0.25340283294E+02  0.38062585629E+01 -0.28692828062E+02  0.38469415698E+02  0.51100000000E-03 0. -1.
        -11    1    3    3    0    0  0.15737881237E+00  0.24497836298E+01 -0.73815096249E+01  0.77790033119E+01  0.51100000000E-03 0.  1.
        -12    1    3    3    0    0  0.25142586636E+02 -0.69648264140E+01  0.35131537141E+02  0.43759380384E+02  0.00000000000E+00 0.  1.
</event>
<event>
 7    1  0.2232484E-015  0.9000776E+02  0.7816164E-02  0.1186339E+00
        -11   -1    0    0    0    0  0.00000000000E+00  0.00000000000E+00  0.45593999997E+02  0.45594000000E+02  0.51100000000E-03 0.  1.
         11   -1    0    0    0    0 -0.00000000000E+00 -0.00000000000E+00 -0.45593999997E+02  0.45594000000E+02  0.51100000000E-03 0. -1.
    9900012    2    1    2    0    0 -0.10842132249E+01  0.33466646643E+00  0.32473541064E+00  0.90007757208E+02  0.90000018803E+02 0.  0.
        -12    1    1    2    0    0  0.10842132249E+01 -0.33466646643E+00 -0.32473541064E+00  0.11802427919E+01  0.00000000000E+00 0.  1.
         11    1    3    3    0    0 -0.85179167302E+01  0.56546171745E+01 -0.18957708959E+01  0.10398247370E+02  0.51100000000E-03 0. -1.
        -11    1    3    3    0    0 -0.95307075713E+01 -0.34853530133E+02  0.19883648115E+02  0.41242725566E+02  0.51100000000E-03 0.  1.
         12    1    3    3    0    0  0.16964411077E+02  0.29533579425E+02 -0.17663141809E+02  0.38366784272E+02  0.00000000000E+00 0. -1.
</event>
<event>
 7    1  0.2232484E-015  0.9000774E+02  0.7816164E-02  0.1186339E+00
        -11   -1    0    0    0    0  0.00000000000E+00  0.00000000000E+00  0.45593999997E+02  0.45594000000E+02  0.51100000000E-03 0.  1.
         11   -1    0    0    0    0 -0.00000000000E+00 -0.00000000000E+00 -0.45593999997E+02  0.45594000000E+02  0.51100000000E-03 0. -1.
    9900012    2    1    2    0    0 -0.15926117379E+00 -0.17591078508E+00 -0.11561645513E+01  0.90007735116E+02  0.89999996420E+02 0.  0.
        -12    1    1    2    0    0  0.15926117379E+00  0.17591078508E+00  0.11561645513E+01  0.11802648837E+01  0.00000000000E+00 0.  1.
         11    1    3    3    0    0 -0.25728143278E+02 -0.33493140433E+02 -0.62505780742E+01  0.42694233090E+02  0.51100000000E-03 0. -1.
        -11    1    3    3    0    0  0.57040830784E+01 -0.13701479208E+01 -0.29080058029E+01  0.65475466475E+01  0.51100000000E-03 0.  1.
        -12    1    3    3    0    0  0.19864799026E+02  0.34687377568E+02  0.80024193257E+01  0.40765955379E+02  0.00000000000E+00 0.  1.
</event>
<event>
 7    1  0.2232484E-015  0.9000779E+02  0.7816164E-02  0.1186339E+00
        -11   -1    0    0    0    0  0.00000000000E+00  0.00000000000E+00  0.45593999997E+02  0.45594000000E+02  0.51100000000E-03 0. -1.
         11   -1    0    0    0    0 -0.00000000000E+00 -0.00000000000E+00 -0.45593999997E+02  0.45594000000E+02  0.51100000000E-03 0.  1.
    9900012    2    1    2    0    0  0.60623812837E+00  0.51768456973E+00 -0.87027264278E+00  0.90007789657E+02  0.90000051680E+02 0.  0.
        -12    1    1    2    0    0 -0.60623812837E+00 -0.51768456973E+00  0.87027264278E+00  0.11802103435E+01  0.00000000000E+00 0.  1.
         11    1    3    3    0    0  0.25862020336E+02  0.25531078834E+02  0.25716824987E+01  0.36432041302E+02  0.51100000000E-03 0. -1.
        -11    1    3    3    0    0  0.46929555908E+01  0.58092216736E+01  0.59937832099E+01  0.95758198635E+01  0.51100000000E-03 0.  1.
        -12    1    3    3    0    0 -0.29948737799E+02 -0.30822615938E+02 -0.94357383514E+01  0.43999928491E+02  0.00000000000E+00 0.  1.
</event>
<event>
 7    1  0.2232484E-015  0.9000770E+02  0.7816164E-02  0.1186339E+00
        -11   -1    0    0    0    0  0.00000000000E+00  0.00000000000E+00  0.45593999997E+02  0.45594000000E+02  0.51100000000E-03 0. -1.
         11   -1    0    0    0    0 -0.00000000000E+00 -0.00000000000E+00 -0.45593999997E+02  0.45594000000E+02  0.51100000000E-03 0.  1.
    9900012    2    1    2    0    0  0.24888401192E+00 -0.16783816440E+00  0.11414897338E+01  0.90007698465E+02  0.89999959285E+02 0.  0.
        -12    1    1    2    0    0 -0.24888401192E+00  0.16783816440E+00 -0.11414897338E+01  0.11803015349E+01  0.00000000000E+00 0.  1.
         11    1    3    3    0    0  0.18026182652E-01  0.88468736262E+01  0.49643767913E+01  0.10144581563E+02  0.51100000000E-03 0. -1.
        -11    1    3    3    0    0 -0.17750677830E+02  0.20862780090E+02  0.23080764957E+02  0.35819880901E+02  0.51100000000E-03 0.  1.
         12    1    3    3    0    0  0.17981535659E+02 -0.29877491880E+02 -0.26903652015E+02  0.44043236001E+02  0.00000000000E+00 0. -1.
</event>
<event>
 7    1  0.2232484E-015  0.9000775E+02  0.7816164E-02  0.1186339E+00
        -11   -1    0    0    0    0  0.00000000000E+00  0.00000000000E+00  0.45593999997E+02  0.45594000000E+02  0.51100000000E-03 0. -1.
         11   -1    0    0    0    0 -0.00000000000E+00 -0.00000000000E+00 -0.45593999997E+02  0.45594000000E+02  0.51100000000E-03 0.  1.
    9900012    2    1    2    0    0 -0.21897983072E+00 -0.10033049629E+01 -0.58174363454E+00  0.90007746353E+02  0.90000007805E+02 0.  0.
        -12    1    1    2    0    0  0.21897983072E+00  0.10033049629E+01  0.58174363454E+00  0.11802536470E+01  0.00000000000E+00 0.  1.
         11    1    3    3    0    0 -0.46221212995E+01 -0.82152552925E+01  0.37508145333E+02  0.38674479847E+02  0.51100000000E-03 0. -1.
        -11    1    3    3    0    0 -0.40711592007E+01 -0.82108406692E+01  0.22812213198E+00  0.91675668365E+01  0.51100000000E-03 0.  1.
        -12    1    3    3    0    0  0.84743006695E+01  0.15422790999E+02 -0.38318011099E+02  0.42165699670E+02  0.00000000000E+00 0.  1.
</event>
<event>
 7    1  0.2232484E-015  0.9000773E+02  0.7816164E-02  0.1186339E+00
        -11   -1    0    0    0    0  0.00000000000E+00  0.00000000000E+00  0.45593999997E+02  0.45594000000E+02  0.51100000000E-03 0. -1.
         11   -1    0    0    0    0 -0.00000000000E+00 -0.00000000000E+00 -0.45593999997E+02  0.45594000000E+02  0.51100000000E-03 0.  1.
    9900012    2    1    2    0    0  0.11236771807E+01  0.12569893658E+00  0.33851342020E+00  0.90007728012E+02  0.89999989222E+02 0.  0.
        -12    1    1    2    0    0 -0.11236771807E+01 -0.12569893658E+00 -0.33851342020E+00  0.11802719876E+01  0.00000000000E+00 0.  1.
         11    1    3    3    0    0 -0.83200990748E+01 -0.14737364692E+01 -0.80019886203E+00  0.84874181160E+01  0.51100000000E-03 0. -1.
        -11    1    3    3    0    0  0.11870846935E+02 -0.17540442988E+02 -0.34795341520E+02  0.40734505507E+02  0.51100000000E-03 0.  1.
         12    1    3    3    0    0 -0.24270706794E+01  0.19139878394E+02  0.35934053802E+02  0.40785804389E+02  0.00000000000E+00 0. -1.
</event>
<event>
 7    1  0.2232484E-015  0.9000776E+02  0.7816164E-02  0.1186339E+00
        -11   -1    0    0    0    0  0.00000000000E+00  0.00000000000E+00  0.45593999997E+02  0.45594000000E+02  0.51100000000E-03 0.  1.
         11   -1    0    0    0    0 -0.00000000000E+00 -0.00000000000E+00 -0.45593999997E+02  0.45594000000E+02  0.51100000000E-03 0. -1.
    9900012    2    1    2    0    0  0.79336426217E+00 -0.69982232894E+00 -0.52324688467E+00  0.90007760428E+02  0.90000022066E+02 0.  0.
        -12    1    1    2    0    0 -0.79336426217E+00  0.69982232894E+00  0.52324688467E+00  0.11802395718E+01  0.00000000000E+00 0.  1.
         11    1    3    3    0    0 -0.16768720617E+00  0.92418908912E+01 -0.38505899074E+01  0.10013376510E+02  0.51100000000E-03 0. -1.
        -11    1    3    3    0    0 -0.36604242788E+02  0.63608814770E+01 -0.68956754067E+01  0.37787322515E+02  0.51100000000E-03 0.  1.
         12    1    3    3    0    0  0.37565294257E+02 -0.16302594697E+02  0.10223018429E+02  0.42207061403E+02  0.00000000000E+00 0. -1.
</event>
<event>
 7    1  0.2232484E-015  0.9000773E+02  0.7816164E-02  0.1186339E+00
        -11   -1    0    0    0    0  0.00000000000E+00  0.00000000000E+00  0.45593999997E+02  0.45594000000E+02  0.51100000000E-03 0.  1.
         11   -1    0    0    0    0 -0.00000000000E+00 -0.00000000000E+00 -0.45593999997E+02  0.45594000000E+02  0.51100000000E-03 0. -1.
    9900012    2    1    2    0    0 -0.24372170756E+00 -0.11456929872E+01  0.14501863970E+00  0.90007727532E+02  0.89999988736E+02 0.  0.
        -12    1    1    2    0    0  0.24372170756E+00  0.11456929872E+01 -0.14501863970E+00  0.11802724675E+01  0.00000000000E+00 0.  1.
         11    1    3    3    0    0  0.66684875995E+01  0.63413207192E+01 -0.20136937224E+01  0.94199807854E+01  0.51100000000E-03 0. -1.
        -11    1    3    3    0    0  0.84105747563E+01 -0.35033632493E+02  0.23050285887E+02  0.42771589322E+02  0.51100000000E-03 0.  1.
         12    1    3    3    0    0 -0.15322784063E+02  0.27546618787E+02 -0.20891573525E+02  0.37816157425E+02  0.00000000000E+00 0. -1.
</event>
<event>
 7    1  0.2232484E-015  0.9000791E+02  0.7816164E-02  0.1186339E+00
        -11   -1    0    0    0    0  0.00000000000E+00  0.00000000000E+00  0.45593999997E+02  0.45594000000E+02  0.51100000000E-03 0.  1.
         11   -1    0    0    0    0 -0.00000000000E+00 -0.00000000000E+00 -0.45593999997E+02  0.45594000000E+02  0.51100000000E-03 0. -1.
    9900012    2    1    2    0    0  0.42502290820E+00  0.10342841178E+01  0.37712562714E+00  0.90007910238E+02  0.90000173853E+02 0.  0.
        -12    1    1    2    0    0 -0.42502290820E+00 -0.10342841178E+01 -0.37712562714E+00  0.11800897624E+01  0.00000000000E+00 0.  1.
         11    1    3    3    0    0  0.69375989347E+01  0.48955053666E+01  0.46694497435E+01  0.96902019040E+01  0.51100000000E-03 0. -1.
        -11    1    3    3    0    0 -0.30340106787E+01 -0.41721204200E+02 -0.60023515416E+01  0.42259819273E+02  0.51100000000E-03 0.  1.
         12    1    3    3    0    0 -0.34785653478E+01  0.37859982951E+02  0.17100274253E+01  0.38057889060E+02  0.00000000000E+00 0. -1.
</event>
<event>
 7    1  0.2232484E-015  0.9000768E+02  0.7816164E-02  0.1186339E+00
        -11   -1    0    0    0    0  0.00000000000E+00  0.00000000000E+00  0.45593999997E+02  0.45594000000E+02  0.51100000000E-03 0.  1.
         11   -1    0    0    0    0 -0.00000000000E+00 -0.00000000000E+00 -0.45593999997E+02  0.45594000000E+02  0.51100000000E-03 0. -1.
    9900012    2    1    2    0    0  0.11224396992E+01  0.15037047769E+00  0.33266207388E+00  0.90007683850E+02  0.89999944477E+02 0.  0.
        -12    1    1    2    0    0 -0.11224396992E+01 -0.15037047769E+00 -0.33266207388E+00  0.11803161501E+01  0.00000000000E+00 0.  1.
         11    1    3    3    0    0  0.81824149688E+01 -0.10347729009E+02 -0.33395913901E+02  0.35907025440E+02  0.51100000000E-03 0. -1.
        -11    1    3    3    0    0 -0.18210566195E+01  0.15240335174E+01 -0.94219369693E+01  0.97165745965E+01  0.51100000000E-03 0.  1.
        -12    1    3    3    0    0 -0.52389186501E+01  0.89740659695E+01  0.43150512944E+02  0.44384083814E+02  0.00000000000E+00 0.  1.
</event>
<event>
 7    1  0.2232484E-015  0.9000773E+02  0.7816164E-02  0.1186339E+00
        -11   -1    0    0    0    0  0.00000000000E+00  0.00000000000E+00  0.45593999997E+02  0.45594000000E+02  0.51100000000E-03 0.  1.
         11   -1    0    0    0    0 -0.00000000000E+00 -0.00000000000E+00 -0.45593999997E+02  0.45594000000E+02  0.51100000000E-03 0. -1.
    9900012    2    1    2    0    0 -0.12872849092E+00  0.11730266156E+01  0.21986131136E-01  0.90007726364E+02  0.89999987552E+02 0.  0.
        -12    1    1    2    0    0  0.12872849092E+00 -0.11730266156E+01 -0.21986131136E-01  0.11802736358E+01  0.00000000000E+00 0.  1.
         11    1    3    3    0    0  0.12319626409E+02 -0.22385574158E+02 -0.26322348226E+02  0.36684508197E+02  0.51100000000E-03 0. -1.
        -11    1    3    3    0    0 -0.37011769012E+01 -0.13153767935E+01 -0.86542494266E+01  0.95039444423E+01  0.51100000000E-03 0.  1.
        -12    1    3    3    0    0 -0.87471779991E+01  0.24873977567E+02  0.34998583784E+02  0.43819273725E+02  0.00000000000E+00 0.  1.
</event>
<event>
 7    1  0.2232484E-015  0.9000776E+02  0.7816164E-02  0.1186339E+00
        -11   -1    0    0    0    0  0.00000000000E+00  0.00000000000E+00  0.45593999997E+02  0.45594000000E+02  0.51100000000E-03 0.  1.
         11   -1    0    0    0    0 -0.00000000000E+00 -0.00000000000E+00 -0.45593999997E+02  0.45594000000E+02  0.51100000000E-03 0. -1.
    9900012    2    1    2    0    0  0.87908337367E+00 -0.21608152439E+00 -0.75728473316E+00  0.90007763172E+02  0.90000024846E+02 0.  0.
        -12    1    1    2    0    0 -0.87908337367E+00  0.21608152439E+00  0.75728473316E+00  0.11802368280E+01  0.00000000000E+00 0.  1.
         11    1    3    3    0    0  0.37872188070E+01  0.82125336147E+01  0.43005816499E+01  0.10014176824E+02  0.51100000000E-03 0. -1.
        -11    1    3    3    0    0  0.18923037293E+02 -0.25222855453E+02  0.24246732116E+02  0.39776598600E+02  0.51100000000E-03 0.  1.
         12    1    3    3    0    0 -0.21831172726E+02  0.16794240314E+02 -0.29304598499E+02  0.40216987748E+02  0.00000000000E+00 0. -1.
</event>
<event>
 7    1  0.2232484E-015  0.9000753E+02  0.7816164E-02  0.1186339E+00
        -11   -1    0    0    0    0  0.00000000000E+00  0.00000000000E+00  0.45593999997E+02  0.45594000000E+02  0.51100000000E-03 0.  1.
         11   -1    0    0    0    0 -0.00000000000E+00 -0.00000000000E+00 -0.45593999997E+02  0.45594000000E+02  0.51100000000E-03 0. -1.
    9900012    2    1    2    0    0 -0.41433678184E+00 -0.69530066825E+00 -0.85929577176E+00  0.90007530936E+02  0.89999789544E+02 0.  0.
        -12    1    1    2    0    0  0.41433678184E+00  0.69530066825E+00  0.85929577176E+00  0.11804690642E+01  0.00000000000E+00 0.  1.
         11    1    3    3    0    0  0.13823162556E+02 -0.29927038688E+01 -0.34759042969E+02  0.37526352978E+02  0.51100000000E-03 0. -1.
        -11    1    3    3    0    0 -0.52515205061E+01 -0.42851549537E+01 -0.72060675717E+01  0.98928474522E+01  0.51100000000E-03 0.  1.
        -12    1    3    3    0    0 -0.89859788317E+01  0.65825581542E+01  0.41105814769E+02  0.42588330505E+02  0.00000000000E+00 0.  1.
</event>
<event>
 7    1  0.2232484E-015  0.9000779E+02  0.7816164E-02  0.1186339E+00
        -11   -1    0    0    0    0  0.00000000000E+00  0.00000000000E+00  0.45593999997E+02  0.45594000000E+02  0.51100000000E-03 0.  1.
         11   -1    0    0    0    0 -0.00000000000E+00 -0.00000000000E+00 -0.45593999997E+02  0.45594000000E+02  0.51100000000E-03 0. -1.
    9900012    2    1    2    0    0  0.36831402937E+00  0.90643160203E+00 -0.66001409244E+00  0.90007791512E+02  0.90000053560E+02 0.  0.
        -12    1    1    2    0    0 -0.36831402937E+00 -0.90643160203E+00  0.66001409244E+00  0.11802084882E+01  0.00000000000E+00 0.  1.
         11    1    3    3    0    0 -0.37764574290E+01 -0.86907052693E+01  0.66008548817E+00  0.94987210667E+01  0.51100000000E-03 0. -1.
        -11    1    3    3    0    0 -0.20820547248E+02 -0.23242235221E+02 -0.17987792359E+02  0.36017459100E+02  0.51100000000E-03 0.  1.
         12    1    3    3    0    0  0.24965318706E+02  0.32839372093E+02  0.16667692779E+02  0.44491611345E+02  0.00000000000E+00 0. -1.
</event>
<event>
 7    1  0.2232484E-015  0.9000776E+02  0.7816164E-02  0.1186339E+00
        -11   -1    0    0    0    0  0.00000000000E+00  0.00000000000E+00  0.45593999997E+02  0.45594000000E+02  0.51100000000E-03 0. -1.
         11   -1    0    0    0    0 -0.00000000000E+00 -0.00000000000E+00 -0.45593999997E+02  0.45594000000E+02  0.51100000000E-03 0.  1.
    9900012    2    1    2    0    0 -0.10934785204E+01 -0.11752618156E+00  0.42832663853E+00  0.90007757912E+02  0.90000019516E+02 0.  0.
        -12    1    1    2    0    0  0.10934785204E+01  0.11752618156E+00 -0.42832663853E+00  0.11802420884E+01  0.00000000000E+00 0.  1.
         11    1    3    3    0    0  0.36090501093E+01 -0.11832223148E+02 -0.12965386318E+02  0.17920044363E+02  0.51100000000E-03 0. -1.
        -11    1    3    3    0    0  0.22582048930E+02 -0.13804890993E+02 -0.96749670931E+01  0.28180293429E+02  0.51100000000E-03 0.  1.
         12    1    3    3    0    0 -0.27284577560E+02  0.25519587960E+02  0.23068680050E+02  0.43907420120E+02  0.00000000000E+00 0. -1.
</event>
<event>
 7    1  0.2232484E-015  0.9000765E+02  0.7816164E-02  0.1186339E+00
        -11   -1    0    0    0    0  0.00000000000E+00  0.00000000000E+00  0.45593999997E+02  0.45594000000E+02  0.51100000000E-03 0.  1.
         11   -1    0    0    0    0 -0.00000000000E+00 -0.00000000000E+00 -0.45593999997E+02  0.45594000000E+02  0.51100000000E-03 0. -1.
    9900012    2    1    2    0    0  0.24064921094E+00 -0.11481163448E+01  0.13092461653E+00  0.90007650713E+02  0.89999910902E+02 0.  0.
        -12    1    1    2    0    0 -0.24064921094E+00  0.11481163448E+01 -0.13092461653E+00  0.11803492869E+01  0.00000000000E+00 0.  1.
         11    1    3    3    0    0  0.26068832906E+02 -0.24893477980E+02  0.49114488181E+01  0.36378450005E+02  0.51100000000E-03 0. -1.
        -11    1    3    3    0    0  0.28447200541E+01 -0.31630450191E+01  0.10588150078E+02  0.11410793500E+02  0.51100000000E-03 0.  1.
        -12    1    3    3    0    0 -0.28672903749E+02  0.26908406654E+02 -0.15368674279E+02  0.42218407208E+02  0.00000000000E+00 0.  1.
</event>
<event>
 7    1  0.2232484E-015  0.9000776E+02  0.7816164E-02  0.1186339E+00
        -11   -1    0    0    0    0  0.00000000000E+00  0.00000000000E+00  0.45593999997E+02  0.45594000000E+02  0.51100000000E-03 0.  1.
         11   -1    0    0    0    0 -0.00000000000E+00 -0.00000000000E+00 -0.45593999997E+02  0.45594000000E+02  0.51100000000E-03 0. -1.
    9900012    2    1    2    0    0  0.73904322935E+00  0.64417792754E+00  0.65712191319E+00  0.90007763030E+02  0.90000024702E+02 0.  0.
        -12    1    1    2    0    0 -0.73904322935E+00 -0.64417792754E+00 -0.65712191319E+00  0.11802369703E+01  0.00000000000E+00 0.  1.
         11    1    3    3    0    0 -0.32955403689E+02 -0.12882805276E+02 -0.19222477023E+02  0.40268212367E+02  0.51100000000E-03 0. -1.
        -11    1    3    3    0    0  0.34350910160E+01 -0.78212390879E+01  0.31608177572E+01  0.91083697945E+01  0.51100000000E-03 0.  1.
        -12    1    3    3    0    0  0.30259355903E+02  0.21348222291E+02  0.16718781179E+02  0.40631180868E+02  0.00000000000E+00 0.  1.
</event>
<event>
 7    1  0.2232484E-015  0.9000774E+02  0.7816164E-02  0.1186339E+00
        -11   -1    0    0    0    0  0.00000000000E+00  0.00000000000E+00  0.45593999997E+02  0.45594000000E+02  0.51100000000E-03 0.  1.
         11   -1    0    0    0    0 -0.00000000000E+00 -0.00000000000E+00 -0.45593999997E+02  0.45594000000E+02  0.51100000000E-03 0. -1.
    9900012    2    1    2    0    0 -0.59151355369E+00 -0.30349735090E+00 -0.97520158757E+00  0.90007738562E+02  0.89999999911E+02 0.  0.
        -12    1    1    2    0    0  0.59151355369E+00  0.30349735090E+00  0.97520158757E+00  0.11802614382E+01  0.00000000000E+00 0.  1.
         11    1    3    3    0    0  0.25181190875E+02  0.24641344239E+02 -0.22067710505E+02  0.41572491710E+02  0.51100000000E-03 0. -1.
        -11    1    3    3    0    0  0.35423104381E+01 -0.91653759698E+01  0.19028792293E+01  0.10008647737E+02  0.51100000000E-03 0.  1.
        -12    1    3    3    0    0 -0.29315014867E+02 -0.15779465620E+02  0.19189629689E+02  0.38426599114E+02  0.00000000000E+00 0.  1.
</event>
<event>
 7    1  0.2232484E-015  0.9000773E+02  0.7816164E-02  0.1186339E+00
        -11   -1    0    0    0    0  0.00000000000E+00  0.00000000000E+00  0.45593999997E+02  0.45594000000E+02  0.51100000000E-03 0. -1.
         11   -1    0    0    0    0 -0.00000000000E+00 -0.00000000000E+00 -0.45593999997E+02  0.45594000000E+02  0.51100000000E-03 0.  1.
    9900012    2    1    2    0    0  0.10847550132E+01 -0.12156888981E+00  0.44894684236E+00  0.90007734902E+02  0.89999996203E+02 0.  0.
        -12    1    1    2    0    0 -0.10847550132E+01  0.12156888981E+00 -0.44894684236E+00  0.11802650977E+01  0.00000000000E+00 0.  1.
         11    1    3    3    0    0  0.23983221313E+02  0.21458479429E+02  0.20959052525E+02  0.38404988308E+02  0.51100000000E-03 0. -1.
        -11    1    3    3    0    0 -0.24271019729E+01  0.90213566655E+01  0.23101775440E+00  0.93450023830E+01  0.51100000000E-03 0.  1.
        -12    1    3    3    0    0 -0.20471364327E+02 -0.30601404984E+02 -0.20741123437E+02  0.42257744211E+02  0.00000000000E+00 0.  1.
</event>
<event>
 7    1  0.2232484E-015  0.9000776E+02  0.7816164E-02  0.1186339E+00
        -11   -1    0    0    0    0  0.00000000000E+00  0.00000000000E+00  0.45593999997E+02  0.45594000000E+02  0.51100000000E-03 0.  1.
         11   -1    0    0    0    0 -0.00000000000E+00 -0.00000000000E+00 -0.45593999997E+02  0.45594000000E+02  0.51100000000E-03 0. -1.
    9900012    2    1    2    0    0  0.84883270717E-01  0.11706731544E+01 -0.12358976945E+00  0.90007764754E+02  0.90000026449E+02 0.  0.
        -12    1    1    2    0    0 -0.84883270717E-01 -0.11706731544E+01  0.12358976945E+00  0.11802352457E+01  0.00000000000E+00 0.  1.
         11    1    3    3    0    0 -0.77294506060E+01 -0.97583699826E+01 -0.24073103786E+01  0.12679327068E+02  0.51100000000E-03 0. -1.
        -11    1    3    3    0    0  0.22481492178E+02 -0.86297346815E+01  0.31232323700E+02  0.39437898717E+02  0.51100000000E-03 0.  1.
         12    1    3    3    0    0 -0.14667158302E+02  0.19558777819E+02 -0.28948603091E+02  0.37890538969E+02  0.00000000000E+00 0. -1.
</event>
<event>
 7    1  0.2232484E-015  0.9000784E+02  0.7816164E-02  0.1186339E+00
        -11   -1    0    0    0    0  0.00000000000E+00  0.00000000000E+00  0.45593999997E+02  0.45594000000E+02  0.51100000000E-03 0. -1.
         11   -1    0    0    0    0 -0.00000000000E+00 -0.00000000000E+00 -0.45593999997E+02  0.45594000000E+02  0.51100000000E-03 0.  1.
    9900012    2    1    2    0    0  0.33203466122E+00  0.11214709062E+01 -0.15759517290E+00  0.90007838889E+02  0.90000101562E+02 0.  0.
        -12    1    1    2    0    0 -0.33203466122E+00 -0.11214709062E+01  0.15759517290E+00  0.11801611111E+01  0.00000000000E+00 0.  1.
         11    1    3    3    0    0 -0.65846650788E+01  0.12874500414E+02 -0.10714586337E+01  0.14500296514E+02  0.51100000000E-03 0. -1.
        -11    1    3    3    0    0  0.82839817197E+01  0.28392521752E+02  0.14714035901E+02  0.33034262476E+02  0.51100000000E-03 0.  1.
         12    1    3    3    0    0 -0.13672819797E+01 -0.40145551260E+02 -0.13800172440E+02  0.42473279899E+02  0.00000000000E+00 0. -1.
</event>
<event>
 7    1  0.2870336E-015  0.9000782E+02  0.7816164E-02  0.1186339E+00
        -11   -1    0    0    0    0  0.00000000000E+00  0.00000000000E+00  0.45593999997E+02  0.45594000000E+02  0.51100000000E-03 0. -1.
         11   -1    0    0    0    0 -0.00000000000E+00 -0.00000000000E+00 -0.45593999997E+02  0.45594000000E+02  0.51100000000E-03 0.  1.
    9900012    2    1    2    0    0 -0.47702203230E+00 -0.53313924960E+00  0.93863452020E+00  0.90007821098E+02  0.90000083536E+02 0.  0.
        -12    1    1    2    0    0  0.47702203230E+00  0.53313924960E+00 -0.93863452020E+00  0.11801789022E+01  0.00000000000E+00 0.  1.
         11    1    3    3    0    0  0.26612309063E+01  0.89790192361E+01 -0.17110432710E+01  0.95201158457E+01  0.51100000000E-03 0. -1.
        -11    1    3    3    0    0  0.10829593700E+02 -0.59257849511E+01 -0.36624812076E+02  0.38649345232E+02  0.51100000000E-03 0.  1.
         12    1    3    3    0    0 -0.13967846639E+02 -0.35863735346E+01  0.39274489867E+02  0.41838360020E+02  0.00000000000E+00 0. -1.
</event>
<event>
 7    1  0.2232484E-015  0.9000776E+02  0.7816164E-02  0.1186339E+00
        -11   -1    0    0    0    0  0.00000000000E+00  0.00000000000E+00  0.45593999997E+02  0.45594000000E+02  0.51100000000E-03 0.  1.
         11   -1    0    0    0    0 -0.00000000000E+00 -0.00000000000E+00 -0.45593999997E+02  0.45594000000E+02  0.51100000000E-03 0. -1.
    9900012    2    1    2    0    0  0.89566739033E+00 -0.41955356373E+00 -0.64398325132E+00  0.90007762865E+02  0.90000024535E+02 0.  0.
        -12    1    1    2    0    0 -0.89566739033E+00  0.41955356373E+00  0.64398325132E+00  0.11802371350E+01  0.00000000000E+00 0.  1.
         11    1    3    3    0    0  0.11943667987E+02 -0.11515899846E+01 -0.39465306447E+02  0.41249094265E+02  0.51100000000E-03 0. -1.
        -11    1    3    3    0    0  0.51917572274E+00 -0.75299941917E+01  0.14108990704E+00  0.75491895314E+01  0.51100000000E-03 0.  1.
        -12    1    3    3    0    0 -0.11567176320E+02  0.82620306125E+01  0.38680233288E+02  0.41209479069E+02  0.00000000000E+00 0.  1.
</event>
<event>
 7    1  0.2232484E-015  0.9000772E+02  0.7816164E-02  0.1186339E+00
        -11   -1    0    0    0    0  0.00000000000E+00  0.00000000000E+00  0.45593999997E+02  0.45594000000E+02  0.51100000000E-03 0.  1.
         11   -1    0    0    0    0 -0.00000000000E+00 -0.00000000000E+00 -0.45593999997E+02  0.45594000000E+02  0.51100000000E-03 0. -1.
    9900012    2    1    2    0    0  0.67186345888E+00 -0.74952066541E-01 -0.96748935927E+00  0.90007722922E+02  0.89999984065E+02 0.  0.
        -12    1    1    2    0    0 -0.67186345888E+00  0.74952066541E-01  0.96748935927E+00  0.11802770776E+01  0.00000000000E+00 0.  1.
         11    1    3    3    0    0 -0.24288437121E+00  0.10001608858E+02 -0.45106159493E+00  0.10014720635E+02  0.51100000000E-03 0. -1.
        -11    1    3    3    0    0  0.38413679033E+02  0.65477263761E+01 -0.69302270270E+00  0.38973885337E+02  0.51100000000E-03 0.  1.
         12    1    3    3    0    0 -0.37498931203E+02 -0.16624287301E+02  0.17659493836E+00  0.41019116950E+02  0.00000000000E+00 0. -1.
</event>
<event>
 7    1  0.2232484E-015  0.9000775E+02  0.7816164E-02  0.1186339E+00
        -11   -1    0    0    0    0  0.00000000000E+00  0.00000000000E+00  0.45593999997E+02  0.45594000000E+02  0.51100000000E-03 0. -1.
         11   -1    0    0    0    0 -0.00000000000E+00 -0.00000000000E+00 -0.45593999997E+02  0.45594000000E+02  0.51100000000E-03 0.  1.
    9900012    2    1    2    0    0 -0.74034039413E+00 -0.66629899447E+00  0.63319223694E+00  0.90007749748E+02  0.90000011244E+02 0.  0.
        -12    1    1    2    0    0  0.74034039413E+00  0.66629899447E+00 -0.63319223694E+00  0.11802502523E+01  0.00000000000E+00 0.  1.
         11    1    3    3    0    0  0.55118544465E+01 -0.15340103069E+01 -0.66153505325E+01  0.87462329029E+01  0.51100000000E-03 0. -1.
        -11    1    3    3    0    0  0.30124520325E+01  0.26960756824E+02 -0.26285031405E+02  0.37773802457E+02  0.51100000000E-03 0.  1.
         12    1    3    3    0    0 -0.92646468731E+01 -0.26093045512E+02  0.33533574175E+02  0.43487714388E+02  0.00000000000E+00 0. -1.
</event>
<event>
 7    1  0.2232484E-015  0.9000889E+02  0.7816164E-02  0.1186337E+00
        -11   -1    0    0    0    0  0.00000000000E+00  0.00000000000E+00  0.45593999997E+02  0.45594000000E+02  0.51100000000E-03 0.  1.
         11   -1    0    0    0    0 -0.00000000000E+00 -0.00000000000E+00 -0.45593999997E+02  0.45594000000E+02  0.51100000000E-03 0. -1.
    9900012    2    1    2    0    0 -0.87012405690E+00  0.68973761481E+00  0.39680994147E+00  0.90008885086E+02  0.90001161561E+02 0.  0.
        -12    1    1    2    0    0  0.87012405690E+00 -0.68973761481E+00 -0.39680994147E+00  0.11791149144E+01  0.00000000000E+00 0.  1.
         11    1    3    3    0    0 -0.35622028882E+01  0.60248304189E+01  0.67932867431E+01  0.97538000815E+01  0.51100000000E-03 0. -1.
        -11    1    3    3    0    0 -0.30273502872E+02 -0.21613283310E+02  0.12078042259E+02  0.39108798200E+02  0.51100000000E-03 0.  1.
         12    1    3    3    0    0  0.32965581704E+02  0.16278190506E+02 -0.18474519061E+02  0.41146286804E+02  0.00000000000E+00 0. -1.
</event>
<event>
 7    1  0.2232484E-015  0.9000777E+02  0.7816164E-02  0.1186339E+00
        -11   -1    0    0    0    0  0.00000000000E+00  0.00000000000E+00  0.45593999997E+02  0.45594000000E+02  0.51100000000E-03 0. -1.
         11   -1    0    0    0    0 -0.00000000000E+00 -0.00000000000E+00 -0.45593999997E+02  0.45594000000E+02  0.51100000000E-03 0.  1.
    9900012    2    1    2    0    0 -0.97074174241E+00  0.66868628018E+00 -0.58914956012E-01  0.90007766191E+02  0.90000027905E+02 0.  0.
        -12    1    1    2    0    0  0.97074174241E+00 -0.66868628018E+00  0.58914956012E-01  0.11802338090E+01  0.00000000000E+00 0.  1.
         11    1    3    3    0    0  0.13337639953E+02 -0.32415844026E+02  0.94481821108E+01  0.36303549811E+02  0.51100000000E-03 0. -1.
        -11    1    3    3    0    0  0.30219940922E+01 -0.40880172567E+01  0.77001267661E+01  0.92269326355E+01  0.51100000000E-03 0.  1.
        -12    1    3    3    0    0 -0.17330375788E+02  0.37172547563E+02 -0.17207223833E+02  0.44477283744E+02  0.00000000000E+00 0.  1.
</event>
<event>
 7    1  0.2232484E-015  0.9000778E+02  0.7816164E-02  0.1186339E+00
        -11   -1    0    0    0    0  0.00000000000E+00  0.00000000000E+00  0.45593999997E+02  0.45594000000E+02  0.51100000000E-03 0. -1.
         11   -1    0    0    0    0 -0.00000000000E+00 -0.00000000000E+00 -0.45593999997E+02  0.45594000000E+02  0.51100000000E-03 0.  1.
    9900012    2    1    2    0    0  0.80056021652E+00 -0.82607753072E+00  0.26385661699E+00  0.90007779232E+02  0.90000041118E+02 0.  0.
        -12    1    1    2    0    0 -0.80056021652E+00  0.82607753072E+00 -0.26385661699E+00  0.11802207681E+01  0.00000000000E+00 0.  1.
         11    1    3    3    0    0  0.10582799147E+02 -0.11365547280E+02 -0.67575058325E+01  0.16936209378E+02  0.51100000000E-03 0. -1.
        -11    1    3    3    0    0  0.13481763122E+02  0.73036664028E+01 -0.27400961181E+02  0.31399269955E+02  0.51100000000E-03 0.  1.
         12    1    3    3    0    0 -0.23264002052E+02  0.32358033460E+01  0.34422323631E+02  0.41672299899E+02  0.00000000000E+00 0. -1.
</event>
<event>
 7    1  0.2232484E-015  0.9000742E+02  0.7816164E-02  0.1186340E+00
        -11   -1    0    0    0    0  0.00000000000E+00  0.00000000000E+00  0.45593999997E+02  0.45594000000E+02  0.51100000000E-03 0.  1.
         11   -1    0    0    0    0 -0.00000000000E+00 -0.00000000000E+00 -0.45593999997E+02  0.45594000000E+02  0.51100000000E-03 0. -1.
    9900012    2    1    2    0    0  0.23217006433E+00 -0.11389142681E+01 -0.20676328422E+00  0.90007415524E+02  0.89999672608E+02 0.  0.
        -12    1    1    2    0    0 -0.23217006433E+00  0.11389142681E+01  0.20676328422E+00  0.11805844758E+01  0.00000000000E+00 0.  1.
         11    1    3    3    0    0  0.17746035161E+01  0.43791371834E+01 -0.75623969422E+01  0.89171692752E+01  0.51100000000E-03 0. -1.
        -11    1    3    3    0    0  0.99529857072E+01  0.24812575131E+02  0.31011520729E+02  0.40944355256E+02  0.51100000000E-03 0.  1.
         12    1    3    3    0    0 -0.11495419159E+02 -0.30330626583E+02 -0.23655887071E+02  0.40145890993E+02  0.00000000000E+00 0. -1.
</event>
<event>
 7    1  0.2232484E-015  0.9000774E+02  0.7816164E-02  0.1186339E+00
        -11   -1    0    0    0    0  0.00000000000E+00  0.00000000000E+00  0.45593999997E+02  0.45594000000E+02  0.51100000000E-03 0.  1.
         11   -1    0    0    0    0 -0.00000000000E+00 -0.00000000000E+00 -0.45593999997E+02  0.45594000000E+02  0.51100000000E-03 0. -1.
    9900012    2    1    2    0    0  0.41422831385E+00 -0.79188394136E+00 -0.77094033223E+00  0.90007739745E+02  0.90000001110E+02 0.  0.
        -12    1    1    2    0    0 -0.41422831385E+00  0.79188394136E+00  0.77094033223E+00  0.11802602545E+01  0.00000000000E+00 0.  1.
         11    1    3    3    0    0  0.35245869763E+01  0.34287846107E+02 -0.15100455692E+02  0.37631142241E+02  0.51100000000E-03 0. -1.
        -11    1    3    3    0    0  0.78597217551E+01  0.33714851633E+01 -0.26235455660E+01  0.89456766022E+01  0.51100000000E-03 0.  1.
        -12    1    3    3    0    0 -0.10970080418E+02 -0.38451215212E+02  0.16953060926E+02  0.43430920902E+02  0.00000000000E+00 0.  1.
</event>
<event>
 7    1  0.2232484E-015  0.9000775E+02  0.7816164E-02  0.1186339E+00
        -11   -1    0    0    0    0  0.00000000000E+00  0.00000000000E+00  0.45593999997E+02  0.45594000000E+02  0.51100000000E-03 0.  1.
         11   -1    0    0    0    0 -0.00000000000E+00 -0.00000000000E+00 -0.45593999997E+02  0.45594000000E+02  0.51100000000E-03 0. -1.
    9900012    2    1    2    0    0  0.24459238731E+00 -0.10263081174E+01 -0.52900984254E+00  0.90007752059E+02  0.90000013587E+02 0.  0.
        -12    1    1    2    0    0 -0.24459238731E+00  0.10263081174E+01  0.52900984254E+00  0.11802479406E+01  0.00000000000E+00 0.  1.
         11    1    3    3    0    0  0.33521009486E+02 -0.43151032747E+01  0.10534035697E+02  0.35401187855E+02  0.51100000000E-03 0. -1.
        -11    1    3    3    0    0  0.74310827037E+01  0.85698646622E+01  0.20241205576E+01  0.11522180122E+02  0.51100000000E-03 0.  1.
        -12    1    3    3    0    0 -0.40707499802E+02 -0.52810695048E+01 -0.13087166097E+02  0.43084384082E+02  0.00000000000E+00 0.  1.
</event>
<event>
 7    1  0.2232484E-015  0.9000770E+02  0.7816164E-02  0.1186339E+00
        -11   -1    0    0    0    0  0.00000000000E+00  0.00000000000E+00  0.45593999997E+02  0.45594000000E+02  0.51100000000E-03 0.  1.
         11   -1    0    0    0    0 -0.00000000000E+00 -0.00000000000E+00 -0.45593999997E+02  0.45594000000E+02  0.51100000000E-03 0. -1.
    9900012    2    1    2    0    0 -0.11614465077E+01 -0.14849464274E+00 -0.14867532188E+00  0.90007697920E+02  0.89999958732E+02 0.  0.
        -12    1    1    2    0    0  0.11614465077E+01  0.14849464274E+00  0.14867532188E+00  0.11803020802E+01  0.00000000000E+00 0.  1.
         11    1    3    3    0    0  0.92148035202E+01  0.36873004698E+02  0.24003490970E+01  0.38082709403E+02  0.51100000000E-03 0. -1.
        -11    1    3    3    0    0 -0.55382193547E+01  0.17375357233E+01 -0.10561897374E+02  0.12051745949E+02  0.51100000000E-03 0.  1.
        -12    1    3    3    0    0 -0.48380306732E+01 -0.38759035064E+02  0.80128729555E+01  0.39873242568E+02  0.00000000000E+00 0.  1.
</event>
<event>
 7    1  0.2232484E-015  0.9000790E+02  0.7816164E-02  0.1186339E+00
        -11   -1    0    0    0    0  0.00000000000E+00  0.00000000000E+00  0.45593999997E+02  0.45594000000E+02  0.51100000000E-03 0.  1.
         11   -1    0    0    0    0 -0.00000000000E+00 -0.00000000000E+00 -0.45593999997E+02  0.45594000000E+02  0.51100000000E-03 0. -1.
    9900012    2    1    2    0    0 -0.56270814787E+00 -0.38139586751E+00 -0.96464300572E+00  0.90007898565E+02  0.90000162026E+02 0.  0.
        -12    1    1    2    0    0  0.56270814787E+00  0.38139586751E+00  0.96464300572E+00  0.11801014346E+01  0.00000000000E+00 0.  1.
         11    1    3    3    0    0  0.27806327434E+02 -0.13660564038E+02 -0.25276581779E+02  0.39983852264E+02  0.51100000000E-03 0. -1.
        -11    1    3    3    0    0  0.32751873645E+01 -0.51958762215E+01  0.75410801742E+01  0.97258353079E+01  0.51100000000E-03 0.  1.
        -12    1    3    3    0    0 -0.31644222946E+02  0.18475044392E+02  0.16770858599E+02  0.40298210994E+02  0.00000000000E+00 0.  1.
</event>
<event>
 7    1  0.2232484E-015  0.9000781E+02  0.7816164E-02  0.1186339E+00
        -11   -1    0    0    0    0  0.00000000000E+00  0.00000000000E+00  0.45593999997E+02  0.45594000000E+02  0.51100000000E-03 0.  1.
         11   -1    0    0    0    0 -0.00000000000E+00 -0.00000000000E+00 -0.45593999997E+02  0.45594000000E+02  0.51100000000E-03 0. -1.
    9900012    2    1    2    0    0  0.10397992801E+01  0.53797919988E+00  0.14915742952E+00  0.90007808447E+02  0.90000070719E+02 0.  0.
        -12    1    1    2    0    0 -0.10397992801E+01 -0.53797919988E+00 -0.14915742952E+00  0.11801915527E+01  0.00000000000E+00 0.  1.
         11    1    3    3    0    0 -0.29486527313E+02 -0.19839601451E+02 -0.16510081865E+02  0.39187343393E+02  0.51100000000E-03 0. -1.
        -11    1    3    3    0    0 -0.16077247969E+01 -0.43905306738E+01 -0.31834015888E+01  0.56564639623E+01  0.51100000000E-03 0.  1.
        -12    1    3    3    0    0  0.32134051390E+02  0.24768111325E+02  0.19842640884E+02  0.45164001092E+02  0.00000000000E+00 0.  1.
</event>
<event>
 7    1  0.2232484E-015  0.9000788E+02  0.7816164E-02  0.1186339E+00
        -11   -1    0    0    0    0  0.00000000000E+00  0.00000000000E+00  0.45593999997E+02  0.45594000000E+02  0.51100000000E-03 0. -1.
         11   -1    0    0    0    0 -0.00000000000E+00 -0.00000000000E+00 -0.45593999997E+02  0.45594000000E+02  0.51100000000E-03 0.  1.
    9900012    2    1    2    0    0 -0.60409789775E+00 -0.54737127023E+00  0.85330801185E+00  0.90007879608E+02  0.90000142818E+02 0.  0.
        -12    1    1    2    0    0  0.60409789775E+00  0.54737127023E+00 -0.85330801185E+00  0.11801203924E+01  0.00000000000E+00 0.  1.
         11    1    3    3    0    0  0.72688140293E+01  0.69797434305E+01 -0.38927213978E+01  0.10803043825E+02  0.51100000000E-03 0. -1.
        -11    1    3    3    0    0 -0.13744151036E+02  0.75068279742E+01 -0.33889866665E+02  0.37333325820E+02  0.51100000000E-03 0.  1.
         12    1    3    3    0    0  0.58712391091E+01 -0.15033942675E+02  0.38635896075E+02  0.41871509962E+02  0.00000000000E+00 0. -1.
</event>
<event>
 7    1  0.2232484E-015  0.9000752E+02  0.7816164E-02  0.1186339E+00
        -11   -1    0    0    0    0  0.00000000000E+00  0.00000000000E+00  0.45593999997E+02  0.45594000000E+02  0.51100000000E-03 0. -1.
         11   -1    0    0    0    0 -0.00000000000E+00 -0.00000000000E+00 -0.45593999997E+02  0.45594000000E+02  0.51100000000E-03 0.  1.
    9900012    2    1    2    0    0 -0.83733647242E+00  0.63575929000E+00  0.53684713508E+00  0.90007522516E+02  0.89999781013E+02 0.  0.
        -12    1    1    2    0    0  0.83733647242E+00 -0.63575929000E+00 -0.53684713508E+00  0.11804774836E+01  0.00000000000E+00 0.  1.
         11    1    3    3    0    0 -0.84888343240E+01 -0.54382602737E+01 -0.64766290172E+00  0.10102200279E+02  0.51100000000E-03 0. -1.
        -11    1    3    3    0    0 -0.20125820726E+02  0.34219287014E+02 -0.45060270794E+01  0.39953880212E+02  0.51100000000E-03 0.  1.
         12    1    3    3    0    0  0.27777318578E+02 -0.28145267450E+02  0.56905371162E+01  0.39951442026E+02  0.00000000000E+00 0. -1.
</event>
<event>
 7    1  0.2232484E-015  0.9000788E+02  0.7816164E-02  0.1186339E+00
        -11   -1    0    0    0    0  0.00000000000E+00  0.00000000000E+00  0.45593999997E+02  0.45594000000E+02  0.51100000000E-03 0. -1.
         11   -1    0    0    0    0 -0.00000000000E+00 -0.00000000000E+00 -0.45593999997E+02  0.45594000000E+02  0.51100000000E-03 0.  1.
    9900012    2    1    2    0    0  0.75829073523E+00 -0.40619425642E+00  0.80789385535E+00  0.90007876661E+02  0.90000139833E+02 0.  0.
        -12    1    1    2    0    0 -0.75829073523E+00  0.40619425642E+00 -0.80789385535E+00  0.11801233387E+01  0.00000000000E+00 0.  1.
         11    1    3    3    0    0 -0.25598809549E+01 -0.36269508881E+02  0.10231139927E+01  0.36374125796E+02  0.51100000000E-03 0. -1.
        -11    1    3    3    0    0  0.50770331056E+01 -0.81395178717E+01  0.14873068556E+00  0.95942762842E+01  0.51100000000E-03 0.  1.
        -12    1    3    3    0    0 -0.17588614155E+01  0.44002832496E+02 -0.36395082292E+00  0.44039474581E+02  0.00000000000E+00 0.  1.
</event>
<event>
 7    1  0.2232484E-015  0.9000775E+02  0.7816164E-02  0.1186339E+00
        -11   -1    0    0    0    0  0.00000000000E+00  0.00000000000E+00  0.45593999997E+02  0.45594000000E+02  0.51100000000E-03 0. -1.
         11   -1    0    0    0    0 -0.00000000000E+00 -0.00000000000E+00 -0.45593999997E+02  0.45594000000E+02  0.51100000000E-03 0.  1.
    9900012    2    1    2    0    0  0.20899821954E+00  0.81734510652E+00  0.82538398362E+00  0.90007749179E+02  0.90000010669E+02 0.  0.
        -12    1    1    2    0    0 -0.20899821954E+00 -0.81734510652E+00 -0.82538398362E+00  0.11802508205E+01  0.00000000000E+00 0.  1.
         11    1    3    3    0    0  0.17491231440E+02 -0.35029877132E+02  0.46976409987E+01  0.39434798090E+02  0.51100000000E-03 0. -1.
        -11    1    3    3    0    0  0.89225405376E+01  0.10266621943E+02  0.95597515442E+00  0.13635583761E+02  0.51100000000E-03 0.  1.
        -12    1    3    3    0    0 -0.26204773758E+02  0.25580600296E+02 -0.48282321695E+01  0.36937367328E+02  0.00000000000E+00 0.  1.
</event>
<event>
 7    1  0.2232484E-015  0.9000770E+02  0.7816164E-02  0.1186339E+00
        -11   -1    0    0    0    0  0.00000000000E+00  0.00000000000E+00  0.45593999997E+02  0.45594000000E+02  0.51100000000E-03 0. -1.
         11   -1    0    0    0    0 -0.00000000000E+00 -0.00000000000E+00 -0.45593999997E+02  0.45594000000E+02  0.51100000000E-03 0.  1.
    9900012    2    1    2    0    0  0.22241109720E+00  0.28686481314E+00  0.11230961273E+01  0.90007702144E+02  0.89999963013E+02 0.  0.
        -12    1    1    2    0    0 -0.22241109720E+00 -0.28686481314E+00 -0.11230961273E+01  0.11802978558E+01  0.00000000000E+00 0.  1.
         11    1    3    3    0    0  0.79983998500E+01 -0.21983396544E+02  0.31416316348E+02  0.39169236103E+02  0.51100000000E-03 0. -1.
        -11    1    3    3    0    0 -0.25492099049E+01 -0.86264482291E+01 -0.36515676649E+01  0.97081422971E+01  0.51100000000E-03 0.  1.
        -12    1    3    3    0    0 -0.52267788479E+01  0.30896709586E+02 -0.26641652556E+02  0.41130323744E+02  0.00000000000E+00 0.  1.
</event>
<event>
 7    1  0.2232484E-015  0.9000773E+02  0.7816164E-02  0.1186339E+00
        -11   -1    0    0    0    0  0.00000000000E+00  0.00000000000E+00  0.45593999997E+02  0.45594000000E+02  0.51100000000E-03 0.  1.
         11   -1    0    0    0    0 -0.00000000000E+00 -0.00000000000E+00 -0.45593999997E+02  0.45594000000E+02  0.51100000000E-03 0. -1.
    9900012    2    1    2    0    0 -0.43173021747E-01 -0.34267103541E-01 -0.11789858988E+01  0.90007726348E+02  0.89999987536E+02 0.  0.
        -12    1    1    2    0    0  0.43173021747E-01  0.34267103541E-01  0.11789858988E+01  0.11802736521E+01  0.00000000000E+00 0.  1.
         11    1    3    3    0    0  0.30110100103E+01  0.41293420691E+01  0.62865991233E+01  0.81017884448E+01  0.51100000000E-03 0. -1.
        -11    1    3    3    0    0  0.34753466021E+02 -0.42664433458E+01  0.14816994180E+02  0.38020379484E+02  0.51100000000E-03 0.  1.
         12    1    3    3    0    0 -0.37807649053E+02  0.10283417310E+00 -0.22282579202E+02  0.43885558419E+02  0.00000000000E+00 0. -1.
</event>
<event>
 7    1  0.2232484E-015  0.9000755E+02  0.7816164E-02  0.1186339E+00
        -11   -1    0    0    0    0  0.00000000000E+00  0.00000000000E+00  0.45593999997E+02  0.45594000000E+02  0.51100000000E-03 0.  1.
         11   -1    0    0    0    0 -0.00000000000E+00 -0.00000000000E+00 -0.45593999997E+02  0.45594000000E+02  0.51100000000E-03 0. -1.
    9900012    2    1    2    0    0  0.87315550208E+00 -0.38535317143E+00 -0.69467167576E+00  0.90007548250E+02  0.89999807086E+02 0.  0.
        -12    1    1    2    0    0 -0.87315550208E+00  0.38535317143E+00  0.69467167576E+00  0.11804517502E+01  0.00000000000E+00 0.  1.
         11    1    3    3    0    0  0.18138427815E+02  0.31957358187E+02 -0.15378804171E+02  0.39834443939E+02  0.51100000000E-03 0. -1.
        -11    1    3    3    0    0 -0.12744502075E+02  0.22158940085E+01  0.20302399568E+01  0.13094059490E+02  0.51100000000E-03 0.  1.
        -12    1    3    3    0    0 -0.45207702384E+01 -0.34558605367E+02  0.12653892538E+02  0.37079044821E+02  0.00000000000E+00 0.  1.
</event>
<event>
 7    1  0.2232484E-015  0.9000777E+02  0.7816164E-02  0.1186339E+00
        -11   -1    0    0    0    0  0.00000000000E+00  0.00000000000E+00  0.45593999997E+02  0.45594000000E+02  0.51100000000E-03 0. -1.
         11   -1    0    0    0    0 -0.00000000000E+00 -0.00000000000E+00 -0.45593999997E+02  0.45594000000E+02  0.51100000000E-03 0.  1.
    9900012    2    1    2    0    0  0.85751711386E+00 -0.19457322357E+00  0.78723904404E+00  0.90007771356E+02  0.90000033138E+02 0.  0.
        -12    1    1    2    0    0 -0.85751711386E+00  0.19457322357E+00 -0.78723904404E+00  0.11802286441E+01  0.00000000000E+00 0.  1.
         11    1    3    3    0    0  0.80189135989E+01 -0.44602499480E+01  0.43254374313E+02  0.44216939089E+02  0.51100000000E-03 0. -1.
        -11    1    3    3    0    0 -0.46736777430E+01 -0.26738391834E+01 -0.42238623903E+01  0.68435146948E+01  0.51100000000E-03 0.  1.
        -12    1    3    3    0    0 -0.24877187421E+01  0.69395159079E+01 -0.38243272879E+02  0.38947317572E+02  0.00000000000E+00 0.  1.
</event>
<event>
 7    1  0.2232484E-015  0.9000772E+02  0.7816164E-02  0.1186339E+00
        -11   -1    0    0    0    0  0.00000000000E+00  0.00000000000E+00  0.45593999997E+02  0.45594000000E+02  0.51100000000E-03 0. -1.
         11   -1    0    0    0    0 -0.00000000000E+00 -0.00000000000E+00 -0.45593999997E+02  0.45594000000E+02  0.51100000000E-03 0.  1.
    9900012    2    1    2    0    0  0.60110155394E+00  0.19000172177E+00  0.99781761143E+00  0.90007718797E+02  0.89999979885E+02 0.  0.
        -12    1    1    2    0    0 -0.60110155394E+00 -0.19000172177E+00 -0.99781761143E+00  0.11802812030E+01  0.00000000000E+00 0.  1.
         11    1    3    3    0    0  0.82944112824E+01  0.47325936732E+01  0.16884274440E+01  0.96977053416E+01  0.51100000000E-03 0. -1.
        -11    1    3    3    0    0 -0.29678227647E+02 -0.23344411889E+02  0.21860164639E+02  0.43630557651E+02  0.51100000000E-03 0.  1.
         12    1    3    3    0    0  0.21984917918E+02  0.18801819937E+02 -0.22550774471E+02  0.36679455804E+02  0.00000000000E+00 0. -1.
</event>
<event>
 7    1  0.2232484E-015  0.9000775E+02  0.7816164E-02  0.1186339E+00
        -11   -1    0    0    0    0  0.00000000000E+00  0.00000000000E+00  0.45593999997E+02  0.45594000000E+02  0.51100000000E-03 0.  1.
         11   -1    0    0    0    0 -0.00000000000E+00 -0.00000000000E+00 -0.45593999997E+02  0.45594000000E+02  0.51100000000E-03 0. -1.
    9900012    2    1    2    0    0 -0.10920158148E+01  0.17704604727E+00  0.41128313842E+00  0.90007746780E+02  0.90000008238E+02 0.  0.
        -12    1    1    2    0    0  0.10920158148E+01 -0.17704604727E+00 -0.41128313842E+00  0.11802532197E+01  0.00000000000E+00 0.  1.
         11    1    3    3    0    0 -0.12220680937E+02 -0.28946140559E+02  0.27122942958E+02  0.41507567151E+02  0.51100000000E-03 0. -1.
        -11    1    3    3    0    0  0.27296556304E+01  0.56085869512E+01  0.51015604836E+01  0.80581131215E+01  0.51100000000E-03 0.  1.
        -12    1    3    3    0    0  0.83990094919E+01  0.23514599655E+02 -0.31813220303E+02  0.40442066508E+02  0.00000000000E+00 0.  1.
</event>
<event>
 7    1  0.2232484E-015  0.9000775E+02  0.7816164E-02  0.1186339E+00
        -11   -1    0    0    0    0  0.00000000000E+00  0.00000000000E+00  0.45593999997E+02  0.45594000000E+02  0.51100000000E-03 0.  1.
         11   -1    0    0    0    0 -0.00000000000E+00 -0.00000000000E+00 -0.45593999997E+02  0.45594000000E+02  0.51100000000E-03 0. -1.
    9900012    2    1    2    0    0 -0.10188889301E+01 -0.25833295179E+00 -0.53677707144E+00  0.90007745710E+02  0.90000007153E+02 0.  0.
        -12    1    1    2    0    0  0.10188889301E+01  0.25833295179E+00  0.53677707144E+00  0.11802542905E+01  0.00000000000E+00 0.  1.
         11    1    3    3    0    0  0.25319894783E+02 -0.22608295890E+02  0.57197081893E+01  0.34423061701E+02  0.51100000000E-03 0. -1.
        -11    1    3    3    0    0  0.67491335964E+01  0.13425694993E+02  0.95920772773E+01  0.17827171315E+02  0.51100000000E-03 0.  1.
        -12    1    3    3    0    0 -0.33087917310E+02  0.89242679451E+01 -0.15848562538E+02  0.37757512693E+02  0.00000000000E+00 0.  1.
</event>
<event>
 7    1  0.2232484E-015  0.9000776E+02  0.7816164E-02  0.1186339E+00
        -11   -1    0    0    0    0  0.00000000000E+00  0.00000000000E+00  0.45593999997E+02  0.45594000000E+02  0.51100000000E-03 0.  1.
         11   -1    0    0    0    0 -0.00000000000E+00 -0.00000000000E+00 -0.45593999997E+02  0.45594000000E+02  0.51100000000E-03 0. -1.
    9900012    2    1    2    0    0 -0.10206294924E+01 -0.12575272481E+00 -0.57919740299E+00  0.90007759372E+02  0.90000020996E+02 0.  0.
        -12    1    1    2    0    0  0.10206294924E+01  0.12575272481E+00  0.57919740299E+00  0.11802406281E+01  0.00000000000E+00 0.  1.
         11    1    3    3    0    0 -0.16758613851E+02 -0.15167803652E+02 -0.35872323143E+02  0.42399728464E+02  0.51100000000E-03 0. -1.
        -11    1    3    3    0    0  0.29853122426E+01 -0.62442389847E+01  0.10124132993E+02  0.12263795449E+02  0.51100000000E-03 0.  1.
        -12    1    3    3    0    0  0.12752672117E+02  0.21286289912E+02  0.25168992747E+02  0.35344235460E+02  0.00000000000E+00 0.  1.
</event>
<event>
 7    1  0.2232484E-015  0.9000758E+02  0.7816164E-02  0.1186339E+00
        -11   -1    0    0    0    0  0.00000000000E+00  0.00000000000E+00  0.45593999997E+02  0.45594000000E+02  0.51100000000E-03 0. -1.
         11   -1    0    0    0    0 -0.00000000000E+00 -0.00000000000E+00 -0.45593999997E+02  0.45594000000E+02  0.51100000000E-03 0.  1.
    9900012    2    1    2    0    0  0.58982332980E+00  0.10116871292E+01  0.14825787487E+00  0.90007583631E+02  0.89999842934E+02 0.  0.
        -12    1    1    2    0    0 -0.58982332980E+00 -0.10116871292E+01 -0.14825787487E+00  0.11804163694E+01  0.00000000000E+00 0.  1.
         11    1    3    3    0    0  0.39312297145E+02  0.28116826360E+01 -0.11251690858E+02  0.40987349432E+02  0.51100000000E-03 0. -1.
        -11    1    3    3    0    0 -0.33287928922E+01 -0.66984962944E+01 -0.57037288322E+01  0.94065529063E+01  0.51100000000E-03 0.  1.
        -12    1    3    3    0    0 -0.35393680923E+02  0.48985007876E+01  0.17103677565E+02  0.39613681292E+02  0.00000000000E+00 0.  1.
</event>
<event>
 7    1  0.2232484E-015  0.9000775E+02  0.7816164E-02  0.1186339E+00
        -11   -1    0    0    0    0  0.00000000000E+00  0.00000000000E+00  0.45593999997E+02  0.45594000000E+02  0.51100000000E-03 0.  1.
         11   -1    0    0    0    0 -0.00000000000E+00 -0.00000000000E+00 -0.45593999997E+02  0.45594000000E+02  0.51100000000E-03 0. -1.
    9900012    2    1    2    0    0  0.73569896729E+00 -0.97566321835E-01 -0.91772870290E+00  0.90007746582E+02  0.90000008037E+02 0.  0.
        -12    1    1    2    0    0 -0.73569896729E+00  0.97566321835E-01  0.91772870290E+00  0.11802534176E+01  0.00000000000E+00 0.  1.
         11    1    3    3    0    0 -0.24826711624E+01 -0.66191623893E+01 -0.73476501926E+01  0.10196319456E+02  0.51100000000E-03 0. -1.
        -11    1    3    3    0    0  0.50589055013E+01 -0.34734248854E+02  0.14066558199E+02  0.37814397102E+02  0.51100000000E-03 0.  1.
         12    1    3    3    0    0 -0.18405353716E+01  0.41255844922E+02 -0.76366367093E+01  0.41997030025E+02  0.00000000000E+00 0. -1.
</event>
<event>
 7    1  0.2232484E-015  0.9000803E+02  0.7816164E-02  0.1186338E+00
        -11   -1    0    0    0    0  0.00000000000E+00  0.00000000000E+00  0.45593999997E+02  0.45594000000E+02  0.51100000000E-03 0.  1.
         11   -1    0    0    0    0 -0.00000000000E+00 -0.00000000000E+00 -0.45593999997E+02  0.45594000000E+02  0.51100000000E-03 0. -1.
    9900012    2    1    2    0    0  0.80261262461E-01  0.23916047845E+00 -0.11526869299E+01  0.90008031033E+02  0.90000296242E+02 0.  0.
        -12    1    1    2    0    0 -0.80261262461E-01 -0.23916047845E+00  0.11526869299E+01  0.11799689670E+01  0.00000000000E+00 0.  1.
         11    1    3    3    0    0 -0.15164649888E+02 -0.74149166332E+01  0.17312820934E+01  0.16968940239E+02  0.51100000000E-03 0. -1.
        -11    1    3    3    0    0  0.24467608490E+02 -0.20154079533E+02  0.18559066662E+02  0.36732679492E+02  0.51100000000E-03 0.  1.
         12    1    3    3    0    0 -0.92226973394E+01  0.27808156645E+02 -0.21443035686E+02  0.36306411301E+02  0.00000000000E+00 0. -1.
</event>
<event>
 7    1  0.2232484E-015  0.9000784E+02  0.7816164E-02  0.1186339E+00
        -11   -1    0    0    0    0  0.00000000000E+00  0.00000000000E+00  0.45593999997E+02  0.45594000000E+02  0.51100000000E-03 0.  1.
         11   -1    0    0    0    0 -0.00000000000E+00 -0.00000000000E+00 -0.45593999997E+02  0.45594000000E+02  0.51100000000E-03 0. -1.
    9900012    2    1    2    0    0  0.62496084155E+00  0.25855840474E+00 -0.96713023518E+00  0.90007843488E+02  0.90000106222E+02 0.  0.
        -12    1    1    2    0    0 -0.62496084155E+00 -0.25855840474E+00  0.96713023518E+00  0.11801565125E+01  0.00000000000E+00 0.  1.
         11    1    3    3    0    0  0.97908278375E+01  0.22297602503E+02  0.30175473306E+02  0.38776314634E+02  0.51100000000E-03 0. -1.
        -11    1    3    3    0    0  0.69695176785E+01 -0.39508053082E+01  0.36696300857E+01  0.88118797360E+01  0.51100000000E-03 0.  1.
        -12    1    3    3    0    0 -0.16135384674E+02 -0.18088238790E+02 -0.34812233627E+02  0.42419649117E+02  0.00000000000E+00 0.  1.
</event>
<event>
 7    1  0.2232484E-015  0.9000775E+02  0.7816164E-02  0.1186339E+00
        -11   -1    0    0    0    0  0.00000000000E+00  0.00000000000E+00  0.45593999997E+02  0.45594000000E+02  0.51100000000E-03 0. -1.
         11   -1    0    0    0    0 -0.00000000000E+00 -0.00000000000E+00 -0.45593999997E+02  0.45594000000E+02  0.51100000000E-03 0.  1.
    9900012    2    1    2    0    0 -0.91145716878E+00 -0.55060291868E+00  0.50899846199E+00  0.90007746985E+02  0.90000008445E+02 0.  0.
        -12    1    1    2    0    0  0.91145716878E+00  0.55060291868E+00 -0.50899846199E+00  0.11802530148E+01  0.00000000000E+00 0.  1.
         11    1    3    3    0    0 -0.31657463402E+02 -0.16840785677E+01  0.18741169482E+00  0.31702779580E+02  0.51100000000E-03 0. -1.
        -11    1    3    3    0    0  0.99646026200E+01  0.13232752353E+02  0.20890473081E+02  0.26661037227E+02  0.51100000000E-03 0.  1.
        -12    1    3    3    0    0  0.20781403614E+02 -0.12099276704E+02 -0.20568886314E+02  0.31643930178E+02  0.00000000000E+00 0.  1.
</event>
<event>
 7    1  0.2232484E-015  0.9000753E+02  0.7816164E-02  0.1186339E+00
        -11   -1    0    0    0    0  0.00000000000E+00  0.00000000000E+00  0.45593999997E+02  0.45594000000E+02  0.51100000000E-03 0.  1.
         11   -1    0    0    0    0 -0.00000000000E+00 -0.00000000000E+00 -0.45593999997E+02  0.45594000000E+02  0.51100000000E-03 0. -1.
    9900012    2    1    2    0    0  0.10752503173E+01 -0.38086589798E+00  0.30377385101E+00  0.90007533724E+02  0.89999792368E+02 0.  0.
        -12    1    1    2    0    0 -0.10752503173E+01  0.38086589798E+00 -0.30377385101E+00  0.11804662764E+01  0.00000000000E+00 0.  1.
         11    1    3    3    0    0  0.89974248637E+00  0.60381106205E+01  0.75436764164E+01  0.97043995458E+01  0.51100000000E-03 0. -1.
        -11    1    3    3    0    0  0.23265294161E+01 -0.76115213782E+01  0.36062791451E+02  0.36930650202E+02  0.51100000000E-03 0.  1.
         12    1    3    3    0    0 -0.21510215851E+01  0.11925448598E+01 -0.43302694017E+02  0.43372483976E+02  0.00000000000E+00 0. -1.
</event>
<event>
 7    1  0.2232484E-015  0.9000778E+02  0.7816164E-02  0.1186339E+00
        -11   -1    0    0    0    0  0.00000000000E+00  0.00000000000E+00  0.45593999997E+02  0.45594000000E+02  0.51100000000E-03 0. -1.
         11   -1    0    0    0    0 -0.00000000000E+00 -0.00000000000E+00 -0.45593999997E+02  0.45594000000E+02  0.51100000000E-03 0.  1.
    9900012    2    1    2    0    0  0.99102582030E+00  0.64064413791E+00  0.19103665537E-01  0.90007778818E+02  0.90000040699E+02 0.  0.
        -12    1    1    2    0    0 -0.99102582030E+00 -0.64064413791E+00 -0.19103665537E-01  0.11802211818E+01  0.00000000000E+00 0.  1.
         11    1    3    3    0    0 -0.52837981124E+01  0.12227087228E+01  0.45468713120E+01  0.70772578095E+01  0.51100000000E-03 0. -1.
        -11    1    3    3    0    0 -0.31915908012E+02 -0.10330510416E-01 -0.24118749316E+02  0.40004241772E+02  0.51100000000E-03 0.  1.
         12    1    3    3    0    0  0.38190731944E+02 -0.57173407451E+00  0.19590981670E+02  0.42926279236E+02  0.00000000000E+00 0. -1.
</event>
<event>
 7    1  0.2232484E-015  0.9000782E+02  0.7816164E-02  0.1186339E+00
        -11   -1    0    0    0    0  0.00000000000E+00  0.00000000000E+00  0.45593999997E+02  0.45594000000E+02  0.51100000000E-03 0.  1.
         11   -1    0    0    0    0 -0.00000000000E+00 -0.00000000000E+00 -0.45593999997E+02  0.45594000000E+02  0.51100000000E-03 0. -1.
    9900012    2    1    2    0    0 -0.87832453412E+00  0.32552027374E+00 -0.71791741428E+00  0.90007820840E+02  0.90000083275E+02 0.  0.
        -12    1    1    2    0    0  0.87832453412E+00 -0.32552027374E+00  0.71791741428E+00  0.11801791599E+01  0.00000000000E+00 0.  1.
         11    1    3    3    0    0 -0.56237014863E+01  0.37230332970E+01 -0.34148281728E+02  0.34807932151E+02  0.51100000000E-03 0. -1.
        -11    1    3    3    0    0  0.69585496467E+01 -0.13641619427E+02 -0.44089959728E+01  0.15935948027E+02  0.51100000000E-03 0.  1.
        -12    1    3    3    0    0 -0.22131726945E+01  0.10244106404E+02  0.37839360287E+02  0.39263940662E+02  0.00000000000E+00 0.  1.
</event>
<event>
 7    1  0.2232484E-015  0.9000769E+02  0.7816164E-02  0.1186339E+00
        -11   -1    0    0    0    0  0.00000000000E+00  0.00000000000E+00  0.45593999997E+02  0.45594000000E+02  0.51100000000E-03 0.  1.
         11   -1    0    0    0    0 -0.00000000000E+00 -0.00000000000E+00 -0.45593999997E+02  0.45594000000E+02  0.51100000000E-03 0. -1.
    9900012    2    1    2    0    0  0.88485844342E+00  0.75457505811E+00  0.20193866206E+00  0.90007687666E+02  0.89999948343E+02 0.  0.
        -12    1    1    2    0    0 -0.88485844342E+00 -0.75457505811E+00 -0.20193866206E+00  0.11803123343E+01  0.00000000000E+00 0.  1.
         11    1    3    3    0    0  0.14400369049E+01 -0.79813910783E+01  0.35604225082E+01  0.88573652137E+01  0.51100000000E-03 0. -1.
        -11    1    3    3    0    0 -0.13953829276E+02 -0.24200205017E+01  0.35684090780E+02  0.38391668182E+02  0.51100000000E-03 0.  1.
         12    1    3    3    0    0  0.13398650815E+02  0.11155986638E+02 -0.39042574627E+02  0.42758654270E+02  0.00000000000E+00 0. -1.
</event>
<event>
 7    1  0.2232484E-015  0.9000766E+02  0.7816164E-02  0.1186339E+00
        -11   -1    0    0    0    0  0.00000000000E+00  0.00000000000E+00  0.45593999997E+02  0.45594000000E+02  0.51100000000E-03 0.  1.
         11   -1    0    0    0    0 -0.00000000000E+00 -0.00000000000E+00 -0.45593999997E+02  0.45594000000E+02  0.51100000000E-03 0. -1.
    9900012    2    1    2    0    0 -0.64036420993E+00  0.58038083113E+00 -0.80391801841E+00  0.90007664280E+02  0.89999924649E+02 0.  0.
        -12    1    1    2    0    0  0.64036420993E+00 -0.58038083113E+00  0.80391801841E+00  0.11803357195E+01  0.00000000000E+00 0.  1.
         11    1    3    3    0    0  0.30652346622E+01  0.15311895249E+01  0.46905672479E+01  0.58087542781E+01  0.51100000000E-03 0. -1.
        -11    1    3    3    0    0  0.32791256463E+02 -0.24192365277E+02 -0.28640825112E+01  0.40850214284E+02  0.51100000000E-03 0.  1.
         12    1    3    3    0    0 -0.36496855336E+02  0.23241556584E+02 -0.26304027551E+01  0.43348695718E+02  0.00000000000E+00 0. -1.
</event>
<event>
 7    1  0.2232484E-015  0.9000773E+02  0.7816164E-02  0.1186339E+00
        -11   -1    0    0    0    0  0.00000000000E+00  0.00000000000E+00  0.45593999997E+02  0.45594000000E+02  0.51100000000E-03 0.  1.
         11   -1    0    0    0    0 -0.00000000000E+00 -0.00000000000E+00 -0.45593999997E+02  0.45594000000E+02  0.51100000000E-03 0. -1.
    9900012    2    1    2    0    0 -0.29325084817E+00 -0.10547308201E+01 -0.44111620519E+00  0.90007730256E+02  0.89999991495E+02 0.  0.
        -12    1    1    2    0    0  0.29325084817E+00  0.10547308201E+01  0.44111620519E+00  0.11802697443E+01  0.00000000000E+00 0.  1.
         11    1    3    3    0    0 -0.88889371650E+01  0.27800079839E+01  0.49742477069E+01  0.10558635746E+02  0.51100000000E-03 0. -1.
        -11    1    3    3    0    0 -0.30569303771E+01  0.91344215873E+01  0.34538610944E+02  0.35856632961E+02  0.51100000000E-03 0.  1.
         12    1    3    3    0    0  0.11652616694E+02 -0.12969160391E+02 -0.39953974856E+02  0.43592461549E+02  0.00000000000E+00 0. -1.
</event>
<event>
 7    1  0.2232484E-015  0.9000792E+02  0.7816164E-02  0.1186339E+00
        -11   -1    0    0    0    0  0.00000000000E+00  0.00000000000E+00  0.45593999997E+02  0.45594000000E+02  0.51100000000E-03 0. -1.
         11   -1    0    0    0    0 -0.00000000000E+00 -0.00000000000E+00 -0.45593999997E+02  0.45594000000E+02  0.51100000000E-03 0.  1.
    9900012    2    1    2    0    0 -0.46336147000E+00  0.26074086029E+00  0.10535122943E+01  0.90007924662E+02  0.90000188468E+02 0.  0.
        -12    1    1    2    0    0  0.46336147000E+00 -0.26074086029E+00 -0.10535122943E+01  0.11800753376E+01  0.00000000000E+00 0.  1.
         11    1    3    3    0    0 -0.25190192555E+02 -0.25826652485E+02 -0.18422904164E+02  0.40508828391E+02  0.51100000000E-03 0. -1.
        -11    1    3    3    0    0 -0.60842087782E+01  0.29072431639E+01  0.12779368948E+01  0.68631466718E+01  0.51100000000E-03 0.  1.
        -12    1    3    3    0    0  0.30811039863E+02  0.23180150181E+02  0.18198479563E+02  0.42635949600E+02  0.00000000000E+00 0.  1.
</event>
<event>
 7    1  0.2232484E-015  0.9000785E+02  0.7816164E-02  0.1186339E+00
        -11   -1    0    0    0    0  0.00000000000E+00  0.00000000000E+00  0.45593999997E+02  0.45594000000E+02  0.51100000000E-03 0.  1.
         11   -1    0    0    0    0 -0.00000000000E+00 -0.00000000000E+00 -0.45593999997E+02  0.45594000000E+02  0.51100000000E-03 0. -1.
    9900012    2    1    2    0    0 -0.42658970404E+00  0.61542464365E+00  0.91214922738E+00  0.90007854890E+02  0.90000117774E+02 0.  0.
        -12    1    1    2    0    0  0.42658970404E+00 -0.61542464365E+00 -0.91214922738E+00  0.11801451100E+01  0.00000000000E+00 0.  1.
         11    1    3    3    0    0  0.10698110736E+02 -0.68356488660E+01  0.50036328692E+01  0.13645952180E+02  0.51100000000E-03 0. -1.
        -11    1    3    3    0    0  0.73484063040E+01 -0.30921110278E+02 -0.10109666506E+02  0.33351454138E+02  0.51100000000E-03 0.  1.
         12    1    3    3    0    0 -0.18473106744E+02  0.38372183787E+02  0.60181828643E+01  0.43010448572E+02  0.00000000000E+00 0. -1.
</event>
<event>
 7    1  0.2232484E-015  0.9000775E+02  0.7816164E-02  0.1186339E+00
        -11   -1    0    0    0    0  0.00000000000E+00  0.00000000000E+00  0.45593999997E+02  0.45594000000E+02  0.51100000000E-03 0. -1.
         11   -1    0    0    0    0 -0.00000000000E+00 -0.00000000000E+00 -0.45593999997E+02  0.45594000000E+02  0.51100000000E-03 0.  1.
    9900012    2    1    2    0    0  0.11477814596E+01  0.13833841275E+00  0.23756855497E+00  0.90007754850E+02  0.90000016414E+02 0.  0.
        -12    1    1    2    0    0 -0.11477814596E+01 -0.13833841275E+00 -0.23756855497E+00  0.11802451499E+01  0.00000000000E+00 0.  1.
         11    1    3    3    0    0 -0.49890824607E+01 -0.12733082572E+02 -0.44965150676E+01  0.14395866893E+02  0.51100000000E-03 0. -1.
        -11    1    3    3    0    0 -0.22150267724E+02 -0.21422664376E+02 -0.72104566892E+00  0.30823445887E+02  0.51100000000E-03 0.  1.
         12    1    3    3    0    0  0.28287131644E+02  0.34294085362E+02  0.54551292915E+01  0.44788442070E+02  0.00000000000E+00 0. -1.
</event>
<event>
 7    1  0.2232484E-015  0.9000782E+02  0.7816164E-02  0.1186339E+00
        -11   -1    0    0    0    0  0.00000000000E+00  0.00000000000E+00  0.45593999997E+02  0.45594000000E+02  0.51100000000E-03 0.  1.
         11   -1    0    0    0    0 -0.00000000000E+00 -0.00000000000E+00 -0.45593999997E+02  0.45594000000E+02  0.51100000000E-03 0. -1.
    9900012    2    1    2    0    0  0.29734606080E+00  0.10950189223E+01 -0.32457865873E+00  0.90007816783E+02  0.90000079164E+02 0.  0.
        -12    1    1    2    0    0 -0.29734606080E+00 -0.10950189223E+01  0.32457865873E+00  0.11801832170E+01  0.00000000000E+00 0.  1.
         11    1    3    3    0    0 -0.13962683712E+01 -0.91005829556E+01 -0.18673846253E+01  0.93945357041E+01  0.51100000000E-03 0. -1.
        -11    1    3    3    0    0  0.28027342511E+02 -0.81389343324E+01  0.26918985909E+02  0.39703979434E+02  0.51100000000E-03 0.  1.
         12    1    3    3    0    0 -0.26333728079E+02  0.18334536210E+02 -0.25376179942E+02  0.40909301645E+02  0.00000000000E+00 0. -1.
</event>
<event>
 7    1  0.2232484E-015  0.9000790E+02  0.7816164E-02  0.1186339E+00
        -11   -1    0    0    0    0  0.00000000000E+00  0.00000000000E+00  0.45593999997E+02  0.45594000000E+02  0.51100000000E-03 0.  1.
         11   -1    0    0    0    0 -0.00000000000E+00 -0.00000000000E+00 -0.45593999997E+02  0.45594000000E+02  0.51100000000E-03 0. -1.
    9900012    2    1    2    0    0 -0.77276739964E+00  0.81654414007E+00 -0.35877522734E+00  0.90007901084E+02  0.90000164579E+02 0.  0.
        -12    1    1    2    0    0  0.77276739964E+00 -0.81654414007E+00  0.35877522734E+00  0.11800989155E+01  0.00000000000E+00 0.  1.
         11    1    3    3    0    0  0.58775710222E+01  0.53647492697E+01 -0.26612160422E+01  0.83909741349E+01  0.51100000000E-03 0. -1.
        -11    1    3    3    0    0  0.21309667076E+02  0.28317781255E+02 -0.98587959402E+01  0.36785792145E+02  0.51100000000E-03 0.  1.
         12    1    3    3    0    0 -0.27960005498E+02 -0.32865986384E+02  0.12161236755E+02  0.44831134805E+02  0.00000000000E+00 0. -1.
</event>
<event>
 7    1  0.2232484E-015  0.9000770E+02  0.7816164E-02  0.1186339E+00
        -11   -1    0    0    0    0  0.00000000000E+00  0.00000000000E+00  0.45593999997E+02  0.45594000000E+02  0.51100000000E-03 0.  1.
         11   -1    0    0    0    0 -0.00000000000E+00 -0.00000000000E+00 -0.45593999997E+02  0.45594000000E+02  0.51100000000E-03 0. -1.
    9900012    2    1    2    0    0 -0.69231587120E+00 -0.33755881677E-01 -0.95533681290E+00  0.90007699550E+02  0.89999960385E+02 0.  0.
        -12    1    1    2    0    0  0.69231587120E+00  0.33755881677E-01  0.95533681290E+00  0.11803004495E+01  0.00000000000E+00 0.  1.
         11    1    3    3    0    0 -0.10177482785E+02  0.77776329456E+01  0.46100546258E+01  0.13613424770E+02  0.51100000000E-03 0. -1.
        -11    1    3    3    0    0  0.83567973407E+01  0.32234486267E+02  0.77270359810E+01  0.34184868758E+02  0.51100000000E-03 0.  1.
         12    1    3    3    0    0  0.11283695726E+01 -0.40045875095E+02 -0.13292427420E+02  0.42209406022E+02  0.00000000000E+00 0. -1.
</event>
<event>
 7    1  0.2232484E-015  0.9000769E+02  0.7816164E-02  0.1186339E+00
        -11   -1    0    0    0    0  0.00000000000E+00  0.00000000000E+00  0.45593999997E+02  0.45594000000E+02  0.51100000000E-03 0. -1.
         11   -1    0    0    0    0 -0.00000000000E+00 -0.00000000000E+00 -0.45593999997E+02  0.45594000000E+02  0.51100000000E-03 0.  1.
    9900012    2    1    2    0    0  0.58554028858E+00  0.72755876049E+00  0.72175194214E+00  0.90007692817E+02  0.89999953562E+02 0.  0.
        -12    1    1    2    0    0 -0.58554028858E+00 -0.72755876049E+00 -0.72175194214E+00  0.11803071827E+01  0.00000000000E+00 0.  1.
         11    1    3    3    0    0 -0.17180197177E+01  0.23742850302E+02  0.32480714575E+02  0.40269980777E+02  0.51100000000E-03 0. -1.
        -11    1    3    3    0    0 -0.88612520566E+01  0.14761839375E+01 -0.12784501680E+01  0.90738824172E+01  0.51100000000E-03 0.  1.
        -12    1    3    3    0    0  0.11164812063E+02 -0.24491475479E+02 -0.30480512464E+02  0.40663829623E+02  0.00000000000E+00 0.  1.
</event>
<event>
 7    1  0.2232484E-015  0.9000756E+02  0.7816164E-02  0.1186339E+00
        -11   -1    0    0    0    0  0.00000000000E+00  0.00000000000E+00  0.45593999997E+02  0.45594000000E+02  0.51100000000E-03 0. -1.
         11   -1    0    0    0    0 -0.00000000000E+00 -0.00000000000E+00 -0.45593999997E+02  0.45594000000E+02  0.51100000000E-03 0.  1.
    9900012    2    1    2    0    0 -0.28169604573E+00 -0.55509209690E+00  0.10029744335E+01  0.90007560416E+02  0.89999819413E+02 0.  0.
        -12    1    1    2    0    0  0.28169604573E+00  0.55509209690E+00 -0.10029744335E+01  0.11804395844E+01  0.00000000000E+00 0.  1.
         11    1    3    3    0    0  0.89428145615E+00  0.68010286447E+01 -0.18551126817E+01  0.71059955863E+01  0.51100000000E-03 0. -1.
        -11    1    3    3    0    0 -0.24580207871E+02  0.22540975511E+02  0.22423815699E+02  0.40188427523E+02  0.51100000000E-03 0.  1.
         12    1    3    3    0    0  0.23404230370E+02 -0.29897096253E+02 -0.19565728584E+02  0.42713137306E+02  0.00000000000E+00 0. -1.
</event>
<event>
 7    1  0.2232484E-015  0.9000776E+02  0.7816164E-02  0.1186339E+00
        -11   -1    0    0    0    0  0.00000000000E+00  0.00000000000E+00  0.45593999997E+02  0.45594000000E+02  0.51100000000E-03 0.  1.
         11   -1    0    0    0    0 -0.00000000000E+00 -0.00000000000E+00 -0.45593999997E+02  0.45594000000E+02  0.51100000000E-03 0. -1.
    9900012    2    1    2    0    0  0.36879604122E+00  0.10322685358E+01 -0.43747794599E+00  0.90007756041E+02  0.90000017621E+02 0.  0.
        -12    1    1    2    0    0 -0.36879604122E+00 -0.10322685358E+01  0.43747794599E+00  0.11802439592E+01  0.00000000000E+00 0.  1.
         11    1    3    3    0    0 -0.42843628152E+01  0.10896802062E+02  0.45876372896E+01  0.12575471207E+02  0.51100000000E-03 0. -1.
        -11    1    3    3    0    0  0.21756979427E+02  0.27310471585E+02  0.50724148919E+01  0.35283953932E+02  0.51100000000E-03 0.  1.
         12    1    3    3    0    0 -0.17103820571E+02 -0.37175005111E+02 -0.10097530127E+02  0.42148330902E+02  0.00000000000E+00 0. -1.
</event>
<event>
 7    1  0.2232484E-015  0.9000768E+02  0.7816164E-02  0.1186339E+00
        -11   -1    0    0    0    0  0.00000000000E+00  0.00000000000E+00  0.45593999997E+02  0.45594000000E+02  0.51100000000E-03 0. -1.
         11   -1    0    0    0    0 -0.00000000000E+00 -0.00000000000E+00 -0.45593999997E+02  0.45594000000E+02  0.51100000000E-03 0.  1.
    9900012    2    1    2    0    0  0.75620371021E+00  0.87060405220E+00  0.25173020830E+00  0.90007676500E+02  0.89999937030E+02 0.  0.
        -12    1    1    2    0    0 -0.75620371021E+00 -0.87060405220E+00 -0.25173020830E+00  0.11803235001E+01  0.00000000000E+00 0.  1.
         11    1    3    3    0    0 -0.34264007541E+02 -0.78546882922E+01  0.12529180574E+02  0.37318878695E+02  0.51100000000E-03 0. -1.
        -11    1    3    3    0    0 -0.72356666496E+01  0.26101207119E+01 -0.55048650805E+01  0.94589186385E+01  0.51100000000E-03 0.  1.
        -12    1    3    3    0    0  0.42255877901E+02  0.61151716326E+01 -0.67725852848E+01  0.43229879166E+02  0.00000000000E+00 0.  1.
</event>
<event>
 7    1  0.2232484E-015  0.9000773E+02  0.7816164E-02  0.1186339E+00
        -11   -1    0    0    0    0  0.00000000000E+00  0.00000000000E+00  0.45593999997E+02  0.45594000000E+02  0.51100000000E-03 0.  1.
         11   -1    0    0    0    0 -0.00000000000E+00 -0.00000000000E+00 -0.45593999997E+02  0.45594000000E+02  0.51100000000E-03 0. -1.
    9900012    2    1    2    0    0  0.23682331634E+00 -0.34383192738E+00 -0.11039663322E+01  0.90007725735E+02  0.89999986915E+02 0.  0.
        -12    1    1    2    0    0 -0.23682331634E+00  0.34383192738E+00  0.11039663322E+01  0.11802742648E+01  0.00000000000E+00 0.  1.
         11    1    3    3    0    0  0.11243883545E+02  0.10909095895E+01 -0.56536521041E+01  0.12632449616E+02  0.51100000000E-03 0. -1.
        -11    1    3    3    0    0  0.26294381617E+02 -0.17950573942E+02  0.15103094885E+02  0.35238063012E+02  0.51100000000E-03 0.  1.
         12    1    3    3    0    0 -0.37301441846E+02  0.16515832426E+02 -0.10553409113E+02  0.42137213107E+02  0.00000000000E+00 0. -1.
</event>
<event>
 7    1  0.2232484E-015  0.9000765E+02  0.7816164E-02  0.1186339E+00
        -11   -1    0    0    0    0  0.00000000000E+00  0.00000000000E+00  0.45593999997E+02  0.45594000000E+02  0.51100000000E-03 0.  1.
         11   -1    0    0    0    0 -0.00000000000E+00 -0.00000000000E+00 -0.45593999997E+02  0.45594000000E+02  0.51100000000E-03 0. -1.
    9900012    2    1    2    0    0  0.16123826562E+00  0.11161596963E+01 -0.34844252511E+00  0.90007651560E+02  0.89999911761E+02 0.  0.
        -12    1    1    2    0    0 -0.16123826562E+00 -0.11161596963E+01  0.34844252511E+00  0.11803484398E+01  0.00000000000E+00 0.  1.
         11    1    3    3    0    0 -0.13168582113E+02 -0.29885652091E+01 -0.90229091091E-01  0.13503748310E+02  0.51100000000E-03 0. -1.
        -11    1    3    3    0    0 -0.17829388357E+02 -0.33512924834E+01  0.28279483661E+02  0.33598325061E+02  0.51100000000E-03 0.  1.
         12    1    3    3    0    0  0.31159208735E+02  0.74560173888E+01 -0.28537697095E+02  0.42905578190E+02  0.00000000000E+00 0. -1.
</event>
<event>
 7    1  0.2232484E-015  0.9000718E+02  0.7816164E-02  0.1186340E+00
        -11   -1    0    0    0    0  0.00000000000E+00  0.00000000000E+00  0.45593999997E+02  0.45594000000E+02  0.51100000000E-03 0.  1.
         11   -1    0    0    0    0 -0.00000000000E+00 -0.00000000000E+00 -0.45593999997E+02  0.45594000000E+02  0.51100000000E-03 0. -1.
    9900012    2    1    2    0    0  0.77619692433E+00 -0.78306692834E+00  0.42268974836E+00  0.90007177362E+02  0.89999431301E+02 0.  0.
        -12    1    1    2    0    0 -0.77619692433E+00  0.78306692834E+00 -0.42268974836E+00  0.11808226382E+01  0.00000000000E+00 0.  1.
         11    1    3    3    0    0 -0.17183545733E+02 -0.34917210878E+01 -0.39647082220E+02  0.43351556938E+02  0.51100000000E-03 0. -1.
        -11    1    3    3    0    0 -0.10403974049E+01  0.45719187379E+01  0.98755528445E+01  0.10932127513E+02  0.51100000000E-03 0.  1.
        -12    1    3    3    0    0  0.19000140062E+02 -0.18632645783E+01  0.30194219124E+02  0.35723492911E+02  0.00000000000E+00 0.  1.
</event>
<event>
 7    1  0.2232484E-015  0.9000771E+02  0.7816164E-02  0.1186339E+00
        -11   -1    0    0    0    0  0.00000000000E+00  0.00000000000E+00  0.45593999997E+02  0.45594000000E+02  0.51100000000E-03 0. -1.
         11   -1    0    0    0    0 -0.00000000000E+00 -0.00000000000E+00 -0.45593999997E+02  0.45594000000E+02  0.51100000000E-03 0.  1.
    9900012    2    1    2    0    0 -0.96951172713E+00 -0.91289874742E-01  0.66693259623E+00  0.90007709392E+02  0.89999970356E+02 0.  0.
        -12    1    1    2    0    0  0.96951172713E+00  0.91289874742E-01 -0.66693259623E+00  0.11802906075E+01  0.00000000000E+00 0.  1.
         11    1    3    3    0    0 -0.70544449387E+01 -0.62642105641E+01 -0.73835956405E+01  0.11980109024E+02  0.51100000000E-03 0. -1.
        -11    1    3    3    0    0 -0.59554188091E+01 -0.65778796958E+01 -0.32583791976E+02  0.33770386647E+02  0.51100000000E-03 0.  1.
         12    1    3    3    0    0  0.12040352021E+02  0.12750800385E+02  0.40634320213E+02  0.44257213722E+02  0.00000000000E+00 0. -1.
</event>
<event>
 7    1  0.2232484E-015  0.9000775E+02  0.7816164E-02  0.1186339E+00
        -11   -1    0    0    0    0  0.00000000000E+00  0.00000000000E+00  0.45593999997E+02  0.45594000000E+02  0.51100000000E-03 0.  1.
         11   -1    0    0    0    0 -0.00000000000E+00 -0.00000000000E+00 -0.45593999997E+02  0.45594000000E+02  0.51100000000E-03 0. -1.
    9900012    2    1    2    0    0  0.30803698732E+00  0.63922508776E+00 -0.94312748234E+00  0.90007752167E+02  0.90000013696E+02 0.  0.
        -12    1    1    2    0    0 -0.30803698732E+00 -0.63922508776E+00  0.94312748234E+00  0.11802478326E+01  0.00000000000E+00 0.  1.
         11    1    3    3    0    0  0.32498541893E+02  0.13079370533E+02 -0.11097428210E+02  0.36747490687E+02  0.51100000000E-03 0. -1.
        -11    1    3    3    0    0  0.84940572239E+01 -0.33035869000E+01 -0.29043004521E+01  0.95654407064E+01  0.51100000000E-03 0.  1.
        -12    1    3    3    0    0 -0.40684562129E+02 -0.91365585450E+01  0.13058601179E+02  0.43694820774E+02  0.00000000000E+00 0.  1.
</event>
<event>
 7    1  0.2232484E-015  0.9000780E+02  0.7816164E-02  0.1186339E+00
        -11   -1    0    0    0    0  0.00000000000E+00  0.00000000000E+00  0.45593999997E+02  0.45594000000E+02  0.51100000000E-03 0. -1.
         11   -1    0    0    0    0 -0.00000000000E+00 -0.00000000000E+00 -0.45593999997E+02  0.45594000000E+02  0.51100000000E-03 0.  1.
    9900012    2    1    2    0    0 -0.11550274232E+01 -0.19763725113E+00 -0.14046097380E+00  0.90007797426E+02  0.90000059552E+02 0.  0.
        -12    1    1    2    0    0  0.11550274232E+01  0.19763725113E+00  0.14046097380E+00  0.11802025744E+01  0.00000000000E+00 0.  1.
         11    1    3    3    0    0  0.29476068158E+02  0.98843410921E+01 -0.14050368119E+02  0.34116735445E+02  0.51100000000E-03 0. -1.
        -11    1    3    3    0    0  0.79395775342E+01  0.75371323179E+01 -0.87700547791E+00  0.10982458462E+02  0.51100000000E-03 0.  1.
        -12    1    3    3    0    0 -0.38570673115E+02 -0.17619110661E+02  0.14786912623E+02  0.44908603519E+02  0.00000000000E+00 0.  1.
</event>
<event>
 7    1  0.2232484E-015  0.9000751E+02  0.7816164E-02  0.1186340E+00
        -11   -1    0    0    0    0  0.00000000000E+00  0.00000000000E+00  0.45593999997E+02  0.45594000000E+02  0.51100000000E-03 0. -1.
         11   -1    0    0    0    0 -0.00000000000E+00 -0.00000000000E+00 -0.45593999997E+02  0.45594000000E+02  0.51100000000E-03 0.  1.
    9900012    2    1    2    0    0  0.41435960341E+00  0.67360086207E+00  0.87643366328E+00  0.90007505202E+02  0.89999763470E+02 0.  0.
        -12    1    1    2    0    0 -0.41435960341E+00 -0.67360086207E+00 -0.87643366328E+00  0.11804947981E+01  0.00000000000E+00 0.  1.
         11    1    3    3    0    0  0.99803578099E+01  0.19488123776E+02  0.25436696150E+02  0.33562181419E+02  0.51100000000E-03 0. -1.
        -11    1    3    3    0    0  0.58818432996E+01 -0.24114316358E+01  0.11953658713E+02  0.13538871446E+02  0.51100000000E-03 0.  1.
        -12    1    3    3    0    0 -0.15447841506E+02 -0.16403091278E+02 -0.36513921200E+02  0.42906452336E+02  0.00000000000E+00 0.  1.
</event>
<event>
 7    1  0.2505728E-015  0.9000766E+02  0.7816164E-02  0.1186339E+00
        -11   -1    0    0    0    0  0.00000000000E+00  0.00000000000E+00  0.45593999997E+02  0.45594000000E+02  0.51100000000E-03 0.  1.
         11   -1    0    0    0    0 -0.00000000000E+00 -0.00000000000E+00 -0.45593999997E+02  0.45594000000E+02  0.51100000000E-03 0. -1.
    9900012    2    1    2    0    0  0.84160973212E+00 -0.65106587898E+00 -0.51087869442E+00  0.90007664980E+02  0.89999925357E+02 0.  0.
        -12    1    1    2    0    0 -0.84160973212E+00  0.65106587898E+00  0.51087869442E+00  0.11803350204E+01  0.00000000000E+00 0.  1.
         11    1    3    3    0    0 -0.30894135859E+01  0.83028542831E+01 -0.32427975104E+01  0.94338540112E+01  0.51100000000E-03 0. -1.
        -11    1    3    3    0    0 -0.32678517571E+02 -0.37532558607E+01  0.21309073476E+02  0.39192461684E+02  0.51100000000E-03 0.  1.
         12    1    3    3    0    0  0.36609540889E+02 -0.52006643013E+01 -0.18577154660E+02  0.41381349284E+02  0.00000000000E+00 0. -1.
</event>
<event>
 7    1  0.2232484E-015  0.9000759E+02  0.7816164E-02  0.1186339E+00
        -11   -1    0    0    0    0  0.00000000000E+00  0.00000000000E+00  0.45593999997E+02  0.45594000000E+02  0.51100000000E-03 0.  1.
         11   -1    0    0    0    0 -0.00000000000E+00 -0.00000000000E+00 -0.45593999997E+02  0.45594000000E+02  0.51100000000E-03 0. -1.
    9900012    2    1    2    0    0  0.10413592430E-01 -0.11463721220E+01 -0.28123776088E+00  0.90007588138E+02  0.89999847502E+02 0.  0.
        -12    1    1    2    0    0 -0.10413592430E-01  0.11463721220E+01  0.28123776088E+00  0.11804118617E+01  0.00000000000E+00 0.  1.
         11    1    3    3    0    0  0.22513849648E+01  0.67290317666E+01 -0.75555195948E+01  0.10365060510E+02  0.51100000000E-03 0. -1.
        -11    1    3    3    0    0 -0.18034838211E+02 -0.39650730958E+02  0.76440592302E+00  0.43566273326E+02  0.51100000000E-03 0.  1.
         12    1    3    3    0    0  0.15793866838E+02  0.31775327070E+02  0.65098759109E+01  0.36076254302E+02  0.00000000000E+00 0. -1.
</event>
<event>
 7    1  0.2232484E-015  0.9000743E+02  0.7816164E-02  0.1186340E+00
        -11   -1    0    0    0    0  0.00000000000E+00  0.00000000000E+00  0.45593999997E+02  0.45594000000E+02  0.51100000000E-03 0.  1.
         11   -1    0    0    0    0 -0.00000000000E+00 -0.00000000000E+00 -0.45593999997E+02  0.45594000000E+02  0.51100000000E-03 0. -1.
    9900012    2    1    2    0    0  0.29836446885E+00 -0.14230909182E+00 -0.11333413665E+01  0.90007434082E+02  0.89999691411E+02 0.  0.
        -12    1    1    2    0    0 -0.29836446885E+00  0.14230909182E+00  0.11333413665E+01  0.11805659181E+01  0.00000000000E+00 0.  1.
         11    1    3    3    0    0  0.45768036697E+01 -0.36273029050E+01  0.68143279851E+01  0.89743815578E+01  0.51100000000E-03 0. -1.
        -11    1    3    3    0    0  0.32180481109E+02 -0.30912259024E+01  0.16846291126E+02  0.36454582249E+02  0.51100000000E-03 0.  1.
         12    1    3    3    0    0 -0.36458920310E+02  0.65762197156E+01 -0.24793960478E+02  0.44578470275E+02  0.00000000000E+00 0. -1.
</event>
<event>
 7    1  0.2232484E-015  0.9000771E+02  0.7816164E-02  0.1186339E+00
        -11   -1    0    0    0    0  0.00000000000E+00  0.00000000000E+00  0.45593999997E+02  0.45594000000E+02  0.51100000000E-03 0.  1.
         11   -1    0    0    0    0 -0.00000000000E+00 -0.00000000000E+00 -0.45593999997E+02  0.45594000000E+02  0.51100000000E-03 0. -1.
    9900012    2    1    2    0    0  0.10449752379E+01  0.15751462281E+00  0.52565091698E+00  0.90007706396E+02  0.89999967321E+02 0.  0.
        -12    1    1    2    0    0 -0.10449752379E+01 -0.15751462281E+00 -0.52565091698E+00  0.11802936036E+01  0.00000000000E+00 0.  1.
         11    1    3    3    0    0 -0.69375607212E+01 -0.19761482396E-01  0.63206622515E+01  0.93851430908E+01  0.51100000000E-03 0. -1.
        -11    1    3    3    0    0 -0.37871836840E+01 -0.30159824403E+02  0.22245730463E+02  0.37667363757E+02  0.51100000000E-03 0.  1.
         12    1    3    3    0    0  0.11769719643E+02  0.30337100508E+02 -0.28040741797E+02  0.42955199549E+02  0.00000000000E+00 0. -1.
</event>
<event>
 7    1  0.2232484E-015  0.9000776E+02  0.7816164E-02  0.1186339E+00
        -11   -1    0    0    0    0  0.00000000000E+00  0.00000000000E+00  0.45593999997E+02  0.45594000000E+02  0.51100000000E-03 0. -1.
         11   -1    0    0    0    0 -0.00000000000E+00 -0.00000000000E+00 -0.45593999997E+02  0.45594000000E+02  0.51100000000E-03 0.  1.
    9900012    2    1    2    0    0  0.56509931877E+00 -0.42446981126E+00  0.94522827012E+00  0.90007759201E+02  0.90000020823E+02 0.  0.
        -12    1    1    2    0    0 -0.56509931877E+00  0.42446981126E+00 -0.94522827012E+00  0.11802407989E+01  0.00000000000E+00 0.  1.
         11    1    3    3    0    0  0.31929469079E+02 -0.25350358732E+02 -0.18191128581E+01  0.40809813223E+02  0.51100000000E-03 0. -1.
        -11    1    3    3    0    0 -0.59278307768E+01 -0.50408831884E+01 -0.48379417620E+01  0.91627158524E+01  0.51100000000E-03 0.  1.
        -12    1    3    3    0    0 -0.25436538983E+02  0.29966772109E+02  0.76022828902E+01  0.40035230125E+02  0.00000000000E+00 0.  1.
</event>
<event>
 7    1  0.2232484E-015  0.9000770E+02  0.7816164E-02  0.1186339E+00
        -11   -1    0    0    0    0  0.00000000000E+00  0.00000000000E+00  0.45593999997E+02  0.45594000000E+02  0.51100000000E-03 0. -1.
         11   -1    0    0    0    0 -0.00000000000E+00 -0.00000000000E+00 -0.45593999997E+02  0.45594000000E+02  0.51100000000E-03 0.  1.
    9900012    2    1    2    0    0  0.81520902445E-01  0.10594027169E+01  0.51393382604E+00  0.90007700143E+02  0.89999960985E+02 0.  0.
        -12    1    1    2    0    0 -0.81520902445E-01 -0.10594027169E+01 -0.51393382604E+00  0.11802998567E+01  0.00000000000E+00 0.  1.
         11    1    3    3    0    0  0.70527797573E+01  0.71530433577E+01 -0.17418739138E+01  0.10195187913E+02  0.51100000000E-03 0. -1.
        -11    1    3    3    0    0 -0.42184900559E+02  0.24340806099E+01 -0.59262561806E+01  0.42668619572E+02  0.51100000000E-03 0.  1.
         12    1    3    3    0    0  0.35213641704E+02 -0.85277212507E+01  0.81820639204E+01  0.37143892658E+02  0.00000000000E+00 0. -1.
</event>
<event>
 7    1  0.2232484E-015  0.9000780E+02  0.7816164E-02  0.1186339E+00
        -11   -1    0    0    0    0  0.00000000000E+00  0.00000000000E+00  0.45593999997E+02  0.45594000000E+02  0.51100000000E-03 0. -1.
         11   -1    0    0    0    0 -0.00000000000E+00 -0.00000000000E+00 -0.45593999997E+02  0.45594000000E+02  0.51100000000E-03 0.  1.
    9900012    2    1    2    0    0  0.11158274103E+01 -0.38107711816E+00 -0.50902356003E-01  0.90007795937E+02  0.90000058044E+02 0.  0.
        -12    1    1    2    0    0 -0.11158274103E+01  0.38107711816E+00  0.50902356003E-01  0.11802040627E+01  0.00000000000E+00 0.  1.
         11    1    3    3    0    0 -0.65092818592E+01 -0.38340417671E+01  0.64594707811E+01  0.99395869948E+01  0.51100000000E-03 0. -1.
        -11    1    3    3    0    0 -0.56323513340E+01  0.39233188208E+02  0.56137334180E+01  0.40030993513E+02  0.51100000000E-03 0.  1.
         12    1    3    3    0    0  0.13257460604E+02 -0.35780223559E+02 -0.12124106555E+02  0.40037215429E+02  0.00000000000E+00 0. -1.
</event>
<event>
 7    1  0.2232484E-015  0.9000775E+02  0.7816164E-02  0.1186339E+00
        -11   -1    0    0    0    0  0.00000000000E+00  0.00000000000E+00  0.45593999997E+02  0.45594000000E+02  0.51100000000E-03 0.  1.
         11   -1    0    0    0    0 -0.00000000000E+00 -0.00000000000E+00 -0.45593999997E+02  0.45594000000E+02  0.51100000000E-03 0. -1.
    9900012    2    1    2    0    0 -0.66266083390E+00 -0.36695672986E+00  0.90510989369E+00  0.90007745560E+02  0.90000007002E+02 0.  0.
        -12    1    1    2    0    0  0.66266083390E+00  0.36695672986E+00 -0.90510989369E+00  0.11802544395E+01  0.00000000000E+00 0.  1.
         11    1    3    3    0    0  0.13227652138E+01 -0.74173481415E+01 -0.38209188289E+02  0.38944946158E+02  0.51100000000E-03 0. -1.
        -11    1    3    3    0    0  0.12398154966E+01 -0.53460790065E+01 -0.35373729674E+01  0.65292197835E+01  0.51100000000E-03 0.  1.
        -12    1    3    3    0    0 -0.32252415443E+01  0.12396470418E+02  0.42651671150E+02  0.44533579619E+02  0.00000000000E+00 0.  1.
</event>
<event>
 7    1  0.2232484E-015  0.9000781E+02  0.7816164E-02  0.1186339E+00
        -11   -1    0    0    0    0  0.00000000000E+00  0.00000000000E+00  0.45593999997E+02  0.45594000000E+02  0.51100000000E-03 0.  1.
         11   -1    0    0    0    0 -0.00000000000E+00 -0.00000000000E+00 -0.45593999997E+02  0.45594000000E+02  0.51100000000E-03 0. -1.
    9900012    2    1    2    0    0  0.16393744460E+00 -0.48549815744E+00 -0.10631366443E+01  0.90007812103E+02  0.90000074423E+02 0.  0.
        -12    1    1    2    0    0 -0.16393744460E+00  0.48549815744E+00  0.10631366443E+01  0.11801878965E+01  0.00000000000E+00 0.  1.
         11    1    3    3    0    0  0.12945068405E+02  0.13320052894E+02  0.12366696658E+02  0.22314430121E+02  0.51100000000E-03 0. -1.
        -11    1    3    3    0    0  0.24695165918E+02 -0.26936079010E+01  0.35161129527E+01  0.25089236612E+02  0.51100000000E-03 0.  1.
         12    1    3    3    0    0 -0.37476296878E+02 -0.11111943151E+02 -0.16945946255E+02  0.42604145371E+02  0.00000000000E+00 0. -1.
</event>
<event>
 7    1  0.2232484E-015  0.9000752E+02  0.7816164E-02  0.1186339E+00
        -11   -1    0    0    0    0  0.00000000000E+00  0.00000000000E+00  0.45593999997E+02  0.45594000000E+02  0.51100000000E-03 0. -1.
         11   -1    0    0    0    0 -0.00000000000E+00 -0.00000000000E+00 -0.45593999997E+02  0.45594000000E+02  0.51100000000E-03 0.  1.
    9900012    2    1    2    0    0 -0.15430998935E+00  0.10935319790E+01 -0.41702031398E+00  0.90007521409E+02  0.89999779891E+02 0.  0.
        -12    1    1    2    0    0  0.15430998935E+00 -0.10935319790E+01  0.41702031398E+00  0.11804785911E+01  0.00000000000E+00 0.  1.
         11    1    3    3    0    0 -0.19384986878E+02  0.27279966288E+02 -0.23669407047E+02  0.40990427018E+02  0.51100000000E-03 0. -1.
        -11    1    3    3    0    0 -0.54951353690E+01 -0.76457184413E+01 -0.13543004491E+01  0.95124998384E+01  0.51100000000E-03 0.  1.
        -12    1    3    3    0    0  0.24725812257E+02 -0.18540715868E+02  0.24606687182E+02  0.39504594552E+02  0.00000000000E+00 0.  1.
</event>
<event>
 7    1  0.2232484E-015  0.9000777E+02  0.7816164E-02  0.1186339E+00
        -11   -1    0    0    0    0  0.00000000000E+00  0.00000000000E+00  0.45593999997E+02  0.45594000000E+02  0.51100000000E-03 0. -1.
         11   -1    0    0    0    0 -0.00000000000E+00 -0.00000000000E+00 -0.45593999997E+02  0.45594000000E+02  0.51100000000E-03 0.  1.
    9900012    2    1    2    0    0  0.28177550711E+00 -0.69513425042E+00  0.91122489386E+00  0.90007771264E+02  0.90000033044E+02 0.  0.
        -12    1    1    2    0    0 -0.28177550711E+00  0.69513425042E+00 -0.91122489386E+00  0.11802287362E+01  0.00000000000E+00 0.  1.
         11    1    3    3    0    0  0.16902534430E+01  0.43231377274E+01 -0.28458087700E+01  0.54447317958E+01  0.51100000000E-03 0. -1.
        -11    1    3    3    0    0  0.19707837930E+02 -0.33538023913E+02 -0.18079924949E+02  0.42896172443E+02  0.51100000000E-03 0.  1.
         12    1    3    3    0    0 -0.21116315866E+02  0.28519751935E+02  0.21836958613E+02  0.41666867025E+02  0.00000000000E+00 0. -1.
</event>
<event>
 7    1  0.2232484E-015  0.9000774E+02  0.7816164E-02  0.1186339E+00
        -11   -1    0    0    0    0  0.00000000000E+00  0.00000000000E+00  0.45593999997E+02  0.45594000000E+02  0.51100000000E-03 0. -1.
         11   -1    0    0    0    0 -0.00000000000E+00 -0.00000000000E+00 -0.45593999997E+02  0.45594000000E+02  0.51100000000E-03 0.  1.
    9900012    2    1    2    0    0 -0.39095920508E+00 -0.93653421386E-01  0.11096772948E+01  0.90007744196E+02  0.90000005620E+02 0.  0.
        -12    1    1    2    0    0  0.39095920508E+00  0.93653421386E-01 -0.11096772948E+01  0.11802558036E+01  0.00000000000E+00 0.  1.
         11    1    3    3    0    0 -0.22837971059E+02 -0.17703390496E+02  0.22207135618E+02  0.36443652805E+02  0.51100000000E-03 0. -1.
        -11    1    3    3    0    0 -0.65150744287E+01 -0.73304887552E+01  0.20187444386E+00  0.98093329923E+01  0.51100000000E-03 0.  1.
        -12    1    3    3    0    0  0.28962086282E+02  0.24940225830E+02 -0.21299332767E+02  0.43754758399E+02  0.00000000000E+00 0.  1.
</event>
<event>
 7    1  0.2232484E-015  0.9000776E+02  0.7816164E-02  0.1186339E+00
        -11   -1    0    0    0    0  0.00000000000E+00  0.00000000000E+00  0.45593999997E+02  0.45594000000E+02  0.51100000000E-03 0. -1.
         11   -1    0    0    0    0 -0.00000000000E+00 -0.00000000000E+00 -0.45593999997E+02  0.45594000000E+02  0.51100000000E-03 0.  1.
    9900012    2    1    2    0    0 -0.11713599871E+01  0.13616430325E+00  0.48399116218E-01  0.90007759596E+02  0.90000021223E+02 0.  0.
        -12    1    1    2    0    0  0.11713599871E+01 -0.13616430325E+00 -0.48399116218E-01  0.11802404041E+01  0.00000000000E+00 0.  1.
         11    1    3    3    0    0  0.23699044667E+01  0.55033528017E+01 -0.73028558797E+01  0.94464301989E+01  0.51100000000E-03 0. -1.
        -11    1    3    3    0    0  0.74740506028E-01  0.35163511941E+02 -0.96455697353E+01  0.36462517384E+02  0.51100000000E-03 0.  1.
         12    1    3    3    0    0 -0.36160049599E+01 -0.40530700440E+02  0.16996824731E+02  0.44098812013E+02  0.00000000000E+00 0. -1.
</event>
<event>
 7    1  0.2232484E-015  0.9000771E+02  0.7816164E-02  0.1186339E+00
        -11   -1    0    0    0    0  0.00000000000E+00  0.00000000000E+00  0.45593999997E+02  0.45594000000E+02  0.51100000000E-03 0.  1.
         11   -1    0    0    0    0 -0.00000000000E+00 -0.00000000000E+00 -0.45593999997E+02  0.45594000000E+02  0.51100000000E-03 0. -1.
    9900012    2    1    2    0    0 -0.85405251439E+00  0.18670270192E+00 -0.79298051479E+00  0.90007711182E+02  0.89999972170E+02 0.  0.
        -12    1    1    2    0    0  0.85405251439E+00 -0.18670270192E+00  0.79298051479E+00  0.11802888177E+01  0.00000000000E+00 0.  1.
         11    1    3    3    0    0  0.14644487329E+02  0.81292419633E+01 -0.58086550311E+01  0.17728114890E+02  0.51100000000E-03 0. -1.
        -11    1    3    3    0    0  0.20061228513E+02  0.11545797869E+01  0.23716941319E+02  0.31085032567E+02  0.51100000000E-03 0.  1.
         12    1    3    3    0    0 -0.35559768356E+02 -0.90971190483E+01 -0.18701266802E+02  0.41194563725E+02  0.00000000000E+00 0. -1.
</event>
<event>
 7    1  0.2232484E-015  0.9000779E+02  0.7816164E-02  0.1186339E+00
        -11   -1    0    0    0    0  0.00000000000E+00  0.00000000000E+00  0.45593999997E+02  0.45594000000E+02  0.51100000000E-03 0.  1.
         11   -1    0    0    0    0 -0.00000000000E+00 -0.00000000000E+00 -0.45593999997E+02  0.45594000000E+02  0.51100000000E-03 0. -1.
    9900012    2    1    2    0    0 -0.27439308814E+00  0.10075735401E+01 -0.54990413719E+00  0.90007792152E+02  0.90000054208E+02 0.  0.
        -12    1    1    2    0    0  0.27439308814E+00 -0.10075735401E+01  0.54990413719E+00  0.11802078485E+01  0.00000000000E+00 0.  1.
         11    1    3    3    0    0  0.88719239900E+00 -0.18325828225E+01  0.94734930334E+01  0.96898163382E+01  0.51100000000E-03 0. -1.
        -11    1    3    3    0    0 -0.27722363279E+02 -0.26091728412E+02  0.47317867029E+01  0.38362710057E+02  0.51100000000E-03 0.  1.
         12    1    3    3    0    0  0.26560777792E+02  0.28931884775E+02 -0.14755183873E+02  0.41955265756E+02  0.00000000000E+00 0. -1.
</event>
<event>
 7    1  0.2232484E-015  0.9000797E+02  0.7816164E-02  0.1186339E+00
        -11   -1    0    0    0    0  0.00000000000E+00  0.00000000000E+00  0.45593999997E+02  0.45594000000E+02  0.51100000000E-03 0. -1.
         11   -1    0    0    0    0 -0.00000000000E+00 -0.00000000000E+00 -0.45593999997E+02  0.45594000000E+02  0.51100000000E-03 0.  1.
    9900012    2    1    2    0    0  0.10099689601E+01  0.58656754373E+00 -0.16847403206E+00  0.90007965135E+02  0.90000229474E+02 0.  0.
        -12    1    1    2    0    0 -0.10099689601E+01 -0.58656754373E+00  0.16847403206E+00  0.11800348653E+01  0.00000000000E+00 0.  1.
         11    1    3    3    0    0  0.40553549505E+01 -0.17999595123E+02  0.34788032708E+02  0.39378148107E+02  0.51100000000E-03 0. -1.
        -11    1    3    3    0    0 -0.32710162792E+01  0.75581413579E+01  0.46900633503E+01  0.94774333433E+01  0.51100000000E-03 0.  1.
        -12    1    3    3    0    0  0.22563028881E+00  0.11028021309E+02 -0.39646570090E+02  0.41152383685E+02  0.00000000000E+00 0.  1.
</event>
<event>
 7    1  0.2232484E-015  0.9000765E+02  0.7816164E-02  0.1186339E+00
        -11   -1    0    0    0    0  0.00000000000E+00  0.00000000000E+00  0.45593999997E+02  0.45594000000E+02  0.51100000000E-03 0.  1.
         11   -1    0    0    0    0 -0.00000000000E+00 -0.00000000000E+00 -0.45593999997E+02  0.45594000000E+02  0.51100000000E-03 0. -1.
    9900012    2    1    2    0    0  0.81417781069E+00  0.11428699947E+00 -0.84692851873E+00  0.90007646264E+02  0.89999906395E+02 0.  0.
        -12    1    1    2    0    0 -0.81417781069E+00 -0.11428699947E+00  0.84692851873E+00  0.11803537358E+01  0.00000000000E+00 0.  1.
         11    1    3    3    0    0 -0.36815146020E+01 -0.10187660372E+02  0.78343108484E+01  0.13368560145E+02  0.51100000000E-03 0. -1.
        -11    1    3    3    0    0 -0.32389899471E+02  0.19863869950E+02 -0.30139308020E+01  0.38115124246E+02  0.51100000000E-03 0.  1.
         12    1    3    3    0    0  0.36885591884E+02 -0.95619225793E+01 -0.56673085652E+01  0.38523961873E+02  0.00000000000E+00 0. -1.
</event>
<event>
 7    1  0.2232484E-015  0.9000776E+02  0.7816164E-02  0.1186339E+00
        -11   -1    0    0    0    0  0.00000000000E+00  0.00000000000E+00  0.45593999997E+02  0.45594000000E+02  0.51100000000E-03 0.  1.
         11   -1    0    0    0    0 -0.00000000000E+00 -0.00000000000E+00 -0.45593999997E+02  0.45594000000E+02  0.51100000000E-03 0. -1.
    9900012    2    1    2    0    0 -0.90425425516E+00 -0.37542817669E+00 -0.65904161254E+00  0.90007763617E+02  0.90000025296E+02 0.  0.
        -12    1    1    2    0    0  0.90425425516E+00  0.37542817669E+00  0.65904161254E+00  0.11802363835E+01  0.00000000000E+00 0.  1.
         11    1    3    3    0    0  0.51369031609E+01  0.46077286541E+01 -0.52350955545E+01  0.86617067118E+01  0.51100000000E-03 0. -1.
        -11    1    3    3    0    0  0.16211443334E+02 -0.68413181486E+00  0.37795786398E+02  0.41131501322E+02  0.51100000000E-03 0.  1.
         12    1    3    3    0    0 -0.22252600750E+02 -0.42990250160E+01 -0.33219732456E+02  0.40214555582E+02  0.00000000000E+00 0. -1.
</event>
<event>
 7    1  0.2232484E-015  0.9000769E+02  0.7816164E-02  0.1186339E+00
        -11   -1    0    0    0    0  0.00000000000E+00  0.00000000000E+00  0.45593999997E+02  0.45594000000E+02  0.51100000000E-03 0. -1.
         11   -1    0    0    0    0 -0.00000000000E+00 -0.00000000000E+00 -0.45593999997E+02  0.45594000000E+02  0.51100000000E-03 0.  1.
    9900012    2    1    2    0    0  0.16443113835E+00  0.11688005972E+01  0.14313001284E-02  0.90007688819E+02  0.89999949511E+02 0.  0.
        -12    1    1    2    0    0 -0.16443113835E+00 -0.11688005972E+01 -0.14313001284E-02  0.11803111810E+01  0.00000000000E+00 0.  1.
         11    1    3    3    0    0  0.23428518174E+01 -0.15532780822E+02  0.38691586694E+02  0.41758772921E+02  0.51100000000E-03 0. -1.
        -11    1    3    3    0    0  0.81906384012E+01  0.43533322678E+01 -0.42132133899E+01  0.10187699769E+02  0.51100000000E-03 0.  1.
        -12    1    3    3    0    0 -0.10369059080E+02  0.12348249152E+02 -0.34476942004E+02  0.38061216129E+02  0.00000000000E+00 0.  1.
</event>
<event>
 7    1  0.2232484E-015  0.9000775E+02  0.7816164E-02  0.1186339E+00
        -11   -1    0    0    0    0  0.00000000000E+00  0.00000000000E+00  0.45593999997E+02  0.45594000000E+02  0.51100000000E-03 0.  1.
         11   -1    0    0    0    0 -0.00000000000E+00 -0.00000000000E+00 -0.45593999997E+02  0.45594000000E+02  0.51100000000E-03 0. -1.
    9900012    2    1    2    0    0 -0.41039421495E+00 -0.11010224446E+01  0.11100583801E+00  0.90007747429E+02  0.90000008895E+02 0.  0.
        -12    1    1    2    0    0  0.41039421495E+00  0.11010224446E+01 -0.11100583801E+00  0.11802525710E+01  0.00000000000E+00 0.  1.
         11    1    3    3    0    0  0.15305364310E+02  0.37375699855E+02 -0.48569703834E+01  0.40679076660E+02  0.51100000000E-03 0. -1.
        -11    1    3    3    0    0 -0.94353064180E+01  0.57978710562E+00  0.19761278880E+01  0.96574448992E+01  0.51100000000E-03 0.  1.
        -12    1    3    3    0    0 -0.62804521073E+01 -0.39056509405E+02  0.29918483334E+01  0.39671225870E+02  0.00000000000E+00 0.  1.
</event>
<event>
 7    1  0.2232484E-015  0.9000767E+02  0.7816164E-02  0.1186339E+00
        -11   -1    0    0    0    0  0.00000000000E+00  0.00000000000E+00  0.45593999997E+02  0.45594000000E+02  0.51100000000E-03 0.  1.
         11   -1    0    0    0    0 -0.00000000000E+00 -0.00000000000E+00 -0.45593999997E+02  0.45594000000E+02  0.51100000000E-03 0. -1.
    9900012    2    1    2    0    0 -0.38050893391E+00 -0.94963545355E+00  0.58870599038E+00  0.90007674076E+02  0.89999934574E+02 0.  0.
        -12    1    1    2    0    0  0.38050893391E+00  0.94963545355E+00 -0.58870599038E+00  0.11803259239E+01  0.00000000000E+00 0.  1.
         11    1    3    3    0    0 -0.34131431296E+01  0.65248648880E+01  0.35538994444E+01  0.81764056499E+01  0.51100000000E-03 0. -1.
        -11    1    3    3    0    0  0.41488234493E+01  0.83543676035E+01  0.37354443416E+02  0.38501462793E+02  0.51100000000E-03 0.  1.
         12    1    3    3    0    0 -0.11161892536E+01 -0.15828867945E+02 -0.40319636870E+02  0.43329805633E+02  0.00000000000E+00 0. -1.
</event>
<event>
 7    1  0.2232484E-015  0.9000765E+02  0.7816164E-02  0.1186339E+00
        -11   -1    0    0    0    0  0.00000000000E+00  0.00000000000E+00  0.45593999997E+02  0.45594000000E+02  0.51100000000E-03 0. -1.
         11   -1    0    0    0    0 -0.00000000000E+00 -0.00000000000E+00 -0.45593999997E+02  0.45594000000E+02  0.51100000000E-03 0.  1.
    9900012    2    1    2    0    0 -0.39002508292E+00 -0.69329264557E+00  0.87203944286E+00  0.90007649608E+02  0.89999909783E+02 0.  0.
        -12    1    1    2    0    0  0.39002508292E+00  0.69329264557E+00 -0.87203944286E+00  0.11803503919E+01  0.00000000000E+00 0.  1.
         11    1    3    3    0    0 -0.38916860032E+02 -0.43300730240E+01  0.40553553697E+01  0.39366450622E+02  0.51100000000E-03 0. -1.
        -11    1    3    3    0    0 -0.41912918207E+01 -0.25867458521E+01 -0.55337792540E+01  0.74081640318E+01  0.51100000000E-03 0.  1.
        -12    1    3    3    0    0  0.42718126770E+02  0.62235262305E+01  0.23504633271E+01  0.43233034954E+02  0.00000000000E+00 0.  1.
</event>
<event>
 7    1  0.2232484E-015  0.9000765E+02  0.7816164E-02  0.1186339E+00
        -11   -1    0    0    0    0  0.00000000000E+00  0.00000000000E+00  0.45593999997E+02  0.45594000000E+02  0.51100000000E-03 0. -1.
         11   -1    0    0    0    0 -0.00000000000E+00 -0.00000000000E+00 -0.45593999997E+02  0.45594000000E+02  0.51100000000E-03 0.  1.
    9900012    2    1    2    0    0 -0.13256692155E+00 -0.10323748127E+01 -0.55665411864E+00  0.90007646006E+02  0.89999906134E+02 0.  0.
        -12    1    1    2    0    0  0.13256692155E+00  0.10323748127E+01  0.55665411864E+00  0.11803539936E+01  0.00000000000E+00 0.  1.
         11    1    3    3    0    0  0.12973387371E+01  0.90397142884E+01  0.55898125590E+01  0.10707265147E+02  0.51100000000E-03 0. -1.
        -11    1    3    3    0    0  0.28313541079E+02  0.21405614381E+02 -0.59683944554E+01  0.35992758551E+02  0.51100000000E-03 0.  1.
         12    1    3    3    0    0 -0.29743446738E+02 -0.31477703482E+02 -0.17807222228E+00  0.43307622309E+02  0.00000000000E+00 0. -1.
</event>
<event>
 7    1  0.2232484E-015  0.9000738E+02  0.7816164E-02  0.1186340E+00
        -11   -1    0    0    0    0  0.00000000000E+00  0.00000000000E+00  0.45593999997E+02  0.45594000000E+02  0.51100000000E-03 0.  1.
         11   -1    0    0    0    0 -0.00000000000E+00 -0.00000000000E+00 -0.45593999997E+02  0.45594000000E+02  0.51100000000E-03 0. -1.
    9900012    2    1    2    0    0 -0.86368037402E+00  0.58490990950E+00 -0.55298276675E+00  0.90007384342E+02  0.89999641015E+02 0.  0.
        -12    1    1    2    0    0  0.86368037402E+00 -0.58490990950E+00  0.55298276675E+00  0.11806156576E+01  0.00000000000E+00 0.  1.
         11    1    3    3    0    0 -0.21728019617E+02 -0.27882472325E+02  0.65364244864E+01  0.35948072894E+02  0.51100000000E-03 0. -1.
        -11    1    3    3    0    0 -0.58697500582E+01  0.13039458123E+01 -0.14080767708E+02  0.15310854318E+02  0.51100000000E-03 0.  1.
         12    1    3    3    0    0  0.26734089301E+02  0.27163436422E+02  0.69913604549E+01  0.38748457131E+02  0.00000000000E+00 0. -1.
</event>
<event>
 7    1  0.2232484E-015  0.9000776E+02  0.7816164E-02  0.1186339E+00
        -11   -1    0    0    0    0  0.00000000000E+00  0.00000000000E+00  0.45593999997E+02  0.45594000000E+02  0.51100000000E-03 0. -1.
         11   -1    0    0    0    0 -0.00000000000E+00 -0.00000000000E+00 -0.45593999997E+02  0.45594000000E+02  0.51100000000E-03 0.  1.
    9900012    2    1    2    0    0  0.59303013054E+00 -0.88797957972E+00  0.50277257653E+00  0.90007757341E+02  0.90000018938E+02 0.  0.
        -12    1    1    2    0    0 -0.59303013054E+00  0.88797957972E+00 -0.50277257653E+00  0.11802426587E+01  0.00000000000E+00 0.  1.
         11    1    3    3    0    0 -0.89535910076E+01 -0.43965582179E+01  0.11263790152E+02  0.15045580246E+02  0.51100000000E-03 0. -1.
        -11    1    3    3    0    0 -0.28653733814E+02  0.16682459302E+02 -0.41405181011E-01  0.33156336114E+02  0.51100000000E-03 0.  1.
         12    1    3    3    0    0  0.38200354953E+02 -0.13173880664E+02 -0.10719612395E+02  0.41805840981E+02  0.00000000000E+00 0. -1.
</event>
<event>
 7    1  0.2232484E-015  0.9000762E+02  0.7816164E-02  0.1186339E+00
        -11   -1    0    0    0    0  0.00000000000E+00  0.00000000000E+00  0.45593999997E+02  0.45594000000E+02  0.51100000000E-03 0.  1.
         11   -1    0    0    0    0 -0.00000000000E+00 -0.00000000000E+00 -0.45593999997E+02  0.45594000000E+02  0.51100000000E-03 0. -1.
    9900012    2    1    2    0    0  0.96453477055E+00  0.36951245208E+00 -0.57133150183E+00  0.90007624441E+02  0.89999884283E+02 0.  0.
        -12    1    1    2    0    0 -0.96453477055E+00 -0.36951245208E+00  0.57133150183E+00  0.11803755592E+01  0.00000000000E+00 0.  1.
         11    1    3    3    0    0  0.14859636218E+01  0.21589066201E+01 -0.35925824688E+02  0.36021297109E+02  0.51100000000E-03 0. -1.
        -11    1    3    3    0    0 -0.46513129945E+01  0.75752396753E+01 -0.64271501543E+01  0.10969376832E+02  0.51100000000E-03 0.  1.
        -12    1    3    3    0    0  0.41298841433E+01 -0.93646338432E+01  0.41781643340E+02  0.43016950500E+02  0.00000000000E+00 0.  1.
</event>
<event>
 7    1  0.2232484E-015  0.9000785E+02  0.7816164E-02  0.1186339E+00
        -11   -1    0    0    0    0  0.00000000000E+00  0.00000000000E+00  0.45593999997E+02  0.45594000000E+02  0.51100000000E-03 0. -1.
         11   -1    0    0    0    0 -0.00000000000E+00 -0.00000000000E+00 -0.45593999997E+02  0.45594000000E+02  0.51100000000E-03 0.  1.
    9900012    2    1    2    0    0  0.13303266779E+00 -0.54720944102E-02  0.11726105310E+01  0.90007854631E+02  0.90000117512E+02 0.  0.
        -12    1    1    2    0    0 -0.13303266779E+00  0.54720944102E-02 -0.11726105310E+01  0.11801453690E+01  0.00000000000E+00 0.  1.
         11    1    3    3    0    0 -0.14354422080E+01  0.68802292744E+01  0.72867985457E+01  0.10124005260E+02  0.51100000000E-03 0. -1.
        -11    1    3    3    0    0 -0.31015158636E+02  0.16864818034E+02 -0.15385462009E+02  0.38510707525E+02  0.51100000000E-03 0.  1.
         12    1    3    3    0    0  0.32583633512E+02 -0.23750519403E+02  0.92712739948E+01  0.41373141846E+02  0.00000000000E+00 0. -1.
</event>
<event>
 7    1  0.2232484E-015  0.9000772E+02  0.7816164E-02  0.1186339E+00
        -11   -1    0    0    0    0  0.00000000000E+00  0.00000000000E+00  0.45593999997E+02  0.45594000000E+02  0.51100000000E-03 0. -1.
         11   -1    0    0    0    0 -0.00000000000E+00 -0.00000000000E+00 -0.45593999997E+02  0.45594000000E+02  0.51100000000E-03 0.  1.
    9900012    2    1    2    0    0 -0.94403733051E+00 -0.46557218120E+00 -0.53394747963E+00  0.90007718742E+02  0.89999979829E+02 0.  0.
        -12    1    1    2    0    0  0.94403733051E+00  0.46557218120E+00  0.53394747963E+00  0.11802812581E+01  0.00000000000E+00 0.  1.
         11    1    3    3    0    0  0.45904485167E+01 -0.36046335635E+01  0.78391943317E+01  0.97733601562E+01  0.51100000000E-03 0. -1.
        -11    1    3    3    0    0  0.11323414133E+02 -0.35571834094E+02 -0.70554602988E+01  0.37991507061E+02  0.51100000000E-03 0.  1.
         12    1    3    3    0    0 -0.16857899980E+02  0.38710895477E+02 -0.13176815126E+01  0.42242851525E+02  0.00000000000E+00 0. -1.
</event>
<event>
 7    1  0.2232484E-015  0.9000781E+02  0.7816164E-02  0.1186339E+00
        -11   -1    0    0    0    0  0.00000000000E+00  0.00000000000E+00  0.45593999997E+02  0.45594000000E+02  0.51100000000E-03 0.  1.
         11   -1    0    0    0    0 -0.00000000000E+00 -0.00000000000E+00 -0.45593999997E+02  0.45594000000E+02  0.51100000000E-03 0. -1.
    9900012    2    1    2    0    0 -0.64242301488E+00 -0.98614221522E-01 -0.98510175462E+00  0.90007806134E+02  0.90000068375E+02 0.  0.
        -12    1    1    2    0    0  0.64242301488E+00  0.98614221522E-01  0.98510175462E+00  0.11801938661E+01  0.00000000000E+00 0.  1.
         11    1    3    3    0    0 -0.41710623801E+01  0.26299964097E+02 -0.31121873442E+02  0.40959209949E+02  0.51100000000E-03 0. -1.
        -11    1    3    3    0    0 -0.90034009836E+01 -0.19899200849E+01  0.14171738767E+01  0.93289545649E+01  0.51100000000E-03 0.  1.
        -12    1    3    3    0    0  0.12532040349E+02 -0.24408658233E+02  0.28719597810E+02  0.39719641620E+02  0.00000000000E+00 0.  1.
</event>
<event>
 7    1  0.2232484E-015  0.9000775E+02  0.7816164E-02  0.1186339E+00
        -11   -1    0    0    0    0  0.00000000000E+00  0.00000000000E+00  0.45593999997E+02  0.45594000000E+02  0.51100000000E-03 0. -1.
         11   -1    0    0    0    0 -0.00000000000E+00 -0.00000000000E+00 -0.45593999997E+02  0.45594000000E+02  0.51100000000E-03 0.  1.
    9900012    2    1    2    0    0 -0.36295695979E+00 -0.10786843390E+01 -0.31255689662E+00  0.90007750250E+02  0.90000011754E+02 0.  0.
        -12    1    1    2    0    0  0.36295695979E+00  0.10786843390E+01  0.31255689662E+00  0.11802497496E+01  0.00000000000E+00 0.  1.
         11    1    3    3    0    0 -0.74264063273E+01  0.46504223393E+01  0.53077982600E+01  0.10244543011E+02  0.51100000000E-03 0. -1.
        -11    1    3    3    0    0 -0.33607161490E+02 -0.16135100567E+01  0.11340877012E+02  0.35505777132E+02  0.51100000000E-03 0.  1.
         12    1    3    3    0    0  0.40670610857E+02 -0.41155966215E+01 -0.16961232169E+02  0.44257430107E+02  0.00000000000E+00 0. -1.
</event>
<event>
 7    1  0.2232484E-015  0.9000779E+02  0.7816164E-02  0.1186339E+00
        -11   -1    0    0    0    0  0.00000000000E+00  0.00000000000E+00  0.45593999997E+02  0.45594000000E+02  0.51100000000E-03 0. -1.
         11   -1    0    0    0    0 -0.00000000000E+00 -0.00000000000E+00 -0.45593999997E+02  0.45594000000E+02  0.51100000000E-03 0.  1.
    9900012    2    1    2    0    0  0.68674211963E+00 -0.93814110967E+00  0.20288311374E+00  0.90007794493E+02  0.90000056580E+02 0.  0.
        -12    1    1    2    0    0 -0.68674211963E+00  0.93814110967E+00 -0.20288311374E+00  0.11802055068E+01  0.00000000000E+00 0.  1.
         11    1    3    3    0    0 -0.70940188010E+01  0.12748878401E+01 -0.10661397536E+02  0.12869181771E+02  0.51100000000E-03 0. -1.
        -11    1    3    3    0    0  0.23567646032E+02  0.75776960611E+01 -0.25973857852E+02  0.35881704379E+02  0.51100000000E-03 0.  1.
         12    1    3    3    0    0 -0.15786885112E+02 -0.97907250109E+01  0.36838138503E+02  0.41256908344E+02  0.00000000000E+00 0. -1.
</event>
<event>
 7    1  0.2232484E-015  0.9000785E+02  0.7816164E-02  0.1186339E+00
        -11   -1    0    0    0    0  0.00000000000E+00  0.00000000000E+00  0.45593999997E+02  0.45594000000E+02  0.51100000000E-03 0.  1.
         11   -1    0    0    0    0 -0.00000000000E+00 -0.00000000000E+00 -0.45593999997E+02  0.45594000000E+02  0.51100000000E-03 0. -1.
    9900012    2    1    2    0    0 -0.76930470093E+00  0.34196135270E+00 -0.82703446836E+00  0.90007850305E+02  0.90000113129E+02 0.  0.
        -12    1    1    2    0    0  0.76930470093E+00 -0.34196135270E+00  0.82703446836E+00  0.11801496945E+01  0.00000000000E+00 0.  1.
         11    1    3    3    0    0 -0.17932140172E+02 -0.30543357484E+02 -0.18712803537E+02  0.40057800165E+02  0.51100000000E-03 0. -1.
        -11    1    3    3    0    0 -0.69861719580E+01  0.58622840102E+01 -0.27342118848E+01  0.95209709239E+01  0.51100000000E-03 0.  1.
        -12    1    3    3    0    0  0.24149007429E+02  0.25023034827E+02  0.20619980954E+02  0.40429079217E+02  0.00000000000E+00 0.  1.
</event>
<event>
 7    1  0.2232484E-015  0.9000804E+02  0.7816164E-02  0.1186338E+00
        -11   -1    0    0    0    0  0.00000000000E+00  0.00000000000E+00  0.45593999997E+02  0.45594000000E+02  0.51100000000E-03 0.  1.
         11   -1    0    0    0    0 -0.00000000000E+00 -0.00000000000E+00 -0.45593999997E+02  0.45594000000E+02  0.51100000000E-03 0. -1.
    9900012    2    1    2    0    0 -0.17226160094E+00  0.11169778243E+01 -0.33910873971E+00  0.90008038875E+02  0.90000304188E+02 0.  0.
        -12    1    1    2    0    0  0.17226160094E+00 -0.11169778243E+01  0.33910873971E+00  0.11799611250E+01  0.00000000000E+00 0.  1.
         11    1    3    3    0    0  0.14109847264E+02  0.30983093978E+02  0.17005792500E+02  0.38055707602E+02  0.51100000000E-03 0. -1.
        -11    1    3    3    0    0  0.89564315792E+01 -0.21761122116E+01  0.39159755948E+01  0.10014389453E+02  0.51100000000E-03 0.  1.
        -12    1    3    3    0    0 -0.23238540444E+02 -0.27690003942E+02 -0.21260876835E+02  0.41937941820E+02  0.00000000000E+00 0.  1.
</event>
<event>
 7    1  0.2232484E-015  0.9000768E+02  0.7816164E-02  0.1186339E+00
        -11   -1    0    0    0    0  0.00000000000E+00  0.00000000000E+00  0.45593999997E+02  0.45594000000E+02  0.51100000000E-03 0.  1.
         11   -1    0    0    0    0 -0.00000000000E+00 -0.00000000000E+00 -0.45593999997E+02  0.45594000000E+02  0.51100000000E-03 0. -1.
    9900012    2    1    2    0    0  0.89874784770E+00 -0.24733823844E+00 -0.72403696163E+00  0.90007680798E+02  0.89999941384E+02 0.  0.
        -12    1    1    2    0    0 -0.89874784770E+00  0.24733823844E+00  0.72403696163E+00  0.11803192025E+01  0.00000000000E+00 0.  1.
         11    1    3    3    0    0  0.25557317582E+02 -0.52534292495E+01 -0.28310875599E+02  0.38500398417E+02  0.51100000000E-03 0. -1.
        -11    1    3    3    0    0 -0.48369456947E+01  0.22921424704E+01 -0.86165310924E+01  0.10143696027E+02  0.51100000000E-03 0.  1.
        -12    1    3    3    0    0 -0.19821624040E+02  0.27139485407E+01  0.36203369729E+02  0.41363586353E+02  0.00000000000E+00 0.  1.
</event>
<event>
 7    1  0.2232484E-015  0.9000774E+02  0.7816164E-02  0.1186339E+00
        -11   -1    0    0    0    0  0.00000000000E+00  0.00000000000E+00  0.45593999997E+02  0.45594000000E+02  0.51100000000E-03 0.  1.
         11   -1    0    0    0    0 -0.00000000000E+00 -0.00000000000E+00 -0.45593999997E+02  0.45594000000E+02  0.51100000000E-03 0. -1.
    9900012    2    1    2    0    0  0.64168666479E+00  0.20759884550E+00 -0.96858706301E+00  0.90007737336E+02  0.89999998669E+02 0.  0.
        -12    1    1    2    0    0 -0.64168666479E+00 -0.20759884550E+00  0.96858706301E+00  0.11802626636E+01  0.00000000000E+00 0.  1.
         11    1    3    3    0    0 -0.26701737268E+02  0.25921778902E+02  0.11069130768E+02  0.38825855442E+02  0.51100000000E-03 0. -1.
        -11    1    3    3    0    0 -0.70538493260E+01 -0.30905761659E+01 -0.55750772322E+01  0.95073622923E+01  0.51100000000E-03 0.  1.
        -12    1    3    3    0    0  0.34397273258E+02 -0.22623603890E+02 -0.64626405992E+01  0.41674519603E+02  0.00000000000E+00 0.  1.
</event>
<event>
 7    1  0.2232484E-015  0.9000773E+02  0.7816164E-02  0.1186339E+00
        -11   -1    0    0    0    0  0.00000000000E+00  0.00000000000E+00  0.45593999997E+02  0.45594000000E+02  0.51100000000E-03 0.  1.
         11   -1    0    0    0    0 -0.00000000000E+00 -0.00000000000E+00 -0.45593999997E+02  0.45594000000E+02  0.51100000000E-03 0. -1.
    9900012    2    1    2    0    0 -0.12771894794E+00  0.15697539572E-01 -0.11732380283E+01  0.90007726297E+02  0.89999987484E+02 0.  0.
        -12    1    1    2    0    0  0.12771894794E+00 -0.15697539572E-01  0.11732380283E+01  0.11802737028E+01  0.00000000000E+00 0.  1.
         11    1    3    3    0    0  0.13775409871E+02 -0.20932370021E+02  0.10372358291E+02  0.27120321691E+02  0.51100000000E-03 0. -1.
        -11    1    3    3    0    0  0.12117721653E+01 -0.10759115339E+02  0.15253836650E+02  0.18705787539E+02  0.51100000000E-03 0.  1.
         12    1    3    3    0    0 -0.15114900984E+02  0.31707182900E+02 -0.26799432969E+02  0.44181617067E+02  0.00000000000E+00 0. -1.
</event>
<event>
 7    1  0.2232484E-015  0.9000769E+02  0.7816164E-02  0.1186339E+00
        -11   -1    0    0    0    0  0.00000000000E+00  0.00000000000E+00  0.45593999997E+02  0.45594000000E+02  0.51100000000E-03 0.  1.
         11   -1    0    0    0    0 -0.00000000000E+00 -0.00000000000E+00 -0.45593999997E+02  0.45594000000E+02  0.51100000000E-03 0. -1.
    9900012    2    1    2    0    0  0.24264228743E+00 -0.41798147094E+00 -0.10768269782E+01  0.90007686427E+02  0.89999947088E+02 0.  0.
        -12    1    1    2    0    0 -0.24264228743E+00  0.41798147094E+00  0.10768269782E+01  0.11803135730E+01  0.00000000000E+00 0.  1.
         11    1    3    3    0    0  0.14798982635E+01 -0.35171880939E+00  0.11314324792E+02  0.11416118025E+02  0.51100000000E-03 0. -1.
        -11    1    3    3    0    0 -0.32459316982E+02  0.24849803941E+00  0.16179455779E+02  0.36269047406E+02  0.51100000000E-03 0.  1.
         12    1    3    3    0    0  0.31222061006E+02 -0.31476070097E+00 -0.28570607549E+02  0.42322520996E+02  0.00000000000E+00 0. -1.
</event>
<event>
 7    1  0.2232484E-015  0.9000768E+02  0.7816164E-02  0.1186339E+00
        -11   -1    0    0    0    0  0.00000000000E+00  0.00000000000E+00  0.45593999997E+02  0.45594000000E+02  0.51100000000E-03 0.  1.
         11   -1    0    0    0    0 -0.00000000000E+00 -0.00000000000E+00 -0.45593999997E+02  0.45594000000E+02  0.51100000000E-03 0. -1.
    9900012    2    1    2    0    0 -0.86491740417E-01 -0.71812368390E+00 -0.93272825273E+00  0.90007676129E+02  0.89999936654E+02 0.  0.
        -12    1    1    2    0    0  0.86491740417E-01  0.71812368390E+00  0.93272825273E+00  0.11803238708E+01  0.00000000000E+00 0.  1.
         11    1    3    3    0    0 -0.34096136820E+01  0.77554407976E+01  0.28826157093E+01  0.89488435574E+01  0.51100000000E-03 0. -1.
        -11    1    3    3    0    0 -0.29956085507E+02  0.91100715207E+01  0.19402380605E+02  0.36834940415E+02  0.51100000000E-03 0.  1.
         12    1    3    3    0    0  0.33279207448E+02 -0.17583636002E+02 -0.23217724567E+02  0.44223892157E+02  0.00000000000E+00 0. -1.
</event>
<event>
 7    1  0.2232484E-015  0.9000784E+02  0.7816164E-02  0.1186339E+00
        -11   -1    0    0    0    0  0.00000000000E+00  0.00000000000E+00  0.45593999997E+02  0.45594000000E+02  0.51100000000E-03 0.  1.
         11   -1    0    0    0    0 -0.00000000000E+00 -0.00000000000E+00 -0.45593999997E+02  0.45594000000E+02  0.51100000000E-03 0. -1.
    9900012    2    1    2    0    0 -0.51047024710E+00 -0.10536198462E+01 -0.14860317666E+00  0.90007840029E+02  0.90000102717E+02 0.  0.
        -12    1    1    2    0    0  0.51047024710E+00  0.10536198462E+01  0.14860317666E+00  0.11801599712E+01  0.00000000000E+00 0.  1.
         11    1    3    3    0    0 -0.29983959621E+01  0.87436231664E+01  0.12022074410E+02  0.15164814466E+02  0.51100000000E-03 0. -1.
        -11    1    3    3    0    0  0.82692924012E+01  0.10536435320E+02  0.27108326249E+02  0.30236716395E+02  0.51100000000E-03 0.  1.
         12    1    3    3    0    0 -0.57813666862E+01 -0.20333678332E+02 -0.39279003835E+02  0.44606309168E+02  0.00000000000E+00 0. -1.
</event>
<event>
 7    1  0.2232484E-015  0.9000765E+02  0.7816164E-02  0.1186339E+00
        -11   -1    0    0    0    0  0.00000000000E+00  0.00000000000E+00  0.45593999997E+02  0.45594000000E+02  0.51100000000E-03 0. -1.
         11   -1    0    0    0    0 -0.00000000000E+00 -0.00000000000E+00 -0.45593999997E+02  0.45594000000E+02  0.51100000000E-03 0.  1.
    9900012    2    1    2    0    0  0.11558357275E+01  0.23887130672E+00  0.14350943999E-01  0.90007651882E+02  0.89999912087E+02 0.  0.
        -12    1    1    2    0    0 -0.11558357275E+01 -0.23887130672E+00 -0.14350943999E-01  0.11803481180E+01  0.00000000000E+00 0.  1.
         11    1    3    3    0    0  0.14852484664E+02  0.14780396578E+02  0.31552176397E+02  0.37876064465E+02  0.51100000000E-03 0. -1.
        -11    1    3    3    0    0  0.44525268718E+01 -0.38525486639E+01  0.64263894139E+01  0.87158251424E+01  0.51100000000E-03 0.  1.
        -12    1    3    3    0    0 -0.18149175808E+02 -0.10688976607E+02 -0.37964214867E+02  0.43415762275E+02  0.00000000000E+00 0.  1.
</event>
<event>
 7    1  0.2232484E-015  0.9000781E+02  0.7816164E-02  0.1186339E+00
        -11   -1    0    0    0    0  0.00000000000E+00  0.00000000000E+00  0.45593999997E+02  0.45594000000E+02  0.51100000000E-03 0.  1.
         11   -1    0    0    0    0 -0.00000000000E+00 -0.00000000000E+00 -0.45593999997E+02  0.45594000000E+02  0.51100000000E-03 0. -1.
    9900012    2    1    2    0    0 -0.48956449682E+00 -0.10295942354E+00 -0.10689107782E+01  0.90007811756E+02  0.90000074071E+02 0.  0.
        -12    1    1    2    0    0  0.48956449682E+00  0.10295942354E+00  0.10689107782E+01  0.11801882440E+01  0.00000000000E+00 0.  1.
         11    1    3    3    0    0 -0.16029965828E+01 -0.82083461158E+01  0.68717849211E+01  0.10824415562E+02  0.51100000000E-03 0. -1.
        -11    1    3    3    0    0 -0.15344486613E+02 -0.31914338427E+02 -0.15810091733E+01  0.35446831408E+02  0.51100000000E-03 0.  1.
         12    1    3    3    0    0  0.16457918698E+02  0.40019725119E+02 -0.63596865261E+01  0.43736564785E+02  0.00000000000E+00 0. -1.
</event>
<event>
 7    1  0.2232484E-015  0.9000755E+02  0.7816164E-02  0.1186339E+00
        -11   -1    0    0    0    0  0.00000000000E+00  0.00000000000E+00  0.45593999997E+02  0.45594000000E+02  0.51100000000E-03 0.  1.
         11   -1    0    0    0    0 -0.00000000000E+00 -0.00000000000E+00 -0.45593999997E+02  0.45594000000E+02  0.51100000000E-03 0. -1.
    9900012    2    1    2    0    0 -0.38465510075E-01 -0.71056917640E+00 -0.94185045472E+00  0.90007546516E+02  0.89999805329E+02 0.  0.
        -12    1    1    2    0    0  0.38465510075E-01  0.71056917640E+00  0.94185045472E+00  0.11804534845E+01  0.00000000000E+00 0.  1.
         11    1    3    3    0    0 -0.26760110012E+01 -0.30730472915E+02 -0.12649151535E+02  0.33339526621E+02  0.51100000000E-03 0. -1.
        -11    1    3    3    0    0  0.56439293071E+00 -0.12654528806E+02  0.16364171563E+01  0.12772372530E+02  0.51100000000E-03 0.  1.
        -12    1    3    3    0    0  0.20731525604E+01  0.42674432545E+02  0.10070883924E+02  0.43895647365E+02  0.00000000000E+00 0.  1.
</event>
<event>
 7    1  0.2232484E-015  0.9000789E+02  0.7816164E-02  0.1186339E+00
        -11   -1    0    0    0    0  0.00000000000E+00  0.00000000000E+00  0.45593999997E+02  0.45594000000E+02  0.51100000000E-03 0.  1.
         11   -1    0    0    0    0 -0.00000000000E+00 -0.00000000000E+00 -0.45593999997E+02  0.45594000000E+02  0.51100000000E-03 0. -1.
    9900012    2    1    2    0    0  0.16860317796E+00  0.81974386636E+00 -0.83201702601E+00  0.90007890103E+02  0.90000153452E+02 0.  0.
        -12    1    1    2    0    0 -0.16860317796E+00 -0.81974386636E+00  0.83201702601E+00  0.11801098973E+01  0.00000000000E+00 0.  1.
         11    1    3    3    0    0 -0.68924467161E+01 -0.50250321761E+01 -0.35633008195E+02  0.36639705831E+02  0.51100000000E-03 0. -1.
        -11    1    3    3    0    0 -0.43188495404E+01 -0.29343488287E+01 -0.72467410378E+01  0.89318598473E+01  0.51100000000E-03 0.  1.
        -12    1    3    3    0    0  0.11379899434E+02  0.87791248712E+01  0.42047732207E+02  0.44436324425E+02  0.00000000000E+00 0.  1.
</event>
<event>
 7    1  0.2232484E-015  0.9000768E+02  0.7816164E-02  0.1186339E+00
        -11   -1    0    0    0    0  0.00000000000E+00  0.00000000000E+00  0.45593999997E+02  0.45594000000E+02  0.51100000000E-03 0.  1.
         11   -1    0    0    0    0 -0.00000000000E+00 -0.00000000000E+00 -0.45593999997E+02  0.45594000000E+02  0.51100000000E-03 0. -1.
    9900012    2    1    2    0    0  0.75570369617E+00  0.82780555068E+00 -0.36986055727E+00  0.90007683543E+02  0.89999944166E+02 0.  0.
        -12    1    1    2    0    0 -0.75570369617E+00 -0.82780555068E+00  0.36986055727E+00  0.11803164567E+01  0.00000000000E+00 0.  1.
         11    1    3    3    0    0  0.13121579578E+02 -0.35892234130E+02  0.67792201550E+01  0.38812190709E+02  0.51100000000E-03 0. -1.
        -11    1    3    3    0    0  0.44401789962E+01  0.42034200978E+01  0.92489709237E+01  0.11087262667E+02  0.51100000000E-03 0.  1.
        -12    1    3    3    0    0 -0.16806054878E+02  0.32516619583E+02 -0.16398051636E+02  0.40108230167E+02  0.00000000000E+00 0.  1.
</event>
<event>
 7    1  0.2232484E-015  0.9000763E+02  0.7816164E-02  0.1186339E+00
        -11   -1    0    0    0    0  0.00000000000E+00  0.00000000000E+00  0.45593999997E+02  0.45594000000E+02  0.51100000000E-03 0. -1.
         11   -1    0    0    0    0 -0.00000000000E+00 -0.00000000000E+00 -0.45593999997E+02  0.45594000000E+02  0.51100000000E-03 0.  1.
    9900012    2    1    2    0    0 -0.52719549717E+00 -0.31050912759E+00  0.10094216302E+01  0.90007625891E+02  0.89999885752E+02 0.  0.
        -12    1    1    2    0    0  0.52719549717E+00  0.31050912759E+00 -0.10094216302E+01  0.11803741094E+01  0.00000000000E+00 0.  1.
         11    1    3    3    0    0  0.66952933789E+01  0.74778326031E+01 -0.34668219455E+01  0.10619029548E+02  0.51100000000E-03 0. -1.
        -11    1    3    3    0    0  0.23168648440E+02 -0.69381560690E+01 -0.26574177263E+02  0.35932035535E+02  0.51100000000E-03 0.  1.
         12    1    3    3    0    0 -0.30391137316E+02 -0.85018566166E+00  0.31050420839E+02  0.43456560808E+02  0.00000000000E+00 0. -1.
</event>
<event>
 7    1  0.2232484E-015  0.9000777E+02  0.7816164E-02  0.1186339E+00
        -11   -1    0    0    0    0  0.00000000000E+00  0.00000000000E+00  0.45593999997E+02  0.45594000000E+02  0.51100000000E-03 0. -1.
         11   -1    0    0    0    0 -0.00000000000E+00 -0.00000000000E+00 -0.45593999997E+02  0.45594000000E+02  0.51100000000E-03 0.  1.
    9900012    2    1    2    0    0 -0.93240716439E+00 -0.72341841010E+00  0.15375052847E-01  0.90007765401E+02  0.90000027104E+02 0.  0.
        -12    1    1    2    0    0  0.93240716439E+00  0.72341841010E+00 -0.15375052847E-01  0.11802345989E+01  0.00000000000E+00 0.  1.
         11    1    3    3    0    0 -0.14541873749E+02 -0.12809813705E+02  0.34422227449E+02  0.39502495644E+02  0.51100000000E-03 0. -1.
        -11    1    3    3    0    0 -0.76572246800E+01  0.57850492520E+01 -0.33703976437E-01  0.95969276786E+01  0.51100000000E-03 0.  1.
        -12    1    3    3    0    0  0.21266691265E+02  0.63013460431E+01 -0.34373148420E+02  0.40908342078E+02  0.00000000000E+00 0.  1.
</event>
<event>
 7    1  0.2232484E-015  0.9000770E+02  0.7816164E-02  0.1186339E+00
        -11   -1    0    0    0    0  0.00000000000E+00  0.00000000000E+00  0.45593999997E+02  0.45594000000E+02  0.51100000000E-03 0. -1.
         11   -1    0    0    0    0 -0.00000000000E+00 -0.00000000000E+00 -0.45593999997E+02  0.45594000000E+02  0.51100000000E-03 0.  1.
    9900012    2    1    2    0    0  0.25640364145E+00  0.10854661868E+01 -0.38618537969E+00  0.90007695456E+02  0.89999956236E+02 0.  0.
        -12    1    1    2    0    0 -0.25640364145E+00 -0.10854661868E+01  0.38618537969E+00  0.11803045444E+01  0.00000000000E+00 0.  1.
         11    1    3    3    0    0  0.77385659784E+01 -0.47763430145E+01  0.10079621145E+01  0.91495816232E+01  0.51100000000E-03 0. -1.
        -11    1    3    3    0    0  0.26898251656E+02 -0.49513382450E+01 -0.25584900159E+02  0.37451552825E+02  0.51100000000E-03 0.  1.
         12    1    3    3    0    0 -0.34380413993E+02  0.10813147446E+02  0.24190752665E+02  0.43406561008E+02  0.00000000000E+00 0. -1.
</event>
<event>
 7    1  0.2232484E-015  0.9000761E+02  0.7816164E-02  0.1186339E+00
        -11   -1    0    0    0    0  0.00000000000E+00  0.00000000000E+00  0.45593999997E+02  0.45594000000E+02  0.51100000000E-03 0. -1.
         11   -1    0    0    0    0 -0.00000000000E+00 -0.00000000000E+00 -0.45593999997E+02  0.45594000000E+02  0.51100000000E-03 0.  1.
    9900012    2    1    2    0    0  0.90255450807E+00  0.25883682902E-01  0.76029095857E+00  0.90007611527E+02  0.89999871199E+02 0.  0.
        -12    1    1    2    0    0 -0.90255450807E+00 -0.25883682902E-01 -0.76029095857E+00  0.11803884728E+01  0.00000000000E+00 0.  1.
         11    1    3    3    0    0  0.93233014365E+01  0.15461839120E+01 -0.29251489397E+01  0.98929839253E+01  0.51100000000E-03 0. -1.
        -11    1    3    3    0    0  0.18615442831E+02  0.24142161759E+02 -0.19525566898E+02  0.36202575173E+02  0.51100000000E-03 0.  1.
         12    1    3    3    0    0 -0.27036189760E+02 -0.25662461988E+02  0.23211006796E+02  0.43912052429E+02  0.00000000000E+00 0. -1.
</event>
<event>
 7    1  0.2232484E-015  0.9000770E+02  0.7816164E-02  0.1186339E+00
        -11   -1    0    0    0    0  0.00000000000E+00  0.00000000000E+00  0.45593999997E+02  0.45594000000E+02  0.51100000000E-03 0.  1.
         11   -1    0    0    0    0 -0.00000000000E+00 -0.00000000000E+00 -0.45593999997E+02  0.45594000000E+02  0.51100000000E-03 0. -1.
    9900012    2    1    2    0    0  0.10477550702E+01  0.17644212131E+00  0.51398607145E+00  0.90007701652E+02  0.89999962513E+02 0.  0.
        -12    1    1    2    0    0 -0.10477550702E+01 -0.17644212131E+00 -0.51398607145E+00  0.11802983483E+01  0.00000000000E+00 0.  1.
         11    1    3    3    0    0  0.42738813567E+01 -0.92024985604E+01 -0.39394892727E+02  0.40680580316E+02  0.51100000000E-03 0. -1.
        -11    1    3    3    0    0  0.98314234071E+01  0.20567430067E+01  0.47439649763E+01  0.11108207865E+02  0.51100000000E-03 0.  1.
        -12    1    3    3    0    0 -0.13057549694E+02  0.73221976749E+01  0.35164913822E+02  0.38218913471E+02  0.00000000000E+00 0.  1.
</event>
<event>
 7    1  0.2232484E-015  0.9000776E+02  0.7816164E-02  0.1186339E+00
        -11   -1    0    0    0    0  0.00000000000E+00  0.00000000000E+00  0.45593999997E+02  0.45594000000E+02  0.51100000000E-03 0.  1.
         11   -1    0    0    0    0 -0.00000000000E+00 -0.00000000000E+00 -0.45593999997E+02  0.45594000000E+02  0.51100000000E-03 0. -1.
    9900012    2    1    2    0    0  0.73104491193E+00 -0.33123059818E+00 -0.86534727954E+00  0.90007760072E+02  0.90000021705E+02 0.  0.
        -12    1    1    2    0    0 -0.73104491193E+00  0.33123059818E+00  0.86534727954E+00  0.11802399276E+01  0.00000000000E+00 0.  1.
         11    1    3    3    0    0 -0.35408874076E+01  0.10745701345E+02 -0.50649518491E+00  0.11325392650E+02  0.51100000000E-03 0. -1.
        -11    1    3    3    0    0  0.46217194657E+01  0.27568664317E+02  0.20594323022E+02  0.34720565721E+02  0.51100000000E-03 0.  1.
         12    1    3    3    0    0 -0.34978714621E+00 -0.38645596260E+02 -0.20953175117E+02  0.43961801701E+02  0.00000000000E+00 0. -1.
</event>
<event>
 7    1  0.2232484E-015  0.9000772E+02  0.7816164E-02  0.1186339E+00
        -11   -1    0    0    0    0  0.00000000000E+00  0.00000000000E+00  0.45593999997E+02  0.45594000000E+02  0.51100000000E-03 0.  1.
         11   -1    0    0    0    0 -0.00000000000E+00 -0.00000000000E+00 -0.45593999997E+02  0.45594000000E+02  0.51100000000E-03 0. -1.
    9900012    2    1    2    0    0  0.63265873082E+00 -0.33607433060E+00 -0.93801097639E+00  0.90007717145E+02  0.89999978212E+02 0.  0.
        -12    1    1    2    0    0 -0.63265873082E+00  0.33607433060E+00  0.93801097639E+00  0.11802828547E+01  0.00000000000E+00 0.  1.
         11    1    3    3    0    0  0.95535455903E+01 -0.27237603105E+01 -0.92490486011E+00  0.99772016536E+01  0.51100000000E-03 0. -1.
        -11    1    3    3    0    0 -0.28144933771E+02 -0.24324022305E+02  0.19262628215E+02  0.41890860627E+02  0.51100000000E-03 0.  1.
         12    1    3    3    0    0  0.19224046911E+02  0.26711708285E+02 -0.19275734331E+02  0.38139654864E+02  0.00000000000E+00 0. -1.
</event>
<event>
 7    1  0.2232484E-015  0.9000767E+02  0.7816164E-02  0.1186339E+00
        -11   -1    0    0    0    0  0.00000000000E+00  0.00000000000E+00  0.45593999997E+02  0.45594000000E+02  0.51100000000E-03 0.  1.
         11   -1    0    0    0    0 -0.00000000000E+00 -0.00000000000E+00 -0.45593999997E+02  0.45594000000E+02  0.51100000000E-03 0. -1.
    9900012    2    1    2    0    0 -0.98238607545E+00 -0.57240033285E+00 -0.31694679144E+00  0.90007669618E+02  0.89999930057E+02 0.  0.
        -12    1    1    2    0    0  0.98238607545E+00  0.57240033285E+00  0.31694679144E+00  0.11803303821E+01  0.00000000000E+00 0.  1.
         11    1    3    3    0    0 -0.64173704433E+01  0.13318863324E+02  0.32993355632E+02  0.36154339709E+02  0.51100000000E-03 0. -1.
        -11    1    3    3    0    0  0.75275347796E+00 -0.17657128157E+01  0.92010980638E+01  0.93991800380E+01  0.51100000000E-03 0.  1.
        -12    1    3    3    0    0  0.46822308899E+01 -0.12125550841E+02 -0.42511400488E+02  0.44454149871E+02  0.00000000000E+00 0.  1.
</event>
<event>
 7    1  0.2232484E-015  0.9000775E+02  0.7816164E-02  0.1186339E+00
        -11   -1    0    0    0    0  0.00000000000E+00  0.00000000000E+00  0.45593999997E+02  0.45594000000E+02  0.51100000000E-03 0. -1.
         11   -1    0    0    0    0 -0.00000000000E+00 -0.00000000000E+00 -0.45593999997E+02  0.45594000000E+02  0.51100000000E-03 0.  1.
    9900012    2    1    2    0    0 -0.20618232261E+00  0.79217740651E+00  0.85025206398E+00  0.90007752244E+02  0.90000013773E+02 0.  0.
        -12    1    1    2    0    0  0.20618232261E+00 -0.79217740651E+00 -0.85025206398E+00  0.11802477561E+01  0.00000000000E+00 0.  1.
         11    1    3    3    0    0 -0.15520859231E+02 -0.10776957300E+02  0.31005721748E+02  0.36309704781E+02  0.51100000000E-03 0. -1.
        -11    1    3    3    0    0 -0.11234879219E+01  0.27592987826E+01  0.94567862532E+01  0.99149766203E+01  0.51100000000E-03 0.  1.
        -12    1    3    3    0    0  0.16438164831E+02  0.88098359241E+01 -0.39612255937E+02  0.43783070843E+02  0.00000000000E+00 0.  1.
</event>
<event>
 7    1  0.2232484E-015  0.9000768E+02  0.7816164E-02  0.1186339E+00
        -11   -1    0    0    0    0  0.00000000000E+00  0.00000000000E+00  0.45593999997E+02  0.45594000000E+02  0.51100000000E-03 0. -1.
         11   -1    0    0    0    0 -0.00000000000E+00 -0.00000000000E+00 -0.45593999997E+02  0.45594000000E+02  0.51100000000E-03 0.  1.
    9900012    2    1    2    0    0  0.80245087499E+00 -0.72605067880E+00  0.47125353031E+00  0.90007679330E+02  0.89999939897E+02 0.  0.
        -12    1    1    2    0    0 -0.80245087499E+00  0.72605067880E+00 -0.47125353031E+00  0.11803206703E+01  0.00000000000E+00 0.  1.
         11    1    3    3    0    0  0.22019737203E+02 -0.65195422370E+01  0.36440419632E+02  0.43072931647E+02  0.51100000000E-03 0. -1.
        -11    1    3    3    0    0  0.97124332037E-01 -0.54345142276E+01 -0.33537620090E+01  0.63867908921E+01  0.51100000000E-03 0.  1.
        -12    1    3    3    0    0 -0.21314410660E+02  0.11228005786E+02 -0.32615404093E+02  0.40547956790E+02  0.00000000000E+00 0.  1.
</event>
<event>
 7    1  0.2232484E-015  0.9000758E+02  0.7816164E-02  0.1186339E+00
        -11   -1    0    0    0    0  0.00000000000E+00  0.00000000000E+00  0.45593999997E+02  0.45594000000E+02  0.51100000000E-03 0. -1.
         11   -1    0    0    0    0 -0.00000000000E+00 -0.00000000000E+00 -0.45593999997E+02  0.45594000000E+02  0.51100000000E-03 0.  1.
    9900012    2    1    2    0    0 -0.11693282233E+01 -0.16247385456E-01 -0.16059223852E+00  0.90007583828E+02  0.89999843135E+02 0.  0.
        -12    1    1    2    0    0  0.11693282233E+01  0.16247385456E-01  0.16059223852E+00  0.11804161717E+01  0.00000000000E+00 0.  1.
         11    1    3    3    0    0  0.20054394319E+02 -0.11898927419E+02  0.31467645104E+02  0.39166004313E+02  0.51100000000E-03 0. -1.
        -11    1    3    3    0    0 -0.59327678934E+01 -0.65473011214E+01  0.24700435421E+01  0.91742030832E+01  0.51100000000E-03 0.  1.
        -12    1    3    3    0    0 -0.15290954649E+02  0.18429981155E+02 -0.34098280884E+02  0.41667376432E+02  0.00000000000E+00 0.  1.
</event>
<event>
 7    1  0.2232484E-015  0.9000759E+02  0.7816164E-02  0.1186339E+00
        -11   -1    0    0    0    0  0.00000000000E+00  0.00000000000E+00  0.45593999997E+02  0.45594000000E+02  0.51100000000E-03 0. -1.
         11   -1    0    0    0    0 -0.00000000000E+00 -0.00000000000E+00 -0.45593999997E+02  0.45594000000E+02  0.51100000000E-03 0.  1.
    9900012    2    1    2    0    0 -0.36025310842E+00  0.32604578530E+00  0.10757675079E+01  0.90007591644E+02  0.89999851053E+02 0.  0.
        -12    1    1    2    0    0  0.36025310842E+00 -0.32604578530E+00 -0.10757675079E+01  0.11804083562E+01  0.00000000000E+00 0.  1.
         11    1    3    3    0    0 -0.99797107614E+01  0.34895538050E+02  0.96067455336E+01  0.37544410539E+02  0.51100000000E-03 0. -1.
        -11    1    3    3    0    0 -0.50188890708E-01  0.72342388638E+01 -0.61406129140E+01  0.94891442229E+01  0.51100000000E-03 0.  1.
        -12    1    3    3    0    0  0.96696465436E+01 -0.41803731129E+02 -0.23903651118E+01  0.42974036882E+02  0.00000000000E+00 0.  1.
</event>
<event>
 7    1  0.2232484E-015  0.9000771E+02  0.7816164E-02  0.1186339E+00
        -11   -1    0    0    0    0  0.00000000000E+00  0.00000000000E+00  0.45593999997E+02  0.45594000000E+02  0.51100000000E-03 0. -1.
         11   -1    0    0    0    0 -0.00000000000E+00 -0.00000000000E+00 -0.45593999997E+02  0.45594000000E+02  0.51100000000E-03 0.  1.
    9900012    2    1    2    0    0 -0.11687721457E+01  0.14917858120E+00  0.69332656719E-01  0.90007707835E+02  0.89999968778E+02 0.  0.
        -12    1    1    2    0    0  0.11687721457E+01 -0.14917858120E+00 -0.69332656719E-01  0.11802921651E+01  0.00000000000E+00 0.  1.
         11    1    3    3    0    0  0.41188215724E+01 -0.47136435200E+01  0.72202015247E+01  0.95558587629E+01  0.51100000000E-03 0. -1.
        -11    1    3    3    0    0  0.33219098408E+02  0.18589632834E+02  0.34402852399E+01  0.38221963722E+02  0.51100000000E-03 0.  1.
         12    1    3    3    0    0 -0.38506692126E+02 -0.13726810733E+02 -0.10591154108E+02  0.42229885350E+02  0.00000000000E+00 0. -1.
</event>
<event>
 7    1  0.2232484E-015  0.9000787E+02  0.7816164E-02  0.1186339E+00
        -11   -1    0    0    0    0  0.00000000000E+00  0.00000000000E+00  0.45593999997E+02  0.45594000000E+02  0.51100000000E-03 0. -1.
         11   -1    0    0    0    0 -0.00000000000E+00 -0.00000000000E+00 -0.45593999997E+02  0.45594000000E+02  0.51100000000E-03 0.  1.
    9900012    2    1    2    0    0 -0.17693664876E+00 -0.90534895660E+00  0.73603492560E+00  0.90007868345E+02  0.90000131407E+02 0.  0.
        -12    1    1    2    0    0  0.17693664876E+00  0.90534895660E+00 -0.73603492560E+00  0.11801316548E+01  0.00000000000E+00 0.  1.
         11    1    3    3    0    0 -0.89670372450E+01 -0.35131189347E+02 -0.21656498665E+02  0.42232832685E+02  0.51100000000E-03 0. -1.
        -11    1    3    3    0    0 -0.38540997001E+01  0.16947678396E+01  0.98081958369E+01  0.10673660495E+02  0.51100000000E-03 0.  1.
        -12    1    3    3    0    0  0.12644200296E+02  0.32531072551E+02  0.12584337754E+02  0.37101375165E+02  0.00000000000E+00 0.  1.
</event>
<event>
 7    1  0.2232484E-015  0.9000759E+02  0.7816164E-02  0.1186339E+00
        -11   -1    0    0    0    0  0.00000000000E+00  0.00000000000E+00  0.45593999997E+02  0.45594000000E+02  0.51100000000E-03 0. -1.
         11   -1    0    0    0    0 -0.00000000000E+00 -0.00000000000E+00 -0.45593999997E+02  0.45594000000E+02  0.51100000000E-03 0.  1.
    9900012    2    1    2    0    0 -0.37865987401E+00  0.11138311195E+01 -0.96798938299E-01  0.90007587743E+02  0.89999847101E+02 0.  0.
        -12    1    1    2    0    0  0.37865987401E+00 -0.11138311195E+01  0.96798938299E-01  0.11804122574E+01  0.00000000000E+00 0.  1.
         11    1    3    3    0    0  0.89145467389E+01  0.31082655722E+02  0.29926152729E+02  0.44058770384E+02  0.51100000000E-03 0. -1.
        -11    1    3    3    0    0 -0.26806361950E+01 -0.69055809571E+00 -0.87011291161E+01  0.91308449253E+01  0.51100000000E-03 0.  1.
        -12    1    3    3    0    0 -0.66125704179E+01 -0.29278266507E+02 -0.21321822552E+02  0.36817972433E+02  0.00000000000E+00 0.  1.
</event>
<event>
 7    1  0.2232484E-015  0.9000810E+02  0.7816164E-02  0.1186338E+00
        -11   -1    0    0    0    0  0.00000000000E+00  0.00000000000E+00  0.45593999997E+02  0.45594000000E+02  0.51100000000E-03 0.  1.
         11   -1    0    0    0    0 -0.00000000000E+00 -0.00000000000E+00 -0.45593999997E+02  0.45594000000E+02  0.51100000000E-03 0. -1.
    9900012    2    1    2    0    0  0.71166201307E+00  0.22569700982E+00 -0.91365186842E+00  0.90008100980E+02  0.90000367112E+02 0.  0.
        -12    1    1    2    0    0 -0.71166201307E+00 -0.22569700982E+00  0.91365186842E+00  0.11798990202E+01  0.00000000000E+00 0.  1.
         11    1    3    3    0    0 -0.25232313930E+02  0.18607139872E+01 -0.26273423803E+02  0.36474987614E+02  0.51100000000E-03 0. -1.
        -11    1    3    3    0    0 -0.67249005621E-01 -0.31465091178E+01 -0.95025283192E+01  0.10010149188E+02  0.51100000000E-03 0.  1.
        -12    1    3    3    0    0  0.26011224949E+02  0.15114921405E+01  0.34862300254E+02  0.43522964178E+02  0.00000000000E+00 0.  1.
</event>
<event>
 7    1  0.2232484E-015  0.9000770E+02  0.7816164E-02  0.1186339E+00
        -11   -1    0    0    0    0  0.00000000000E+00  0.00000000000E+00  0.45593999997E+02  0.45594000000E+02  0.51100000000E-03 0.  1.
         11   -1    0    0    0    0 -0.00000000000E+00 -0.00000000000E+00 -0.45593999997E+02  0.45594000000E+02  0.51100000000E-03 0. -1.
    9900012    2    1    2    0    0 -0.73559553450E+00 -0.13236844369E+00 -0.91350102964E+00  0.90007700747E+02  0.89999961597E+02 0.  0.
        -12    1    1    2    0    0  0.73559553450E+00  0.13236844369E+00  0.91350102964E+00  0.11802992529E+01  0.00000000000E+00 0.  1.
         11    1    3    3    0    0  0.12419924418E+01 -0.42147327373E-01 -0.96022744088E+01  0.96823548637E+01  0.51100000000E-03 0. -1.
        -11    1    3    3    0    0 -0.35329305841E+02  0.20092219734E+02  0.14018385509E+01  0.40667214026E+02  0.51100000000E-03 0.  1.
         12    1    3    3    0    0  0.33351717865E+02 -0.20182440850E+02  0.72869348283E+01  0.39658131857E+02  0.00000000000E+00 0. -1.
</event>
<event>
 7    1  0.2232484E-015  0.9000778E+02  0.7816164E-02  0.1186339E+00
        -11   -1    0    0    0    0  0.00000000000E+00  0.00000000000E+00  0.45593999997E+02  0.45594000000E+02  0.51100000000E-03 0.  1.
         11   -1    0    0    0    0 -0.00000000000E+00 -0.00000000000E+00 -0.45593999997E+02  0.45594000000E+02  0.51100000000E-03 0. -1.
    9900012    2    1    2    0    0  0.95846865428E+00 -0.68861579773E+00  0.73839792198E-02  0.90007784595E+02  0.90000046552E+02 0.  0.
        -12    1    1    2    0    0 -0.95846865428E+00  0.68861579773E+00 -0.73839792198E-02  0.11802154046E+01  0.00000000000E+00 0.  1.
         11    1    3    3    0    0  0.36554747210E+01 -0.18243409859E+02 -0.22658058000E+02  0.29318459907E+02  0.51100000000E-03 0. -1.
        -11    1    3    3    0    0  0.64470281391E+01  0.24580858150E+01 -0.16416034908E+02  0.17807092970E+02  0.51100000000E-03 0.  1.
        -12    1    3    3    0    0 -0.91440342058E+01  0.15096708246E+02  0.39081476887E+02  0.42882231718E+02  0.00000000000E+00 0.  1.
</event>
<event>
 7    1  0.2232484E-015  0.9000759E+02  0.7816164E-02  0.1186339E+00
        -11   -1    0    0    0    0  0.00000000000E+00  0.00000000000E+00  0.45593999997E+02  0.45594000000E+02  0.51100000000E-03 0.  1.
         11   -1    0    0    0    0 -0.00000000000E+00 -0.00000000000E+00 -0.45593999997E+02  0.45594000000E+02  0.51100000000E-03 0. -1.
    9900012    2    1    2    0    0 -0.77530413864E+00  0.23182136105E+00 -0.85937549543E+00  0.90007591641E+02  0.89999851051E+02 0.  0.
        -12    1    1    2    0    0  0.77530413864E+00 -0.23182136105E+00  0.85937549543E+00  0.11804083586E+01  0.00000000000E+00 0.  1.
         11    1    3    3    0    0 -0.33786800388E+02 -0.18779220175E+02 -0.78741964179E+01  0.39448827110E+02  0.51100000000E-03 0. -1.
        -11    1    3    3    0    0 -0.16170976983E+01 -0.49213918024E+01  0.66930646149E+01  0.84635817736E+01  0.51100000000E-03 0.  1.
        -12    1    3    3    0    0  0.34628593948E+02  0.23932433338E+02  0.32175630755E+00  0.42095182758E+02  0.00000000000E+00 0.  1.
</event>
<event>
 7    1  0.2232484E-015  0.9000766E+02  0.7816164E-02  0.1186339E+00
        -11   -1    0    0    0    0  0.00000000000E+00  0.00000000000E+00  0.45593999997E+02  0.45594000000E+02  0.51100000000E-03 0.  1.
         11   -1    0    0    0    0 -0.00000000000E+00 -0.00000000000E+00 -0.45593999997E+02  0.45594000000E+02  0.51100000000E-03 0. -1.
    9900012    2    1    2    0    0  0.76478330281E+00 -0.16542418993E+00  0.88371653116E+00  0.90007655317E+02  0.89999915567E+02 0.  0.
        -12    1    1    2    0    0 -0.76478330281E+00  0.16542418993E+00 -0.88371653116E+00  0.11803446828E+01  0.00000000000E+00 0.  1.
         11    1    3    3    0    0 -0.55381775997E+01 -0.62089864015E+00  0.90811664832E+01  0.10654788182E+02  0.51100000000E-03 0. -1.
        -11    1    3    3    0    0 -0.15526527521E+02 -0.34418038036E+02 -0.28687990429E+01  0.37866930260E+02  0.51100000000E-03 0.  1.
         12    1    3    3    0    0  0.21829488423E+02  0.34873512486E+02 -0.53286509092E+01  0.41485936876E+02  0.00000000000E+00 0. -1.
</event>
<event>
 7    1  0.2232484E-015  0.9000765E+02  0.7816164E-02  0.1186339E+00
        -11   -1    0    0    0    0  0.00000000000E+00  0.00000000000E+00  0.45593999997E+02  0.45594000000E+02  0.51100000000E-03 0. -1.
         11   -1    0    0    0    0 -0.00000000000E+00 -0.00000000000E+00 -0.45593999997E+02  0.45594000000E+02  0.51100000000E-03 0.  1.
    9900012    2    1    2    0    0 -0.87965556747E+00 -0.74600784832E+00  0.25080927854E+00  0.90007649662E+02  0.89999909837E+02 0.  0.
        -12    1    1    2    0    0  0.87965556747E+00  0.74600784832E+00 -0.25080927854E+00  0.11803503384E+01  0.00000000000E+00 0.  1.
         11    1    3    3    0    0 -0.29695657562E+01 -0.21205566545E+00 -0.71147128084E+01  0.77124851373E+01  0.51100000000E-03 0. -1.
        -11    1    3    3    0    0  0.94408741086E+00  0.19058019882E+02 -0.32598413699E+02  0.37772423788E+02  0.51100000000E-03 0.  1.
         12    1    3    3    0    0  0.11458227779E+01 -0.19591972065E+02  0.39963935786E+02  0.44522740737E+02  0.00000000000E+00 0. -1.
</event>
<event>
 7    1  0.2232484E-015  0.9000759E+02  0.7816164E-02  0.1186339E+00
        -11   -1    0    0    0    0  0.00000000000E+00  0.00000000000E+00  0.45593999997E+02  0.45594000000E+02  0.51100000000E-03 0.  1.
         11   -1    0    0    0    0 -0.00000000000E+00 -0.00000000000E+00 -0.45593999997E+02  0.45594000000E+02  0.51100000000E-03 0. -1.
    9900012    2    1    2    0    0 -0.12753340447E+00  0.24031032814E+00 -0.11486292617E+01  0.90007592018E+02  0.89999851432E+02 0.  0.
        -12    1    1    2    0    0  0.12753340447E+00 -0.24031032814E+00  0.11486292617E+01  0.11804079820E+01  0.00000000000E+00 0.  1.
         11    1    3    3    0    0  0.72550627229E+00 -0.10917897491E+02  0.17794241822E+01  0.11085720349E+02  0.51100000000E-03 0. -1.
        -11    1    3    3    0    0  0.21061493103E+02  0.32132896526E+02  0.17635458728E+02  0.42274329512E+02  0.51100000000E-03 0.  1.
         12    1    3    3    0    0 -0.21914532779E+02 -0.20974688707E+02 -0.20563512172E+02  0.36647542157E+02  0.00000000000E+00 0. -1.
</event>
<event>
 7    1  0.3179646E-015  0.9000784E+02  0.7816164E-02  0.1186339E+00
        -11   -1    0    0    0    0  0.00000000000E+00  0.00000000000E+00  0.45593999997E+02  0.45594000000E+02  0.51100000000E-03 0. -1.
         11   -1    0    0    0    0 -0.00000000000E+00 -0.00000000000E+00 -0.45593999997E+02  0.45594000000E+02  0.51100000000E-03 0.  1.
    9900012    2    1    2    0    0 -0.65478482027E+00 -0.41412221476E+00  0.89024375938E+00  0.90007841400E+02  0.90000104107E+02 0.  0.
        -12    1    1    2    0    0  0.65478482027E+00  0.41412221476E+00 -0.89024375938E+00  0.11801585998E+01  0.00000000000E+00 0.  1.
         11    1    3    3    0    0  0.92524211413E+00 -0.88564505048E+01  0.23334735152E+01  0.92053184313E+01  0.51100000000E-03 0. -1.
        -11    1    3    3    0    0  0.10131818942E+02 -0.33109444644E+02 -0.11483478397E+02  0.36479574505E+02  0.51100000000E-03 0.  1.
         12    1    3    3    0    0 -0.11711845876E+02  0.41551772934E+02  0.10040248641E+02  0.44322948464E+02  0.00000000000E+00 0. -1.
</event>
<event>
 7    1  0.2232484E-015  0.9000788E+02  0.7816164E-02  0.1186339E+00
        -11   -1    0    0    0    0  0.00000000000E+00  0.00000000000E+00  0.45593999997E+02  0.45594000000E+02  0.51100000000E-03 0.  1.
         11   -1    0    0    0    0 -0.00000000000E+00 -0.00000000000E+00 -0.45593999997E+02  0.45594000000E+02  0.51100000000E-03 0. -1.
    9900012    2    1    2    0    0 -0.14350110664E+00 -0.11587907286E+01 -0.17113074344E+00  0.90007883797E+02  0.90000147063E+02 0.  0.
        -12    1    1    2    0    0  0.14350110664E+00  0.11587907286E+01  0.17113074344E+00  0.11801162026E+01  0.00000000000E+00 0.  1.
         11    1    3    3    0    0  0.20769872714E+01  0.12601624337E+00  0.10295597025E+02  0.10503764781E+02  0.51100000000E-03 0. -1.
        -11    1    3    3    0    0  0.29782119149E+02 -0.15394907066E+01  0.19523904022E+02  0.35644459333E+02  0.51100000000E-03 0.  1.
         12    1    3    3    0    0 -0.32002607527E+02  0.25468373462E+00 -0.29990631791E+02  0.43859659683E+02  0.00000000000E+00 0. -1.
</event>
<event>
 7    1  0.2232484E-015  0.9000768E+02  0.7816164E-02  0.1186339E+00
        -11   -1    0    0    0    0  0.00000000000E+00  0.00000000000E+00  0.45593999997E+02  0.45594000000E+02  0.51100000000E-03 0.  1.
         11   -1    0    0    0    0 -0.00000000000E+00 -0.00000000000E+00 -0.45593999997E+02  0.45594000000E+02  0.51100000000E-03 0. -1.
    9900012    2    1    2    0    0 -0.40863123394E-01  0.10905993719E+01  0.44954147756E+00  0.90007676178E+02  0.89999936703E+02 0.  0.
        -12    1    1    2    0    0  0.40863123394E-01 -0.10905993719E+01 -0.44954147756E+00  0.11803238221E+01  0.00000000000E+00 0.  1.
         11    1    3    3    0    0 -0.80109693971E+01  0.46795818101E+00 -0.42029539181E+01  0.90586664273E+01  0.51100000000E-03 0. -1.
        -11    1    3    3    0    0  0.10784629453E+02  0.19425265282E+01  0.42033777062E+02  0.43438693076E+02  0.51100000000E-03 0.  1.
         12    1    3    3    0    0 -0.28145231791E+01 -0.13198853373E+01 -0.37381281666E+02  0.37510316675E+02  0.00000000000E+00 0. -1.
</event>
<event>
 7    1  0.2232484E-015  0.9000821E+02  0.7816164E-02  0.1186338E+00
        -11   -1    0    0    0    0  0.00000000000E+00  0.00000000000E+00  0.45593999997E+02  0.45594000000E+02  0.51100000000E-03 0.  1.
         11   -1    0    0    0    0 -0.00000000000E+00 -0.00000000000E+00 -0.45593999997E+02  0.45594000000E+02  0.51100000000E-03 0. -1.
    9900012    2    1    2    0    0 -0.40998149180E-01  0.39341289628E-01 -0.11784225675E+01  0.90008208352E+02  0.90000475901E+02 0.  0.
        -12    1    1    2    0    0  0.40998149180E-01 -0.39341289628E-01  0.11784225675E+01  0.11797916481E+01  0.00000000000E+00 0.  1.
         11    1    3    3    0    0 -0.11249799175E+01  0.44365877084E+01 -0.95531894354E+01  0.10593031623E+02  0.51100000000E-03 0. -1.
        -11    1    3    3    0    0  0.15746067341E+02 -0.38638512995E+02  0.45172292028E+01  0.41967590866E+02  0.51100000000E-03 0.  1.
         12    1    3    3    0    0 -0.14662085573E+02  0.34241266577E+02  0.38575376650E+01  0.37447585863E+02  0.00000000000E+00 0. -1.
</event>
<event>
 7    1  0.2232484E-015  0.9000771E+02  0.7816164E-02  0.1186339E+00
        -11   -1    0    0    0    0  0.00000000000E+00  0.00000000000E+00  0.45593999997E+02  0.45594000000E+02  0.51100000000E-03 0.  1.
         11   -1    0    0    0    0 -0.00000000000E+00 -0.00000000000E+00 -0.45593999997E+02  0.45594000000E+02  0.51100000000E-03 0. -1.
    9900012    2    1    2    0    0 -0.16443623943E+00  0.10634248130E+01 -0.48495331551E+00  0.90007707101E+02  0.89999968034E+02 0.  0.
        -12    1    1    2    0    0  0.16443623943E+00 -0.10634248130E+01  0.48495331551E+00  0.11802928992E+01  0.00000000000E+00 0.  1.
         11    1    3    3    0    0 -0.31076150888E+01  0.42473722965E+01  0.68722281015E+01  0.86559206504E+01  0.51100000000E-03 0. -1.
        -11    1    3    3    0    0  0.36995292258E+01  0.38472056370E+02 -0.88975178220E+01  0.39660452109E+02  0.51100000000E-03 0.  1.
         12    1    3    3    0    0 -0.75635037641E+00 -0.41656003853E+02  0.15403364049E+01  0.41691334341E+02  0.00000000000E+00 0. -1.
</event>
<event>
 7    1  0.2232484E-015  0.9000766E+02  0.7816164E-02  0.1186339E+00
        -11   -1    0    0    0    0  0.00000000000E+00  0.00000000000E+00  0.45593999997E+02  0.45594000000E+02  0.51100000000E-03 0.  1.
         11   -1    0    0    0    0 -0.00000000000E+00 -0.00000000000E+00 -0.45593999997E+02  0.45594000000E+02  0.51100000000E-03 0. -1.
    9900012    2    1    2    0    0 -0.22296925989E+00  0.11380180065E+01 -0.22000013683E+00  0.90007660924E+02  0.89999921248E+02 0.  0.
        -12    1    1    2    0    0  0.22296925989E+00 -0.11380180065E+01  0.22000013683E+00  0.11803390759E+01  0.00000000000E+00 0.  1.
         11    1    3    3    0    0  0.48098254035E+01 -0.11452745471E+02 -0.34900522086E+02  0.37045191879E+02  0.51100000000E-03 0. -1.
        -11    1    3    3    0    0 -0.51946791151E+01 -0.28116398623E+00 -0.73500002612E+01  0.90047903028E+01  0.51100000000E-03 0.  1.
        -12    1    3    3    0    0  0.16188445168E+00  0.12871927463E+02  0.42030522210E+02  0.43957678743E+02  0.00000000000E+00 0.  1.
</event>
<event>
 7    1  0.2232484E-015  0.9000779E+02  0.7816164E-02  0.1186339E+00
        -11   -1    0    0    0    0  0.00000000000E+00  0.00000000000E+00  0.45593999997E+02  0.45594000000E+02  0.51100000000E-03 0. -1.
         11   -1    0    0    0    0 -0.00000000000E+00 -0.00000000000E+00 -0.45593999997E+02  0.45594000000E+02  0.51100000000E-03 0.  1.
    9900012    2    1    2    0    0  0.10343523006E+01 -0.35987832003E+00 -0.43987599286E+00  0.90007793249E+02  0.90000055319E+02 0.  0.
        -12    1    1    2    0    0 -0.10343523006E+01  0.35987832003E+00  0.43987599286E+00  0.11802067514E+01  0.00000000000E+00 0.  1.
         11    1    3    3    0    0 -0.66943319927E+00 -0.41895676397E+01 -0.81786372898E+01  0.92136163365E+01  0.51100000000E-03 0. -1.
        -11    1    3    3    0    0 -0.25448562261E+02  0.34345010019E+00 -0.26642772163E+02  0.36845414747E+02  0.51100000000E-03 0.  1.
         12    1    3    3    0    0  0.27152347761E+02  0.34862392195E+01  0.34381533460E+02  0.43948762165E+02  0.00000000000E+00 0. -1.
</event>
<event>
 7    1  0.2232484E-015  0.9000775E+02  0.7816164E-02  0.1186339E+00
        -11   -1    0    0    0    0  0.00000000000E+00  0.00000000000E+00  0.45593999997E+02  0.45594000000E+02  0.51100000000E-03 0.  1.
         11   -1    0    0    0    0 -0.00000000000E+00 -0.00000000000E+00 -0.45593999997E+02  0.45594000000E+02  0.51100000000E-03 0. -1.
    9900012    2    1    2    0    0 -0.17856878780E+00 -0.10423983135E+01  0.52392774234E+00  0.90007753697E+02  0.90000015246E+02 0.  0.
        -12    1    1    2    0    0  0.17856878780E+00  0.10423983135E+01 -0.52392774234E+00  0.11802463027E+01  0.00000000000E+00 0.  1.
         11    1    3    3    0    0 -0.19472122205E+02 -0.18132634866E+02 -0.26420758785E+02  0.37496833004E+02  0.51100000000E-03 0. -1.
        -11    1    3    3    0    0 -0.94852080188E+01  0.11134850180E+02  0.38268014526E+01  0.15119473183E+02  0.51100000000E-03 0.  1.
        -12    1    3    3    0    0  0.28778761436E+02  0.59553863719E+01  0.23117885074E+02  0.37391447510E+02  0.00000000000E+00 0.  1.
</event>
<event>
 7    1  0.2232484E-015  0.9000734E+02  0.7816164E-02  0.1186340E+00
        -11   -1    0    0    0    0  0.00000000000E+00  0.00000000000E+00  0.45593999997E+02  0.45594000000E+02  0.51100000000E-03 0. -1.
         11   -1    0    0    0    0 -0.00000000000E+00 -0.00000000000E+00 -0.45593999997E+02  0.45594000000E+02  0.51100000000E-03 0.  1.
    9900012    2    1    2    0    0 -0.82061149981E+00 -0.67649264012E+00  0.51274565426E+00  0.90007341865E+02  0.89999597977E+02 0.  0.
        -12    1    1    2    0    0  0.82061149981E+00  0.67649264012E+00 -0.51274565426E+00  0.11806581350E+01  0.00000000000E+00 0.  1.
         11    1    3    3    0    0 -0.48651105660E+01 -0.83503279991E+01  0.32930430419E+01  0.10209868327E+02  0.51100000000E-03 0. -1.
        -11    1    3    3    0    0  0.10537781224E+02  0.50083872446E+01 -0.40131162420E+02  0.41792810068E+02  0.51100000000E-03 0.  1.
         12    1    3    3    0    0 -0.64932821581E+01  0.26654481144E+01  0.37350865032E+02  0.38004663470E+02  0.00000000000E+00 0. -1.
</event>
<event>
 7    1  0.2232484E-015  0.9000773E+02  0.7816164E-02  0.1186339E+00
        -11   -1    0    0    0    0  0.00000000000E+00  0.00000000000E+00  0.45593999997E+02  0.45594000000E+02  0.51100000000E-03 0.  1.
         11   -1    0    0    0    0 -0.00000000000E+00 -0.00000000000E+00 -0.45593999997E+02  0.45594000000E+02  0.51100000000E-03 0. -1.
    9900012    2    1    2    0    0 -0.10825010804E+01  0.73980300203E-01 -0.46449070907E+00  0.90007731686E+02  0.89999992944E+02 0.  0.
        -12    1    1    2    0    0  0.10825010804E+01 -0.73980300203E-01  0.46449070907E+00  0.11802683138E+01  0.00000000000E+00 0.  1.
         11    1    3    3    0    0 -0.10831768720E+02 -0.11764559551E+01  0.14628994915E+00  0.10896451864E+02  0.51100000000E-03 0. -1.
        -11    1    3    3    0    0 -0.41920782271E+00 -0.27576652583E+02  0.26503852835E+02  0.38250512654E+02  0.51100000000E-03 0.  1.
         12    1    3    3    0    0  0.10168475462E+02  0.28827088839E+02 -0.27114633493E+02  0.40860767169E+02  0.00000000000E+00 0. -1.
</event>
<event>
 7    1  0.2232484E-015  0.9000773E+02  0.7816164E-02  0.1186339E+00
        -11   -1    0    0    0    0  0.00000000000E+00  0.00000000000E+00  0.45593999997E+02  0.45594000000E+02  0.51100000000E-03 0.  1.
         11   -1    0    0    0    0 -0.00000000000E+00 -0.00000000000E+00 -0.45593999997E+02  0.45594000000E+02  0.51100000000E-03 0. -1.
    9900012    2    1    2    0    0  0.76774051581E+00  0.35061080190E+00 -0.82503733872E+00  0.90007728826E+02  0.89999990046E+02 0.  0.
        -12    1    1    2    0    0 -0.76774051581E+00 -0.35061080190E+00  0.82503733872E+00  0.11802711741E+01  0.00000000000E+00 0.  1.
         11    1    3    3    0    0  0.97763457909E+01 -0.36923034604E+01 -0.41352925346E+02  0.42652953905E+02  0.51100000000E-03 0. -1.
        -11    1    3    3    0    0  0.65069177451E+01 -0.19838702710E+01  0.61991063982E+01  0.92035123833E+01  0.51100000000E-03 0.  1.
        -12    1    3    3    0    0 -0.15515523020E+02  0.60267845332E+01  0.34328781610E+02  0.38151262537E+02  0.00000000000E+00 0.  1.
</event>
<event>
 7    1  0.2385612E-015  0.9000786E+02  0.7816164E-02  0.1186339E+00
        -11   -1    0    0    0    0  0.00000000000E+00  0.00000000000E+00  0.45593999997E+02  0.45594000000E+02  0.51100000000E-03 0. -1.
         11   -1    0    0    0    0 -0.00000000000E+00 -0.00000000000E+00 -0.45593999997E+02  0.45594000000E+02  0.51100000000E-03 0.  1.
    9900012    2    1    2    0    0  0.76613997597E+00 -0.69495545328E+00  0.56815046704E+00  0.90007860814E+02  0.90000123777E+02 0.  0.
        -12    1    1    2    0    0 -0.76613997597E+00  0.69495545328E+00 -0.56815046704E+00  0.11801391859E+01  0.00000000000E+00 0.  1.
         11    1    3    3    0    0  0.15781512002E+01 -0.87815120599E+01  0.46347907684E+01  0.10054193205E+02  0.51100000000E-03 0. -1.
        -11    1    3    3    0    0  0.29894901833E+02 -0.18792573904E+02  0.10146834264E+02  0.36739954210E+02  0.51100000000E-03 0.  1.
         12    1    3    3    0    0 -0.30706913057E+02  0.26879130511E+02 -0.14213474566E+02  0.43213713399E+02  0.00000000000E+00 0. -1.
</event>
<event>
 7    1  0.2232484E-015  0.9000810E+02  0.7816164E-02  0.1186338E+00
        -11   -1    0    0    0    0  0.00000000000E+00  0.00000000000E+00  0.45593999997E+02  0.45594000000E+02  0.51100000000E-03 0.  1.
         11   -1    0    0    0    0 -0.00000000000E+00 -0.00000000000E+00 -0.45593999997E+02  0.45594000000E+02  0.51100000000E-03 0. -1.
    9900012    2    1    2    0    0 -0.85287024206E+00  0.27053122421E+00 -0.76914498336E+00  0.90008102208E+02  0.90000368357E+02 0.  0.
        -12    1    1    2    0    0  0.85287024206E+00 -0.27053122421E+00  0.76914498336E+00  0.11798977915E+01  0.00000000000E+00 0.  1.
         11    1    3    3    0    0 -0.14032879192E+00 -0.49154828861E+01  0.12238718015E+02  0.13189688513E+02  0.51100000000E-03 0. -1.
        -11    1    3    3    0    0 -0.14727861716E+02 -0.31988520059E+02 -0.68638030864E+00  0.35222811422E+02  0.51100000000E-03 0.  1.
         12    1    3    3    0    0  0.14015320266E+02  0.37174534169E+02 -0.12321482689E+02  0.41595602273E+02  0.00000000000E+00 0. -1.
</event>
<event>
 7    1  0.2232484E-015  0.9000784E+02  0.7816164E-02  0.1186339E+00
        -11   -1    0    0    0    0  0.00000000000E+00  0.00000000000E+00  0.45593999997E+02  0.45594000000E+02  0.51100000000E-03 0.  1.
         11   -1    0    0    0    0 -0.00000000000E+00 -0.00000000000E+00 -0.45593999997E+02  0.45594000000E+02  0.51100000000E-03 0. -1.
    9900012    2    1    2    0    0 -0.63972608354E+00 -0.96169118074E+00  0.24222475124E+00  0.90007842291E+02  0.90000105009E+02 0.  0.
        -12    1    1    2    0    0  0.63972608354E+00  0.96169118074E+00 -0.24222475124E+00  0.11801577095E+01  0.00000000000E+00 0.  1.
         11    1    3    3    0    0 -0.34229037957E+02 -0.19409211759E+02 -0.18406734444E+02  0.43441367540E+02  0.51100000000E-03 0. -1.
        -11    1    3    3    0    0  0.47830767336E+01 -0.18890226282E+01  0.83939424595E+01  0.98440083200E+01  0.51100000000E-03 0.  1.
        -12    1    3    3    0    0  0.28806235140E+02  0.20336543206E+02  0.10255016736E+02  0.36722466431E+02  0.00000000000E+00 0.  1.
</event>
<event>
 7    1  0.2232484E-015  0.9000777E+02  0.7816164E-02  0.1186339E+00
        -11   -1    0    0    0    0  0.00000000000E+00  0.00000000000E+00  0.45593999997E+02  0.45594000000E+02  0.51100000000E-03 0.  1.
         11   -1    0    0    0    0 -0.00000000000E+00 -0.00000000000E+00 -0.45593999997E+02  0.45594000000E+02  0.51100000000E-03 0. -1.
    9900012    2    1    2    0    0  0.11768216547E+01 -0.67526969565E-02  0.89336356229E-01  0.90007772992E+02  0.90000034796E+02 0.  0.
        -12    1    1    2    0    0 -0.11768216547E+01  0.67526969565E-02 -0.89336356229E-01  0.11802270080E+01  0.00000000000E+00 0.  1.
         11    1    3    3    0    0 -0.30663560560E+02 -0.12168915953E+02 -0.20766378681E+02  0.38981777095E+02  0.51100000000E-03 0. -1.
        -11    1    3    3    0    0 -0.20097896952E+01  0.86800104131E+01 -0.30746538784E+01  0.94252497114E+01  0.51100000000E-03 0.  1.
        -12    1    3    3    0    0  0.33850171910E+02  0.34821528431E+01  0.23930368915E+02  0.41600746186E+02  0.00000000000E+00 0.  1.
</event>
<event>
 7    1  0.2232484E-015  0.9000774E+02  0.7816164E-02  0.1186339E+00
        -11   -1    0    0    0    0  0.00000000000E+00  0.00000000000E+00  0.45593999997E+02  0.45594000000E+02  0.51100000000E-03 0.  1.
         11   -1    0    0    0    0 -0.00000000000E+00 -0.00000000000E+00 -0.45593999997E+02  0.45594000000E+02  0.51100000000E-03 0. -1.
    9900012    2    1    2    0    0 -0.81870754507E+00  0.74304982994E+00 -0.41305294306E+00  0.90007738238E+02  0.89999999582E+02 0.  0.
        -12    1    1    2    0    0  0.81870754507E+00 -0.74304982994E+00  0.41305294306E+00  0.11802617625E+01  0.00000000000E+00 0.  1.
         11    1    3    3    0    0 -0.82554414667E+00 -0.46451717544E+01 -0.64144088724E+01  0.79626493837E+01  0.51100000000E-03 0. -1.
        -11    1    3    3    0    0 -0.37282427703E+02 -0.98521894900E+01 -0.80271014818E+01  0.39388823436E+02  0.51100000000E-03 0.  1.
         12    1    3    3    0    0  0.37289264305E+02  0.15240411074E+02  0.14028457411E+02  0.42656265418E+02  0.00000000000E+00 0. -1.
</event>
<event>
 7    1  0.2232484E-015  0.9000734E+02  0.7816164E-02  0.1186340E+00
        -11   -1    0    0    0    0  0.00000000000E+00  0.00000000000E+00  0.45593999997E+02  0.45594000000E+02  0.51100000000E-03 0.  1.
         11   -1    0    0    0    0 -0.00000000000E+00 -0.00000000000E+00 -0.45593999997E+02  0.45594000000E+02  0.51100000000E-03 0. -1.
    9900012    2    1    2    0    0 -0.52884669529E+00 -0.37533655447E+00 -0.98661245333E+00  0.90007338961E+02  0.89999595034E+02 0.  0.
        -12    1    1    2    0    0  0.52884669529E+00  0.37533655447E+00  0.98661245333E+00  0.11806610391E+01  0.00000000000E+00 0.  1.
         11    1    3    3    0    0 -0.71022852261E+01  0.59907045300E+01 -0.10072131795E+02  0.13703241783E+02  0.51100000000E-03 0. -1.
        -11    1    3    3    0    0 -0.30366235018E+02  0.45413769847E+00 -0.12656828661E+02  0.32901516412E+02  0.51100000000E-03 0.  1.
         12    1    3    3    0    0  0.36939673548E+02 -0.68201787829E+01  0.21742348003E+02  0.43402580766E+02  0.00000000000E+00 0. -1.
</event>
<event>
 7    1  0.2232484E-015  0.9000766E+02  0.7816164E-02  0.1186339E+00
        -11   -1    0    0    0    0  0.00000000000E+00  0.00000000000E+00  0.45593999997E+02  0.45594000000E+02  0.51100000000E-03 0.  1.
         11   -1    0    0    0    0 -0.00000000000E+00 -0.00000000000E+00 -0.45593999997E+02  0.45594000000E+02  0.51100000000E-03 0. -1.
    9900012    2    1    2    0    0 -0.63437001349E+00 -0.37027720980E+00 -0.92394201698E+00  0.90007661330E+02  0.89999921659E+02 0.  0.
        -12    1    1    2    0    0  0.63437001349E+00  0.37027720980E+00  0.92394201698E+00  0.11803386704E+01  0.00000000000E+00 0.  1.
         11    1    3    3    0    0  0.42017620204E+01 -0.21993722611E+00  0.97396768537E+01  0.10609640990E+02  0.51100000000E-03 0. -1.
        -11    1    3    3    0    0  0.25630990290E+02  0.21090410955E+02  0.12678368498E+02  0.35531593343E+02  0.51100000000E-03 0.  1.
         12    1    3    3    0    0 -0.30467122323E+02 -0.21240750939E+02 -0.23341987368E+02  0.43866426996E+02  0.00000000000E+00 0. -1.
</event>
<event>
 7    1  0.2232484E-015  0.9000762E+02  0.7816164E-02  0.1186339E+00
        -11   -1    0    0    0    0  0.00000000000E+00  0.00000000000E+00  0.45593999997E+02  0.45594000000E+02  0.51100000000E-03 0.  1.
         11   -1    0    0    0    0 -0.00000000000E+00 -0.00000000000E+00 -0.45593999997E+02  0.45594000000E+02  0.51100000000E-03 0. -1.
    9900012    2    1    2    0    0 -0.17819804106E+00 -0.94094380328E+00 -0.69005132418E+00  0.90007618446E+02  0.89999878210E+02 0.  0.
        -12    1    1    2    0    0  0.17819804106E+00  0.94094380328E+00  0.69005132418E+00  0.11803815539E+01  0.00000000000E+00 0.  1.
         11    1    3    3    0    0  0.32428982552E+02 -0.32376199688E+01 -0.13770991591E+02  0.35380238864E+02  0.51100000000E-03 0. -1.
        -11    1    3    3    0    0  0.86141180293E+00 -0.65542557879E+01 -0.10735117727E+02  0.12607261879E+02  0.51100000000E-03 0.  1.
        -12    1    3    3    0    0 -0.33468592396E+02  0.88509319534E+01  0.23816057994E+02  0.42020117703E+02  0.00000000000E+00 0.  1.
</event>
<event>
 7    1  0.2232484E-015  0.9000729E+02  0.7816164E-02  0.1186340E+00
        -11   -1    0    0    0    0  0.00000000000E+00  0.00000000000E+00  0.45593999997E+02  0.45594000000E+02  0.51100000000E-03 0. -1.
         11   -1    0    0    0    0 -0.00000000000E+00 -0.00000000000E+00 -0.45593999997E+02  0.45594000000E+02  0.51100000000E-03 0.  1.
    9900012    2    1    2    0    0 -0.10760259017E+00 -0.69756649962E+00  0.94652031522E+00  0.90007289178E+02  0.89999544594E+02 0.  0.
        -12    1    1    2    0    0  0.10760259017E+00  0.69756649962E+00 -0.94652031522E+00  0.11807108223E+01  0.00000000000E+00 0.  1.
         11    1    3    3    0    0 -0.24338269334E+02  0.21284199370E+02  0.23846479765E+02  0.40174906278E+02  0.51100000000E-03 0. -1.
        -11    1    3    3    0    0  0.71646073101E+01  0.65748476309E+01 -0.52103126170E+00  0.97381565562E+01  0.51100000000E-03 0.  1.
        -12    1    3    3    0    0  0.17066059433E+02 -0.28556613501E+02 -0.22378928188E+02  0.40094226343E+02  0.00000000000E+00 0.  1.
</event>
<event>
 7    1  0.2232484E-015  0.9000778E+02  0.7816164E-02  0.1186339E+00
        -11   -1    0    0    0    0  0.00000000000E+00  0.00000000000E+00  0.45593999997E+02  0.45594000000E+02  0.51100000000E-03 0.  1.
         11   -1    0    0    0    0 -0.00000000000E+00 -0.00000000000E+00 -0.45593999997E+02  0.45594000000E+02  0.51100000000E-03 0. -1.
    9900012    2    1    2    0    0  0.27801577800E+00  0.94098494297E+00  0.65588359849E+00  0.90007775983E+02  0.90000037826E+02 0.  0.
        -12    1    1    2    0    0 -0.27801577800E+00 -0.94098494297E+00 -0.65588359849E+00  0.11802240171E+01  0.00000000000E+00 0.  1.
         11    1    3    3    0    0  0.25651632348E+02 -0.29249324807E+02  0.14309124869E+02  0.41452144680E+02  0.51100000000E-03 0. -1.
        -11    1    3    3    0    0 -0.10013082645E+02  0.73894972603E+00  0.41556131339E+01  0.10866323736E+02  0.51100000000E-03 0.  1.
        -12    1    3    3    0    0 -0.15360533926E+02  0.29451360024E+02 -0.17808854404E+02  0.37689307568E+02  0.00000000000E+00 0.  1.
</event>
<event>
 7    1  0.2232484E-015  0.9000768E+02  0.7816164E-02  0.1186339E+00
        -11   -1    0    0    0    0  0.00000000000E+00  0.00000000000E+00  0.45593999997E+02  0.45594000000E+02  0.51100000000E-03 0.  1.
         11   -1    0    0    0    0 -0.00000000000E+00 -0.00000000000E+00 -0.45593999997E+02  0.45594000000E+02  0.51100000000E-03 0. -1.
    9900012    2    1    2    0    0  0.92901132093E+00 -0.67716506833E+00  0.26748518832E+00  0.90007676786E+02  0.89999937319E+02 0.  0.
        -12    1    1    2    0    0 -0.92901132093E+00  0.67716506833E+00 -0.26748518832E+00  0.11803232143E+01  0.00000000000E+00 0.  1.
         11    1    3    3    0    0  0.76052271772E+01  0.28182581746E+01  0.28098683807E+01  0.85835552153E+01  0.51100000000E-03 0. -1.
        -11    1    3    3    0    0  0.11910381396E+01  0.67168737546E+01  0.38141480727E+02  0.38746709760E+02  0.51100000000E-03 0.  1.
         12    1    3    3    0    0 -0.78672539959E+01 -0.10212296998E+02 -0.40683863920E+02  0.42677411810E+02  0.00000000000E+00 0. -1.
</event>
<event>
 7    1  0.2232484E-015  0.9000784E+02  0.7816164E-02  0.1186339E+00
        -11   -1    0    0    0    0  0.00000000000E+00  0.00000000000E+00  0.45593999997E+02  0.45594000000E+02  0.51100000000E-03 0.  1.
         11   -1    0    0    0    0 -0.00000000000E+00 -0.00000000000E+00 -0.45593999997E+02  0.45594000000E+02  0.51100000000E-03 0. -1.
    9900012    2    1    2    0    0 -0.29536025468E+00  0.11419727653E+01 -0.37794676125E-01  0.90007844114E+02  0.90000106857E+02 0.  0.
        -12    1    1    2    0    0  0.29536025468E+00 -0.11419727653E+01  0.37794676125E-01  0.11801558856E+01  0.00000000000E+00 0.  1.
         11    1    3    3    0    0 -0.35796864158E+01 -0.42338192791E+01 -0.42101136315E+02  0.42464633047E+02  0.51100000000E-03 0. -1.
        -11    1    3    3    0    0 -0.46938666986E+01 -0.50457479311E+01  0.59007418611E+01  0.90725250918E+01  0.51100000000E-03 0.  1.
        -12    1    3    3    0    0  0.79781928597E+01  0.10421539976E+02  0.36162599778E+02  0.38470685976E+02  0.00000000000E+00 0.  1.
</event>
<event>
 7    1  0.2232484E-015  0.9000744E+02  0.7816164E-02  0.1186340E+00
        -11   -1    0    0    0    0  0.00000000000E+00  0.00000000000E+00  0.45593999997E+02  0.45594000000E+02  0.51100000000E-03 0.  1.
         11   -1    0    0    0    0 -0.00000000000E+00 -0.00000000000E+00 -0.45593999997E+02  0.45594000000E+02  0.51100000000E-03 0. -1.
    9900012    2    1    2    0    0 -0.52639465694E+00 -0.13115440557E-01 -0.10566236448E+01  0.90007442133E+02  0.89999699569E+02 0.  0.
        -12    1    1    2    0    0  0.52639465694E+00  0.13115440557E-01  0.10566236448E+01  0.11805578666E+01  0.00000000000E+00 0.  1.
         11    1    3    3    0    0 -0.12044978225E+02  0.28554886869E+02 -0.93934327956E+01  0.32383632354E+02  0.51100000000E-03 0. -1.
        -11    1    3    3    0    0  0.20532053739E+01  0.78554529402E+01  0.17147776981E+02  0.18972876663E+02  0.51100000000E-03 0.  1.
        -12    1    3    3    0    0  0.94653781939E+01 -0.36423455249E+02 -0.88109678304E+01  0.38650933116E+02  0.00000000000E+00 0.  1.
</event>
<event>
 7    1  0.2232484E-015  0.9000778E+02  0.7816164E-02  0.1186339E+00
        -11   -1    0    0    0    0  0.00000000000E+00  0.00000000000E+00  0.45593999997E+02  0.45594000000E+02  0.51100000000E-03 0. -1.
         11   -1    0    0    0    0 -0.00000000000E+00 -0.00000000000E+00 -0.45593999997E+02  0.45594000000E+02  0.51100000000E-03 0.  1.
    9900012    2    1    2    0    0  0.11062656994E+01 -0.21261606197E+00  0.35198549875E+00  0.90007778335E+02  0.90000040209E+02 0.  0.
        -12    1    1    2    0    0 -0.11062656994E+01  0.21261606197E+00 -0.35198549875E+00  0.11802216651E+01  0.00000000000E+00 0.  1.
         11    1    3    3    0    0  0.31545437258E+02 -0.21926066491E+01  0.19223682393E+02  0.37006379190E+02  0.51100000000E-03 0. -1.
        -11    1    3    3    0    0  0.84520953688E+01  0.54834387029E+01 -0.12210487170E+01  0.10148742600E+02  0.51100000000E-03 0.  1.
        -12    1    3    3    0    0 -0.38891266927E+02 -0.35034481158E+01 -0.17650648177E+02  0.42852656545E+02  0.00000000000E+00 0.  1.
</event>
<event>
 7    1  0.2232484E-015  0.9000775E+02  0.7816164E-02  0.1186339E+00
        -11   -1    0    0    0    0  0.00000000000E+00  0.00000000000E+00  0.45593999997E+02  0.45594000000E+02  0.51100000000E-03 0.  1.
         11   -1    0    0    0    0 -0.00000000000E+00 -0.00000000000E+00 -0.45593999997E+02  0.45594000000E+02  0.51100000000E-03 0. -1.
    9900012    2    1    2    0    0 -0.37464195315E+00 -0.45776060455E+00 -0.10213184484E+01  0.90007748867E+02  0.90000010352E+02 0.  0.
        -12    1    1    2    0    0  0.37464195315E+00  0.45776060455E+00  0.10213184484E+01  0.11802511331E+01  0.00000000000E+00 0.  1.
         11    1    3    3    0    0  0.98221007521E+01  0.10932942003E+02 -0.22144472102E+01  0.14862929076E+02  0.51100000000E-03 0. -1.
        -11    1    3    3    0    0 -0.34847829512E+01 -0.88271302628E+01  0.37218811130E+02  0.38409658201E+02  0.51100000000E-03 0.  1.
         12    1    3    3    0    0 -0.67119597541E+01 -0.25635723444E+01 -0.36025682369E+02  0.36735161590E+02  0.00000000000E+00 0. -1.
</event>
<event>
 7    1  0.2232484E-015  0.9000781E+02  0.7816164E-02  0.1186339E+00
        -11   -1    0    0    0    0  0.00000000000E+00  0.00000000000E+00  0.45593999997E+02  0.45594000000E+02  0.51100000000E-03 0.  1.
         11   -1    0    0    0    0 -0.00000000000E+00 -0.00000000000E+00 -0.45593999997E+02  0.45594000000E+02  0.51100000000E-03 0. -1.
    9900012    2    1    2    0    0 -0.36325375029E+00  0.19488216916E+00 -0.11058604163E+01  0.90007805267E+02  0.90000067497E+02 0.  0.
        -12    1    1    2    0    0  0.36325375029E+00 -0.19488216916E+00  0.11058604163E+01  0.11801947328E+01  0.00000000000E+00 0.  1.
         11    1    3    3    0    0 -0.99007996164E+01  0.40026660840E+01  0.37932892881E+00  0.10686021688E+02  0.51100000000E-03 0. -1.
        -11    1    3    3    0    0  0.14914632282E+01  0.33700496336E+02  0.15794561815E+02  0.37248034835E+02  0.51100000000E-03 0.  1.
         12    1    3    3    0    0  0.80460826379E+01 -0.37508280251E+02 -0.17279751161E+02  0.42073748744E+02  0.00000000000E+00 0. -1.
</event>
<event>
 7    1  0.2232484E-015  0.9000774E+02  0.7816164E-02  0.1186339E+00
        -11   -1    0    0    0    0  0.00000000000E+00  0.00000000000E+00  0.45593999997E+02  0.45594000000E+02  0.51100000000E-03 0.  1.
         11   -1    0    0    0    0 -0.00000000000E+00 -0.00000000000E+00 -0.45593999997E+02  0.45594000000E+02  0.51100000000E-03 0. -1.
    9900012    2    1    2    0    0  0.26927574295E+00 -0.13593137503E+00 -0.11410623826E+01  0.90007741501E+02  0.90000002888E+02 0.  0.
        -12    1    1    2    0    0 -0.26927574295E+00  0.13593137503E+00  0.11410623826E+01  0.11802584994E+01  0.00000000000E+00 0.  1.
         11    1    3    3    0    0  0.18927907934E+02  0.28104899034E+02 -0.16983548978E+02  0.37902400776E+02  0.51100000000E-03 0. -1.
        -11    1    3    3    0    0  0.37165396646E+01  0.69582964506E+01  0.17533721415E+01  0.80811429081E+01  0.51100000000E-03 0.  1.
        -12    1    3    3    0    0 -0.22375171855E+02 -0.35199126860E+02  0.14089114454E+02  0.44024197816E+02  0.00000000000E+00 0.  1.
</event>
<event>
 7    1  0.2232484E-015  0.9000776E+02  0.7816164E-02  0.1186339E+00
        -11   -1    0    0    0    0  0.00000000000E+00  0.00000000000E+00  0.45593999997E+02  0.45594000000E+02  0.51100000000E-03 0.  1.
         11   -1    0    0    0    0 -0.00000000000E+00 -0.00000000000E+00 -0.45593999997E+02  0.45594000000E+02  0.51100000000E-03 0. -1.
    9900012    2    1    2    0    0  0.74404576849E+00 -0.91590590308E+00  0.21963095724E-01  0.90007758454E+02  0.90000020066E+02 0.  0.
        -12    1    1    2    0    0 -0.74404576849E+00  0.91590590308E+00 -0.21963095724E-01  0.11802415458E+01  0.00000000000E+00 0.  1.
         11    1    3    3    0    0  0.16291976870E+01 -0.32975791635E+02  0.13158000692E+02  0.35541385757E+02  0.51100000000E-03 0. -1.
        -11    1    3    3    0    0 -0.45669364642E+01 -0.96776542448E+01 -0.54153828919E+00  0.10714810513E+02  0.51100000000E-03 0.  1.
        -12    1    3    3    0    0  0.36817845458E+01  0.41737539977E+02 -0.12594499307E+02  0.43751562184E+02  0.00000000000E+00 0.  1.
</event>
<event>
 7    1  0.2232484E-015  0.9000760E+02  0.7816164E-02  0.1186339E+00
        -11   -1    0    0    0    0  0.00000000000E+00  0.00000000000E+00  0.45593999997E+02  0.45594000000E+02  0.51100000000E-03 0.  1.
         11   -1    0    0    0    0 -0.00000000000E+00 -0.00000000000E+00 -0.45593999997E+02  0.45594000000E+02  0.51100000000E-03 0. -1.
    9900012    2    1    2    0    0 -0.25574574340E+00 -0.10027851672E+01  0.56777657121E+00  0.90007595742E+02  0.89999855206E+02 0.  0.
        -12    1    1    2    0    0  0.25574574340E+00  0.10027851672E+01 -0.56777657121E+00  0.11804042577E+01  0.00000000000E+00 0.  1.
         11    1    3    3    0    0  0.13323064217E+01  0.45315771275E+01  0.95013454079E+01  0.10610645432E+02  0.51100000000E-03 0. -1.
        -11    1    3    3    0    0  0.67760061665E+01 -0.57360780353E+01  0.34264600791E+02  0.35396040999E+02  0.51100000000E-03 0.  1.
         12    1    3    3    0    0 -0.83640583316E+01  0.20171574062E+00 -0.43198169628E+02  0.44000909311E+02  0.00000000000E+00 0. -1.
</event>
<event>
 7    1  0.2232484E-015  0.9000776E+02  0.7816164E-02  0.1186339E+00
        -11   -1    0    0    0    0  0.00000000000E+00  0.00000000000E+00  0.45593999997E+02  0.45594000000E+02  0.51100000000E-03 0.  1.
         11   -1    0    0    0    0 -0.00000000000E+00 -0.00000000000E+00 -0.45593999997E+02  0.45594000000E+02  0.51100000000E-03 0. -1.
    9900012    2    1    2    0    0 -0.67502722919E+00  0.63500219320E+00  0.73079928061E+00  0.90007763950E+02  0.90000025634E+02 0.  0.
        -12    1    1    2    0    0  0.67502722919E+00 -0.63500219320E+00 -0.73079928061E+00  0.11802360501E+01  0.00000000000E+00 0.  1.
         11    1    3    3    0    0  0.15155767340E+02 -0.39665510670E+02  0.12335425357E+01  0.42480250091E+02  0.51100000000E-03 0. -1.
        -11    1    3    3    0    0 -0.37545113804E+01  0.70940657853E+01  0.78419522175E+01  0.11221334141E+02  0.51100000000E-03 0.  1.
        -12    1    3    3    0    0 -0.12076283189E+02  0.33206447077E+02 -0.83446954725E+01  0.36306179718E+02  0.00000000000E+00 0.  1.
</event>
<event>
 7    1  0.2232484E-015  0.9000701E+02  0.7816164E-02  0.1186341E+00
        -11   -1    0    0    0    0  0.00000000000E+00  0.00000000000E+00  0.45593999997E+02  0.45594000000E+02  0.51100000000E-03 0. -1.
         11   -1    0    0    0    0 -0.00000000000E+00 -0.00000000000E+00 -0.45593999997E+02  0.45594000000E+02  0.51100000000E-03 0.  1.
    9900012    2    1    2    0    0 -0.96750163111E+00  0.67725969433E+00 -0.23971165776E-02  0.90007006416E+02  0.89999258097E+02 0.  0.
        -12    1    1    2    0    0  0.96750163111E+00 -0.67725969433E+00  0.23971165776E-02  0.11809935842E+01  0.00000000000E+00 0.  1.
         11    1    3    3    0    0  0.34129283393E+02  0.23469378318E+01 -0.13213663474E+02  0.36673110105E+02  0.51100000000E-03 0. -1.
        -11    1    3    3    0    0  0.77573499399E+01  0.21491468400E+01  0.51646776462E+01  0.95639534545E+01  0.51100000000E-03 0.  1.
        -12    1    3    3    0    0 -0.42854134964E+02 -0.38188249775E+01  0.80465887109E+01  0.43769942856E+02  0.00000000000E+00 0.  1.
</event>
<event>
 7    1  0.2232484E-015  0.9000798E+02  0.7816164E-02  0.1186339E+00
        -11   -1    0    0    0    0  0.00000000000E+00  0.00000000000E+00  0.45593999997E+02  0.45594000000E+02  0.51100000000E-03 0.  1.
         11   -1    0    0    0    0 -0.00000000000E+00 -0.00000000000E+00 -0.45593999997E+02  0.45594000000E+02  0.51100000000E-03 0. -1.
    9900012    2    1    2    0    0  0.10257639186E+00  0.73112805626E+00 -0.92053244157E+00  0.90007978760E+02  0.90000243279E+02 0.  0.
        -12    1    1    2    0    0 -0.10257639186E+00 -0.73112805626E+00  0.92053244157E+00  0.11800212400E+01  0.00000000000E+00 0.  1.
         11    1    3    3    0    0  0.16575581782E+02 -0.29326260378E+02 -0.12781741114E+02  0.36029881562E+02  0.51100000000E-03 0. -1.
        -11    1    3    3    0    0  0.87820092125E+01 -0.44514738702E+01  0.13094180405E+01  0.99324660227E+01  0.51100000000E-03 0.  1.
        -12    1    3    3    0    0 -0.25255014603E+02  0.34508862305E+02  0.10551790632E+02  0.44045631176E+02  0.00000000000E+00 0.  1.
</event>
<event>
 7    1  0.2232484E-015  0.9000782E+02  0.7816164E-02  0.1186339E+00
        -11   -1    0    0    0    0  0.00000000000E+00  0.00000000000E+00  0.45593999997E+02  0.45594000000E+02  0.51100000000E-03 0. -1.
         11   -1    0    0    0    0 -0.00000000000E+00 -0.00000000000E+00 -0.45593999997E+02  0.45594000000E+02  0.51100000000E-03 0.  1.
    9900012    2    1    2    0    0  0.35338961196E+00 -0.55361198781E+00  0.98053385269E+00  0.90007823281E+02  0.90000085749E+02 0.  0.
        -12    1    1    2    0    0 -0.35338961196E+00  0.55361198781E+00 -0.98053385269E+00  0.11801767186E+01  0.00000000000E+00 0.  1.
         11    1    3    3    0    0  0.37109101009E+01  0.50766007718E+01  0.80691215383E+01  0.10230026971E+02  0.51100000000E-03 0. -1.
        -11    1    3    3    0    0  0.35463939072E+02 -0.10399943659E+02  0.80726459555E+01  0.37828790829E+02  0.51100000000E-03 0.  1.
         12    1    3    3    0    0 -0.38821459561E+02  0.47697308998E+01 -0.15161233641E+02  0.41949005481E+02  0.00000000000E+00 0. -1.
</event>
<event>
 7    1  0.2232484E-015  0.9000791E+02  0.7816164E-02  0.1186339E+00
        -11   -1    0    0    0    0  0.00000000000E+00  0.00000000000E+00  0.45593999997E+02  0.45594000000E+02  0.51100000000E-03 0. -1.
         11   -1    0    0    0    0 -0.00000000000E+00 -0.00000000000E+00 -0.45593999997E+02  0.45594000000E+02  0.51100000000E-03 0.  1.
    9900012    2    1    2    0    0  0.78461125525E-01  0.75799455627E+00  0.90105822363E+00  0.90007907708E+02  0.90000171289E+02 0.  0.
        -12    1    1    2    0    0 -0.78461125525E-01 -0.75799455627E+00 -0.90105822363E+00  0.11800922921E+01  0.00000000000E+00 0.  1.
         11    1    3    3    0    0 -0.20508651957E+02  0.22273376977E+02  0.23931522557E+02  0.38593080975E+02  0.51100000000E-03 0. -1.
        -11    1    3    3    0    0 -0.46531575113E+01 -0.31424611250E+01  0.63975643055E+01  0.85120952797E+01  0.51100000000E-03 0.  1.
        -12    1    3    3    0    0  0.25240270594E+02 -0.18372921295E+02 -0.29428028638E+02  0.42902731453E+02  0.00000000000E+00 0.  1.
</event>
<event>
 7    1  0.2232484E-015  0.9000769E+02  0.7816164E-02  0.1186339E+00
        -11   -1    0    0    0    0  0.00000000000E+00  0.00000000000E+00  0.45593999997E+02  0.45594000000E+02  0.51100000000E-03 0.  1.
         11   -1    0    0    0    0 -0.00000000000E+00 -0.00000000000E+00 -0.45593999997E+02  0.45594000000E+02  0.51100000000E-03 0. -1.
    9900012    2    1    2    0    0  0.11430383284E+01 -0.23836746520E+00  0.17257977012E+00  0.90007686717E+02  0.89999947382E+02 0.  0.
        -12    1    1    2    0    0 -0.11430383284E+01  0.23836746520E+00 -0.17257977012E+00  0.11803132829E+01  0.00000000000E+00 0.  1.
         11    1    3    3    0    0  0.33691562404E+01 -0.84579727233E+01  0.63642611653E+01  0.11108210333E+02  0.51100000000E-03 0. -1.
        -11    1    3    3    0    0 -0.29768358460E+02  0.21328693801E+02  0.17201226523E+02  0.40459245406E+02  0.51100000000E-03 0.  1.
         12    1    3    3    0    0  0.27542240548E+02 -0.13109088543E+02 -0.23392907918E+02  0.38440230978E+02  0.00000000000E+00 0. -1.
</event>
<event>
 7    1  0.2232484E-015  0.9000772E+02  0.7816164E-02  0.1186339E+00
        -11   -1    0    0    0    0  0.00000000000E+00  0.00000000000E+00  0.45593999997E+02  0.45594000000E+02  0.51100000000E-03 0. -1.
         11   -1    0    0    0    0 -0.00000000000E+00 -0.00000000000E+00 -0.45593999997E+02  0.45594000000E+02  0.51100000000E-03 0.  1.
    9900012    2    1    2    0    0 -0.60397124577E+00 -0.10056578476E+01  0.13009047008E+00  0.90007723548E+02  0.89999984699E+02 0.  0.
        -12    1    1    2    0    0  0.60397124577E+00  0.10056578476E+01 -0.13009047008E+00  0.11802764517E+01  0.00000000000E+00 0.  1.
         11    1    3    3    0    0 -0.36740347681E+02  0.88827041146E+01  0.39562045116E+01  0.38005356656E+02  0.51100000000E-03 0. -1.
        -11    1    3    3    0    0 -0.59000209435E+01 -0.75746944613E+01  0.87266043820E+00  0.96409428905E+01  0.51100000000E-03 0.  1.
        -12    1    3    3    0    0  0.42036397379E+02 -0.23136675008E+01 -0.46987744797E+01  0.42361424002E+02  0.00000000000E+00 0.  1.
</event>
<event>
 7    1  0.2232484E-015  0.9000770E+02  0.7816164E-02  0.1186339E+00
        -11   -1    0    0    0    0  0.00000000000E+00  0.00000000000E+00  0.45593999997E+02  0.45594000000E+02  0.51100000000E-03 0.  1.
         11   -1    0    0    0    0 -0.00000000000E+00 -0.00000000000E+00 -0.45593999997E+02  0.45594000000E+02  0.51100000000E-03 0. -1.
    9900012    2    1    2    0    0 -0.42856225454E+00 -0.23413437374E+00 -0.10745309835E+01  0.90007702857E+02  0.89999963735E+02 0.  0.
        -12    1    1    2    0    0  0.42856225454E+00  0.23413437374E+00  0.10745309835E+01  0.11802971429E+01  0.00000000000E+00 0.  1.
         11    1    3    3    0    0  0.14508520063E+02  0.34969901100E+01 -0.28859234495E+02  0.32489713913E+02  0.51100000000E-03 0. -1.
        -11    1    3    3    0    0  0.14158251567E+02  0.21793793551E+00  0.24064167207E+02  0.27921098260E+02  0.51100000000E-03 0.  1.
         12    1    3    3    0    0 -0.29095333884E+02 -0.39490624192E+01  0.37205363044E+01  0.29596890685E+02  0.00000000000E+00 0. -1.
</event>
<event>
 7    1  0.2232484E-015  0.9000779E+02  0.7816164E-02  0.1186339E+00
        -11   -1    0    0    0    0  0.00000000000E+00  0.00000000000E+00  0.45593999997E+02  0.45594000000E+02  0.51100000000E-03 0. -1.
         11   -1    0    0    0    0 -0.00000000000E+00 -0.00000000000E+00 -0.45593999997E+02  0.45594000000E+02  0.51100000000E-03 0.  1.
    9900012    2    1    2    0    0 -0.10707406788E+01 -0.60572107945E-01  0.49268773329E+00  0.90007789941E+02  0.90000051968E+02 0.  0.
        -12    1    1    2    0    0  0.10707406788E+01  0.60572107945E-01 -0.49268773329E+00  0.11802100593E+01  0.00000000000E+00 0.  1.
         11    1    3    3    0    0  0.19383594550E+01  0.58064229098E+01 -0.75242594052E+01  0.96998074333E+01  0.51100000000E-03 0. -1.
        -11    1    3    3    0    0  0.21484172731E+02  0.26014538320E+02  0.18879951950E+02  0.38662365005E+02  0.51100000000E-03 0.  1.
         12    1    3    3    0    0 -0.24493272865E+02 -0.31881533338E+02 -0.10863004811E+02  0.41645617502E+02  0.00000000000E+00 0. -1.
</event>
<event>
 7    1  0.2232484E-015  0.9000735E+02  0.7816164E-02  0.1186340E+00
        -11   -1    0    0    0    0  0.00000000000E+00  0.00000000000E+00  0.45593999997E+02  0.45594000000E+02  0.51100000000E-03 0.  1.
         11   -1    0    0    0    0 -0.00000000000E+00 -0.00000000000E+00 -0.45593999997E+02  0.45594000000E+02  0.51100000000E-03 0. -1.
    9900012    2    1    2    0    0 -0.34570515784E+00 -0.10675841184E+01  0.36700153183E+00  0.90007348472E+02  0.89999604671E+02 0.  0.
        -12    1    1    2    0    0  0.34570515784E+00  0.10675841184E+01 -0.36700153183E+00  0.11806515279E+01  0.00000000000E+00 0.  1.
         11    1    3    3    0    0  0.68774973897E+01  0.17437960177E+01 -0.87591112217E+01  0.11272214714E+02  0.51100000000E-03 0. -1.
        -11    1    3    3    0    0  0.12575969425E+02  0.25845729840E+02  0.27130992711E+02  0.39525277022E+02  0.51100000000E-03 0.  1.
         12    1    3    3    0    0 -0.19799171972E+02 -0.28657109976E+02 -0.18004879957E+02  0.39209856736E+02  0.00000000000E+00 0. -1.
</event>
<event>
 7    1  0.2232484E-015  0.9000774E+02  0.7816164E-02  0.1186339E+00
        -11   -1    0    0    0    0  0.00000000000E+00  0.00000000000E+00  0.45593999997E+02  0.45594000000E+02  0.51100000000E-03 0.  1.
         11   -1    0    0    0    0 -0.00000000000E+00 -0.00000000000E+00 -0.45593999997E+02  0.45594000000E+02  0.51100000000E-03 0. -1.
    9900012    2    1    2    0    0  0.72601052387E+00 -0.83916967510E+00 -0.40214334639E+00  0.90007738887E+02  0.90000000240E+02 0.  0.
        -12    1    1    2    0    0 -0.72601052387E+00  0.83916967510E+00  0.40214334639E+00  0.11802611132E+01  0.00000000000E+00 0.  1.
         11    1    3    3    0    0  0.33403877190E+02  0.23530661532E+02  0.13502659944E+01  0.40881955212E+02  0.51100000000E-03 0. -1.
        -11    1    3    3    0    0  0.12862571442E+01 -0.75381982721E+01  0.68380557947E+01  0.10258552429E+02  0.51100000000E-03 0.  1.
        -12    1    3    3    0    0 -0.33964123810E+02 -0.16831632935E+02 -0.85904651355E+01  0.38867231245E+02  0.00000000000E+00 0.  1.
</event>
<event>
 7    1  0.2232484E-015  0.9000776E+02  0.7816164E-02  0.1186339E+00
        -11   -1    0    0    0    0  0.00000000000E+00  0.00000000000E+00  0.45593999997E+02  0.45594000000E+02  0.51100000000E-03 0. -1.
         11   -1    0    0    0    0 -0.00000000000E+00 -0.00000000000E+00 -0.45593999997E+02  0.45594000000E+02  0.51100000000E-03 0.  1.
    9900012    2    1    2    0    0 -0.68913983403E+00  0.92019296262E+00  0.26701710415E+00  0.90007759799E+02  0.90000021428E+02 0.  0.
        -12    1    1    2    0    0  0.68913983403E+00 -0.92019296262E+00 -0.26701710415E+00  0.11802402015E+01  0.00000000000E+00 0.  1.
         11    1    3    3    0    0 -0.39515513052E+01  0.87334522959E+01  0.45135725132E+00  0.95964405042E+01  0.51100000000E-03 0. -1.
        -11    1    3    3    0    0  0.39970300514E+02 -0.51586648375E+01  0.11302391730E+02  0.41856669781E+02  0.51100000000E-03 0.  1.
         12    1    3    3    0    0 -0.36707889043E+02 -0.26545944957E+01 -0.11486731877E+02  0.38554649513E+02  0.00000000000E+00 0. -1.
</event>
<event>
 7    1  0.2232484E-015  0.9000776E+02  0.7816164E-02  0.1186339E+00
        -11   -1    0    0    0    0  0.00000000000E+00  0.00000000000E+00  0.45593999997E+02  0.45594000000E+02  0.51100000000E-03 0.  1.
         11   -1    0    0    0    0 -0.00000000000E+00 -0.00000000000E+00 -0.45593999997E+02  0.45594000000E+02  0.51100000000E-03 0. -1.
    9900012    2    1    2    0    0  0.16221709808E+00 -0.41026716069E+00 -0.10946891385E+01  0.90007755178E+02  0.90000016746E+02 0.  0.
        -12    1    1    2    0    0 -0.16221709808E+00  0.41026716069E+00  0.10946891385E+01  0.11802448220E+01  0.00000000000E+00 0.  1.
         11    1    3    3    0    0 -0.17858063558E+02  0.33009318765E+02 -0.13846776012E+02  0.40003234439E+02  0.51100000000E-03 0. -1.
        -11    1    3    3    0    0 -0.17888184289E+01  0.47210063936E+01  0.32018231318E+01  0.59782476001E+01  0.51100000000E-03 0.  1.
        -12    1    3    3    0    0  0.19809099085E+02 -0.38140592319E+02  0.95502637417E+01  0.44026273139E+02  0.00000000000E+00 0.  1.
</event>
<event>
 7    1  0.2232484E-015  0.9000752E+02  0.7816164E-02  0.1186339E+00
        -11   -1    0    0    0    0  0.00000000000E+00  0.00000000000E+00  0.45593999997E+02  0.45594000000E+02  0.51100000000E-03 0.  1.
         11   -1    0    0    0    0 -0.00000000000E+00 -0.00000000000E+00 -0.45593999997E+02  0.45594000000E+02  0.51100000000E-03 0. -1.
    9900012    2    1    2    0    0  0.51414964618E+00 -0.10320808374E+01 -0.25298250851E+00  0.90007516682E+02  0.89999775102E+02 0.  0.
        -12    1    1    2    0    0 -0.51414964618E+00  0.10320808374E+01  0.25298250851E+00  0.11804833176E+01  0.00000000000E+00 0.  1.
         11    1    3    3    0    0  0.73631200895E+01  0.68254092452E+01  0.29645743394E+01  0.10468545749E+02  0.51100000000E-03 0. -1.
        -11    1    3    3    0    0 -0.52474578029E+01  0.20076428903E+02  0.29766785743E+02  0.36285814647E+02  0.51100000000E-03 0.  1.
         12    1    3    3    0    0 -0.16015126404E+01 -0.27933918985E+02 -0.32984342591E+02  0.43253156287E+02  0.00000000000E+00 0. -1.
</event>
<event>
 7    1  0.2376079E-015  0.9000698E+02  0.7816164E-02  0.1186341E+00
        -11   -1    0    0    0    0  0.00000000000E+00  0.00000000000E+00  0.45593999997E+02  0.45594000000E+02  0.51100000000E-03 0.  1.
         11   -1    0    0    0    0 -0.00000000000E+00 -0.00000000000E+00 -0.45593999997E+02  0.45594000000E+02  0.51100000000E-03 0. -1.
    9900012    2    1    2    0    0  0.43093330560E+00  0.50309429569E+00 -0.97774811074E+00  0.90006984017E+02  0.89999235403E+02 0.  0.
        -12    1    1    2    0    0 -0.43093330560E+00 -0.50309429569E+00  0.97774811074E+00  0.11810159831E+01  0.00000000000E+00 0.  1.
         11    1    3    3    0    0  0.55738120753E+01 -0.15076089441E+01  0.70783004964E+01  0.91346923297E+01  0.51100000000E-03 0. -1.
        -11    1    3    3    0    0 -0.29991732363E+02 -0.21375737469E+02  0.14917641341E+02  0.39736157161E+02  0.51100000000E-03 0.  1.
         12    1    3    3    0    0  0.24848853593E+02  0.23386440709E+02 -0.22973689948E+02  0.41136134526E+02  0.00000000000E+00 0. -1.
</event>
<event>
 7    1  0.2232484E-015  0.9000783E+02  0.7816164E-02  0.1186339E+00
        -11   -1    0    0    0    0  0.00000000000E+00  0.00000000000E+00  0.45593999997E+02  0.45594000000E+02  0.51100000000E-03 0.  1.
         11   -1    0    0    0    0 -0.00000000000E+00 -0.00000000000E+00 -0.45593999997E+02  0.45594000000E+02  0.51100000000E-03 0. -1.
    9900012    2    1    2    0    0 -0.51679276972E+00 -0.83396544443E+00  0.65591462683E+00  0.90007831738E+02  0.90000094317E+02 0.  0.
        -12    1    1    2    0    0  0.51679276972E+00  0.83396544443E+00 -0.65591462683E+00  0.11801682622E+01  0.00000000000E+00 0.  1.
         11    1    3    3    0    0  0.11887393936E+01 -0.40132454742E+01  0.78060131791E+01  0.88573744753E+01  0.51100000000E-03 0. -1.
        -11    1    3    3    0    0  0.34109550506E+02 -0.91589489774E+01  0.13734082235E+02  0.37894231713E+02  0.51100000000E-03 0.  1.
         12    1    3    3    0    0 -0.35815082669E+02  0.12338229007E+02 -0.20884180787E+02  0.43256225549E+02  0.00000000000E+00 0. -1.
</event>
<event>
 7    1  0.2232484E-015  0.9000767E+02  0.7816164E-02  0.1186339E+00
        -11   -1    0    0    0    0  0.00000000000E+00  0.00000000000E+00  0.45593999997E+02  0.45594000000E+02  0.51100000000E-03 0. -1.
         11   -1    0    0    0    0 -0.00000000000E+00 -0.00000000000E+00 -0.45593999997E+02  0.45594000000E+02  0.51100000000E-03 0.  1.
    9900012    2    1    2    0    0 -0.51594690295E+00 -0.77620701192E+00 -0.72421130055E+00  0.90007669309E+02  0.89999929744E+02 0.  0.
        -12    1    1    2    0    0  0.51594690295E+00  0.77620701192E+00  0.72421130055E+00  0.11803306909E+01  0.00000000000E+00 0.  1.
         11    1    3    3    0    0  0.34116573652E+02 -0.11351954397E+02 -0.94263541310E+01  0.37170736055E+02  0.51100000000E-03 0. -1.
        -11    1    3    3    0    0 -0.67050834326E-01 -0.94801726389E+01  0.87103127775E+01  0.12874304565E+02  0.51100000000E-03 0.  1.
        -12    1    3    3    0    0 -0.34565469721E+02  0.20055920024E+02 -0.81699470834E-02  0.39962628690E+02  0.00000000000E+00 0.  1.
</event>
<event>
 7    1  0.2232484E-015  0.9000777E+02  0.7816164E-02  0.1186339E+00
        -11   -1    0    0    0    0  0.00000000000E+00  0.00000000000E+00  0.45593999997E+02  0.45594000000E+02  0.51100000000E-03 0. -1.
         11   -1    0    0    0    0 -0.00000000000E+00 -0.00000000000E+00 -0.45593999997E+02  0.45594000000E+02  0.51100000000E-03 0.  1.
    9900012    2    1    2    0    0 -0.61458301835E+00  0.58898472952E+00  0.81751086570E+00  0.90007771499E+02  0.90000033283E+02 0.  0.
        -12    1    1    2    0    0  0.61458301835E+00 -0.58898472952E+00 -0.81751086570E+00  0.11802285006E+01  0.00000000000E+00 0.  1.
         11    1    3    3    0    0  0.65633323305E+01  0.39099395899E+02 -0.12293174317E+01  0.39665492718E+02  0.51100000000E-03 0. -1.
        -11    1    3    3    0    0  0.87562049239E+01 -0.37386287902E+01 -0.60031688051E+01  0.11255510022E+02  0.51100000000E-03 0.  1.
        -12    1    3    3    0    0 -0.15934120273E+02 -0.34771782379E+02  0.80499971025E+01  0.39086768759E+02  0.00000000000E+00 0.  1.
</event>
<event>
 7    1  0.2232484E-015  0.9000766E+02  0.7816164E-02  0.1186339E+00
        -11   -1    0    0    0    0  0.00000000000E+00  0.00000000000E+00  0.45593999997E+02  0.45594000000E+02  0.51100000000E-03 0. -1.
         11   -1    0    0    0    0 -0.00000000000E+00 -0.00000000000E+00 -0.45593999997E+02  0.45594000000E+02  0.51100000000E-03 0.  1.
    9900012    2    1    2    0    0 -0.77492659968E+00 -0.28746285855E+00  0.84264725925E+00  0.90007660840E+02  0.89999921163E+02 0.  0.
        -12    1    1    2    0    0  0.77492659968E+00  0.28746285855E+00 -0.84264725925E+00  0.11803391604E+01  0.00000000000E+00 0.  1.
         11    1    3    3    0    0  0.92264464044E+01  0.12469835203E+02  0.32131485951E+02  0.35679917222E+02  0.51100000000E-03 0. -1.
        -11    1    3    3    0    0 -0.24950169687E+01  0.10233272013E+01  0.98948116422E+01  0.10255710893E+02  0.51100000000E-03 0.  1.
        -12    1    3    3    0    0 -0.75063560354E+01 -0.13780625263E+02 -0.41183650334E+02  0.44072032724E+02  0.00000000000E+00 0.  1.
</event>
<event>
 7    1  0.2232484E-015  0.9000779E+02  0.7816164E-02  0.1186339E+00
        -11   -1    0    0    0    0  0.00000000000E+00  0.00000000000E+00  0.45593999997E+02  0.45594000000E+02  0.51100000000E-03 0.  1.
         11   -1    0    0    0    0 -0.00000000000E+00 -0.00000000000E+00 -0.45593999997E+02  0.45594000000E+02  0.51100000000E-03 0. -1.
    9900012    2    1    2    0    0  0.10411082430E+01  0.37544904722E+00 -0.40991609382E+00  0.90007788339E+02  0.90000050345E+02 0.  0.
        -12    1    1    2    0    0 -0.10411082430E+01 -0.37544904722E+00  0.40991609382E+00  0.11802116610E+01  0.00000000000E+00 0.  1.
         11    1    3    3    0    0  0.75817611093E+01 -0.66284171563E+01  0.27330822069E+01  0.10434977438E+02  0.51100000000E-03 0. -1.
        -11    1    3    3    0    0 -0.49324643678E+01  0.21858107106E+02  0.33327753091E+02  0.40160243741E+02  0.51100000000E-03 0.  1.
         12    1    3    3    0    0 -0.16081884985E+01 -0.14854240903E+02 -0.36470751392E+02  0.39412567160E+02  0.00000000000E+00 0. -1.
</event>
<event>
 7    1  0.2842322E-015  0.9000776E+02  0.7816164E-02  0.1186339E+00
        -11   -1    0    0    0    0  0.00000000000E+00  0.00000000000E+00  0.45593999997E+02  0.45594000000E+02  0.51100000000E-03 0. -1.
         11   -1    0    0    0    0 -0.00000000000E+00 -0.00000000000E+00 -0.45593999997E+02  0.45594000000E+02  0.51100000000E-03 0.  1.
    9900012    2    1    2    0    0 -0.21025335609E+00 -0.62823060224E+00  0.97676954668E+00  0.90007763197E+02  0.90000024871E+02 0.  0.
        -12    1    1    2    0    0  0.21025335609E+00  0.62823060224E+00 -0.97676954668E+00  0.11802368028E+01  0.00000000000E+00 0.  1.
         11    1    3    3    0    0 -0.96881278278E+01  0.35856797107E+01  0.35989943471E+00  0.10336655535E+02  0.51100000000E-03 0. -1.
        -11    1    3    3    0    0  0.11351293130E+02  0.16911804104E+02 -0.33672084245E+02  0.39353147669E+02  0.51100000000E-03 0.  1.
         12    1    3    3    0    0 -0.18734186580E+01 -0.21125714417E+02  0.34288954357E+02  0.40317959993E+02  0.00000000000E+00 0. -1.
</event>
<event>
 7    1  0.2232484E-015  0.9000762E+02  0.7816164E-02  0.1186339E+00
        -11   -1    0    0    0    0  0.00000000000E+00  0.00000000000E+00  0.45593999997E+02  0.45594000000E+02  0.51100000000E-03 0.  1.
         11   -1    0    0    0    0 -0.00000000000E+00 -0.00000000000E+00 -0.45593999997E+02  0.45594000000E+02  0.51100000000E-03 0. -1.
    9900012    2    1    2    0    0 -0.42407059961E+00 -0.10982199283E+01 -0.85876370321E-01  0.90007619707E+02  0.89999879487E+02 0.  0.
        -12    1    1    2    0    0  0.42407059961E+00  0.10982199283E+01  0.85876370321E-01  0.11803802927E+01  0.00000000000E+00 0.  1.
         11    1    3    3    0    0 -0.47460472753E+01 -0.37674118031E+01 -0.14719456322E+02  0.15917938029E+02  0.51100000000E-03 0. -1.
        -11    1    3    3    0    0 -0.16861195908E+02  0.31693979928E+02  0.12787772462E+02  0.38109518705E+02  0.51100000000E-03 0.  1.
         12    1    3    3    0    0  0.21183172584E+02 -0.29024788053E+02  0.18458074893E+01  0.35980162973E+02  0.00000000000E+00 0. -1.
</event>
<event>
 7    1  0.2232484E-015  0.9000751E+02  0.7816164E-02  0.1186340E+00
        -11   -1    0    0    0    0  0.00000000000E+00  0.00000000000E+00  0.45593999997E+02  0.45594000000E+02  0.51100000000E-03 0.  1.
         11   -1    0    0    0    0 -0.00000000000E+00 -0.00000000000E+00 -0.45593999997E+02  0.45594000000E+02  0.51100000000E-03 0. -1.
    9900012    2    1    2    0    0 -0.90349868981E+00 -0.74220987094E+00 -0.16240806040E+00  0.90007507834E+02  0.89999766137E+02 0.  0.
        -12    1    1    2    0    0  0.90349868981E+00  0.74220987094E+00  0.16240806040E+00  0.11804921656E+01  0.00000000000E+00 0.  1.
         11    1    3    3    0    0  0.78958702902E+01  0.12849540382E-01  0.66325111729E+01  0.10311893011E+02  0.51100000000E-03 0. -1.
        -11    1    3    3    0    0  0.45203634188E+01 -0.21044489621E+02  0.29203927000E+02  0.36279106678E+02  0.51100000000E-03 0.  1.
         12    1    3    3    0    0 -0.13319732399E+02  0.20289430209E+02 -0.35998846234E+02  0.43416508146E+02  0.00000000000E+00 0. -1.
</event>
<event>
 7    1  0.2232484E-015  0.9000773E+02  0.7816164E-02  0.1186339E+00
        -11   -1    0    0    0    0  0.00000000000E+00  0.00000000000E+00  0.45593999997E+02  0.45594000000E+02  0.51100000000E-03 0.  1.
         11   -1    0    0    0    0 -0.00000000000E+00 -0.00000000000E+00 -0.45593999997E+02  0.45594000000E+02  0.51100000000E-03 0. -1.
    9900012    2    1    2    0    0  0.78158359917E+00 -0.70056071309E+00 -0.53978806112E+00  0.90007733341E+02  0.89999994621E+02 0.  0.
        -12    1    1    2    0    0 -0.78158359917E+00  0.70056071309E+00  0.53978806112E+00  0.11802666589E+01  0.00000000000E+00 0.  1.
         11    1    3    3    0    0 -0.58330466838E+01 -0.88270181346E+00  0.64845245912E+01  0.87665646373E+01  0.51100000000E-03 0. -1.
        -11    1    3    3    0    0  0.21362941396E+02  0.20856662844E+02  0.25993856276E+02  0.39586060861E+02  0.51100000000E-03 0.  1.
         12    1    3    3    0    0 -0.14748311113E+02 -0.20674521744E+02 -0.33018168928E+02  0.41655107843E+02  0.00000000000E+00 0. -1.
</event>
<event>
 7    1  0.2232484E-015  0.9000772E+02  0.7816164E-02  0.1186339E+00
        -11   -1    0    0    0    0  0.00000000000E+00  0.00000000000E+00  0.45593999997E+02  0.45594000000E+02  0.51100000000E-03 0. -1.
         11   -1    0    0    0    0 -0.00000000000E+00 -0.00000000000E+00 -0.45593999997E+02  0.45594000000E+02  0.51100000000E-03 0.  1.
    9900012    2    1    2    0    0  0.10799905698E+01  0.10674777872E+00  0.46398266998E+00  0.90007722644E+02  0.89999983783E+02 0.  0.
        -12    1    1    2    0    0 -0.10799905698E+01 -0.10674777872E+00 -0.46398266998E+00  0.11802773561E+01  0.00000000000E+00 0.  1.
         11    1    3    3    0    0 -0.47630288059E+01  0.70749381287E+01 -0.21226236270E+01  0.87890115630E+01  0.51100000000E-03 0. -1.
        -11    1    3    3    0    0 -0.76772524781E+01  0.23264657257E+02 -0.27249225672E+02  0.36642936330E+02  0.51100000000E-03 0.  1.
         12    1    3    3    0    0  0.13520271854E+02 -0.30232847607E+02  0.29835831969E+02  0.44575774751E+02  0.00000000000E+00 0. -1.
</event>
<event>
 7    1  0.2232484E-015  0.9000772E+02  0.7816164E-02  0.1186339E+00
        -11   -1    0    0    0    0  0.00000000000E+00  0.00000000000E+00  0.45593999997E+02  0.45594000000E+02  0.51100000000E-03 0. -1.
         11   -1    0    0    0    0 -0.00000000000E+00 -0.00000000000E+00 -0.45593999997E+02  0.45594000000E+02  0.51100000000E-03 0.  1.
    9900012    2    1    2    0    0  0.40198022777E-01 -0.82878465650E+00 -0.83938673533E+00  0.90007716145E+02  0.89999977198E+02 0.  0.
        -12    1    1    2    0    0 -0.40198022777E-01  0.82878465650E+00  0.83938673533E+00  0.11802838554E+01  0.00000000000E+00 0.  1.
         11    1    3    3    0    0  0.25633496503E+02  0.99707780140E+01  0.26982427379E+02  0.38529779972E+02  0.51100000000E-03 0. -1.
        -11    1    3    3    0    0  0.83268686771E+00 -0.17000499715E+01  0.67565611189E+01  0.70167411054E+01  0.51100000000E-03 0.  1.
        -12    1    3    3    0    0 -0.26425985348E+02 -0.90995126990E+01 -0.34578375233E+02  0.44461195067E+02  0.00000000000E+00 0.  1.
</event>
<event>
 7    1  0.2232484E-015  0.9000771E+02  0.7816164E-02  0.1186339E+00
        -11   -1    0    0    0    0  0.00000000000E+00  0.00000000000E+00  0.45593999997E+02  0.45594000000E+02  0.51100000000E-03 0. -1.
         11   -1    0    0    0    0 -0.00000000000E+00 -0.00000000000E+00 -0.45593999997E+02  0.45594000000E+02  0.51100000000E-03 0.  1.
    9900012    2    1    2    0    0  0.82374049072E+00 -0.66743189923E+00  0.51870915008E+00  0.90007714899E+02  0.89999975936E+02 0.  0.
        -12    1    1    2    0    0 -0.82374049072E+00  0.66743189923E+00 -0.51870915008E+00  0.11802851005E+01  0.00000000000E+00 0.  1.
         11    1    3    3    0    0 -0.36261425862E+01 -0.88982847138E+01  0.33205728976E+02  0.34568031734E+02  0.51100000000E-03 0. -1.
        -11    1    3    3    0    0 -0.22355591142E+01  0.34017410621E+01  0.10610082424E+02  0.11364128480E+02  0.51100000000E-03 0.  1.
        -12    1    3    3    0    0  0.66854421911E+01  0.48291117525E+01 -0.43297102250E+02  0.44075554685E+02  0.00000000000E+00 0.  1.
</event>
<event>
 7    1  0.2232484E-015  0.9000781E+02  0.7816164E-02  0.1186339E+00
        -11   -1    0    0    0    0  0.00000000000E+00  0.00000000000E+00  0.45593999997E+02  0.45594000000E+02  0.51100000000E-03 0.  1.
         11   -1    0    0    0    0 -0.00000000000E+00 -0.00000000000E+00 -0.45593999997E+02  0.45594000000E+02  0.51100000000E-03 0. -1.
    9900012    2    1    2    0    0 -0.55920438898E+00  0.99990162815E+00 -0.28345059362E+00  0.90007806349E+02  0.90000068593E+02 0.  0.
        -12    1    1    2    0    0  0.55920438898E+00 -0.99990162815E+00  0.28345059362E+00  0.11801936509E+01  0.00000000000E+00 0.  1.
         11    1    3    3    0    0  0.18402190031E+01  0.13012902251E+02 -0.11728809015E+02  0.17614965005E+02  0.51100000000E-03 0. -1.
        -11    1    3    3    0    0 -0.24069384190E+02  0.10033954703E+02  0.27212860212E+02  0.37690254224E+02  0.51100000000E-03 0.  1.
         12    1    3    3    0    0  0.21669960798E+02 -0.22046955325E+02 -0.15767501791E+02  0.34702587120E+02  0.00000000000E+00 0. -1.
</event>
<event>
 7    1  0.2232484E-015  0.9000780E+02  0.7816164E-02  0.1186339E+00
        -11   -1    0    0    0    0  0.00000000000E+00  0.00000000000E+00  0.45593999997E+02  0.45594000000E+02  0.51100000000E-03 0. -1.
         11   -1    0    0    0    0 -0.00000000000E+00 -0.00000000000E+00 -0.45593999997E+02  0.45594000000E+02  0.51100000000E-03 0.  1.
    9900012    2    1    2    0    0  0.19206383347E+00  0.58855090835E+00  0.10047865356E+01  0.90007798039E+02  0.90000060173E+02 0.  0.
        -12    1    1    2    0    0 -0.19206383347E+00 -0.58855090835E+00 -0.10047865356E+01  0.11802019615E+01  0.00000000000E+00 0.  1.
         11    1    3    3    0    0  0.75020567639E+01  0.85344257975E+01  0.35023603316E+01  0.11890492317E+02  0.51100000000E-03 0. -1.
        -11    1    3    3    0    0  0.13443502336E+02 -0.32337872752E+02 -0.21290161265E+02  0.40984591448E+02  0.51100000000E-03 0.  1.
         12    1    3    3    0    0 -0.20753495267E+02  0.24391997863E+02  0.18792587469E+02  0.37132714274E+02  0.00000000000E+00 0. -1.
</event>
<event>
 7    1  0.2232484E-015  0.9000772E+02  0.7816164E-02  0.1186339E+00
        -11   -1    0    0    0    0  0.00000000000E+00  0.00000000000E+00  0.45593999997E+02  0.45594000000E+02  0.51100000000E-03 0.  1.
         11   -1    0    0    0    0 -0.00000000000E+00 -0.00000000000E+00 -0.45593999997E+02  0.45594000000E+02  0.51100000000E-03 0. -1.
    9900012    2    1    2    0    0 -0.11240316916E+01 -0.21072304549E+00  0.29192519329E+00  0.90007715389E+02  0.89999976432E+02 0.  0.
        -12    1    1    2    0    0  0.11240316916E+01  0.21072304549E+00 -0.29192519329E+00  0.11802846115E+01  0.00000000000E+00 0.  1.
         11    1    3    3    0    0  0.36944742041E+02  0.11133829949E+02 -0.50451010205E+01  0.38914382668E+02  0.51100000000E-03 0. -1.
        -11    1    3    3    0    0 -0.30770711062E+00  0.80288021181E+01  0.30393407317E+01  0.85903398922E+01  0.51100000000E-03 0.  1.
        -12    1    3    3    0    0 -0.37761066622E+02 -0.19373355113E+02  0.22976854821E+01  0.42502992828E+02  0.00000000000E+00 0.  1.
</event>
<event>
 7    1  0.2232484E-015  0.9000777E+02  0.7816164E-02  0.1186339E+00
        -11   -1    0    0    0    0  0.00000000000E+00  0.00000000000E+00  0.45593999997E+02  0.45594000000E+02  0.51100000000E-03 0. -1.
         11   -1    0    0    0    0 -0.00000000000E+00 -0.00000000000E+00 -0.45593999997E+02  0.45594000000E+02  0.51100000000E-03 0.  1.
    9900012    2    1    2    0    0  0.82256574738E+00  0.61136520782E+00  0.58529643316E+00  0.90007765387E+02  0.90000027091E+02 0.  0.
        -12    1    1    2    0    0 -0.82256574738E+00 -0.61136520782E+00 -0.58529643316E+00  0.11802346126E+01  0.00000000000E+00 0.  1.
         11    1    3    3    0    0  0.16383503283E+02  0.23588507369E+00  0.32652592795E+02  0.36533089632E+02  0.51100000000E-03 0. -1.
        -11    1    3    3    0    0 -0.10858084438E+02  0.11387051633E+02  0.33511123811E+01  0.16087041276E+02  0.51100000000E-03 0.  1.
        -12    1    3    3    0    0 -0.47028530974E+01 -0.11011571499E+02 -0.35418408743E+02  0.37387634480E+02  0.00000000000E+00 0.  1.
</event>
<event>
 7    1  0.2232484E-015  0.9000771E+02  0.7816164E-02  0.1186339E+00
        -11   -1    0    0    0    0  0.00000000000E+00  0.00000000000E+00  0.45593999997E+02  0.45594000000E+02  0.51100000000E-03 0. -1.
         11   -1    0    0    0    0 -0.00000000000E+00 -0.00000000000E+00 -0.45593999997E+02  0.45594000000E+02  0.51100000000E-03 0.  1.
    9900012    2    1    2    0    0  0.51074270241E-01  0.74007916479E+00  0.91802430950E+00  0.90007705806E+02  0.89999966723E+02 0.  0.
        -12    1    1    2    0    0 -0.51074270241E-01 -0.74007916479E+00 -0.91802430950E+00  0.11802941939E+01  0.00000000000E+00 0.  1.
         11    1    3    3    0    0 -0.11513571210E+02  0.12743665631E+02  0.36542659785E+02  0.40377336714E+02  0.51100000000E-03 0. -1.
        -11    1    3    3    0    0  0.95903947738E+01  0.36795065091E+01  0.41111249235E+00  0.10280245805E+02  0.51100000000E-03 0.  1.
        -12    1    3    3    0    0  0.19742507062E+01 -0.15683092975E+02 -0.36035747968E+02  0.39350123287E+02  0.00000000000E+00 0.  1.
</event>
<event>
 7    1  0.2232484E-015  0.9000733E+02  0.7816164E-02  0.1186340E+00
        -11   -1    0    0    0    0  0.00000000000E+00  0.00000000000E+00  0.45593999997E+02  0.45594000000E+02  0.51100000000E-03 0.  1.
         11   -1    0    0    0    0 -0.00000000000E+00 -0.00000000000E+00 -0.45593999997E+02  0.45594000000E+02  0.51100000000E-03 0. -1.
    9900012    2    1    2    0    0 -0.63205545890E+00 -0.64757616717E+00  0.75837629120E+00  0.90007329176E+02  0.89999585120E+02 0.  0.
        -12    1    1    2    0    0  0.63205545890E+00  0.64757616717E+00 -0.75837629120E+00  0.11806708239E+01  0.00000000000E+00 0.  1.
         11    1    3    3    0    0 -0.33666402017E+01 -0.36669258370E+02 -0.21393943460E+02  0.42587199869E+02  0.51100000000E-03 0. -1.
        -11    1    3    3    0    0  0.58946312960E+00  0.14528100139E+01 -0.38194870596E+01  0.41287534895E+01  0.51100000000E-03 0.  1.
        -12    1    3    3    0    0  0.21451216132E+01  0.34568872189E+02  0.25971806811E+02  0.43291375818E+02  0.00000000000E+00 0.  1.
</event>
<event>
 7    1  0.2232484E-015  0.9000745E+02  0.7816164E-02  0.1186340E+00
        -11   -1    0    0    0    0  0.00000000000E+00  0.00000000000E+00  0.45593999997E+02  0.45594000000E+02  0.51100000000E-03 0. -1.
         11   -1    0    0    0    0 -0.00000000000E+00 -0.00000000000E+00 -0.45593999997E+02  0.45594000000E+02  0.51100000000E-03 0.  1.
    9900012    2    1    2    0    0  0.10337576818E+01 -0.41423337487E+00 -0.39173559235E+00  0.90007448854E+02  0.89999706379E+02 0.  0.
        -12    1    1    2    0    0 -0.10337576818E+01  0.41423337487E+00  0.39173559235E+00  0.11805511458E+01  0.00000000000E+00 0.  1.
         11    1    3    3    0    0  0.89880679974E+01 -0.85993691694E+00  0.33331844910E+01  0.96247065898E+01  0.51100000000E-03 0. -1.
        -11    1    3    3    0    0  0.19215145661E+02 -0.31541467185E+02 -0.91904118889E+01  0.38059816682E+02  0.51100000000E-03 0.  1.
         12    1    3    3    0    0 -0.27169455976E+02  0.31987170727E+02  0.54654918055E+01  0.42322925582E+02  0.00000000000E+00 0. -1.
</event>
<event>
 7    1  0.2232484E-015  0.9000757E+02  0.7816164E-02  0.1186339E+00
        -11   -1    0    0    0    0  0.00000000000E+00  0.00000000000E+00  0.45593999997E+02  0.45594000000E+02  0.51100000000E-03 0.  1.
         11   -1    0    0    0    0 -0.00000000000E+00 -0.00000000000E+00 -0.45593999997E+02  0.45594000000E+02  0.51100000000E-03 0. -1.
    9900012    2    1    2    0    0 -0.93562282437E+00  0.70824159353E+00 -0.12818089840E+00  0.90007565094E+02  0.89999824153E+02 0.  0.
        -12    1    1    2    0    0  0.93562282437E+00 -0.70824159353E+00  0.12818089840E+00  0.11804349059E+01  0.00000000000E+00 0.  1.
         11    1    3    3    0    0  0.36570161186E+01 -0.20976615116E+01 -0.14488963193E+02  0.15089864326E+02  0.51100000000E-03 0. -1.
        -11    1    3    3    0    0 -0.93019561968E+01 -0.34539095133E+02  0.91178575416E+01  0.36913558594E+02  0.51100000000E-03 0.  1.
         12    1    3    3    0    0  0.47093172538E+01  0.37344998238E+02  0.52429247531E+01  0.38004142174E+02  0.00000000000E+00 0. -1.
</event>
<event>
 7    1  0.2232484E-015  0.9000777E+02  0.7816164E-02  0.1186339E+00
        -11   -1    0    0    0    0  0.00000000000E+00  0.00000000000E+00  0.45593999997E+02  0.45594000000E+02  0.51100000000E-03 0.  1.
         11   -1    0    0    0    0 -0.00000000000E+00 -0.00000000000E+00 -0.45593999997E+02  0.45594000000E+02  0.51100000000E-03 0. -1.
    9900012    2    1    2    0    0 -0.84680811682E-01  0.72806716292E+00  0.92503589103E+00  0.90007769500E+02  0.90000031257E+02 0.  0.
        -12    1    1    2    0    0  0.84680811682E-01 -0.72806716292E+00 -0.92503589103E+00  0.11802305001E+01  0.00000000000E+00 0.  1.
         11    1    3    3    0    0 -0.23159051404E+01  0.46287712962E+01 -0.36975414818E+02  0.37335910885E+02  0.51100000000E-03 0. -1.
        -11    1    3    3    0    0  0.81417845039E+01 -0.44827105648E+01 -0.41681354702E+01  0.10186103400E+02  0.51100000000E-03 0.  1.
        -12    1    3    3    0    0 -0.59105601752E+01  0.58200643153E+00  0.42068586180E+02  0.42485755215E+02  0.00000000000E+00 0.  1.
</event>
<event>
 7    1  0.2232484E-015  0.9000777E+02  0.7816164E-02  0.1186339E+00
        -11   -1    0    0    0    0  0.00000000000E+00  0.00000000000E+00  0.45593999997E+02  0.45594000000E+02  0.51100000000E-03 0.  1.
         11   -1    0    0    0    0 -0.00000000000E+00 -0.00000000000E+00 -0.45593999997E+02  0.45594000000E+02  0.51100000000E-03 0. -1.
    9900012    2    1    2    0    0  0.42015773615E+00  0.10985035603E+01 -0.98520943550E-01  0.90007767408E+02  0.90000029138E+02 0.  0.
        -12    1    1    2    0    0 -0.42015773615E+00 -0.10985035603E+01  0.98520943550E-01  0.11802325921E+01  0.00000000000E+00 0.  1.
         11    1    3    3    0    0  0.86871916893E+01  0.32613558682E+02 -0.12348599531E+02  0.35938828863E+02  0.51100000000E-03 0. -1.
        -11    1    3    3    0    0  0.79600733857E+01  0.64948213304E+01 -0.17739756311E+01  0.10425567717E+02  0.51100000000E-03 0.  1.
        -12    1    3    3    0    0 -0.16227107339E+02 -0.38009876453E+02  0.14024054219E+02  0.43643370828E+02  0.00000000000E+00 0.  1.
</event>
<event>
 7    1  0.2232484E-015  0.9000764E+02  0.7816164E-02  0.1186339E+00
        -11   -1    0    0    0    0  0.00000000000E+00  0.00000000000E+00  0.45593999997E+02  0.45594000000E+02  0.51100000000E-03 0.  1.
         11   -1    0    0    0    0 -0.00000000000E+00 -0.00000000000E+00 -0.45593999997E+02  0.45594000000E+02  0.51100000000E-03 0. -1.
    9900012    2    1    2    0    0  0.43299063563E+00  0.97184584669E+00  0.51116243110E+00  0.90007638923E+02  0.89999898957E+02 0.  0.
        -12    1    1    2    0    0 -0.43299063563E+00 -0.97184584669E+00 -0.51116243110E+00  0.11803610766E+01  0.00000000000E+00 0.  1.
         11    1    3    3    0    0  0.15628608352E+02 -0.22708538064E+02  0.24335121608E+02  0.36771310066E+02  0.51100000000E-03 0. -1.
        -11    1    3    3    0    0 -0.14473928354E+01 -0.68358868255E+01  0.53782411331E+01  0.88175831529E+01  0.51100000000E-03 0.  1.
        -12    1    3    3    0    0 -0.13748224881E+02  0.30516270736E+02 -0.29202200310E+02  0.44418745705E+02  0.00000000000E+00 0.  1.
</event>
<event>
 7    1  0.2232484E-015  0.9000763E+02  0.7816164E-02  0.1186339E+00
        -11   -1    0    0    0    0  0.00000000000E+00  0.00000000000E+00  0.45593999997E+02  0.45594000000E+02  0.51100000000E-03 0.  1.
         11   -1    0    0    0    0 -0.00000000000E+00 -0.00000000000E+00 -0.45593999997E+02  0.45594000000E+02  0.51100000000E-03 0. -1.
    9900012    2    1    2    0    0 -0.31988060221E+00 -0.91323695967E+00 -0.67597055422E+00  0.90007635000E+02  0.89999894981E+02 0.  0.
        -12    1    1    2    0    0  0.31988060221E+00  0.91323695967E+00  0.67597055422E+00  0.11803650005E+01  0.00000000000E+00 0.  1.
         11    1    3    3    0    0  0.12116318607E+02 -0.27737935427E+02  0.22767847587E+02  0.37875759033E+02  0.51100000000E-03 0. -1.
        -11    1    3    3    0    0  0.44319793854E+01  0.82483766351E+01  0.77102014743E+01  0.12129524534E+02  0.51100000000E-03 0.  1.
        -12    1    3    3    0    0 -0.16868178594E+02  0.18576321833E+02 -0.31154019615E+02  0.40002351432E+02  0.00000000000E+00 0.  1.
</event>
<event>
 7    1  0.2232484E-015  0.9000774E+02  0.7816164E-02  0.1186339E+00
        -11   -1    0    0    0    0  0.00000000000E+00  0.00000000000E+00  0.45593999997E+02  0.45594000000E+02  0.51100000000E-03 0. -1.
         11   -1    0    0    0    0 -0.00000000000E+00 -0.00000000000E+00 -0.45593999997E+02  0.45594000000E+02  0.51100000000E-03 0.  1.
    9900012    2    1    2    0    0 -0.11768034519E+01  0.77628864804E-01 -0.46034966898E-01  0.90007740781E+02  0.90000002160E+02 0.  0.
        -12    1    1    2    0    0  0.11768034519E+01 -0.77628864804E-01  0.46034966898E-01  0.11802592187E+01  0.00000000000E+00 0.  1.
         11    1    3    3    0    0 -0.58982764754E+01  0.56311363538E+01 -0.56744996624E+01  0.99347525734E+01  0.51100000000E-03 0. -1.
        -11    1    3    3    0    0  0.19409233144E+02  0.49677063215E+01 -0.32329734285E+02  0.38034302367E+02  0.51100000000E-03 0.  1.
         12    1    3    3    0    0 -0.14687760121E+02 -0.10521213810E+02  0.37958198980E+02  0.42038685841E+02  0.00000000000E+00 0. -1.
</event>
<event>
 7    1  0.2232484E-015  0.9000765E+02  0.7816164E-02  0.1186339E+00
        -11   -1    0    0    0    0  0.00000000000E+00  0.00000000000E+00  0.45593999997E+02  0.45594000000E+02  0.51100000000E-03 0.  1.
         11   -1    0    0    0    0 -0.00000000000E+00 -0.00000000000E+00 -0.45593999997E+02  0.45594000000E+02  0.51100000000E-03 0. -1.
    9900012    2    1    2    0    0  0.21859745919E+00 -0.11428756706E+01 -0.19818004836E+00  0.90007650484E+02  0.89999910671E+02 0.  0.
        -12    1    1    2    0    0 -0.21859745919E+00  0.11428756706E+01  0.19818004836E+00  0.11803495157E+01  0.00000000000E+00 0.  1.
         11    1    3    3    0    0 -0.12069998751E+02  0.12636477662E+02 -0.30609047200E+02  0.35245981449E+02  0.51100000000E-03 0. -1.
        -11    1    3    3    0    0 -0.17773696721E+01  0.43707969752E+01 -0.84185612544E+01  0.96506519471E+01  0.51100000000E-03 0.  1.
        -12    1    3    3    0    0  0.14065965883E+02 -0.18150150308E+02  0.38829428406E+02  0.45111017088E+02  0.00000000000E+00 0.  1.
</event>
<event>
 7    1  0.2232484E-015  0.9000764E+02  0.7816164E-02  0.1186339E+00
        -11   -1    0    0    0    0  0.00000000000E+00  0.00000000000E+00  0.45593999997E+02  0.45594000000E+02  0.51100000000E-03 0.  1.
         11   -1    0    0    0    0 -0.00000000000E+00 -0.00000000000E+00 -0.45593999997E+02  0.45594000000E+02  0.51100000000E-03 0. -1.
    9900012    2    1    2    0    0  0.21422805884E+00  0.61401832069E+00 -0.98505605159E+00  0.90007640909E+02  0.89999900969E+02 0.  0.
        -12    1    1    2    0    0 -0.21422805884E+00 -0.61401832069E+00  0.98505605159E+00  0.11803590912E+01  0.00000000000E+00 0.  1.
         11    1    3    3    0    0  0.16588229421E+02  0.10761751011E+02 -0.35198164520E+02  0.40371963366E+02  0.51100000000E-03 0. -1.
        -11    1    3    3    0    0  0.67842883093E+01  0.26548378596E+01  0.12933266394E+01  0.73991503554E+01  0.51100000000E-03 0.  1.
        -12    1    3    3    0    0 -0.23158289672E+02 -0.12802570550E+02  0.32919781829E+02  0.42236527188E+02  0.00000000000E+00 0.  1.
</event>
<event>
 7    1  0.2232484E-015  0.9000768E+02  0.7816164E-02  0.1186339E+00
        -11   -1    0    0    0    0  0.00000000000E+00  0.00000000000E+00  0.45593999997E+02  0.45594000000E+02  0.51100000000E-03 0. -1.
         11   -1    0    0    0    0 -0.00000000000E+00 -0.00000000000E+00 -0.45593999997E+02  0.45594000000E+02  0.51100000000E-03 0.  1.
    9900012    2    1    2    0    0 -0.11446940551E+01 -0.13386864332E+00 -0.25477579270E+00  0.90007679705E+02  0.89999940277E+02 0.  0.
        -12    1    1    2    0    0  0.11446940551E+01  0.13386864332E+00  0.25477579270E+00  0.11803202947E+01  0.00000000000E+00 0.  1.
         11    1    3    3    0    0 -0.13925708538E+00  0.51416931985E+01  0.19935745002E+02  0.20588597100E+02  0.51100000000E-03 0. -1.
        -11    1    3    3    0    0  0.22163505743E+02 -0.25701900522E+02 -0.30013143250E+01  0.34070758213E+02  0.51100000000E-03 0.  1.
         12    1    3    3    0    0 -0.23168942712E+02  0.20426338680E+02 -0.17189206470E+02  0.35348324393E+02  0.00000000000E+00 0. -1.
</event>
<event>
 7    1  0.2232484E-015  0.9000761E+02  0.7816164E-02  0.1186339E+00
        -11   -1    0    0    0    0  0.00000000000E+00  0.00000000000E+00  0.45593999997E+02  0.45594000000E+02  0.51100000000E-03 0. -1.
         11   -1    0    0    0    0 -0.00000000000E+00 -0.00000000000E+00 -0.45593999997E+02  0.45594000000E+02  0.51100000000E-03 0.  1.
    9900012    2    1    2    0    0  0.71102794413E+00  0.22335366833E+00  0.91535518917E+00  0.90007609081E+02  0.89999868721E+02 0.  0.
        -12    1    1    2    0    0 -0.71102794413E+00 -0.22335366833E+00 -0.91535518917E+00  0.11803909186E+01  0.00000000000E+00 0.  1.
         11    1    3    3    0    0  0.71305548109E+01 -0.45790471475E+01 -0.43618487033E+01  0.95309080922E+01  0.51100000000E-03 0. -1.
        -11    1    3    3    0    0 -0.38286741438E+02  0.13057085664E+02 -0.13418211211E+02  0.42619367058E+02  0.51100000000E-03 0.  1.
         12    1    3    3    0    0  0.31867214572E+02 -0.82546848486E+01  0.18695415104E+02  0.37857333932E+02  0.00000000000E+00 0. -1.
</event>
<event>
 7    1  0.2232484E-015  0.9000770E+02  0.7816164E-02  0.1186339E+00
        -11   -1    0    0    0    0  0.00000000000E+00  0.00000000000E+00  0.45593999997E+02  0.45594000000E+02  0.51100000000E-03 0. -1.
         11   -1    0    0    0    0 -0.00000000000E+00 -0.00000000000E+00 -0.45593999997E+02  0.45594000000E+02  0.51100000000E-03 0.  1.
    9900012    2    1    2    0    0 -0.85180352667E+00  0.70006386190E+00 -0.42125326262E+00  0.90007697933E+02  0.89999958745E+02 0.  0.
        -12    1    1    2    0    0  0.85180352667E+00 -0.70006386190E+00  0.42125326262E+00  0.11803020673E+01  0.00000000000E+00 0.  1.
         11    1    3    3    0    0  0.14522508752E+02 -0.27017900912E+02  0.49821368605E+00  0.30677653875E+02  0.51100000000E-03 0. -1.
        -11    1    3    3    0    0 -0.73158055869E+00 -0.13064159887E+02 -0.81275964395E+01  0.15403418706E+02  0.51100000000E-03 0.  1.
        -12    1    3    3    0    0 -0.14642731719E+02  0.40782124661E+02  0.72081294908E+01  0.43926625352E+02  0.00000000000E+00 0.  1.
</event>
<event>
 7    1  0.2232484E-015  0.9000802E+02  0.7816164E-02  0.1186338E+00
        -11   -1    0    0    0    0  0.00000000000E+00  0.00000000000E+00  0.45593999997E+02  0.45594000000E+02  0.51100000000E-03 0.  1.
         11   -1    0    0    0    0 -0.00000000000E+00 -0.00000000000E+00 -0.45593999997E+02  0.45594000000E+02  0.51100000000E-03 0. -1.
    9900012    2    1    2    0    0  0.32387702560E+00 -0.26412600616E+00 -0.11034922079E+01  0.90008019522E+02  0.90000284580E+02 0.  0.
        -12    1    1    2    0    0 -0.32387702560E+00  0.26412600616E+00  0.11034922079E+01  0.11799804777E+01  0.00000000000E+00 0.  1.
         11    1    3    3    0    0 -0.31584856083E+02  0.64676687699E+01 -0.21747084009E+02  0.38889195624E+02  0.51100000000E-03 0. -1.
        -11    1    3    3    0    0  0.31556377759E+01 -0.62172029236E+01 -0.79437868957E+01  0.10569551195E+02  0.51100000000E-03 0.  1.
        -12    1    3    3    0    0  0.28753095333E+02 -0.51459185253E+00  0.28587378697E+02  0.40549272703E+02  0.00000000000E+00 0.  1.
</event>
<event>
 7    1  0.2232484E-015  0.9000762E+02  0.7816164E-02  0.1186339E+00
        -11   -1    0    0    0    0  0.00000000000E+00  0.00000000000E+00  0.45593999997E+02  0.45594000000E+02  0.51100000000E-03 0.  1.
         11   -1    0    0    0    0 -0.00000000000E+00 -0.00000000000E+00 -0.45593999997E+02  0.45594000000E+02  0.51100000000E-03 0. -1.
    9900012    2    1    2    0    0 -0.12418430990E+00  0.18638103474E+00 -0.11589377947E+01  0.90007620212E+02  0.89999879998E+02 0.  0.
        -12    1    1    2    0    0  0.12418430990E+00 -0.18638103474E+00  0.11589377947E+01  0.11803797884E+01  0.00000000000E+00 0.  1.
         11    1    3    3    0    0 -0.21723659778E+01 -0.10511755409E+02  0.82133162763E+00  0.10765257155E+02  0.51100000000E-03 0. -1.
        -11    1    3    3    0    0  0.36174508496E+02 -0.42474873937E+00  0.15453313834E+02  0.39339298228E+02  0.51100000000E-03 0.  1.
         12    1    3    3    0    0 -0.34126326828E+02  0.11122885183E+02 -0.17433583256E+02  0.39903064828E+02  0.00000000000E+00 0. -1.
</event>
<event>
 7    1  0.2232484E-015  0.9000768E+02  0.7816164E-02  0.1186339E+00
        -11   -1    0    0    0    0  0.00000000000E+00  0.00000000000E+00  0.45593999997E+02  0.45594000000E+02  0.51100000000E-03 0.  1.
         11   -1    0    0    0    0 -0.00000000000E+00 -0.00000000000E+00 -0.45593999997E+02  0.45594000000E+02  0.51100000000E-03 0. -1.
    9900012    2    1    2    0    0 -0.23049513148E+00 -0.15928527729E+00 -0.11465816348E+01  0.90007682564E+02  0.89999943174E+02 0.  0.
        -12    1    1    2    0    0  0.23049513148E+00  0.15928527729E+00  0.11465816348E+01  0.11803174363E+01  0.00000000000E+00 0.  1.
         11    1    3    3    0    0 -0.53576142866E+01 -0.50495545886E+01  0.59156361777E+01  0.94444049064E+01  0.51100000000E-03 0. -1.
        -11    1    3    3    0    0 -0.37378934268E+02  0.51921759509E+01 -0.27467761917E+01  0.37837655818E+02  0.51100000000E-03 0.  1.
         12    1    3    3    0    0  0.42506053423E+02 -0.30190663966E+00 -0.43154416209E+01  0.42725621839E+02  0.00000000000E+00 0. -1.
</event>
<event>
 7    1  0.2232484E-015  0.9000775E+02  0.7816164E-02  0.1186339E+00
        -11   -1    0    0    0    0  0.00000000000E+00  0.00000000000E+00  0.45593999997E+02  0.45594000000E+02  0.51100000000E-03 0.  1.
         11   -1    0    0    0    0 -0.00000000000E+00 -0.00000000000E+00 -0.45593999997E+02  0.45594000000E+02  0.51100000000E-03 0. -1.
    9900012    2    1    2    0    0  0.78221824126E+00 -0.37925914934E+00  0.79829630428E+00  0.90007754318E+02  0.90000015875E+02 0.  0.
        -12    1    1    2    0    0 -0.78221824126E+00  0.37925914934E+00 -0.79829630428E+00  0.11802456815E+01  0.00000000000E+00 0.  1.
         11    1    3    3    0    0 -0.18428907236E+00  0.93468189125E+01 -0.33967639186E+01  0.99466070409E+01  0.51100000000E-03 0. -1.
        -11    1    3    3    0    0  0.27858134309E+02 -0.33525922916E+02 -0.19263538214E+01  0.43632258639E+02  0.51100000000E-03 0.  1.
         12    1    3    3    0    0 -0.26891626996E+02  0.23799844854E+02  0.61214140442E+01  0.36428888639E+02  0.00000000000E+00 0. -1.
</event>
<event>
 7    1  0.2232484E-015  0.9000774E+02  0.7816164E-02  0.1186339E+00
        -11   -1    0    0    0    0  0.00000000000E+00  0.00000000000E+00  0.45593999997E+02  0.45594000000E+02  0.51100000000E-03 0. -1.
         11   -1    0    0    0    0 -0.00000000000E+00 -0.00000000000E+00 -0.45593999997E+02  0.45594000000E+02  0.51100000000E-03 0.  1.
    9900012    2    1    2    0    0 -0.41671858533E+00 -0.96423018213E+00  0.53816163488E+00  0.90007740635E+02  0.90000002011E+02 0.  0.
        -12    1    1    2    0    0  0.41671858533E+00  0.96423018213E+00 -0.53816163488E+00  0.11802593650E+01  0.00000000000E+00 0.  1.
         11    1    3    3    0    0  0.28707487330E+02  0.20987638646E+02 -0.73416926160E+01  0.36311172599E+02  0.51100000000E-03 0. -1.
        -11    1    3    3    0    0  0.80352334239E+01 -0.69172288578E+01 -0.48206885655E+01  0.11646976850E+02  0.51100000000E-03 0.  1.
        -12    1    3    3    0    0 -0.37159439340E+02 -0.15034639970E+02  0.12700542816E+02  0.42049591186E+02  0.00000000000E+00 0.  1.
</event>
<event>
 7    1  0.2232484E-015  0.9000783E+02  0.7816164E-02  0.1186339E+00
        -11   -1    0    0    0    0  0.00000000000E+00  0.00000000000E+00  0.45593999997E+02  0.45594000000E+02  0.51100000000E-03 0.  1.
         11   -1    0    0    0    0 -0.00000000000E+00 -0.00000000000E+00 -0.45593999997E+02  0.45594000000E+02  0.51100000000E-03 0. -1.
    9900012    2    1    2    0    0 -0.65603286101E+00 -0.71852534338E+00  0.66793165074E+00  0.90007834557E+02  0.90000097173E+02 0.  0.
        -12    1    1    2    0    0  0.65603286101E+00  0.71852534338E+00 -0.66793165074E+00  0.11801654434E+01  0.00000000000E+00 0.  1.
         11    1    3    3    0    0 -0.14347826008E+02  0.63367582513E+01 -0.84454646445E+01  0.17814053149E+02  0.51100000000E-03 0. -1.
        -11    1    3    3    0    0 -0.16650904108E+01  0.95471859195E+01  0.35872023138E+02  0.37158085652E+02  0.51100000000E-03 0.  1.
         12    1    3    3    0    0  0.15356883557E+02 -0.16602469514E+02 -0.26758626843E+02  0.35035695755E+02  0.00000000000E+00 0. -1.
</event>
<event>
 7    1  0.2232484E-015  0.9000774E+02  0.7816164E-02  0.1186339E+00
        -11   -1    0    0    0    0  0.00000000000E+00  0.00000000000E+00  0.45593999997E+02  0.45594000000E+02  0.51100000000E-03 0.  1.
         11   -1    0    0    0    0 -0.00000000000E+00 -0.00000000000E+00 -0.45593999997E+02  0.45594000000E+02  0.51100000000E-03 0. -1.
    9900012    2    1    2    0    0  0.91368443908E+00  0.26727379361E+00 -0.69768643212E+00  0.90007736939E+02  0.89999998267E+02 0.  0.
        -12    1    1    2    0    0 -0.91368443908E+00 -0.26727379361E+00  0.69768643212E+00  0.11802630607E+01  0.00000000000E+00 0.  1.
         11    1    3    3    0    0 -0.37639868249E+02  0.19644402762E+02 -0.73357063490E+00  0.42464106818E+02  0.51100000000E-03 0. -1.
        -11    1    3    3    0    0  0.70424142607E+01  0.71092339282E+00  0.65108616388E+01  0.96172932902E+01  0.51100000000E-03 0.  1.
        -12    1    3    3    0    0  0.31511138427E+02 -0.20088052361E+02 -0.64749774360E+01  0.37926336831E+02  0.00000000000E+00 0.  1.
</event>
<event>
 7    1  0.2232484E-015  0.9000774E+02  0.7816164E-02  0.1186339E+00
        -11   -1    0    0    0    0  0.00000000000E+00  0.00000000000E+00  0.45593999997E+02  0.45594000000E+02  0.51100000000E-03 0.  1.
         11   -1    0    0    0    0 -0.00000000000E+00 -0.00000000000E+00 -0.45593999997E+02  0.45594000000E+02  0.51100000000E-03 0. -1.
    9900012    2    1    2    0    0  0.87419011244E+00 -0.56829388467E+00 -0.55304035069E+00  0.90007737351E+02  0.89999998684E+02 0.  0.
        -12    1    1    2    0    0 -0.87419011244E+00  0.56829388467E+00  0.55304035069E+00  0.11802626494E+01  0.00000000000E+00 0.  1.
         11    1    3    3    0    0 -0.20148298607E+02 -0.30432593155E+02  0.68824609750E+01  0.37141148774E+02  0.51100000000E-03 0. -1.
        -11    1    3    3    0    0  0.25553320556E+01 -0.55058982216E+01  0.80362167257E+01  0.10071018651E+02  0.51100000000E-03 0.  1.
        -12    1    3    3    0    0  0.18467156664E+02  0.35370197492E+02 -0.15471718051E+02  0.42795569926E+02  0.00000000000E+00 0.  1.
</event>
<event>
 7    1  0.2232484E-015  0.9000777E+02  0.7816164E-02  0.1186339E+00
        -11   -1    0    0    0    0  0.00000000000E+00  0.00000000000E+00  0.45593999997E+02  0.45594000000E+02  0.51100000000E-03 0. -1.
         11   -1    0    0    0    0 -0.00000000000E+00 -0.00000000000E+00 -0.45593999997E+02  0.45594000000E+02  0.51100000000E-03 0.  1.
    9900012    2    1    2    0    0  0.60917009186E+00 -0.27567188863E+00  0.97255166264E+00  0.90007771239E+02  0.90000033020E+02 0.  0.
        -12    1    1    2    0    0 -0.60917009186E+00  0.27567188863E+00 -0.97255166264E+00  0.11802287607E+01  0.00000000000E+00 0.  1.
         11    1    3    3    0    0  0.25953485799E+01 -0.73379270868E+00  0.93516499810E+01  0.97328127290E+01  0.51100000000E-03 0. -1.
        -11    1    3    3    0    0 -0.57121700584E+01  0.39261004365E+02  0.26518080200E+01  0.39762890194E+02  0.51100000000E-03 0.  1.
         12    1    3    3    0    0  0.37259915704E+01 -0.38802883545E+02 -0.11030906338E+02  0.40512068316E+02  0.00000000000E+00 0. -1.
</event>
<event>
 7    1  0.2232484E-015  0.9000772E+02  0.7816164E-02  0.1186339E+00
        -11   -1    0    0    0    0  0.00000000000E+00  0.00000000000E+00  0.45593999997E+02  0.45594000000E+02  0.51100000000E-03 0.  1.
         11   -1    0    0    0    0 -0.00000000000E+00 -0.00000000000E+00 -0.45593999997E+02  0.45594000000E+02  0.51100000000E-03 0. -1.
    9900012    2    1    2    0    0  0.44815824870E+00  0.42162637945E+00 -0.10071941449E+01  0.90007722632E+02  0.89999983771E+02 0.  0.
        -12    1    1    2    0    0 -0.44815824870E+00 -0.42162637945E+00  0.10071941449E+01  0.11802773679E+01  0.00000000000E+00 0.  1.
         11    1    3    3    0    0 -0.54934436668E+01 -0.41952148977E+01  0.57210398731E+01  0.89726277561E+01  0.51100000000E-03 0. -1.
        -11    1    3    3    0    0  0.40995704269E+02  0.65012918445E+01  0.91529588084E+01  0.42505190499E+02  0.51100000000E-03 0.  1.
         12    1    3    3    0    0 -0.35054102353E+02 -0.18844505673E+01 -0.15881192826E+02  0.38529904377E+02  0.00000000000E+00 0. -1.
</event>
<event>
 7    1  0.2865549E-015  0.9000773E+02  0.7816164E-02  0.1186339E+00
        -11   -1    0    0    0    0  0.00000000000E+00  0.00000000000E+00  0.45593999997E+02  0.45594000000E+02  0.51100000000E-03 0.  1.
         11   -1    0    0    0    0 -0.00000000000E+00 -0.00000000000E+00 -0.45593999997E+02  0.45594000000E+02  0.51100000000E-03 0. -1.
    9900012    2    1    2    0    0  0.92794143468E+00 -0.69708424039E+00  0.21455585080E+00  0.90007730557E+02  0.89999991801E+02 0.  0.
        -12    1    1    2    0    0 -0.92794143468E+00  0.69708424039E+00 -0.21455585080E+00  0.11802694428E+01  0.00000000000E+00 0.  1.
         11    1    3    3    0    0 -0.34726281815E+01 -0.16539813422E+01 -0.84966746512E+01  0.93267508360E+01  0.51100000000E-03 0. -1.
        -11    1    3    3    0    0 -0.28452237627E+02  0.77505110040E+01 -0.20730105806E+02  0.36046324831E+02  0.51100000000E-03 0.  1.
         12    1    3    3    0    0  0.32852807243E+02 -0.67936139022E+01  0.29441336308E+02  0.44634654891E+02  0.00000000000E+00 0. -1.
</event>
<event>
 7    1  0.2232484E-015  0.9000776E+02  0.7816164E-02  0.1186339E+00
        -11   -1    0    0    0    0  0.00000000000E+00  0.00000000000E+00  0.45593999997E+02  0.45594000000E+02  0.51100000000E-03 0. -1.
         11   -1    0    0    0    0 -0.00000000000E+00 -0.00000000000E+00 -0.45593999997E+02  0.45594000000E+02  0.51100000000E-03 0.  1.
    9900012    2    1    2    0    0  0.83643269781E+00 -0.42508175549E+00  0.71599931486E+00  0.90007758848E+02  0.90000020465E+02 0.  0.
        -12    1    1    2    0    0 -0.83643269781E+00  0.42508175549E+00 -0.71599931486E+00  0.11802411515E+01  0.00000000000E+00 0.  1.
         11    1    3    3    0    0 -0.16088427679E+02 -0.19595669251E+02  0.20762548031E+02  0.32770583754E+02  0.51100000000E-03 0. -1.
        -11    1    3    3    0    0 -0.56101519227E+01 -0.11902166399E+02  0.14595970098E+01  0.13238798785E+02  0.51100000000E-03 0.  1.
        -12    1    3    3    0    0  0.22535012299E+02  0.31072753894E+02 -0.21506145725E+02  0.43998376310E+02  0.00000000000E+00 0.  1.
</event>
<event>
 7    1  0.2232484E-015  0.9000777E+02  0.7816164E-02  0.1186339E+00
        -11   -1    0    0    0    0  0.00000000000E+00  0.00000000000E+00  0.45593999997E+02  0.45594000000E+02  0.51100000000E-03 0.  1.
         11   -1    0    0    0    0 -0.00000000000E+00 -0.00000000000E+00 -0.45593999997E+02  0.45594000000E+02  0.51100000000E-03 0. -1.
    9900012    2    1    2    0    0  0.11015035966E+01 -0.48562462401E-01  0.42103007955E+00  0.90007773406E+02  0.90000035215E+02 0.  0.
        -12    1    1    2    0    0 -0.11015035966E+01  0.48562462401E-01 -0.42103007955E+00  0.11802265943E+01  0.00000000000E+00 0.  1.
         11    1    3    3    0    0  0.33780672039E+02 -0.16292991495E+02  0.23806220872E+01  0.37580084314E+02  0.51100000000E-03 0. -1.
        -11    1    3    3    0    0  0.31478854254E+01 -0.67421876452E+01 -0.61518301203E+01  0.96545994730E+01  0.51100000000E-03 0.  1.
        -12    1    3    3    0    0 -0.35827053868E+02  0.22986616677E+02  0.41922381127E+01  0.42773089619E+02  0.00000000000E+00 0.  1.
</event>
<event>
 7    1  0.2232484E-015  0.9000772E+02  0.7816164E-02  0.1186339E+00
        -11   -1    0    0    0    0  0.00000000000E+00  0.00000000000E+00  0.45593999997E+02  0.45594000000E+02  0.51100000000E-03 0. -1.
         11   -1    0    0    0    0 -0.00000000000E+00 -0.00000000000E+00 -0.45593999997E+02  0.45594000000E+02  0.51100000000E-03 0.  1.
    9900012    2    1    2    0    0 -0.97739828595E+00 -0.65418544350E+00  0.98969976466E-01  0.90007719923E+02  0.89999981026E+02 0.  0.
        -12    1    1    2    0    0  0.97739828595E+00  0.65418544350E+00 -0.98969976466E-01  0.11802800770E+01  0.00000000000E+00 0.  1.
         11    1    3    3    0    0 -0.90251282961E+01 -0.40949458719E+02  0.30665299819E+00  0.41933341704E+02  0.51100000000E-03 0. -1.
        -11    1    3    3    0    0  0.10849090283E+02  0.39104520665E+01  0.87832089985E+00  0.11565718447E+02  0.51100000000E-03 0.  1.
        -12    1    3    3    0    0 -0.28013602729E+01  0.36384821209E+02 -0.10860039216E+01  0.36508659772E+02  0.00000000000E+00 0.  1.
</event>
<event>
 7    1  0.2232484E-015  0.9000768E+02  0.7816164E-02  0.1186339E+00
        -11   -1    0    0    0    0  0.00000000000E+00  0.00000000000E+00  0.45593999997E+02  0.45594000000E+02  0.51100000000E-03 0.  1.
         11   -1    0    0    0    0 -0.00000000000E+00 -0.00000000000E+00 -0.45593999997E+02  0.45594000000E+02  0.51100000000E-03 0. -1.
    9900012    2    1    2    0    0 -0.81233333376E+00 -0.85445317842E+00 -0.56390204839E-01  0.90007679902E+02  0.89999940476E+02 0.  0.
        -12    1    1    2    0    0  0.81233333376E+00  0.85445317842E+00  0.56390204839E-01  0.11803200983E+01  0.00000000000E+00 0.  1.
         11    1    3    3    0    0 -0.26714617113E+01  0.84008229979E+01  0.52601967576E+01  0.10265486102E+02  0.51100000000E-03 0. -1.
        -11    1    3    3    0    0 -0.29213138990E+02 -0.16843391080E+02  0.19772949955E+02  0.39090623721E+02  0.51100000000E-03 0.  1.
         12    1    3    3    0    0  0.31072267367E+02  0.75881149038E+01 -0.25089536918E+02  0.40651570079E+02  0.00000000000E+00 0. -1.
</event>
<event>
 7    1  0.2232484E-015  0.9000770E+02  0.7816164E-02  0.1186339E+00
        -11   -1    0    0    0    0  0.00000000000E+00  0.00000000000E+00  0.45593999997E+02  0.45594000000E+02  0.51100000000E-03 0. -1.
         11   -1    0    0    0    0 -0.00000000000E+00 -0.00000000000E+00 -0.45593999997E+02  0.45594000000E+02  0.51100000000E-03 0.  1.
    9900012    2    1    2    0    0  0.10726521964E+01  0.49236459676E+00 -0.10146186034E-01  0.90007699794E+02  0.89999960632E+02 0.  0.
        -12    1    1    2    0    0 -0.10726521964E+01 -0.49236459676E+00  0.10146186034E-01  0.11803002058E+01  0.00000000000E+00 0.  1.
         11    1    3    3    0    0  0.18966441340E+01  0.55052286965E+01 -0.46466763868E+01  0.74495908395E+01  0.51100000000E-03 0. -1.
        -11    1    3    3    0    0 -0.23845398519E+01 -0.74191132827E+01 -0.38523038298E+02  0.39303355483E+02  0.51100000000E-03 0.  1.
         12    1    3    3    0    0  0.15605479143E+01  0.24062491829E+01  0.43159568499E+02  0.43254753472E+02  0.00000000000E+00 0. -1.
</event>
<event>
 7    1  0.2232484E-015  0.9000770E+02  0.7816164E-02  0.1186339E+00
        -11   -1    0    0    0    0  0.00000000000E+00  0.00000000000E+00  0.45593999997E+02  0.45594000000E+02  0.51100000000E-03 0. -1.
         11   -1    0    0    0    0 -0.00000000000E+00 -0.00000000000E+00 -0.45593999997E+02  0.45594000000E+02  0.51100000000E-03 0.  1.
    9900012    2    1    2    0    0 -0.78446864318E+00 -0.76973053131E+00  0.43038883461E+00  0.90007698898E+02  0.89999959723E+02 0.  0.
        -12    1    1    2    0    0  0.78446864318E+00  0.76973053131E+00 -0.43038883461E+00  0.11803011022E+01  0.00000000000E+00 0.  1.
         11    1    3    3    0    0  0.16171731403E+02 -0.16858189403E+02  0.31628618252E+02  0.39320388341E+02  0.51100000000E-03 0. -1.
        -11    1    3    3    0    0  0.87905190717E+01  0.28530591219E+01 -0.17761154780E+01  0.94110444880E+01  0.51100000000E-03 0.  1.
        -12    1    3    3    0    0 -0.25746719118E+02  0.13235399750E+02 -0.29422113939E+02  0.41276266068E+02  0.00000000000E+00 0.  1.
</event>
<event>
 7    1  0.2232484E-015  0.9000769E+02  0.7816164E-02  0.1186339E+00
        -11   -1    0    0    0    0  0.00000000000E+00  0.00000000000E+00  0.45593999997E+02  0.45594000000E+02  0.51100000000E-03 0.  1.
         11   -1    0    0    0    0 -0.00000000000E+00 -0.00000000000E+00 -0.45593999997E+02  0.45594000000E+02  0.51100000000E-03 0. -1.
    9900012    2    1    2    0    0 -0.96119899781E+00 -0.22396597637E+00 -0.64734982134E+00  0.90007692386E+02  0.89999953126E+02 0.  0.
        -12    1    1    2    0    0  0.96119899781E+00  0.22396597637E+00  0.64734982134E+00  0.11803076138E+01  0.00000000000E+00 0.  1.
         11    1    3    3    0    0  0.23883916886E+02 -0.30212794592E+02  0.10809995098E+02  0.40001380440E+02  0.51100000000E-03 0. -1.
        -11    1    3    3    0    0 -0.70791759755E+01 -0.25707459964E+01  0.53967945014E+01  0.92654659150E+01  0.51100000000E-03 0.  1.
        -12    1    3    3    0    0 -0.17765939908E+02  0.32559574612E+02 -0.16854139420E+02  0.40740846031E+02  0.00000000000E+00 0.  1.
</event>
<event>
 7    1  0.2232484E-015  0.9000772E+02  0.7816164E-02  0.1186339E+00
        -11   -1    0    0    0    0  0.00000000000E+00  0.00000000000E+00  0.45593999997E+02  0.45594000000E+02  0.51100000000E-03 0.  1.
         11   -1    0    0    0    0 -0.00000000000E+00 -0.00000000000E+00 -0.45593999997E+02  0.45594000000E+02  0.51100000000E-03 0. -1.
    9900012    2    1    2    0    0  0.53500765243E+00 -0.27866862453E-02 -0.10520574337E+01  0.90007717916E+02  0.89999978993E+02 0.  0.
        -12    1    1    2    0    0 -0.53500765243E+00  0.27866862453E-02  0.10520574337E+01  0.11802820839E+01  0.00000000000E+00 0.  1.
         11    1    3    3    0    0 -0.19559141797E+02  0.31726200267E+02 -0.71864698941E+01  0.37957307083E+02  0.51100000000E-03 0. -1.
        -11    1    3    3    0    0  0.53800975794E+01  0.75929895322E+01 -0.13515150991E+01  0.94034851690E+01  0.51100000000E-03 0.  1.
        -12    1    3    3    0    0  0.14714051870E+02 -0.39321976485E+02  0.74859275595E+01  0.42646925664E+02  0.00000000000E+00 0.  1.
</event>
<event>
 7    1  0.2232484E-015  0.9000779E+02  0.7816164E-02  0.1186339E+00
        -11   -1    0    0    0    0  0.00000000000E+00  0.00000000000E+00  0.45593999997E+02  0.45594000000E+02  0.51100000000E-03 0.  1.
         11   -1    0    0    0    0 -0.00000000000E+00 -0.00000000000E+00 -0.45593999997E+02  0.45594000000E+02  0.51100000000E-03 0. -1.
    9900012    2    1    2    0    0 -0.17205791609E+00  0.65300585255E+00 -0.96792360379E+00  0.90007789564E+02  0.90000051586E+02 0.  0.
        -12    1    1    2    0    0  0.17205791609E+00 -0.65300585255E+00  0.96792360379E+00  0.11802104358E+01  0.00000000000E+00 0.  1.
         11    1    3    3    0    0 -0.18733371026E+01 -0.10475956187E+02  0.30525139225E+01  0.11071264221E+02  0.51100000000E-03 0. -1.
        -11    1    3    3    0    0 -0.21936302573E+02 -0.22580283430E+01  0.28837755433E+02  0.36303115586E+02  0.51100000000E-03 0.  1.
         12    1    3    3    0    0  0.23637581759E+02  0.13386990383E+02 -0.32858192960E+02  0.42633409757E+02  0.00000000000E+00 0. -1.
</event>
<event>
 7    1  0.2232484E-015  0.9000758E+02  0.7816164E-02  0.1186339E+00
        -11   -1    0    0    0    0  0.00000000000E+00  0.00000000000E+00  0.45593999997E+02  0.45594000000E+02  0.51100000000E-03 0.  1.
         11   -1    0    0    0    0 -0.00000000000E+00 -0.00000000000E+00 -0.45593999997E+02  0.45594000000E+02  0.51100000000E-03 0. -1.
    9900012    2    1    2    0    0  0.10741371354E+01 -0.66920855064E-01 -0.48492078775E+00  0.90007577552E+02  0.89999836775E+02 0.  0.
        -12    1    1    2    0    0 -0.10741371354E+01  0.66920855064E-01  0.48492078775E+00  0.11804224484E+01  0.00000000000E+00 0.  1.
         11    1    3    3    0    0 -0.25923364048E+02  0.21917953645E+02  0.18744904013E+02  0.38778717388E+02  0.51100000000E-03 0. -1.
        -11    1    3    3    0    0 -0.52026055418E+01  0.20223131734E+01 -0.75713056262E+01  0.94064618290E+01  0.51100000000E-03 0.  1.
        -12    1    3    3    0    0  0.32200106725E+02 -0.24007187673E+02 -0.11658519175E+02  0.41822398334E+02  0.00000000000E+00 0.  1.
</event>
<event>
 7    1  0.2232484E-015  0.9000769E+02  0.7816164E-02  0.1186339E+00
        -11   -1    0    0    0    0  0.00000000000E+00  0.00000000000E+00  0.45593999997E+02  0.45594000000E+02  0.51100000000E-03 0. -1.
         11   -1    0    0    0    0 -0.00000000000E+00 -0.00000000000E+00 -0.45593999997E+02  0.45594000000E+02  0.51100000000E-03 0.  1.
    9900012    2    1    2    0    0 -0.10529823043E+01  0.53152317863E+00 -0.42857871881E-01  0.90007692659E+02  0.89999953402E+02 0.  0.
        -12    1    1    2    0    0  0.10529823043E+01 -0.53152317863E+00  0.42857871881E-01  0.11803073413E+01  0.00000000000E+00 0.  1.
         11    1    3    3    0    0 -0.47729839307E+01 -0.28742258163E+01  0.11870358276E+02  0.13112892721E+02  0.51100000000E-03 0. -1.
        -11    1    3    3    0    0 -0.32635003571E+02 -0.10240286061E+02 -0.16164321467E+02  0.37831101034E+02  0.51100000000E-03 0.  1.
         12    1    3    3    0    0  0.36355005197E+02  0.13646035056E+02  0.42511053186E+01  0.39063698904E+02  0.00000000000E+00 0. -1.
</event>
<event>
 7    1  0.2232484E-015  0.9000811E+02  0.7816164E-02  0.1186338E+00
        -11   -1    0    0    0    0  0.00000000000E+00  0.00000000000E+00  0.45593999997E+02  0.45594000000E+02  0.51100000000E-03 0.  1.
         11   -1    0    0    0    0 -0.00000000000E+00 -0.00000000000E+00 -0.45593999997E+02  0.45594000000E+02  0.51100000000E-03 0. -1.
    9900012    2    1    2    0    0 -0.40481982862E-01 -0.10919673950E+01 -0.44510017911E+00  0.90008107737E+02  0.90000373958E+02 0.  0.
        -12    1    1    2    0    0  0.40481982862E-01  0.10919673950E+01  0.44510017911E+00  0.11798922629E+01  0.00000000000E+00 0.  1.
         11    1    3    3    0    0 -0.19536715848E+01  0.16582706149E+01 -0.10472377011E+02  0.10781343823E+02  0.51100000000E-03 0. -1.
        -11    1    3    3    0    0  0.39624664383E+02 -0.73204171139E+01  0.16633996946E+01  0.40329510696E+02  0.51100000000E-03 0.  1.
         12    1    3    3    0    0 -0.37711474781E+02  0.45701791040E+01  0.83638771375E+01  0.38897253219E+02  0.00000000000E+00 0. -1.
</event>
<event>
 7    1  0.2232484E-015  0.9000770E+02  0.7816164E-02  0.1186339E+00
        -11   -1    0    0    0    0  0.00000000000E+00  0.00000000000E+00  0.45593999997E+02  0.45594000000E+02  0.51100000000E-03 0. -1.
         11   -1    0    0    0    0 -0.00000000000E+00 -0.00000000000E+00 -0.45593999997E+02  0.45594000000E+02  0.51100000000E-03 0.  1.
    9900012    2    1    2    0    0 -0.29898371002E+00  0.29976515496E+00 -0.11017518045E+01  0.90007700273E+02  0.89999961117E+02 0.  0.
        -12    1    1    2    0    0  0.29898371002E+00 -0.29976515496E+00  0.11017518045E+01  0.11802997270E+01  0.00000000000E+00 0.  1.
         11    1    3    3    0    0 -0.16349049264E+00  0.13536529842E+02  0.53743242497E+00  0.13548180807E+02  0.51100000000E-03 0. -1.
        -11    1    3    3    0    0  0.28931572297E+02 -0.24335466925E+02 -0.17358611089E+02  0.41600146698E+02  0.51100000000E-03 0.  1.
         12    1    3    3    0    0 -0.29067065515E+02  0.11098702238E+02  0.15719426860E+02  0.34859372769E+02  0.00000000000E+00 0. -1.
</event>
<event>
 7    1  0.2232484E-015  0.9000766E+02  0.7816164E-02  0.1186339E+00
        -11   -1    0    0    0    0  0.00000000000E+00  0.00000000000E+00  0.45593999997E+02  0.45594000000E+02  0.51100000000E-03 0. -1.
         11   -1    0    0    0    0 -0.00000000000E+00 -0.00000000000E+00 -0.45593999997E+02  0.45594000000E+02  0.51100000000E-03 0.  1.
    9900012    2    1    2    0    0  0.72558267580E+00 -0.61278823146E+00  0.70086699782E+00  0.90007663529E+02  0.89999923888E+02 0.  0.
        -12    1    1    2    0    0 -0.72558267580E+00  0.61278823146E+00 -0.70086699782E+00  0.11803364710E+01  0.00000000000E+00 0.  1.
         11    1    3    3    0    0 -0.35845168302E+02 -0.14745208189E+02  0.55382398327E+01  0.39153152566E+02  0.51100000000E-03 0. -1.
        -11    1    3    3    0    0 -0.45854014132E+01  0.76940815973E+01 -0.12498153751E+01  0.90436074925E+01  0.51100000000E-03 0.  1.
        -12    1    3    3    0    0  0.41156152391E+02  0.64383383601E+01 -0.35875574597E+01  0.41810903471E+02  0.00000000000E+00 0.  1.
</event>
<event>
 7    1  0.2232484E-015  0.9000773E+02  0.7816164E-02  0.1186339E+00
        -11   -1    0    0    0    0  0.00000000000E+00  0.00000000000E+00  0.45593999997E+02  0.45594000000E+02  0.51100000000E-03 0.  1.
         11   -1    0    0    0    0 -0.00000000000E+00 -0.00000000000E+00 -0.45593999997E+02  0.45594000000E+02  0.51100000000E-03 0. -1.
    9900012    2    1    2    0    0  0.97108938770E+00  0.63292781228E+00  0.22231620390E+00  0.90007730239E+02  0.89999991478E+02 0.  0.
        -12    1    1    2    0    0 -0.97108938770E+00 -0.63292781228E+00 -0.22231620390E+00  0.11802697611E+01  0.00000000000E+00 0.  1.
         11    1    3    3    0    0  0.70848684846E+01 -0.88371630559E+00  0.57870591850E+01  0.91905587547E+01  0.51100000000E-03 0. -1.
        -11    1    3    3    0    0 -0.71415281376E+01 -0.32109803396E+02  0.20059065271E+02  0.38528002778E+02  0.51100000000E-03 0.  1.
         12    1    3    3    0    0  0.10277490407E+01  0.33626447514E+02 -0.25623808252E+02  0.42289168706E+02  0.00000000000E+00 0. -1.
</event>
<event>
 7    1  0.2232484E-015  0.9000775E+02  0.7816164E-02  0.1186339E+00
        -11   -1    0    0    0    0  0.00000000000E+00  0.00000000000E+00  0.45593999997E+02  0.45594000000E+02  0.51100000000E-03 0.  1.
         11   -1    0    0    0    0 -0.00000000000E+00 -0.00000000000E+00 -0.45593999997E+02  0.45594000000E+02  0.51100000000E-03 0. -1.
    9900012    2    1    2    0    0  0.10700546075E+01  0.40784048344E+00  0.28574518982E+00  0.90007745351E+02  0.90000006790E+02 0.  0.
        -12    1    1    2    0    0 -0.10700546075E+01 -0.40784048344E+00 -0.28574518982E+00  0.11802546490E+01  0.00000000000E+00 0.  1.
         11    1    3    3    0    0  0.26019976770E+01 -0.90512011888E+01  0.65611186562E+01  0.11477931571E+02  0.51100000000E-03 0. -1.
        -11    1    3    3    0    0 -0.24529351537E+02 -0.18033325896E+02  0.17880199742E+02  0.35307102299E+02  0.51100000000E-03 0.  1.
         12    1    3    3    0    0  0.22997408467E+02  0.27492367568E+02 -0.24155573209E+02  0.43222711481E+02  0.00000000000E+00 0. -1.
</event>
<event>
 7    1  0.2232484E-015  0.9000770E+02  0.7816164E-02  0.1186339E+00
        -11   -1    0    0    0    0  0.00000000000E+00  0.00000000000E+00  0.45593999997E+02  0.45594000000E+02  0.51100000000E-03 0. -1.
         11   -1    0    0    0    0 -0.00000000000E+00 -0.00000000000E+00 -0.45593999997E+02  0.45594000000E+02  0.51100000000E-03 0.  1.
    9900012    2    1    2    0    0 -0.88844212694E+00 -0.49858633666E-01  0.77543447493E+00  0.90007697530E+02  0.89999958337E+02 0.  0.
        -12    1    1    2    0    0  0.88844212694E+00  0.49858633666E-01 -0.77543447493E+00  0.11803024702E+01  0.00000000000E+00 0.  1.
         11    1    3    3    0    0 -0.38348842274E+02 -0.18633356186E+02  0.49920131568E+01  0.42927332344E+02  0.51100000000E-03 0. -1.
        -11    1    3    3    0    0  0.35873958628E+01  0.28684970247E+01 -0.83311730134E+01  0.95134708859E+01  0.51100000000E-03 0.  1.
        -12    1    3    3    0    0  0.33873004284E+02  0.15715000528E+02  0.41145943315E+01  0.37566894300E+02  0.00000000000E+00 0.  1.
</event>
<event>
 7    1  0.2232484E-015  0.9000768E+02  0.7816164E-02  0.1186339E+00
        -11   -1    0    0    0    0  0.00000000000E+00  0.00000000000E+00  0.45593999997E+02  0.45594000000E+02  0.51100000000E-03 0.  1.
         11   -1    0    0    0    0 -0.00000000000E+00 -0.00000000000E+00 -0.45593999997E+02  0.45594000000E+02  0.51100000000E-03 0. -1.
    9900012    2    1    2    0    0  0.93152160800E-01 -0.67937652354E+00 -0.96068656326E+00  0.90007682899E+02  0.89999943513E+02 0.  0.
        -12    1    1    2    0    0 -0.93152160800E-01  0.67937652354E+00  0.96068656326E+00  0.11803171009E+01  0.00000000000E+00 0.  1.
         11    1    3    3    0    0 -0.47289559388E+01 -0.20704915649E+02 -0.29290883021E+02  0.36180276184E+02  0.51100000000E-03 0. -1.
        -11    1    3    3    0    0  0.58700845425E+01 -0.35115693512E+01 -0.80004798146E+01  0.10526000635E+02  0.51100000000E-03 0.  1.
        -12    1    3    3    0    0 -0.10479764429E+01  0.23537108477E+02  0.36330676273E+02  0.43301406080E+02  0.00000000000E+00 0.  1.
</event>
<event>
 7    1  0.2232484E-015  0.9000772E+02  0.7816164E-02  0.1186339E+00
        -11   -1    0    0    0    0  0.00000000000E+00  0.00000000000E+00  0.45593999997E+02  0.45594000000E+02  0.51100000000E-03 0. -1.
         11   -1    0    0    0    0 -0.00000000000E+00 -0.00000000000E+00 -0.45593999997E+02  0.45594000000E+02  0.51100000000E-03 0.  1.
    9900012    2    1    2    0    0 -0.78890647644E+00  0.86894841564E+00 -0.12496944518E+00  0.90007719466E+02  0.89999980563E+02 0.  0.
        -12    1    1    2    0    0  0.78890647644E+00 -0.86894841564E+00  0.12496944518E+00  0.11802805344E+01  0.00000000000E+00 0.  1.
         11    1    3    3    0    0  0.29950347373E+02 -0.19737288780E+02 -0.15028616422E+00  0.35869296931E+02  0.51100000000E-03 0. -1.
        -11    1    3    3    0    0  0.28307355643E+01 -0.85361299921E+01 -0.32517618143E+01  0.95630818378E+01  0.51100000000E-03 0.  1.
        -12    1    3    3    0    0 -0.33569989413E+02  0.29142367188E+02  0.32770785334E+01  0.44575340697E+02  0.00000000000E+00 0.  1.
</event>
<event>
 7    1  0.2232484E-015  0.9000780E+02  0.7816164E-02  0.1186339E+00
        -11   -1    0    0    0    0  0.00000000000E+00  0.00000000000E+00  0.45593999997E+02  0.45594000000E+02  0.51100000000E-03 0. -1.
         11   -1    0    0    0    0 -0.00000000000E+00 -0.00000000000E+00 -0.45593999997E+02  0.45594000000E+02  0.51100000000E-03 0.  1.
    9900012    2    1    2    0    0  0.13085466545E+00 -0.11298877633E+01 -0.31482150867E+00  0.90007795830E+02  0.90000057935E+02 0.  0.
        -12    1    1    2    0    0 -0.13085466545E+00  0.11298877633E+01  0.31482150867E+00  0.11802041703E+01  0.00000000000E+00 0.  1.
         11    1    3    3    0    0  0.26635859621E+02 -0.16049373180E+02  0.11094590811E+02  0.33017288543E+02  0.51100000000E-03 0. -1.
        -11    1    3    3    0    0  0.67598112716E-01 -0.13323050139E+02  0.58424647526E+01  0.14547942437E+02  0.51100000000E-03 0.  1.
        -12    1    3    3    0    0 -0.26572603069E+02  0.28242535556E+02 -0.17251877072E+02  0.42442564849E+02  0.00000000000E+00 0.  1.
</event>
<event>
 7    1  0.2232484E-015  0.9000770E+02  0.7816164E-02  0.1186339E+00
        -11   -1    0    0    0    0  0.00000000000E+00  0.00000000000E+00  0.45593999997E+02  0.45594000000E+02  0.51100000000E-03 0.  1.
         11   -1    0    0    0    0 -0.00000000000E+00 -0.00000000000E+00 -0.45593999997E+02  0.45594000000E+02  0.51100000000E-03 0. -1.
    9900012    2    1    2    0    0 -0.80323904029E+00  0.23794432444E+00 -0.83144282212E+00  0.90007700197E+02  0.89999961040E+02 0.  0.
        -12    1    1    2    0    0  0.80323904029E+00 -0.23794432444E+00  0.83144282212E+00  0.11802998025E+01  0.00000000000E+00 0.  1.
         11    1    3    3    0    0 -0.18858177853E+01 -0.67771975184E+01  0.37253312535E+01  0.79602015133E+01  0.51100000000E-03 0. -1.
        -11    1    3    3    0    0 -0.81711212575E-01  0.47733012402E+01  0.38561196945E+02  0.38855591510E+02  0.51100000000E-03 0.  1.
         12    1    3    3    0    0  0.11642899576E+01  0.22418406026E+01 -0.43117971021E+02  0.43191907174E+02  0.00000000000E+00 0. -1.
</event>
<event>
 7    1  0.2232484E-015  0.9000777E+02  0.7816164E-02  0.1186339E+00
        -11   -1    0    0    0    0  0.00000000000E+00  0.00000000000E+00  0.45593999997E+02  0.45594000000E+02  0.51100000000E-03 0.  1.
         11   -1    0    0    0    0 -0.00000000000E+00 -0.00000000000E+00 -0.45593999997E+02  0.45594000000E+02  0.51100000000E-03 0. -1.
    9900012    2    1    2    0    0 -0.76687274805E+00 -0.78852031604E+00 -0.42788343450E+00  0.90007770220E+02  0.90000031987E+02 0.  0.
        -12    1    1    2    0    0  0.76687274805E+00  0.78852031604E+00  0.42788343450E+00  0.11802297802E+01  0.00000000000E+00 0.  1.
         11    1    3    3    0    0  0.23635044526E+02 -0.62976070905E+01 -0.22918120903E+02  0.33518882004E+02  0.51100000000E-03 0. -1.
        -11    1    3    3    0    0  0.99947891013E+01  0.44953432966E+01 -0.53782955052E+01  0.12207783719E+02  0.51100000000E-03 0.  1.
        -12    1    3    3    0    0 -0.34396706375E+02  0.10137434779E+01  0.27868532974E+02  0.44281104496E+02  0.00000000000E+00 0.  1.
</event>
<event>
 7    1  0.2232484E-015  0.9000767E+02  0.7816164E-02  0.1186339E+00
        -11   -1    0    0    0    0  0.00000000000E+00  0.00000000000E+00  0.45593999997E+02  0.45594000000E+02  0.51100000000E-03 0. -1.
         11   -1    0    0    0    0 -0.00000000000E+00 -0.00000000000E+00 -0.45593999997E+02  0.45594000000E+02  0.51100000000E-03 0.  1.
    9900012    2    1    2    0    0  0.49453076611E+00  0.20263830556E+00  0.10524102439E+01  0.90007665182E+02  0.89999925562E+02 0.  0.
        -12    1    1    2    0    0 -0.49453076611E+00 -0.20263830556E+00 -0.10524102439E+01  0.11803348182E+01  0.00000000000E+00 0.  1.
         11    1    3    3    0    0  0.31047996571E+01  0.16895103608E+01 -0.10455328950E+02  0.11036672047E+02  0.51100000000E-03 0. -1.
        -11    1    3    3    0    0 -0.27052985136E+01 -0.39513469281E+02  0.10307834133E+02  0.40925350817E+02  0.51100000000E-03 0.  1.
         12    1    3    3    0    0  0.95029622621E-01  0.38026597226E+02  0.11999050607E+01  0.38045642318E+02  0.00000000000E+00 0. -1.
</event>
<event>
 7    1  0.2232484E-015  0.9000773E+02  0.7816164E-02  0.1186339E+00
        -11   -1    0    0    0    0  0.00000000000E+00  0.00000000000E+00  0.45593999997E+02  0.45594000000E+02  0.51100000000E-03 0.  1.
         11   -1    0    0    0    0 -0.00000000000E+00 -0.00000000000E+00 -0.45593999997E+02  0.45594000000E+02  0.51100000000E-03 0. -1.
    9900012    2    1    2    0    0  0.95922958787E+00  0.39224012618E+00 -0.56485231545E+00  0.90007732294E+02  0.89999993561E+02 0.  0.
        -12    1    1    2    0    0 -0.95922958787E+00 -0.39224012618E+00  0.56485231545E+00  0.11802677057E+01  0.00000000000E+00 0.  1.
         11    1    3    3    0    0  0.16446666232E+01 -0.79144746686E+01 -0.50048590051E+01  0.95074944914E+01  0.51100000000E-03 0. -1.
        -11    1    3    3    0    0 -0.81754717578E+01 -0.30778693171E+02  0.20182843926E+02  0.37702963822E+02  0.51100000000E-03 0.  1.
         12    1    3    3    0    0  0.74900347224E+01  0.39085407966E+02 -0.15742837236E+02  0.42797273981E+02  0.00000000000E+00 0. -1.
</event>
<event>
 7    1  0.2232484E-015  0.9000746E+02  0.7816164E-02  0.1186340E+00
        -11   -1    0    0    0    0  0.00000000000E+00  0.00000000000E+00  0.45593999997E+02  0.45594000000E+02  0.51100000000E-03 0.  1.
         11   -1    0    0    0    0 -0.00000000000E+00 -0.00000000000E+00 -0.45593999997E+02  0.45594000000E+02  0.51100000000E-03 0. -1.
    9900012    2    1    2    0    0  0.32638017294E+00  0.76170414286E+00 -0.84080434740E+00  0.90007462339E+02  0.89999720041E+02 0.  0.
        -12    1    1    2    0    0 -0.32638017294E+00 -0.76170414286E+00  0.84080434740E+00  0.11805376610E+01  0.00000000000E+00 0.  1.
         11    1    3    3    0    0 -0.28602639072E+02 -0.14591007524E+02 -0.24390372186E+02  0.40322434426E+02  0.51100000000E-03 0. -1.
        -11    1    3    3    0    0  0.48963657759E+01  0.48344189537E+01 -0.67279228436E+01  0.96234583431E+01  0.51100000000E-03 0.  1.
        -12    1    3    3    0    0  0.24032653469E+02  0.10518292713E+02  0.30277490682E+02  0.40061569569E+02  0.00000000000E+00 0.  1.
</event>
<event>
 7    1  0.2232484E-015  0.9000725E+02  0.7816164E-02  0.1186340E+00
        -11   -1    0    0    0    0  0.00000000000E+00  0.00000000000E+00  0.45593999997E+02  0.45594000000E+02  0.51100000000E-03 0.  1.
         11   -1    0    0    0    0 -0.00000000000E+00 -0.00000000000E+00 -0.45593999997E+02  0.45594000000E+02  0.51100000000E-03 0. -1.
    9900012    2    1    2    0    0 -0.11328812442E+01 -0.25088895593E+00 -0.21863453859E+00  0.90007251829E+02  0.89999506752E+02 0.  0.
        -12    1    1    2    0    0  0.11328812442E+01  0.25088895593E+00  0.21863453859E+00  0.11807481710E+01  0.00000000000E+00 0.  1.
         11    1    3    3    0    0  0.65873083032E+01  0.27418712104E+01  0.65362192307E+01  0.96763965663E+01  0.51100000000E-03 0. -1.
        -11    1    3    3    0    0 -0.34495971606E+02 -0.14532862990E+02  0.18502624075E+02  0.41755517739E+02  0.51100000000E-03 0.  1.
         12    1    3    3    0    0  0.26775782058E+02  0.11540102823E+02 -0.25257477845E+02  0.38575337524E+02  0.00000000000E+00 0. -1.
</event>
<event>
 7    1  0.2232484E-015  0.9000766E+02  0.7816164E-02  0.1186339E+00
        -11   -1    0    0    0    0  0.00000000000E+00  0.00000000000E+00  0.45593999997E+02  0.45594000000E+02  0.51100000000E-03 0.  1.
         11   -1    0    0    0    0 -0.00000000000E+00 -0.00000000000E+00 -0.45593999997E+02  0.45594000000E+02  0.51100000000E-03 0. -1.
    9900012    2    1    2    0    0  0.80990310808E+00 -0.13754092358E+00  0.84755646445E+00  0.90007655766E+02  0.89999916022E+02 0.  0.
        -12    1    1    2    0    0 -0.80990310808E+00  0.13754092358E+00 -0.84755646445E+00  0.11803442339E+01  0.00000000000E+00 0.  1.
         11    1    3    3    0    0  0.22102498395E+02  0.25301154190E+02  0.24103941764E+02  0.41348142008E+02  0.51100000000E-03 0. -1.
        -11    1    3    3    0    0  0.41735278439E+01 -0.15150820482E+00 -0.92241382070E+01  0.10125513089E+02  0.51100000000E-03 0.  1.
        -12    1    3    3    0    0 -0.25466123131E+02 -0.25287186909E+02 -0.14032247092E+02  0.38534000669E+02  0.00000000000E+00 0.  1.
</event>
<event>
 7    1  0.2232484E-015  0.9000773E+02  0.7816164E-02  0.1186339E+00
        -11   -1    0    0    0    0  0.00000000000E+00  0.00000000000E+00  0.45593999997E+02  0.45594000000E+02  0.51100000000E-03 0.  1.
         11   -1    0    0    0    0 -0.00000000000E+00 -0.00000000000E+00 -0.45593999997E+02  0.45594000000E+02  0.51100000000E-03 0. -1.
    9900012    2    1    2    0    0  0.10581196122E+01 -0.39604700580E+00  0.34141181496E+00  0.90007732076E+02  0.89999993340E+02 0.  0.
        -12    1    1    2    0    0 -0.10581196122E+01  0.39604700580E+00 -0.34141181496E+00  0.11802679238E+01  0.00000000000E+00 0.  1.
         11    1    3    3    0    0  0.43666619886E+00  0.79716302980E+01 -0.45511826021E+01  0.91897132880E+01  0.51100000000E-03 0. -1.
        -11    1    3    3    0    0 -0.26632921476E+02  0.19504507708E+02 -0.15895431620E+02  0.36638819221E+02  0.51100000000E-03 0.  1.
         12    1    3    3    0    0  0.27254374889E+02 -0.27872185012E+02  0.20788026037E+02  0.44179199567E+02  0.00000000000E+00 0. -1.
</event>
<event>
 7    1  0.2232484E-015  0.9000776E+02  0.7816164E-02  0.1186339E+00
        -11   -1    0    0    0    0  0.00000000000E+00  0.00000000000E+00  0.45593999997E+02  0.45594000000E+02  0.51100000000E-03 0.  1.
         11   -1    0    0    0    0 -0.00000000000E+00 -0.00000000000E+00 -0.45593999997E+02  0.45594000000E+02  0.51100000000E-03 0. -1.
    9900012    2    1    2    0    0  0.94960526973E+00 -0.38433859376E+00  0.58609833944E+00  0.90007755285E+02  0.90000016855E+02 0.  0.
        -12    1    1    2    0    0 -0.94960526973E+00  0.38433859376E+00 -0.58609833944E+00  0.11802447146E+01  0.00000000000E+00 0.  1.
         11    1    3    3    0    0 -0.10364940869E+02 -0.32647044776E+02 -0.77080216642E+01  0.35109473508E+02  0.51100000000E-03 0. -1.
        -11    1    3    3    0    0  0.30956539321E+01 -0.98983224139E+01  0.57732429088E+01  0.11869717512E+02  0.51100000000E-03 0.  1.
        -12    1    3    3    0    0  0.82188922066E+01  0.42161028596E+02  0.25208770948E+01  0.43028564265E+02  0.00000000000E+00 0.  1.
</event>
<event>
 7    1  0.2232484E-015  0.9000775E+02  0.7816164E-02  0.1186339E+00
        -11   -1    0    0    0    0  0.00000000000E+00  0.00000000000E+00  0.45593999997E+02  0.45594000000E+02  0.51100000000E-03 0. -1.
         11   -1    0    0    0    0 -0.00000000000E+00 -0.00000000000E+00 -0.45593999997E+02  0.45594000000E+02  0.51100000000E-03 0.  1.
    9900012    2    1    2    0    0 -0.83203149007E-01 -0.11575707586E+01  0.21472015049E+00  0.90007746820E+02  0.90000008278E+02 0.  0.
        -12    1    1    2    0    0  0.83203149007E-01  0.11575707586E+01 -0.21472015049E+00  0.11802531797E+01  0.00000000000E+00 0.  1.
         11    1    3    3    0    0  0.57682285984E+01 -0.81878156548E+01  0.51439267582E+01  0.11259341416E+02  0.51100000000E-03 0. -1.
        -11    1    3    3    0    0 -0.36113619628E+02 -0.16156382389E+02  0.34555098702E+01  0.39713508574E+02  0.51100000000E-03 0.  1.
         12    1    3    3    0    0  0.30262187880E+02  0.23186627285E+02 -0.83847164779E+01  0.39034896831E+02  0.00000000000E+00 0. -1.
</event>
<event>
 7    1  0.2232484E-015  0.9000773E+02  0.7816164E-02  0.1186339E+00
        -11   -1    0    0    0    0  0.00000000000E+00  0.00000000000E+00  0.45593999997E+02  0.45594000000E+02  0.51100000000E-03 0.  1.
         11   -1    0    0    0    0 -0.00000000000E+00 -0.00000000000E+00 -0.45593999997E+02  0.45594000000E+02  0.51100000000E-03 0. -1.
    9900012    2    1    2    0    0  0.22412142592E-01 -0.19355803342E+00 -0.11640732663E+01  0.90007731562E+02  0.89999992819E+02 0.  0.
        -12    1    1    2    0    0 -0.22412142592E-01  0.19355803342E+00  0.11640732663E+01  0.11802684380E+01  0.00000000000E+00 0.  1.
         11    1    3    3    0    0  0.26563830636E+01  0.37599912830E+01 -0.62303741183E+01  0.77467068709E+01  0.51100000000E-03 0. -1.
        -11    1    3    3    0    0 -0.48487756968E+01  0.35614333390E+02 -0.13632458152E+02  0.38441322611E+02  0.51100000000E-03 0.  1.
         12    1    3    3    0    0  0.22148047757E+01 -0.39567882706E+02  0.18698759005E+02  0.43819702080E+02  0.00000000000E+00 0. -1.
</event>
<event>
 7    1  0.2232484E-015  0.9000771E+02  0.7816164E-02  0.1186339E+00
        -11   -1    0    0    0    0  0.00000000000E+00  0.00000000000E+00  0.45593999997E+02  0.45594000000E+02  0.51100000000E-03 0. -1.
         11   -1    0    0    0    0 -0.00000000000E+00 -0.00000000000E+00 -0.45593999997E+02  0.45594000000E+02  0.51100000000E-03 0.  1.
    9900012    2    1    2    0    0  0.69503077417E+00 -0.34444027914E+00  0.88959882659E+00  0.90007706411E+02  0.89999967336E+02 0.  0.
        -12    1    1    2    0    0 -0.69503077417E+00  0.34444027914E+00 -0.88959882659E+00  0.11802935886E+01  0.00000000000E+00 0.  1.
         11    1    3    3    0    0  0.38651366297E+02 -0.18886854410E+02 -0.85902674023E+01  0.43868372211E+02  0.51100000000E-03 0. -1.
        -11    1    3    3    0    0 -0.42312485052E+01 -0.70082374250E+00 -0.31351417512E+01  0.53126012359E+01  0.51100000000E-03 0.  1.
        -12    1    3    3    0    0 -0.33725087018E+02  0.19243237874E+02  0.12615007980E+02  0.40826732964E+02  0.00000000000E+00 0.  1.
</event>
<event>
 7    1  0.2232484E-015  0.9000788E+02  0.7816164E-02  0.1186339E+00
        -11   -1    0    0    0    0  0.00000000000E+00  0.00000000000E+00  0.45593999997E+02  0.45594000000E+02  0.51100000000E-03 0. -1.
         11   -1    0    0    0    0 -0.00000000000E+00 -0.00000000000E+00 -0.45593999997E+02  0.45594000000E+02  0.51100000000E-03 0.  1.
    9900012    2    1    2    0    0 -0.55839976381E+00 -0.10099229835E+01  0.24683997932E+00  0.90007879369E+02  0.90000142576E+02 0.  0.
        -12    1    1    2    0    0  0.55839976381E+00  0.10099229835E+01 -0.24683997932E+00  0.11801206312E+01  0.00000000000E+00 0.  1.
         11    1    3    3    0    0  0.35024640072E+01  0.33820814092E+02  0.18634917304E+02  0.38773378279E+02  0.51100000000E-03 0. -1.
        -11    1    3    3    0    0  0.10135034291E+02  0.33047985974E-02 -0.27812007492E+01  0.10509710218E+02  0.51100000000E-03 0.  1.
        -12    1    3    3    0    0 -0.14195898062E+02 -0.34834041874E+02 -0.15606876576E+02  0.40724790871E+02  0.00000000000E+00 0.  1.
</event>
<event>
 7    1  0.2232484E-015  0.9000772E+02  0.7816164E-02  0.1186339E+00
        -11   -1    0    0    0    0  0.00000000000E+00  0.00000000000E+00  0.45593999997E+02  0.45594000000E+02  0.51100000000E-03 0.  1.
         11   -1    0    0    0    0 -0.00000000000E+00 -0.00000000000E+00 -0.45593999997E+02  0.45594000000E+02  0.51100000000E-03 0. -1.
    9900012    2    1    2    0    0  0.10465902397E+01 -0.53140071797E+00 -0.12377360746E+00  0.90007721322E+02  0.89999982443E+02 0.  0.
        -12    1    1    2    0    0 -0.10465902397E+01  0.53140071797E+00  0.12377360746E+00  0.11802786784E+01  0.00000000000E+00 0.  1.
         11    1    3    3    0    0  0.69343507242E+01 -0.14663181955E+02 -0.34422569098E+02  0.38052692265E+02  0.51100000000E-03 0. -1.
        -11    1    3    3    0    0 -0.50921541713E+01 -0.62944160641E+01 -0.36265998608E+01  0.88714110774E+01  0.51100000000E-03 0.  1.
        -12    1    3    3    0    0 -0.79560631316E+00  0.20426197301E+02  0.37925395352E+02  0.43083617979E+02  0.00000000000E+00 0.  1.
</event>
<event>
 7    1  0.2232484E-015  0.9000768E+02  0.7816164E-02  0.1186339E+00
        -11   -1    0    0    0    0  0.00000000000E+00  0.00000000000E+00  0.45593999997E+02  0.45594000000E+02  0.51100000000E-03 0. -1.
         11   -1    0    0    0    0 -0.00000000000E+00 -0.00000000000E+00 -0.45593999997E+02  0.45594000000E+02  0.51100000000E-03 0.  1.
    9900012    2    1    2    0    0 -0.89849057012E+00  0.76466245866E+00 -0.34164265346E-01  0.90007677511E+02  0.89999938054E+02 0.  0.
        -12    1    1    2    0    0  0.89849057012E+00 -0.76466245866E+00  0.34164265346E-01  0.11803224887E+01  0.00000000000E+00 0.  1.
         11    1    3    3    0    0 -0.87335577719E+01  0.35675861286E+02  0.22057726915E+02  0.42843732643E+02  0.51100000000E-03 0. -1.
        -11    1    3    3    0    0  0.68848656944E+01 -0.87543119908E+00 -0.72010615120E+01  0.10001152062E+02  0.51100000000E-03 0.  1.
        -12    1    3    3    0    0  0.95020150736E+00 -0.34035767628E+02 -0.14890829668E+02  0.37162792806E+02  0.00000000000E+00 0.  1.
</event>
<event>
 7    1  0.2232484E-015  0.9000772E+02  0.7816164E-02  0.1186339E+00
        -11   -1    0    0    0    0  0.00000000000E+00  0.00000000000E+00  0.45593999997E+02  0.45594000000E+02  0.51100000000E-03 0.  1.
         11   -1    0    0    0    0 -0.00000000000E+00 -0.00000000000E+00 -0.45593999997E+02  0.45594000000E+02  0.51100000000E-03 0. -1.
    9900012    2    1    2    0    0  0.48270812601E+00  0.10728919540E+01  0.94627024441E-01  0.90007720985E+02  0.89999982102E+02 0.  0.
        -12    1    1    2    0    0 -0.48270812601E+00 -0.10728919540E+01 -0.94627024441E-01  0.11802790151E+01  0.00000000000E+00 0.  1.
         11    1    3    3    0    0 -0.51546953639E+01 -0.21993558897E+02 -0.28995700914E+02  0.36756471390E+02  0.51100000000E-03 0. -1.
        -11    1    3    3    0    0  0.43296049158E+01 -0.65529111428E+01 -0.40064272300E+01  0.88168918890E+01  0.51100000000E-03 0.  1.
        -12    1    3    3    0    0  0.13077985741E+01  0.29619361994E+02  0.33096755169E+02  0.44434357706E+02  0.00000000000E+00 0.  1.
</event>
<event>
 7    1  0.2232484E-015  0.9000773E+02  0.7816164E-02  0.1186339E+00
        -11   -1    0    0    0    0  0.00000000000E+00  0.00000000000E+00  0.45593999997E+02  0.45594000000E+02  0.51100000000E-03 0.  1.
         11   -1    0    0    0    0 -0.00000000000E+00 -0.00000000000E+00 -0.45593999997E+02  0.45594000000E+02  0.51100000000E-03 0. -1.
    9900012    2    1    2    0    0  0.22391795416E+00 -0.10010566173E+01 -0.58377221166E+00  0.90007727321E+02  0.89999988522E+02 0.  0.
        -12    1    1    2    0    0 -0.22391795416E+00  0.10010566173E+01  0.58377221166E+00  0.11802726788E+01  0.00000000000E+00 0.  1.
         11    1    3    3    0    0  0.29179514631E+02 -0.15861927751E+02 -0.23027644559E+02  0.40414319743E+02  0.51100000000E-03 0. -1.
        -11    1    3    3    0    0  0.42997848461E+00  0.64510490925E+01 -0.52649569388E+01  0.83379066749E+01  0.51100000000E-03 0.  1.
        -12    1    3    3    0    0 -0.29385575162E+02  0.84098220411E+01  0.27708829286E+02  0.41255500903E+02  0.00000000000E+00 0.  1.
</event>
<event>
 7    1  0.2232484E-015  0.9000787E+02  0.7816164E-02  0.1186339E+00
        -11   -1    0    0    0    0  0.00000000000E+00  0.00000000000E+00  0.45593999997E+02  0.45594000000E+02  0.51100000000E-03 0.  1.
         11   -1    0    0    0    0 -0.00000000000E+00 -0.00000000000E+00 -0.45593999997E+02  0.45594000000E+02  0.51100000000E-03 0. -1.
    9900012    2    1    2    0    0 -0.73313798206E+00  0.40995357367E+00 -0.82895429940E+00  0.90007865065E+02  0.90000128084E+02 0.  0.
        -12    1    1    2    0    0  0.73313798206E+00 -0.40995357367E+00  0.82895429940E+00  0.11801349346E+01  0.00000000000E+00 0.  1.
         11    1    3    3    0    0  0.38336936934E+02  0.10291722013E+02  0.19293543919E+01  0.39741196309E+02  0.51100000000E-03 0. -1.
        -11    1    3    3    0    0 -0.10669416554E+01 -0.31978197923E+00  0.92217161617E+01  0.92887391091E+01  0.51100000000E-03 0.  1.
        -12    1    3    3    0    0 -0.38003133261E+02 -0.95619864601E+01 -0.11980024853E+02  0.40977929647E+02  0.00000000000E+00 0.  1.
</event>
<event>
 7    1  0.2232484E-015  0.9000773E+02  0.7816164E-02  0.1186339E+00
        -11   -1    0    0    0    0  0.00000000000E+00  0.00000000000E+00  0.45593999997E+02  0.45594000000E+02  0.51100000000E-03 0.  1.
         11   -1    0    0    0    0 -0.00000000000E+00 -0.00000000000E+00 -0.45593999997E+02  0.45594000000E+02  0.51100000000E-03 0. -1.
    9900012    2    1    2    0    0  0.61107715945E+00  0.92545308815E+00  0.40394170388E+00  0.90007725619E+02  0.89999986798E+02 0.  0.
        -12    1    1    2    0    0 -0.61107715945E+00 -0.92545308815E+00 -0.40394170388E+00  0.11802743805E+01  0.00000000000E+00 0.  1.
         11    1    3    3    0    0  0.15580001208E+02 -0.22327946694E+02 -0.23720973833E+02  0.36110361962E+02  0.51100000000E-03 0. -1.
        -11    1    3    3    0    0  0.98659121339E+01  0.23784970964E+00 -0.32134051266E+01  0.10378765220E+02  0.51100000000E-03 0.  1.
        -12    1    3    3    0    0 -0.24834836182E+02  0.23015550072E+02  0.27338320663E+02  0.43518598438E+02  0.00000000000E+00 0.  1.
</event>
<event>
 7    1  0.2232484E-015  0.9000770E+02  0.7816164E-02  0.1186339E+00
        -11   -1    0    0    0    0  0.00000000000E+00  0.00000000000E+00  0.45593999997E+02  0.45594000000E+02  0.51100000000E-03 0. -1.
         11   -1    0    0    0    0 -0.00000000000E+00 -0.00000000000E+00 -0.45593999997E+02  0.45594000000E+02  0.51100000000E-03 0.  1.
    9900012    2    1    2    0    0 -0.57826129764E+00  0.64204590259E+00  0.80405561363E+00  0.90007697285E+02  0.89999958089E+02 0.  0.
        -12    1    1    2    0    0  0.57826129764E+00 -0.64204590259E+00 -0.80405561363E+00  0.11803027151E+01  0.00000000000E+00 0.  1.
         11    1    3    3    0    0  0.18341387395E+02 -0.11593070175E+02  0.29714248401E+02  0.36793237504E+02  0.51100000000E-03 0. -1.
        -11    1    3    3    0    0  0.22403912920E+01  0.70390047108E+01  0.76624321176E+01  0.10643298675E+02  0.51100000000E-03 0.  1.
        -12    1    3    3    0    0 -0.21160039985E+02  0.51961113668E+01 -0.36572624905E+02  0.42571161107E+02  0.00000000000E+00 0.  1.
</event>
<event>
 7    1  0.2232484E-015  0.9000786E+02  0.7816164E-02  0.1186339E+00
        -11   -1    0    0    0    0  0.00000000000E+00  0.00000000000E+00  0.45593999997E+02  0.45594000000E+02  0.51100000000E-03 0. -1.
         11   -1    0    0    0    0 -0.00000000000E+00 -0.00000000000E+00 -0.45593999997E+02  0.45594000000E+02  0.51100000000E-03 0.  1.
    9900012    2    1    2    0    0 -0.10257219324E+01 -0.47385634990E+00  0.34071660502E+00  0.90007858853E+02  0.90000121789E+02 0.  0.
        -12    1    1    2    0    0  0.10257219324E+01  0.47385634990E+00 -0.34071660502E+00  0.11801411475E+01  0.00000000000E+00 0.  1.
         11    1    3    3    0    0  0.47608845929E+01 -0.31481983600E+01  0.35547605542E+02  0.36002908702E+02  0.51100000000E-03 0. -1.
        -11    1    3    3    0    0  0.30778463432E+00 -0.12168964338E+02  0.30244127828E+01  0.12542946121E+02  0.51100000000E-03 0.  1.
        -12    1    3    3    0    0 -0.60943911597E+01  0.14843306349E+02 -0.38231301719E+02  0.41462004029E+02  0.00000000000E+00 0.  1.
</event>
<event>
 7    1  0.2232484E-015  0.9000767E+02  0.7816164E-02  0.1186339E+00
        -11   -1    0    0    0    0  0.00000000000E+00  0.00000000000E+00  0.45593999997E+02  0.45594000000E+02  0.51100000000E-03 0. -1.
         11   -1    0    0    0    0 -0.00000000000E+00 -0.00000000000E+00 -0.45593999997E+02  0.45594000000E+02  0.51100000000E-03 0.  1.
    9900012    2    1    2    0    0  0.10405780206E+01 -0.54919895114E+00  0.93607094203E-01  0.90007667677E+02  0.89999928090E+02 0.  0.
        -12    1    1    2    0    0 -0.10405780206E+01  0.54919895114E+00 -0.93607094203E-01  0.11803323231E+01  0.00000000000E+00 0.  1.
         11    1    3    3    0    0 -0.15860997149E+02  0.28280222027E+02  0.28224367071E+02  0.42987871374E+02  0.51100000000E-03 0. -1.
        -11    1    3    3    0    0  0.24610739525E+01  0.75493063250E+00 -0.80652469511E+01  0.84661097266E+01  0.51100000000E-03 0.  1.
        -12    1    3    3    0    0  0.14440501217E+02 -0.29584351610E+02 -0.20065513026E+02  0.38553686576E+02  0.00000000000E+00 0.  1.
</event>
<event>
 7    1  0.2232484E-015  0.9000781E+02  0.7816164E-02  0.1186339E+00
        -11   -1    0    0    0    0  0.00000000000E+00  0.00000000000E+00  0.45593999997E+02  0.45594000000E+02  0.51100000000E-03 0.  1.
         11   -1    0    0    0    0 -0.00000000000E+00 -0.00000000000E+00 -0.45593999997E+02  0.45594000000E+02  0.51100000000E-03 0. -1.
    9900012    2    1    2    0    0 -0.90190996861E+00 -0.97909115012E-01  0.75486359587E+00  0.90007810678E+02  0.90000072979E+02 0.  0.
        -12    1    1    2    0    0  0.90190996861E+00  0.97909115012E-01 -0.75486359587E+00  0.11801893215E+01  0.00000000000E+00 0.  1.
         11    1    3    3    0    0  0.19732264175E+02 -0.27901814207E+02 -0.21432287470E+02  0.40338770829E+02  0.51100000000E-03 0. -1.
        -11    1    3    3    0    0  0.24668693233E+01 -0.36736231991E+01 -0.59323678242E+00  0.44646256067E+01  0.51100000000E-03 0.  1.
        -12    1    3    3    0    0 -0.23101043467E+02  0.31477528291E+02  0.22780387848E+02  0.45204414243E+02  0.00000000000E+00 0.  1.
</event>
<event>
 7    1  0.2232484E-015  0.9000778E+02  0.7816164E-02  0.1186339E+00
        -11   -1    0    0    0    0  0.00000000000E+00  0.00000000000E+00  0.45593999997E+02  0.45594000000E+02  0.51100000000E-03 0.  1.
         11   -1    0    0    0    0 -0.00000000000E+00 -0.00000000000E+00 -0.45593999997E+02  0.45594000000E+02  0.51100000000E-03 0. -1.
    9900012    2    1    2    0    0 -0.24253154128E+00  0.52846809884E+00 -0.10270422260E+01  0.90007781455E+02  0.90000043370E+02 0.  0.
        -12    1    1    2    0    0  0.24253154128E+00 -0.52846809884E+00  0.10270422260E+01  0.11802185450E+01  0.00000000000E+00 0.  1.
         11    1    3    3    0    0  0.40807615332E+01 -0.34811078080E+02 -0.12737573308E+02  0.37292218302E+02  0.51100000000E-03 0. -1.
        -11    1    3    3    0    0  0.58819380804E+01 -0.62231895738E+01  0.12015505986E+01  0.86469074330E+01  0.51100000000E-03 0.  1.
        -12    1    3    3    0    0 -0.10205231155E+02  0.41562735753E+02  0.10508980484E+02  0.44068655720E+02  0.00000000000E+00 0.  1.
</event>
<event>
 7    1  0.2232484E-015  0.9000765E+02  0.7816164E-02  0.1186339E+00
        -11   -1    0    0    0    0  0.00000000000E+00  0.00000000000E+00  0.45593999997E+02  0.45594000000E+02  0.51100000000E-03 0.  1.
         11   -1    0    0    0    0 -0.00000000000E+00 -0.00000000000E+00 -0.45593999997E+02  0.45594000000E+02  0.51100000000E-03 0. -1.
    9900012    2    1    2    0    0  0.32558611609E+00 -0.11341616160E+01  0.29950930533E-01  0.90007650074E+02  0.89999910255E+02 0.  0.
        -12    1    1    2    0    0 -0.32558611609E+00  0.11341616160E+01 -0.29950930533E-01  0.11803499262E+01  0.00000000000E+00 0.  1.
         11    1    3    3    0    0 -0.44785227741E+00  0.17484295797E+02 -0.33806007996E+02  0.38062413850E+02  0.51100000000E-03 0. -1.
        -11    1    3    3    0    0 -0.60279085018E+01  0.59882548485E+01 -0.12143804761E+01  0.85830995123E+01  0.51100000000E-03 0.  1.
        -12    1    3    3    0    0  0.68013468953E+01 -0.24606712261E+02  0.35050339403E+02  0.43362136711E+02  0.00000000000E+00 0.  1.
</event>
<event>
 7    1  0.2232484E-015  0.9000774E+02  0.7816164E-02  0.1186339E+00
        -11   -1    0    0    0    0  0.00000000000E+00  0.00000000000E+00  0.45593999997E+02  0.45594000000E+02  0.51100000000E-03 0.  1.
         11   -1    0    0    0    0 -0.00000000000E+00 -0.00000000000E+00 -0.45593999997E+02  0.45594000000E+02  0.51100000000E-03 0. -1.
    9900012    2    1    2    0    0  0.50218504884E+00 -0.78217166778E+00 -0.72734823503E+00  0.90007738251E+02  0.89999999596E+02 0.  0.
        -12    1    1    2    0    0 -0.50218504884E+00  0.78217166778E+00  0.72734823503E+00  0.11802617490E+01  0.00000000000E+00 0.  1.
         11    1    3    3    0    0  0.17378891440E+02 -0.29276590625E+02 -0.75040662479E+01  0.34863385332E+02  0.51100000000E-03 0. -1.
        -11    1    3    3    0    0  0.40622646608E+01 -0.68117384615E+00 -0.13354250127E+02  0.13975048791E+02  0.51100000000E-03 0.  1.
        -12    1    3    3    0    0 -0.20938971052E+02  0.29175592803E+02  0.20130968140E+02  0.41169304128E+02  0.00000000000E+00 0.  1.
</event>
<event>
 7    1  0.2232484E-015  0.9000776E+02  0.7816164E-02  0.1186339E+00
        -11   -1    0    0    0    0  0.00000000000E+00  0.00000000000E+00  0.45593999997E+02  0.45594000000E+02  0.51100000000E-03 0. -1.
         11   -1    0    0    0    0 -0.00000000000E+00 -0.00000000000E+00 -0.45593999997E+02  0.45594000000E+02  0.51100000000E-03 0.  1.
    9900012    2    1    2    0    0 -0.56234478946E+00 -0.46883077851E-01  0.10365954033E+01  0.90007762856E+02  0.90000024526E+02 0.  0.
        -12    1    1    2    0    0  0.56234478946E+00  0.46883077851E-01 -0.10365954033E+01  0.11802371437E+01  0.00000000000E+00 0.  1.
         11    1    3    3    0    0 -0.25062270487E+02  0.11451978305E+02  0.27094939676E+02  0.38644546386E+02  0.51100000000E-03 0. -1.
        -11    1    3    3    0    0  0.43010002300E+01  0.68841795729E+01  0.53646478223E+01  0.97298498389E+01  0.51100000000E-03 0.  1.
        -12    1    3    3    0    0  0.20198925467E+02 -0.18383040956E+02 -0.31422992095E+02  0.41633366631E+02  0.00000000000E+00 0.  1.
</event>
<event>
 7    1  0.2232484E-015  0.9000772E+02  0.7816164E-02  0.1186339E+00
        -11   -1    0    0    0    0  0.00000000000E+00  0.00000000000E+00  0.45593999997E+02  0.45594000000E+02  0.51100000000E-03 0.  1.
         11   -1    0    0    0    0 -0.00000000000E+00 -0.00000000000E+00 -0.45593999997E+02  0.45594000000E+02  0.51100000000E-03 0. -1.
    9900012    2    1    2    0    0  0.46092923570E+00 -0.29730771010E+00 -0.10450910294E+01  0.90007719146E+02  0.89999980239E+02 0.  0.
        -12    1    1    2    0    0 -0.46092923570E+00  0.29730771010E+00  0.10450910294E+01  0.11802808541E+01  0.00000000000E+00 0.  1.
         11    1    3    3    0    0  0.71478699096E+01  0.49128070020E+01  0.26491278483E+01  0.90689357425E+01  0.51100000000E-03 0. -1.
        -11    1    3    3    0    0  0.23373303629E+01  0.23227427168E+02  0.28636018903E+02  0.36945880216E+02  0.51100000000E-03 0.  1.
         12    1    3    3    0    0 -0.90242710369E+01 -0.28437541880E+02 -0.32330237780E+02  0.43992903188E+02  0.00000000000E+00 0. -1.
</event>
<event>
 7    1  0.2232484E-015  0.9000776E+02  0.7816164E-02  0.1186339E+00
        -11   -1    0    0    0    0  0.00000000000E+00  0.00000000000E+00  0.45593999997E+02  0.45594000000E+02  0.51100000000E-03 0. -1.
         11   -1    0    0    0    0 -0.00000000000E+00 -0.00000000000E+00 -0.45593999997E+02  0.45594000000E+02  0.51100000000E-03 0.  1.
    9900012    2    1    2    0    0 -0.52440430884E+00 -0.55235247796E+00  0.90159522159E+00  0.90007759735E+02  0.90000021364E+02 0.  0.
        -12    1    1    2    0    0  0.52440430884E+00  0.55235247796E+00 -0.90159522159E+00  0.11802402648E+01  0.00000000000E+00 0.  1.
         11    1    3    3    0    0 -0.68167960312E+01  0.94095797435E+01  0.37166797258E+02  0.38940720561E+02  0.51100000000E-03 0. -1.
        -11    1    3    3    0    0 -0.84031211535E+01 -0.46160999794E+01  0.19431686524E+01  0.97824704862E+01  0.51100000000E-03 0.  1.
        -12    1    3    3    0    0  0.14695512876E+02 -0.53458322421E+01 -0.38208370689E+02  0.41284568688E+02  0.00000000000E+00 0.  1.
</event>
<event>
 7    1  0.2232484E-015  0.9000781E+02  0.7816164E-02  0.1186339E+00
        -11   -1    0    0    0    0  0.00000000000E+00  0.00000000000E+00  0.45593999997E+02  0.45594000000E+02  0.51100000000E-03 0. -1.
         11   -1    0    0    0    0 -0.00000000000E+00 -0.00000000000E+00 -0.45593999997E+02  0.45594000000E+02  0.51100000000E-03 0.  1.
    9900012    2    1    2    0    0  0.11466278630E+01  0.26887008041E+00 -0.76147441250E-01  0.90007811452E+02  0.90000073763E+02 0.  0.
        -12    1    1    2    0    0 -0.11466278630E+01 -0.26887008041E+00  0.76147441250E-01  0.11801885481E+01  0.00000000000E+00 0.  1.
         11    1    3    3    0    0 -0.21388846406E+02 -0.24495416193E+02 -0.27328936150E+02  0.42477981549E+02  0.51100000000E-03 0. -1.
        -11    1    3    3    0    0  0.45912228848E+01 -0.20381996451E+01  0.94149315061E+01  0.10671200537E+02  0.51100000000E-03 0.  1.
        -12    1    3    3    0    0  0.17944251385E+02  0.26802485919E+02  0.17837857203E+02  0.36858629366E+02  0.00000000000E+00 0.  1.
</event>
<event>
 7    1  0.2232484E-015  0.9000771E+02  0.7816164E-02  0.1186339E+00
        -11   -1    0    0    0    0  0.00000000000E+00  0.00000000000E+00  0.45593999997E+02  0.45594000000E+02  0.51100000000E-03 0.  1.
         11   -1    0    0    0    0 -0.00000000000E+00 -0.00000000000E+00 -0.45593999997E+02  0.45594000000E+02  0.51100000000E-03 0. -1.
    9900012    2    1    2    0    0  0.41397139795E+00  0.11009227217E+01 -0.98400901167E-01  0.90007709402E+02  0.89999970367E+02 0.  0.
        -12    1    1    2    0    0 -0.41397139795E+00 -0.11009227217E+01  0.98400901167E-01  0.11802905976E+01  0.00000000000E+00 0.  1.
         11    1    3    3    0    0  0.55179605162E+01 -0.29186928637E+02 -0.20408776171E+02  0.36039462212E+02  0.51100000000E-03 0. -1.
        -11    1    3    3    0    0 -0.55210854017E+01 -0.64325027964E+01 -0.45509748825E+01  0.96213745837E+01  0.51100000000E-03 0.  1.
        -12    1    3    3    0    0  0.41709628341E+00  0.36720354155E+02  0.24861350153E+02  0.44346872606E+02  0.00000000000E+00 0.  1.
</event>
<event>
 7    1  0.2232484E-015  0.9000773E+02  0.7816164E-02  0.1186339E+00
        -11   -1    0    0    0    0  0.00000000000E+00  0.00000000000E+00  0.45593999997E+02  0.45594000000E+02  0.51100000000E-03 0.  1.
         11   -1    0    0    0    0 -0.00000000000E+00 -0.00000000000E+00 -0.45593999997E+02  0.45594000000E+02  0.51100000000E-03 0. -1.
    9900012    2    1    2    0    0 -0.54182245020E+00  0.14731223836E+00 -0.10381571386E+01  0.90007727698E+02  0.89999988903E+02 0.  0.
        -12    1    1    2    0    0  0.54182245020E+00 -0.14731223836E+00  0.10381571386E+01  0.11802723022E+01  0.00000000000E+00 0.  1.
         11    1    3    3    0    0 -0.20851854630E+01  0.66541110674E+01  0.10418753199E+02  0.12536969769E+02  0.51100000000E-03 0. -1.
        -11    1    3    3    0    0 -0.19641667580E+02  0.21131237366E+02  0.16122209156E+02  0.33049204624E+02  0.51100000000E-03 0.  1.
         12    1    3    3    0    0  0.21185030593E+02 -0.27638036195E+02 -0.27579119493E+02  0.44421553305E+02  0.00000000000E+00 0. -1.
</event>
<event>
 7    1  0.2232484E-015  0.9000777E+02  0.7816164E-02  0.1186339E+00
        -11   -1    0    0    0    0  0.00000000000E+00  0.00000000000E+00  0.45593999997E+02  0.45594000000E+02  0.51100000000E-03 0.  1.
         11   -1    0    0    0    0 -0.00000000000E+00 -0.00000000000E+00 -0.45593999997E+02  0.45594000000E+02  0.51100000000E-03 0. -1.
    9900012    2    1    2    0    0  0.51501098927E+00 -0.10143530858E+01  0.31431626656E+00  0.90007769846E+02  0.90000031608E+02 0.  0.
        -12    1    1    2    0    0 -0.51501098927E+00  0.10143530858E+01 -0.31431626656E+00  0.11802301543E+01  0.00000000000E+00 0.  1.
         11    1    3    3    0    0  0.42296806601E+01 -0.66620471930E+01  0.45927629515E+01  0.91305280832E+01  0.51100000000E-03 0. -1.
        -11    1    3    3    0    0 -0.32396692650E+01  0.26446921420E+02  0.30407997143E+02  0.40429956716E+02  0.51100000000E-03 0.  1.
         12    1    3    3    0    0 -0.47500040581E+00 -0.20799227313E+02 -0.34686443828E+02  0.40447285046E+02  0.00000000000E+00 0. -1.
</event>
<event>
 7    1  0.2232484E-015  0.9000772E+02  0.7816164E-02  0.1186339E+00
        -11   -1    0    0    0    0  0.00000000000E+00  0.00000000000E+00  0.45593999997E+02  0.45594000000E+02  0.51100000000E-03 0.  1.
         11   -1    0    0    0    0 -0.00000000000E+00 -0.00000000000E+00 -0.45593999997E+02  0.45594000000E+02  0.51100000000E-03 0. -1.
    9900012    2    1    2    0    0  0.11515576850E+01 -0.19105499709E+00  0.17453893009E+00  0.90007724205E+02  0.89999985365E+02 0.  0.
        -12    1    1    2    0    0 -0.11515576850E+01  0.19105499709E+00 -0.17453893009E+00  0.11802757948E+01  0.00000000000E+00 0.  1.
         11    1    3    3    0    0 -0.30891937313E+02 -0.16764766360E+02 -0.88301489281E+01  0.36240042942E+02  0.51100000000E-03 0. -1.
        -11    1    3    3    0    0 -0.14126864622E+01 -0.97180106341E+01 -0.15136296682E+01  0.99361204078E+01  0.51100000000E-03 0.  1.
        -12    1    3    3    0    0  0.33456181460E+02  0.26291721997E+02  0.10518317526E+02  0.43831560856E+02  0.00000000000E+00 0.  1.
</event>
<event>
 7    1  0.2232484E-015  0.9000772E+02  0.7816164E-02  0.1186339E+00
        -11   -1    0    0    0    0  0.00000000000E+00  0.00000000000E+00  0.45593999997E+02  0.45594000000E+02  0.51100000000E-03 0. -1.
         11   -1    0    0    0    0 -0.00000000000E+00 -0.00000000000E+00 -0.45593999997E+02  0.45594000000E+02  0.51100000000E-03 0.  1.
    9900012    2    1    2    0    0  0.97965700267E+00 -0.34763688333E+00 -0.55899423474E+00  0.90007722999E+02  0.89999984142E+02 0.  0.
        -12    1    1    2    0    0 -0.97965700267E+00  0.34763688333E+00  0.55899423474E+00  0.11802770014E+01  0.00000000000E+00 0.  1.
         11    1    3    3    0    0  0.10233532845E+01  0.63603533336E+01  0.10304033487E+01  0.65240384576E+01  0.51100000000E-03 0. -1.
        -11    1    3    3    0    0 -0.16605144183E+02  0.33847073085E+02 -0.97095816239E+01  0.38931107681E+02  0.51100000000E-03 0.  1.
         12    1    3    3    0    0  0.16561447901E+02 -0.40555063302E+02  0.81201840405E+01  0.44552576860E+02  0.00000000000E+00 0. -1.
</event>
<event>
 7    1  0.2232484E-015  0.9000780E+02  0.7816164E-02  0.1186339E+00
        -11   -1    0    0    0    0  0.00000000000E+00  0.00000000000E+00  0.45593999997E+02  0.45594000000E+02  0.51100000000E-03 0.  1.
         11   -1    0    0    0    0 -0.00000000000E+00 -0.00000000000E+00 -0.45593999997E+02  0.45594000000E+02  0.51100000000E-03 0. -1.
    9900012    2    1    2    0    0 -0.73524203064E+00 -0.85746862933E+00 -0.34211746535E+00  0.90007797622E+02  0.90000059750E+02 0.  0.
        -12    1    1    2    0    0  0.73524203064E+00  0.85746862933E+00  0.34211746535E+00  0.11802023784E+01  0.00000000000E+00 0.  1.
         11    1    3    3    0    0  0.21023236066E+01 -0.87200979416E+01 -0.68245914186E+01  0.11270976930E+02  0.51100000000E-03 0. -1.
        -11    1    3    3    0    0  0.20395953438E+02 -0.49505954427E+01 -0.28147489829E+02  0.35111030971E+02  0.51100000000E-03 0.  1.
         12    1    3    3    0    0 -0.23233519075E+02  0.12813224755E+02  0.34629963783E+02  0.43625789721E+02  0.00000000000E+00 0. -1.
</event>
<event>
 7    1  0.2232484E-015  0.9000748E+02  0.7816164E-02  0.1186340E+00
        -11   -1    0    0    0    0  0.00000000000E+00  0.00000000000E+00  0.45593999997E+02  0.45594000000E+02  0.51100000000E-03 0.  1.
         11   -1    0    0    0    0 -0.00000000000E+00 -0.00000000000E+00 -0.45593999997E+02  0.45594000000E+02  0.51100000000E-03 0. -1.
    9900012    2    1    2    0    0 -0.32415274809E+00  0.89509142382E+00 -0.69811157290E+00  0.90007481712E+02  0.89999739670E+02 0.  0.
        -12    1    1    2    0    0  0.32415274809E+00 -0.89509142382E+00  0.69811157290E+00  0.11805182884E+01  0.00000000000E+00 0.  1.
         11    1    3    3    0    0 -0.13552748545E+02  0.74072560448E+01 -0.30151272234E+02  0.33876889657E+02  0.51100000000E-03 0. -1.
        -11    1    3    3    0    0 -0.13231843530E+02 -0.16093084935E+01 -0.33081192829E+01  0.13733725295E+02  0.51100000000E-03 0.  1.
        -12    1    3    3    0    0  0.26460439326E+02 -0.49028561274E+01  0.32761279944E+02  0.42396866760E+02  0.00000000000E+00 0.  1.
</event>
<event>
 7    1  0.2232484E-015  0.9000772E+02  0.7816164E-02  0.1186339E+00
        -11   -1    0    0    0    0  0.00000000000E+00  0.00000000000E+00  0.45593999997E+02  0.45594000000E+02  0.51100000000E-03 0. -1.
         11   -1    0    0    0    0 -0.00000000000E+00 -0.00000000000E+00 -0.45593999997E+02  0.45594000000E+02  0.51100000000E-03 0.  1.
    9900012    2    1    2    0    0 -0.94975480342E+00  0.17316918324E+00  0.67900404503E+00  0.90007716879E+02  0.89999977942E+02 0.  0.
        -12    1    1    2    0    0  0.94975480342E+00 -0.17316918324E+00 -0.67900404503E+00  0.11802831210E+01  0.00000000000E+00 0.  1.
         11    1    3    3    0    0  0.52293747966E+01 -0.26481114831E+01  0.98313962501E+01  0.11446187474E+02  0.51100000000E-03 0. -1.
        -11    1    3    3    0    0  0.34480895606E+02 -0.88583816212E+01 -0.63685630905E+01  0.36165752900E+02  0.51100000000E-03 0.  1.
         12    1    3    3    0    0 -0.40660025206E+02  0.11679662287E+02 -0.27838291146E+01  0.42395776505E+02  0.00000000000E+00 0. -1.
</event>
<event>
 7    1  0.2232484E-015  0.9000780E+02  0.7816164E-02  0.1186339E+00
        -11   -1    0    0    0    0  0.00000000000E+00  0.00000000000E+00  0.45593999997E+02  0.45594000000E+02  0.51100000000E-03 0. -1.
         11   -1    0    0    0    0 -0.00000000000E+00 -0.00000000000E+00 -0.45593999997E+02  0.45594000000E+02  0.51100000000E-03 0.  1.
    9900012    2    1    2    0    0 -0.39026559554E+00  0.11124933487E+01 -0.54138827105E-01  0.90007796755E+02  0.90000058873E+02 0.  0.
        -12    1    1    2    0    0  0.39026559554E+00 -0.11124933487E+01  0.54138827105E-01  0.11802032446E+01  0.00000000000E+00 0.  1.
         11    1    3    3    0    0 -0.29787268166E+01  0.67320230631E+01 -0.71195903555E+01  0.10241167661E+02  0.51100000000E-03 0. -1.
        -11    1    3    3    0    0 -0.58046027001E+01 -0.36695113862E+02 -0.15708461583E+02  0.40335847077E+02  0.51100000000E-03 0.  1.
         12    1    3    3    0    0  0.83930639212E+01  0.31075584148E+02  0.22773913111E+02  0.39430782017E+02  0.00000000000E+00 0. -1.
</event>
<event>
 7    1  0.2232484E-015  0.9000781E+02  0.7816164E-02  0.1186339E+00
        -11   -1    0    0    0    0  0.00000000000E+00  0.00000000000E+00  0.45593999997E+02  0.45594000000E+02  0.51100000000E-03 0.  1.
         11   -1    0    0    0    0 -0.00000000000E+00 -0.00000000000E+00 -0.45593999997E+02  0.45594000000E+02  0.51100000000E-03 0. -1.
    9900012    2    1    2    0    0 -0.99707972547E+00  0.63140917918E+00 -0.10226113757E-02  0.90007810788E+02  0.90000073090E+02 0.  0.
        -12    1    1    2    0    0  0.99707972547E+00 -0.63140917918E+00  0.10226113757E-02  0.11801892120E+01  0.00000000000E+00 0.  1.
         11    1    3    3    0    0 -0.20676632869E+02  0.32649773041E+02  0.18893093421E+02  0.43017203602E+02  0.51100000000E-03 0. -1.
        -11    1    3    3    0    0 -0.56696885112E+00 -0.75083317563E+01  0.32977816012E+01  0.82202106537E+01  0.51100000000E-03 0.  1.
        -12    1    3    3    0    0  0.20246521995E+02 -0.24510032106E+02 -0.22191897634E+02  0.38770396532E+02  0.00000000000E+00 0.  1.
</event>
<event>
 7    1  0.2232484E-015  0.9000788E+02  0.7816164E-02  0.1186339E+00
        -11   -1    0    0    0    0  0.00000000000E+00  0.00000000000E+00  0.45593999997E+02  0.45594000000E+02  0.51100000000E-03 0. -1.
         11   -1    0    0    0    0 -0.00000000000E+00 -0.00000000000E+00 -0.45593999997E+02  0.45594000000E+02  0.51100000000E-03 0.  1.
    9900012    2    1    2    0    0  0.37326995350E+00 -0.11195282464E+01 -0.42011908448E-02  0.90007876446E+02  0.90000139615E+02 0.  0.
        -12    1    1    2    0    0 -0.37326995350E+00  0.11195282464E+01  0.42011908448E-02  0.11801235540E+01  0.00000000000E+00 0.  1.
         11    1    3    3    0    0  0.12700953929E+02 -0.98880362301E+01  0.27776652052E+02  0.32103424906E+02  0.51100000000E-03 0. -1.
        -11    1    3    3    0    0  0.13022867755E+02 -0.66180537287E+01  0.32682170581E+01  0.14969133666E+02  0.51100000000E-03 0.  1.
        -12    1    3    3    0    0 -0.25350551730E+02  0.15386561712E+02 -0.31049070301E+02  0.42935317874E+02  0.00000000000E+00 0.  1.
</event>
<event>
 7    1  0.2232484E-015  0.9000784E+02  0.7816164E-02  0.1186339E+00
        -11   -1    0    0    0    0  0.00000000000E+00  0.00000000000E+00  0.45593999997E+02  0.45594000000E+02  0.51100000000E-03 0.  1.
         11   -1    0    0    0    0 -0.00000000000E+00 -0.00000000000E+00 -0.45593999997E+02  0.45594000000E+02  0.51100000000E-03 0. -1.
    9900012    2    1    2    0    0 -0.20961089239E+00 -0.56533986565E+00 -0.10145138587E+01  0.90007837189E+02  0.90000099840E+02 0.  0.
        -12    1    1    2    0    0  0.20961089239E+00  0.56533986565E+00  0.10145138587E+01  0.11801628106E+01  0.00000000000E+00 0.  1.
         11    1    3    3    0    0 -0.70105724266E+01  0.18256954859E+00  0.16526190384E+02  0.17952616140E+02  0.51100000000E-03 0. -1.
        -11    1    3    3    0    0  0.16729879925E+02 -0.14731819970E+02 -0.38795667647E+02  0.44743929536E+02  0.51100000000E-03 0.  1.
         12    1    3    3    0    0 -0.99289183910E+01  0.13983910555E+02  0.21254963404E+02  0.27311291514E+02  0.00000000000E+00 0. -1.
</event>
<event>
 7    1  0.2232484E-015  0.9000770E+02  0.7816164E-02  0.1186339E+00
        -11   -1    0    0    0    0  0.00000000000E+00  0.00000000000E+00  0.45593999997E+02  0.45594000000E+02  0.51100000000E-03 0. -1.
         11   -1    0    0    0    0 -0.00000000000E+00 -0.00000000000E+00 -0.45593999997E+02  0.45594000000E+02  0.51100000000E-03 0.  1.
    9900012    2    1    2    0    0  0.52060963308E+00 -0.29056455321E+00 -0.10186451758E+01  0.90007703366E+02  0.89999964251E+02 0.  0.
        -12    1    1    2    0    0 -0.52060963308E+00  0.29056455321E+00  0.10186451758E+01  0.11802966338E+01  0.00000000000E+00 0.  1.
         11    1    3    3    0    0  0.12072452183E+02  0.29297103327E+00 -0.13648650569E+02  0.18224038970E+02  0.51100000000E-03 0. -1.
        -11    1    3    3    0    0 -0.11325486473E+02 -0.52733454392E+01 -0.28116743116E+02  0.30767288793E+02  0.51100000000E-03 0.  1.
         12    1    3    3    0    0 -0.22635607690E+00  0.46898098528E+01  0.40746748510E+02  0.41016375603E+02  0.00000000000E+00 0. -1.
</event>
<event>
 7    1  0.2232484E-015  0.9000781E+02  0.7816164E-02  0.1186339E+00
        -11   -1    0    0    0    0  0.00000000000E+00  0.00000000000E+00  0.45593999997E+02  0.45594000000E+02  0.51100000000E-03 0. -1.
         11   -1    0    0    0    0 -0.00000000000E+00 -0.00000000000E+00 -0.45593999997E+02  0.45594000000E+02  0.51100000000E-03 0.  1.
    9900012    2    1    2    0    0  0.63342500841E+00  0.88836513746E+00  0.44991009442E+00  0.90007814018E+02  0.90000076363E+02 0.  0.
        -12    1    1    2    0    0 -0.63342500841E+00 -0.88836513746E+00 -0.44991009442E+00  0.11801859819E+01  0.00000000000E+00 0.  1.
         11    1    3    3    0    0 -0.13784085864E+02 -0.24765352058E+01 -0.23869751279E+02  0.27674885295E+02  0.51100000000E-03 0. -1.
        -11    1    3    3    0    0 -0.63706455243E+01  0.34621067216E+01 -0.15668046245E+02  0.17264384748E+02  0.51100000000E-03 0.  1.
         12    1    3    3    0    0  0.20788156397E+02 -0.97206378353E-01  0.39987707618E+02  0.45068543975E+02  0.00000000000E+00 0. -1.
</event>
<event>
 7    1  0.2232484E-015  0.9000771E+02  0.7816164E-02  0.1186339E+00
        -11   -1    0    0    0    0  0.00000000000E+00  0.00000000000E+00  0.45593999997E+02  0.45594000000E+02  0.51100000000E-03 0. -1.
         11   -1    0    0    0    0 -0.00000000000E+00 -0.00000000000E+00 -0.45593999997E+02  0.45594000000E+02  0.51100000000E-03 0.  1.
    9900012    2    1    2    0    0  0.10890231290E+01 -0.26588860866E+00 -0.36933208390E+00  0.90007714308E+02  0.89999975336E+02 0.  0.
        -12    1    1    2    0    0 -0.10890231290E+01  0.26588860866E+00  0.36933208390E+00  0.11802856925E+01  0.00000000000E+00 0.  1.
         11    1    3    3    0    0 -0.16172023058E+02  0.31515877421E+02 -0.48988136265E+00  0.35426329804E+02  0.51100000000E-03 0. -1.
        -11    1    3    3    0    0  0.55387495331E+01  0.90032364290E+01  0.53096407174E+01  0.11829129190E+02  0.51100000000E-03 0.  1.
        -12    1    3    3    0    0  0.11722296654E+02 -0.40785002459E+02 -0.51890914386E+01  0.42752255313E+02  0.00000000000E+00 0.  1.
</event>
<event>
 7    1  0.2232484E-015  0.9000774E+02  0.7816164E-02  0.1186339E+00
        -11   -1    0    0    0    0  0.00000000000E+00  0.00000000000E+00  0.45593999997E+02  0.45594000000E+02  0.51100000000E-03 0. -1.
         11   -1    0    0    0    0 -0.00000000000E+00 -0.00000000000E+00 -0.45593999997E+02  0.45594000000E+02  0.51100000000E-03 0.  1.
    9900012    2    1    2    0    0  0.14615063887E+00  0.79750453406E+00 -0.85769242880E+00  0.90007741641E+02  0.90000003031E+02 0.  0.
        -12    1    1    2    0    0 -0.14615063887E+00 -0.79750453406E+00  0.85769242880E+00  0.11802583588E+01  0.00000000000E+00 0.  1.
         11    1    3    3    0    0 -0.35741051845E+02  0.10861096675E+02  0.54680125036E+00  0.37358870430E+02  0.51100000000E-03 0. -1.
        -11    1    3    3    0    0 -0.31555092353E+00  0.18449473357E+01  0.12078820759E+02  0.12222983034E+02  0.51100000000E-03 0.  1.
        -12    1    3    3    0    0  0.36202753407E+02 -0.11908539477E+02 -0.13483314438E+02  0.40425888178E+02  0.00000000000E+00 0.  1.
</event>
<event>
 7    1  0.2232484E-015  0.9000796E+02  0.7816164E-02  0.1186339E+00
        -11   -1    0    0    0    0  0.00000000000E+00  0.00000000000E+00  0.45593999997E+02  0.45594000000E+02  0.51100000000E-03 0.  1.
         11   -1    0    0    0    0 -0.00000000000E+00 -0.00000000000E+00 -0.45593999997E+02  0.45594000000E+02  0.51100000000E-03 0. -1.
    9900012    2    1    2    0    0 -0.82412724977E+00  0.55790159775E+00 -0.63407463453E+00  0.90007961628E+02  0.90000225921E+02 0.  0.
        -12    1    1    2    0    0  0.82412724977E+00 -0.55790159775E+00  0.63407463453E+00  0.11800383717E+01  0.00000000000E+00 0.  1.
         11    1    3    3    0    0  0.24884763560E+02  0.19126098168E+02 -0.21389888099E+02  0.37981395468E+02  0.51100000000E-03 0. -1.
        -11    1    3    3    0    0 -0.58332497911E+01  0.78614391459E+00 -0.93748283766E+01  0.11069427841E+02  0.51100000000E-03 0.  1.
        -12    1    3    3    0    0 -0.19875641018E+02 -0.19354340485E+02  0.30130641842E+02  0.40957138319E+02  0.00000000000E+00 0.  1.
</event>
<event>
 7    1  0.2232484E-015  0.9000786E+02  0.7816164E-02  0.1186339E+00
        -11   -1    0    0    0    0  0.00000000000E+00  0.00000000000E+00  0.45593999997E+02  0.45594000000E+02  0.51100000000E-03 0.  1.
         11   -1    0    0    0    0 -0.00000000000E+00 -0.00000000000E+00 -0.45593999997E+02  0.45594000000E+02  0.51100000000E-03 0. -1.
    9900012    2    1    2    0    0  0.43456795157E+00 -0.10161040318E+01  0.41403261351E+00  0.90007856063E+02  0.90000118963E+02 0.  0.
        -12    1    1    2    0    0 -0.43456795157E+00  0.10161040318E+01 -0.41403261351E+00  0.11801439374E+01  0.00000000000E+00 0.  1.
         11    1    3    3    0    0 -0.11547885826E+02  0.13311795615E+01  0.23564946079E+01  0.11860808285E+02  0.51100000000E-03 0. -1.
        -11    1    3    3    0    0  0.34550875819E+01 -0.38968986152E+02  0.63719710003E+01  0.39637375375E+02  0.51100000000E-03 0.  1.
         12    1    3    3    0    0  0.85273661961E+01  0.36621702559E+02 -0.83144329946E+01  0.38509672403E+02  0.00000000000E+00 0. -1.
</event>
<event>
 7    1  0.2232484E-015  0.9000779E+02  0.7816164E-02  0.1186339E+00
        -11   -1    0    0    0    0  0.00000000000E+00  0.00000000000E+00  0.45593999997E+02  0.45594000000E+02  0.51100000000E-03 0. -1.
         11   -1    0    0    0    0 -0.00000000000E+00 -0.00000000000E+00 -0.45593999997E+02  0.45594000000E+02  0.51100000000E-03 0.  1.
    9900012    2    1    2    0    0 -0.14753588103E+00  0.10407948891E+01 -0.53653876527E+00  0.90007790407E+02  0.90000052440E+02 0.  0.
        -12    1    1    2    0    0  0.14753588103E+00 -0.10407948891E+01  0.53653876527E+00  0.11802095933E+01  0.00000000000E+00 0.  1.
         11    1    3    3    0    0 -0.13751061513E+02 -0.16792855538E+02  0.29626612171E+02  0.36726391585E+02  0.51100000000E-03 0. -1.
        -11    1    3    3    0    0 -0.23067118233E+01  0.13208564453E+01  0.81820333537E+01  0.86029792077E+01  0.51100000000E-03 0.  1.
        -12    1    3    3    0    0  0.15910237455E+02  0.16512793982E+02 -0.38345184290E+02  0.44678419614E+02  0.00000000000E+00 0.  1.
</event>
<event>
 7    1  0.2232484E-015  0.9000775E+02  0.7816164E-02  0.1186339E+00
        -11   -1    0    0    0    0  0.00000000000E+00  0.00000000000E+00  0.45593999997E+02  0.45594000000E+02  0.51100000000E-03 0. -1.
         11   -1    0    0    0    0 -0.00000000000E+00 -0.00000000000E+00 -0.45593999997E+02  0.45594000000E+02  0.51100000000E-03 0.  1.
    9900012    2    1    2    0    0  0.73445786799E+00 -0.90886900223E+00  0.16585800392E+00  0.90007754220E+02  0.90000015776E+02 0.  0.
        -12    1    1    2    0    0 -0.73445786799E+00  0.90886900223E+00 -0.16585800392E+00  0.11802457797E+01  0.00000000000E+00 0.  1.
         11    1    3    3    0    0 -0.50731951947E+01 -0.73210620209E+01  0.28296476718E-01  0.89070791817E+01  0.51100000000E-03 0. -1.
        -11    1    3    3    0    0  0.99798935716E+01 -0.33847932182E+02 -0.14371858245E+02  0.38102901443E+02  0.51100000000E-03 0.  1.
         12    1    3    3    0    0 -0.41722405090E+01  0.40260125201E+02  0.14509419773E+02  0.42997773596E+02  0.00000000000E+00 0. -1.
</event>
<event>
 7    1  0.2232484E-015  0.9000790E+02  0.7816164E-02  0.1186339E+00
        -11   -1    0    0    0    0  0.00000000000E+00  0.00000000000E+00  0.45593999997E+02  0.45594000000E+02  0.51100000000E-03 0. -1.
         11   -1    0    0    0    0 -0.00000000000E+00 -0.00000000000E+00 -0.45593999997E+02  0.45594000000E+02  0.51100000000E-03 0.  1.
    9900012    2    1    2    0    0  0.96174742273E+00  0.91553478169E-01 -0.67771807514E+00  0.90007897490E+02  0.90000160937E+02 0.  0.
        -12    1    1    2    0    0 -0.96174742273E+00 -0.91553478169E-01  0.67771807514E+00  0.11801025099E+01  0.00000000000E+00 0.  1.
         11    1    3    3    0    0 -0.13318927681E+02 -0.30725061062E+02  0.26532115810E+02  0.42724423712E+02  0.51100000000E-03 0. -1.
        -11    1    3    3    0    0 -0.31548721675E+01  0.95264260452E+01 -0.26018708273E+01  0.10367050866E+02  0.51100000000E-03 0.  1.
        -12    1    3    3    0    0  0.17435547272E+02  0.21290188495E+02 -0.24607963058E+02  0.36916422913E+02  0.00000000000E+00 0.  1.
</event>
<event>
 7    1  0.2232484E-015  0.9000771E+02  0.7816164E-02  0.1186339E+00
        -11   -1    0    0    0    0  0.00000000000E+00  0.00000000000E+00  0.45593999997E+02  0.45594000000E+02  0.51100000000E-03 0.  1.
         11   -1    0    0    0    0 -0.00000000000E+00 -0.00000000000E+00 -0.45593999997E+02  0.45594000000E+02  0.51100000000E-03 0. -1.
    9900012    2    1    2    0    0  0.87567671494E+00  0.51091759976E+00 -0.60435046461E+00  0.90007709363E+02  0.89999970327E+02 0.  0.
        -12    1    1    2    0    0 -0.87567671494E+00 -0.51091759976E+00  0.60435046461E+00  0.11802906366E+01  0.00000000000E+00 0.  1.
         11    1    3    3    0    0  0.35760900550E+02  0.13929210917E+02 -0.78033313026E+01  0.39163208558E+02  0.51100000000E-03 0. -1.
        -11    1    3    3    0    0  0.49929554796E+01 -0.87510942241E+01  0.27794278677E+01  0.10451625427E+02  0.51100000000E-03 0.  1.
        -12    1    3    3    0    0 -0.39878179315E+02 -0.46671990931E+01  0.44195529702E+01  0.40392875378E+02  0.00000000000E+00 0.  1.
</event>
<event>
 7    1  0.2232484E-015  0.9000803E+02  0.7816164E-02  0.1186338E+00
        -11   -1    0    0    0    0  0.00000000000E+00  0.00000000000E+00  0.45593999997E+02  0.45594000000E+02  0.51100000000E-03 0.  1.
         11   -1    0    0    0    0 -0.00000000000E+00 -0.00000000000E+00 -0.45593999997E+02  0.45594000000E+02  0.51100000000E-03 0. -1.
    9900012    2    1    2    0    0 -0.10567521412E+01 -0.23451205418E+00  0.46969534447E+00  0.90008027666E+02  0.90000292831E+02 0.  0.
        -12    1    1    2    0    0  0.10567521412E+01  0.23451205418E+00 -0.46969534447E+00  0.11799723336E+01  0.00000000000E+00 0.  1.
         11    1    3    3    0    0 -0.27344822761E+02  0.24902426531E+02 -0.20659275296E+02  0.42363614517E+02  0.51100000000E-03 0. -1.
        -11    1    3    3    0    0 -0.33056270613E+01 -0.75194277823E+01  0.49787733981E+01  0.96050585242E+01  0.51100000000E-03 0.  1.
        -12    1    3    3    0    0  0.29593697681E+02 -0.17617510803E+02  0.16150197243E+02  0.38039354625E+02  0.00000000000E+00 0.  1.
</event>
<event>
 7    1  0.2232484E-015  0.9000789E+02  0.7816164E-02  0.1186339E+00
        -11   -1    0    0    0    0  0.00000000000E+00  0.00000000000E+00  0.45593999997E+02  0.45594000000E+02  0.51100000000E-03 0. -1.
         11   -1    0    0    0    0 -0.00000000000E+00 -0.00000000000E+00 -0.45593999997E+02  0.45594000000E+02  0.51100000000E-03 0.  1.
    9900012    2    1    2    0    0 -0.80310846976E+00 -0.25830746155E+00  0.82520046133E+00  0.90007889090E+02  0.90000152426E+02 0.  0.
        -12    1    1    2    0    0  0.80310846976E+00  0.25830746155E+00 -0.82520046133E+00  0.11801109102E+01  0.00000000000E+00 0.  1.
         11    1    3    3    0    0  0.95741390488E-01 -0.81827314160E+01  0.65623973575E+00  0.82095621498E+01  0.51100000000E-03 0. -1.
        -11    1    3    3    0    0  0.19963366609E+02 -0.23456859817E+02 -0.22207020958E+02  0.37972517153E+02  0.51100000000E-03 0.  1.
         12    1    3    3    0    0 -0.20862216469E+02  0.31381283772E+02  0.22375981684E+02  0.43825809787E+02  0.00000000000E+00 0. -1.
</event>
<event>
 7    1  0.2232484E-015  0.9000787E+02  0.7816164E-02  0.1186339E+00
        -11   -1    0    0    0    0  0.00000000000E+00  0.00000000000E+00  0.45593999997E+02  0.45594000000E+02  0.51100000000E-03 0. -1.
         11   -1    0    0    0    0 -0.00000000000E+00 -0.00000000000E+00 -0.45593999997E+02  0.45594000000E+02  0.51100000000E-03 0.  1.
    9900012    2    1    2    0    0 -0.52155256677E+00  0.34589289957E+00  0.10005198237E+01  0.90007873356E+02  0.90000136484E+02 0.  0.
        -12    1    1    2    0    0  0.52155256677E+00 -0.34589289957E+00 -0.10005198237E+01  0.11801266438E+01  0.00000000000E+00 0.  1.
         11    1    3    3    0    0 -0.35429012307E+02 -0.14368147373E+02  0.25737571224E+01  0.38318178427E+02  0.51100000000E-03 0. -1.
        -11    1    3    3    0    0  0.12873305904E+01 -0.95681492742E+01  0.26270484514E+01  0.10005402761E+02  0.51100000000E-03 0.  1.
        -12    1    3    3    0    0  0.33620129150E+02  0.24282189546E+02 -0.42002857501E+01  0.41684292168E+02  0.00000000000E+00 0.  1.
</event>
<event>
 7    1  0.2232484E-015  0.9000787E+02  0.7816164E-02  0.1186339E+00
        -11   -1    0    0    0    0  0.00000000000E+00  0.00000000000E+00  0.45593999997E+02  0.45594000000E+02  0.51100000000E-03 0. -1.
         11   -1    0    0    0    0 -0.00000000000E+00 -0.00000000000E+00 -0.45593999997E+02  0.45594000000E+02  0.51100000000E-03 0.  1.
    9900012    2    1    2    0    0  0.65248567090E-01 -0.11246799875E+01  0.35148907592E+00  0.90007869914E+02  0.90000132997E+02 0.  0.
        -12    1    1    2    0    0 -0.65248567090E-01  0.11246799875E+01 -0.35148907592E+00  0.11801300862E+01  0.00000000000E+00 0.  1.
         11    1    3    3    0    0 -0.28737179884E+02  0.14742231589E+02  0.25608743355E+02  0.41218522977E+02  0.51100000000E-03 0. -1.
        -11    1    3    3    0    0  0.55472540463E+01 -0.59510207165E+01  0.48531730368E+01  0.94731179560E+01  0.51100000000E-03 0.  1.
        -12    1    3    3    0    0  0.23255174405E+02 -0.99158908603E+01 -0.30110427316E+02  0.39316228981E+02  0.00000000000E+00 0.  1.
</event>
<event>
 7    1  0.2232484E-015  0.9000774E+02  0.7816164E-02  0.1186339E+00
        -11   -1    0    0    0    0  0.00000000000E+00  0.00000000000E+00  0.45593999997E+02  0.45594000000E+02  0.51100000000E-03 0.  1.
         11   -1    0    0    0    0 -0.00000000000E+00 -0.00000000000E+00 -0.45593999997E+02  0.45594000000E+02  0.51100000000E-03 0. -1.
    9900012    2    1    2    0    0  0.98729424999E+00  0.64106434751E+00 -0.85419216222E-01  0.90007741606E+02  0.90000002995E+02 0.  0.
        -12    1    1    2    0    0 -0.98729424999E+00 -0.64106434751E+00  0.85419216222E-01  0.11802583938E+01  0.00000000000E+00 0.  1.
         11    1    3    3    0    0 -0.42029728577E+01 -0.53145622567E+01  0.69705272510E+01  0.97209980578E+01  0.51100000000E-03 0. -1.
        -11    1    3    3    0    0  0.32591382519E+02 -0.22531617112E+02 -0.92935675205E+01  0.40696957892E+02  0.51100000000E-03 0.  1.
         12    1    3    3    0    0 -0.27401115411E+02  0.28487243716E+02  0.22376210533E+01  0.39589785656E+02  0.00000000000E+00 0. -1.
</event>
<event>
 7    1  0.2232484E-015  0.9000732E+02  0.7816164E-02  0.1186340E+00
        -11   -1    0    0    0    0  0.00000000000E+00  0.00000000000E+00  0.45593999997E+02  0.45594000000E+02  0.51100000000E-03 0. -1.
         11   -1    0    0    0    0 -0.00000000000E+00 -0.00000000000E+00 -0.45593999997E+02  0.45594000000E+02  0.51100000000E-03 0.  1.
    9900012    2    1    2    0    0  0.10273541574E+01  0.46256514261E+00  0.35297462324E+00  0.90007316232E+02  0.89999572005E+02 0.  0.
        -12    1    1    2    0    0 -0.10273541574E+01 -0.46256514261E+00 -0.35297462324E+00  0.11806837682E+01  0.00000000000E+00 0.  1.
         11    1    3    3    0    0 -0.13330905534E+02  0.14987290595E+02  0.29789964490E+02  0.35913422370E+02  0.51100000000E-03 0. -1.
        -11    1    3    3    0    0 -0.84078509297E+01  0.36904069805E+01  0.37501604215E+01  0.99184053348E+01  0.51100000000E-03 0.  1.
        -12    1    3    3    0    0  0.22766110621E+02 -0.18215132433E+02 -0.33187150288E+02  0.44175488527E+02  0.00000000000E+00 0.  1.
</event>
<event>
 7    1  0.3079985E-015  0.9000772E+02  0.7816164E-02  0.1186339E+00
        -11   -1    0    0    0    0  0.00000000000E+00  0.00000000000E+00  0.45593999997E+02  0.45594000000E+02  0.51100000000E-03 0. -1.
         11   -1    0    0    0    0 -0.00000000000E+00 -0.00000000000E+00 -0.45593999997E+02  0.45594000000E+02  0.51100000000E-03 0.  1.
    9900012    2    1    2    0    0  0.60923816809E+00 -0.61862840407E+00  0.79949148488E+00  0.90007720846E+02  0.89999981961E+02 0.  0.
        -12    1    1    2    0    0 -0.60923816809E+00  0.61862840407E+00 -0.79949148488E+00  0.11802791543E+01  0.00000000000E+00 0.  1.
         11    1    3    3    0    0  0.92291957523E+01  0.10368671732E+01 -0.23237323304E+01  0.95735510640E+01  0.51100000000E-03 0. -1.
        -11    1    3    3    0    0 -0.59776369850E+01 -0.20280305515E+02 -0.33297115838E+02  0.39442627437E+02  0.51100000000E-03 0.  1.
         12    1    3    3    0    0 -0.26423205992E+01  0.18624809938E+02  0.36420339653E+02  0.40991542345E+02  0.00000000000E+00 0. -1.
</event>
<event>
 7    1  0.2232484E-015  0.9000789E+02  0.7816164E-02  0.1186339E+00
        -11   -1    0    0    0    0  0.00000000000E+00  0.00000000000E+00  0.45593999997E+02  0.45594000000E+02  0.51100000000E-03 0.  1.
         11   -1    0    0    0    0 -0.00000000000E+00 -0.00000000000E+00 -0.45593999997E+02  0.45594000000E+02  0.51100000000E-03 0. -1.
    9900012    2    1    2    0    0 -0.67141872520E+00  0.59398434251E+00 -0.76748495483E+00  0.90007892522E+02  0.90000155903E+02 0.  0.
        -12    1    1    2    0    0  0.67141872520E+00 -0.59398434251E+00  0.76748495484E+00  0.11801074780E+01  0.00000000000E+00 0.  1.
         11    1    3    3    0    0 -0.13224427882E+01 -0.84292514909E+01  0.23700526466E+01  0.88554099529E+01  0.51100000000E-03 0. -1.
        -11    1    3    3    0    0 -0.38863403399E+02 -0.20965524051E+01 -0.82542607356E+01  0.39785581262E+02  0.51100000000E-03 0.  1.
         12    1    3    3    0    0  0.39514427462E+02  0.11119788239E+02  0.51167231342E+01  0.41366901308E+02  0.00000000000E+00 0. -1.
</event>
<event>
 7    1  0.2232484E-015  0.9000776E+02  0.7816164E-02  0.1186339E+00
        -11   -1    0    0    0    0  0.00000000000E+00  0.00000000000E+00  0.45593999997E+02  0.45594000000E+02  0.51100000000E-03 0.  1.
         11   -1    0    0    0    0 -0.00000000000E+00 -0.00000000000E+00 -0.45593999997E+02  0.45594000000E+02  0.51100000000E-03 0. -1.
    9900012    2    1    2    0    0  0.86906657678E+00  0.74178807808E+00 -0.29569405609E+00  0.90007762209E+02  0.90000023871E+02 0.  0.
        -12    1    1    2    0    0 -0.86906657678E+00 -0.74178807808E+00  0.29569405609E+00  0.11802377906E+01  0.00000000000E+00 0.  1.
         11    1    3    3    0    0  0.12026435856E+02  0.34886180824E+02  0.17841825139E+02  0.40987943305E+02  0.51100000000E-03 0. -1.
        -11    1    3    3    0    0  0.77635779719E+01 -0.23119631340E+01 -0.58913401631E+01  0.10016297002E+02  0.51100000000E-03 0.  1.
        -12    1    3    3    0    0 -0.18920947251E+02 -0.31832429612E+02 -0.12246179032E+02  0.39003521902E+02  0.00000000000E+00 0.  1.
</event>
<event>
 7    1  0.2232484E-015  0.9000778E+02  0.7816164E-02  0.1186339E+00
        -11   -1    0    0    0    0  0.00000000000E+00  0.00000000000E+00  0.45593999997E+02  0.45594000000E+02  0.51100000000E-03 0. -1.
         11   -1    0    0    0    0 -0.00000000000E+00 -0.00000000000E+00 -0.45593999997E+02  0.45594000000E+02  0.51100000000E-03 0.  1.
    9900012    2    1    2    0    0 -0.11575620819E+01  0.21704632310E+00  0.76485226804E-01  0.90007784312E+02  0.90000046265E+02 0.  0.
        -12    1    1    2    0    0  0.11575620819E+01 -0.21704632310E+00 -0.76485226804E-01  0.11802156878E+01  0.00000000000E+00 0.  1.
         11    1    3    3    0    0 -0.55549708458E+01  0.24093014345E+02  0.31308644275E+02  0.39894388677E+02  0.51100000000E-03 0. -1.
        -11    1    3    3    0    0  0.11074836602E+01  0.66537559572E+01 -0.65138175322E+00  0.67766722545E+01  0.51100000000E-03 0.  1.
        -12    1    3    3    0    0  0.32899251037E+01 -0.30529723979E+02 -0.30580777295E+02  0.43336723381E+02  0.00000000000E+00 0.  1.
</event>
<event>
 7    1  0.2232484E-015  0.9000767E+02  0.7816164E-02  0.1186339E+00
        -11   -1    0    0    0    0  0.00000000000E+00  0.00000000000E+00  0.45593999997E+02  0.45594000000E+02  0.51100000000E-03 0.  1.
         11   -1    0    0    0    0 -0.00000000000E+00 -0.00000000000E+00 -0.45593999997E+02  0.45594000000E+02  0.51100000000E-03 0. -1.
    9900012    2    1    2    0    0 -0.10256055291E+01  0.38680803277E+00  0.43783124166E+00  0.90007668118E+02  0.89999928537E+02 0.  0.
        -12    1    1    2    0    0  0.10256055291E+01 -0.38680803277E+00 -0.43783124166E+00  0.11803318820E+01  0.00000000000E+00 0.  1.
         11    1    3    3    0    0 -0.79946720084E+01  0.39620904571E-01 -0.30530631577E+01  0.85578937388E+01  0.51100000000E-03 0. -1.
        -11    1    3    3    0    0  0.61922679695E+01 -0.38823471175E+02 -0.89947006668E+01  0.40330022775E+02  0.51100000000E-03 0.  1.
         12    1    3    3    0    0  0.77679850986E+00  0.39170658303E+02  0.12485595066E+02  0.41119751604E+02  0.00000000000E+00 0. -1.
</event>
<event>
 7    1  0.2232484E-015  0.9000770E+02  0.7816164E-02  0.1186339E+00
        -11   -1    0    0    0    0  0.00000000000E+00  0.00000000000E+00  0.45593999997E+02  0.45594000000E+02  0.51100000000E-03 0.  1.
         11   -1    0    0    0    0 -0.00000000000E+00 -0.00000000000E+00 -0.45593999997E+02  0.45594000000E+02  0.51100000000E-03 0. -1.
    9900012    2    1    2    0    0 -0.68845208338E+00  0.42304466238E+00 -0.86032818902E+00  0.90007704422E+02  0.89999965321E+02 0.  0.
        -12    1    1    2    0    0  0.68845208338E+00 -0.42304466238E+00  0.86032818902E+00  0.11802955775E+01  0.00000000000E+00 0.  1.
         11    1    3    3    0    0  0.98404709320E+01 -0.14090773819E+02 -0.62958472515E+01  0.18303618982E+02  0.51100000000E-03 0. -1.
        -11    1    3    3    0    0  0.39820167644E+01  0.39185923268E+01  0.35902034984E+02  0.36334115368E+02  0.51100000000E-03 0.  1.
         12    1    3    3    0    0 -0.14510939780E+02  0.10595226154E+02 -0.30466515921E+02  0.35369970072E+02  0.00000000000E+00 0. -1.
</event>
<event>
 7    1  0.2232484E-015  0.9000779E+02  0.7816164E-02  0.1186339E+00
        -11   -1    0    0    0    0  0.00000000000E+00  0.00000000000E+00  0.45593999997E+02  0.45594000000E+02  0.51100000000E-03 0.  1.
         11   -1    0    0    0    0 -0.00000000000E+00 -0.00000000000E+00 -0.45593999997E+02  0.45594000000E+02  0.51100000000E-03 0. -1.
    9900012    2    1    2    0    0 -0.73407226401E+00  0.31710352617E+00 -0.86803682134E+00  0.90007786181E+02  0.90000048159E+02 0.  0.
        -12    1    1    2    0    0  0.73407226401E+00 -0.31710352617E+00  0.86803682134E+00  0.11802138189E+01  0.00000000000E+00 0.  1.
         11    1    3    3    0    0  0.80561439627E+00 -0.81725980179E+01  0.10594787469E+01  0.82802698262E+01  0.51100000000E-03 0. -1.
        -11    1    3    3    0    0 -0.22358143255E+02  0.35189747021E+02  0.14440110929E+02  0.44121668929E+02  0.51100000000E-03 0.  1.
         12    1    3    3    0    0  0.20818456595E+02 -0.26700045477E+02 -0.16367626497E+02  0.37605847426E+02  0.00000000000E+00 0. -1.
</event>
<event>
 7    1  0.2232484E-015  0.9000778E+02  0.7816164E-02  0.1186339E+00
        -11   -1    0    0    0    0  0.00000000000E+00  0.00000000000E+00  0.45593999997E+02  0.45594000000E+02  0.51100000000E-03 0.  1.
         11   -1    0    0    0    0 -0.00000000000E+00 -0.00000000000E+00 -0.45593999997E+02  0.45594000000E+02  0.51100000000E-03 0. -1.
    9900012    2    1    2    0    0  0.12606287694E+00 -0.11558167844E+01  0.20278701964E+00  0.90007776774E+02  0.90000038627E+02 0.  0.
        -12    1    1    2    0    0 -0.12606287694E+00  0.11558167844E+01 -0.20278701964E+00  0.11802232260E+01  0.00000000000E+00 0.  1.
         11    1    3    3    0    0 -0.17355862125E+02 -0.27015705747E+02 -0.26104806128E+02  0.41382788818E+02  0.51100000000E-03 0. -1.
        -11    1    3    3    0    0  0.65558137597E+01  0.62116262880E+01 -0.48126744649E+01  0.10233515083E+02  0.51100000000E-03 0.  1.
        -12    1    3    3    0    0  0.10926111242E+02  0.19648262675E+02  0.31120267613E+02  0.38391472872E+02  0.00000000000E+00 0.  1.
</event>
<event>
 7    1  0.2232484E-015  0.9000766E+02  0.7816164E-02  0.1186339E+00
        -11   -1    0    0    0    0  0.00000000000E+00  0.00000000000E+00  0.45593999997E+02  0.45594000000E+02  0.51100000000E-03 0. -1.
         11   -1    0    0    0    0 -0.00000000000E+00 -0.00000000000E+00 -0.45593999997E+02  0.45594000000E+02  0.51100000000E-03 0.  1.
    9900012    2    1    2    0    0 -0.40688354705E+00 -0.93579722680E+00  0.59323425226E+00  0.90007662104E+02  0.89999922444E+02 0.  0.
        -12    1    1    2    0    0  0.40688354705E+00  0.93579722680E+00 -0.59323425226E+00  0.11803378959E+01  0.00000000000E+00 0.  1.
         11    1    3    3    0    0  0.18129286400E+01  0.36614564836E+01  0.55616889632E+01  0.69011128247E+01  0.51100000000E-03 0. -1.
        -11    1    3    3    0    0 -0.10973016041E+02 -0.28203885534E+02  0.28267105353E+02  0.41411296594E+02  0.51100000000E-03 0.  1.
         12    1    3    3    0    0  0.87532038544E+01  0.23606631824E+02 -0.33235560064E+02  0.41695252686E+02  0.00000000000E+00 0. -1.
</event>
<event>
 7    1  0.2232484E-015  0.9000777E+02  0.7816164E-02  0.1186339E+00
        -11   -1    0    0    0    0  0.00000000000E+00  0.00000000000E+00  0.45593999997E+02  0.45594000000E+02  0.51100000000E-03 0.  1.
         11   -1    0    0    0    0 -0.00000000000E+00 -0.00000000000E+00 -0.45593999997E+02  0.45594000000E+02  0.51100000000E-03 0. -1.
    9900012    2    1    2    0    0  0.34502639594E+00 -0.11178081732E+01 -0.15622927375E+00  0.90007768704E+02  0.90000030451E+02 0.  0.
        -12    1    1    2    0    0 -0.34502639594E+00  0.11178081732E+01  0.15622927375E+00  0.11802312960E+01  0.00000000000E+00 0.  1.
         11    1    3    3    0    0  0.56244624647E+01  0.28647002639E+01  0.70812734478E+01  0.94860697617E+01  0.51100000000E-03 0. -1.
        -11    1    3    3    0    0 -0.29822502601E+02 -0.24160346392E+02  0.15561146873E+02  0.41415616517E+02  0.51100000000E-03 0.  1.
         12    1    3    3    0    0  0.24543066533E+02  0.20177837954E+02 -0.22798649595E+02  0.39106082426E+02  0.00000000000E+00 0. -1.
</event>
<event>
 7    1  0.2232484E-015  0.9000882E+02  0.7816164E-02  0.1186337E+00
        -11   -1    0    0    0    0  0.00000000000E+00  0.00000000000E+00  0.45593999997E+02  0.45594000000E+02  0.51100000000E-03 0.  1.
         11   -1    0    0    0    0 -0.00000000000E+00 -0.00000000000E+00 -0.45593999997E+02  0.45594000000E+02  0.51100000000E-03 0. -1.
    9900012    2    1    2    0    0 -0.11741896326E+01 -0.28003398172E-02  0.10833982193E+00  0.90008819500E+02  0.90001095110E+02 0.  0.
        -12    1    1    2    0    0  0.11741896326E+01  0.28003398172E-02 -0.10833982193E+00  0.11791805003E+01  0.00000000000E+00 0.  1.
         11    1    3    3    0    0 -0.40908442661E+01 -0.10626614234E+02 -0.58373450012E+01  0.12795879564E+02  0.51100000000E-03 0. -1.
        -11    1    3    3    0    0 -0.19505292434E+02 -0.23928863769E+02  0.16060193649E+02  0.34799091576E+02  0.51100000000E-03 0.  1.
         12    1    3    3    0    0  0.22421947067E+02  0.34552677663E+02 -0.10114508826E+02  0.42413848360E+02  0.00000000000E+00 0. -1.
</event>
<event>
 7    1  0.2232484E-015  0.9000696E+02  0.7816164E-02  0.1186341E+00
        -11   -1    0    0    0    0  0.00000000000E+00  0.00000000000E+00  0.45593999997E+02  0.45594000000E+02  0.51100000000E-03 0.  1.
         11   -1    0    0    0    0 -0.00000000000E+00 -0.00000000000E+00 -0.45593999997E+02  0.45594000000E+02  0.51100000000E-03 0. -1.
    9900012    2    1    2    0    0 -0.69461601265E+00  0.88117017880E+00 -0.36864712149E+00  0.90006961055E+02  0.89999212138E+02 0.  0.
        -12    1    1    2    0    0  0.69461601265E+00 -0.88117017880E+00  0.36864712149E+00  0.11810389448E+01  0.00000000000E+00 0.  1.
         11    1    3    3    0    0 -0.20703233196E+01 -0.13948607244E+01  0.95672374018E+01  0.98875632414E+01  0.51100000000E-03 0. -1.
        -11    1    3    3    0    0  0.37734699117E+01 -0.37887453702E+02  0.20706494616E+01  0.38131165897E+02  0.51100000000E-03 0.  1.
         12    1    3    3    0    0 -0.23977626047E+01  0.40163484605E+02 -0.12006533985E+02  0.41988231917E+02  0.00000000000E+00 0. -1.
</event>
<event>
 7    1  0.2232484E-015  0.9000779E+02  0.7816164E-02  0.1186339E+00
        -11   -1    0    0    0    0  0.00000000000E+00  0.00000000000E+00  0.45593999997E+02  0.45594000000E+02  0.51100000000E-03 0.  1.
         11   -1    0    0    0    0 -0.00000000000E+00 -0.00000000000E+00 -0.45593999997E+02  0.45594000000E+02  0.51100000000E-03 0. -1.
    9900012    2    1    2    0    0  0.11609055162E+01  0.13160358590E+00  0.16692370694E+00  0.90007794660E+02  0.90000056749E+02 0.  0.
        -12    1    1    2    0    0 -0.11609055162E+01 -0.13160358590E+00 -0.16692370694E+00  0.11802053403E+01  0.00000000000E+00 0.  1.
         11    1    3    3    0    0 -0.85687496356E+01  0.38155753802E+01 -0.20739185752E+01  0.96064157893E+01  0.51100000000E-03 0. -1.
        -11    1    3    3    0    0  0.29516711276E+01 -0.12833824142E+02  0.39396949935E+02  0.41539608436E+02  0.51100000000E-03 0.  1.
         12    1    3    3    0    0  0.67779840242E+01  0.91498523479E+01 -0.37156107653E+02  0.38861770435E+02  0.00000000000E+00 0. -1.
</event>
<event>
 7    1  0.2232484E-015  0.9000776E+02  0.7816164E-02  0.1186339E+00
        -11   -1    0    0    0    0  0.00000000000E+00  0.00000000000E+00  0.45593999997E+02  0.45594000000E+02  0.51100000000E-03 0.  1.
         11   -1    0    0    0    0 -0.00000000000E+00 -0.00000000000E+00 -0.45593999997E+02  0.45594000000E+02  0.51100000000E-03 0. -1.
    9900012    2    1    2    0    0 -0.68107472092E+00  0.51447575389E+00  0.81511811549E+00  0.90007760355E+02  0.90000021992E+02 0.  0.
        -12    1    1    2    0    0  0.68107472092E+00 -0.51447575389E+00 -0.81511811549E+00  0.11802396447E+01  0.00000000000E+00 0.  1.
         11    1    3    3    0    0  0.36601823508E+02 -0.11204390531E+02 -0.14804054273E+02  0.41041343477E+02  0.51100000000E-03 0. -1.
        -11    1    3    3    0    0  0.10555831375E+01  0.74608413762E+01  0.46834017174E+01  0.88720156508E+01  0.51100000000E-03 0.  1.
        -12    1    3    3    0    0 -0.38338481366E+02  0.42580249083E+01  0.10935770671E+02  0.40094401227E+02  0.00000000000E+00 0.  1.
</event>
<event>
 7    1  0.2232484E-015  0.9000763E+02  0.7816164E-02  0.1186339E+00
        -11   -1    0    0    0    0  0.00000000000E+00  0.00000000000E+00  0.45593999997E+02  0.45594000000E+02  0.51100000000E-03 0.  1.
         11   -1    0    0    0    0 -0.00000000000E+00 -0.00000000000E+00 -0.45593999997E+02  0.45594000000E+02  0.51100000000E-03 0. -1.
    9900012    2    1    2    0    0 -0.91835615614E+00  0.63946276818E+00 -0.37547129996E+00  0.90007631685E+02  0.89999891623E+02 0.  0.
        -12    1    1    2    0    0  0.91835615614E+00 -0.63946276818E+00  0.37547129996E+00  0.11803683148E+01  0.00000000000E+00 0.  1.
         11    1    3    3    0    0 -0.78032692254E+01  0.42774890870E+01 -0.28267526136E+01  0.93369402960E+01  0.51100000000E-03 0. -1.
        -11    1    3    3    0    0 -0.34548507498E+02  0.65570815418E+01  0.11604827178E+02  0.37030618450E+02  0.51100000000E-03 0.  1.
         12    1    3    3    0    0  0.41433420568E+02 -0.10195107861E+02 -0.91535458649E+01  0.43640072939E+02  0.00000000000E+00 0. -1.
</event>
<event>
 7    1  0.2232484E-015  0.9000777E+02  0.7816164E-02  0.1186339E+00
        -11   -1    0    0    0    0  0.00000000000E+00  0.00000000000E+00  0.45593999997E+02  0.45594000000E+02  0.51100000000E-03 0. -1.
         11   -1    0    0    0    0 -0.00000000000E+00 -0.00000000000E+00 -0.45593999997E+02  0.45594000000E+02  0.51100000000E-03 0.  1.
    9900012    2    1    2    0    0  0.10727907125E+01 -0.32268485162E-01  0.49094625956E+00  0.90007767227E+02  0.90000028955E+02 0.  0.
        -12    1    1    2    0    0 -0.10727907125E+01  0.32268485162E-01 -0.49094625956E+00  0.11802327727E+01  0.00000000000E+00 0.  1.
         11    1    3    3    0    0  0.28959137544E+02  0.17033579673E+02  0.15656792178E+01  0.33633700889E+02  0.51100000000E-03 0. -1.
        -11    1    3    3    0    0 -0.53988042202E+01  0.86149115190E+01 -0.16129831823E+02  0.19066600703E+02  0.51100000000E-03 0.  1.
         12    1    3    3    0    0 -0.22487542612E+02 -0.25680759677E+02  0.15055098864E+02  0.37307465635E+02  0.00000000000E+00 0. -1.
</event>
<event>
 7    1  0.2232484E-015  0.9000769E+02  0.7816164E-02  0.1186339E+00
        -11   -1    0    0    0    0  0.00000000000E+00  0.00000000000E+00  0.45593999997E+02  0.45594000000E+02  0.51100000000E-03 0. -1.
         11   -1    0    0    0    0 -0.00000000000E+00 -0.00000000000E+00 -0.45593999997E+02  0.45594000000E+02  0.51100000000E-03 0.  1.
    9900012    2    1    2    0    0 -0.50783204155E+00 -0.10215465914E+01  0.30278835074E+00  0.90007690038E+02  0.89999950747E+02 0.  0.
        -12    1    1    2    0    0  0.50783204155E+00  0.10215465914E+01 -0.30278835074E+00  0.11803099619E+01  0.00000000000E+00 0.  1.
         11    1    3    3    0    0  0.41125488165E+01 -0.27843587116E+02  0.22969318343E+02  0.36328611130E+02  0.51100000000E-03 0. -1.
        -11    1    3    3    0    0 -0.80238342273E+00 -0.19737225708E+01  0.98498295230E+01  0.10077625804E+02  0.51100000000E-03 0.  1.
        -12    1    3    3    0    0 -0.38179974354E+01  0.28795763096E+02 -0.32516359515E+02  0.43601453104E+02  0.00000000000E+00 0.  1.
</event>
<event>
 7    1  0.2232484E-015  0.9000750E+02  0.7816164E-02  0.1186340E+00
        -11   -1    0    0    0    0  0.00000000000E+00  0.00000000000E+00  0.45593999997E+02  0.45594000000E+02  0.51100000000E-03 0.  1.
         11   -1    0    0    0    0 -0.00000000000E+00 -0.00000000000E+00 -0.45593999997E+02  0.45594000000E+02  0.51100000000E-03 0. -1.
    9900012    2    1    2    0    0  0.34852797323E+00  0.65582068900E+00 -0.91761025172E+00  0.90007499641E+02  0.89999757836E+02 0.  0.
        -12    1    1    2    0    0 -0.34852797323E+00 -0.65582068900E+00  0.91761025172E+00  0.11805003593E+01  0.00000000000E+00 0.  1.
         11    1    3    3    0    0  0.71426110204E+00 -0.27520737205E+02 -0.17574548864E+02  0.32661382599E+02  0.51100000000E-03 0. -1.
        -11    1    3    3    0    0 -0.23155340343E+02  0.12823044099E+02  0.29337782590E+01  0.26630946313E+02  0.51100000000E-03 0.  1.
        -12    1    3    3    0    0  0.22789607214E+02  0.15353513795E+02  0.13723160353E+02  0.30715170729E+02  0.00000000000E+00 0.  1.
</event>
<event>
 7    1  0.2232484E-015  0.9000771E+02  0.7816164E-02  0.1186339E+00
        -11   -1    0    0    0    0  0.00000000000E+00  0.00000000000E+00  0.45593999997E+02  0.45594000000E+02  0.51100000000E-03 0. -1.
         11   -1    0    0    0    0 -0.00000000000E+00 -0.00000000000E+00 -0.45593999997E+02  0.45594000000E+02  0.51100000000E-03 0.  1.
    9900012    2    1    2    0    0  0.63909698772E+00 -0.99163783728E+00 -0.35979877256E-01  0.90007709734E+02  0.89999970703E+02 0.  0.
        -12    1    1    2    0    0 -0.63909698772E+00  0.99163783728E+00  0.35979877256E-01  0.11802902658E+01  0.00000000000E+00 0.  1.
         11    1    3    3    0    0  0.54713203037E+01  0.31537170716E+01 -0.87956791400E+01  0.10827984532E+02  0.51100000000E-03 0. -1.
        -11    1    3    3    0    0  0.35512347231E+02  0.11883172399E+01 -0.57102875970E+01  0.35988140941E+02  0.51100000000E-03 0.  1.
         12    1    3    3    0    0 -0.40344570547E+02 -0.53336721487E+01  0.14469986860E+02  0.43191584261E+02  0.00000000000E+00 0. -1.
</event>
<event>
 7    1  0.2232484E-015  0.9000805E+02  0.7816164E-02  0.1186338E+00
        -11   -1    0    0    0    0  0.00000000000E+00  0.00000000000E+00  0.45593999997E+02  0.45594000000E+02  0.51100000000E-03 0.  1.
         11   -1    0    0    0    0 -0.00000000000E+00 -0.00000000000E+00 -0.45593999997E+02  0.45594000000E+02  0.51100000000E-03 0. -1.
    9900012    2    1    2    0    0  0.58427143363E+00  0.10153887672E+01 -0.14107471467E+00  0.90008046809E+02  0.90000312227E+02 0.  0.
        -12    1    1    2    0    0 -0.58427143363E+00 -0.10153887672E+01  0.14107471467E+00  0.11799531905E+01  0.00000000000E+00 0.  1.
         11    1    3    3    0    0 -0.66406676204E+01  0.59434098817E+01 -0.67659453046E+01  0.11189307556E+02  0.51100000000E-03 0. -1.
        -11    1    3    3    0    0  0.34186785925E+02 -0.15639450575E+02 -0.17139019453E+02  0.41316760936E+02  0.51100000000E-03 0.  1.
         12    1    3    3    0    0 -0.26961846871E+02  0.10711429460E+02  0.23763890043E+02  0.37501978318E+02  0.00000000000E+00 0. -1.
</event>
<event>
 7    1  0.2232484E-015  0.9000760E+02  0.7816164E-02  0.1186339E+00
        -11   -1    0    0    0    0  0.00000000000E+00  0.00000000000E+00  0.45593999997E+02  0.45594000000E+02  0.51100000000E-03 0.  1.
         11   -1    0    0    0    0 -0.00000000000E+00 -0.00000000000E+00 -0.45593999997E+02  0.45594000000E+02  0.51100000000E-03 0. -1.
    9900012    2    1    2    0    0 -0.29070780125E+00  0.10911439832E+01 -0.34386770659E+00  0.90007597011E+02  0.89999856491E+02 0.  0.
        -12    1    1    2    0    0  0.29070780125E+00 -0.10911439832E+01  0.34386770659E+00  0.11804029894E+01  0.00000000000E+00 0.  1.
         11    1    3    3    0    0 -0.12159175005E+01  0.68362033024E+01 -0.59642461385E-01  0.69437517556E+01  0.51100000000E-03 0. -1.
        -11    1    3    3    0    0  0.37509561873E+00  0.16339451325E+02  0.36592414100E+02  0.40076466115E+02  0.51100000000E-03 0.  1.
         12    1    3    3    0    0  0.55011408056E+00 -0.22084510645E+02 -0.36876639345E+02  0.42987379140E+02  0.00000000000E+00 0. -1.
</event>
<event>
 7    1  0.2232484E-015  0.9000754E+02  0.7816164E-02  0.1186339E+00
        -11   -1    0    0    0    0  0.00000000000E+00  0.00000000000E+00  0.45593999997E+02  0.45594000000E+02  0.51100000000E-03 0.  1.
         11   -1    0    0    0    0 -0.00000000000E+00 -0.00000000000E+00 -0.45593999997E+02  0.45594000000E+02  0.51100000000E-03 0. -1.
    9900012    2    1    2    0    0 -0.36516664683E+00  0.10676832084E+01  0.34667074970E+00  0.90007544697E+02  0.89999803487E+02 0.  0.
        -12    1    1    2    0    0  0.36516664683E+00 -0.10676832084E+01 -0.34667074970E+00  0.11804553029E+01  0.00000000000E+00 0.  1.
         11    1    3    3    0    0 -0.31500561884E+02  0.92852100942E+01 -0.17030373964E+02  0.36993704371E+02  0.51100000000E-03 0. -1.
        -11    1    3    3    0    0 -0.23468095682E+01 -0.85690213854E+00 -0.92655752440E+01  0.95964931765E+01  0.51100000000E-03 0.  1.
        -12    1    3    3    0    0  0.33482204805E+02 -0.73606247472E+01  0.26642619957E+02  0.43417347149E+02  0.00000000000E+00 0.  1.
</event>
<event>
 7    1  0.2232484E-015  0.9000786E+02  0.7816164E-02  0.1186339E+00
        -11   -1    0    0    0    0  0.00000000000E+00  0.00000000000E+00  0.45593999997E+02  0.45594000000E+02  0.51100000000E-03 0.  1.
         11   -1    0    0    0    0 -0.00000000000E+00 -0.00000000000E+00 -0.45593999997E+02  0.45594000000E+02  0.51100000000E-03 0. -1.
    9900012    2    1    2    0    0  0.34532430399E+00  0.10447841550E+01 -0.42650687012E+00  0.90007859790E+02  0.90000122739E+02 0.  0.
        -12    1    1    2    0    0 -0.34532430399E+00 -0.10447841550E+01  0.42650687012E+00  0.11801402102E+01  0.00000000000E+00 0.  1.
         11    1    3    3    0    0  0.33782705266E+02  0.22457436249E+02  0.11384383325E+02  0.42133262417E+02  0.51100000000E-03 0. -1.
        -11    1    3    3    0    0 -0.13509992448E+00 -0.30406584987E+01 -0.92689902166E+01  0.97559231235E+01  0.51100000000E-03 0.  1.
        -12    1    3    3    0    0 -0.33302281038E+02 -0.18371993596E+02 -0.25418999785E+01  0.38118674249E+02  0.00000000000E+00 0.  1.
</event>
<event>
 7    1  0.2232484E-015  0.9000765E+02  0.7816164E-02  0.1186339E+00
        -11   -1    0    0    0    0  0.00000000000E+00  0.00000000000E+00  0.45593999997E+02  0.45594000000E+02  0.51100000000E-03 0.  1.
         11   -1    0    0    0    0 -0.00000000000E+00 -0.00000000000E+00 -0.45593999997E+02  0.45594000000E+02  0.51100000000E-03 0. -1.
    9900012    2    1    2    0    0 -0.33364564073E+00 -0.51261494202E+00 -0.10095192622E+01  0.90007651478E+02  0.89999911678E+02 0.  0.
        -12    1    1    2    0    0  0.33364564073E+00  0.51261494202E+00  0.10095192622E+01  0.11803485219E+01  0.00000000000E+00 0.  1.
         11    1    3    3    0    0  0.64003296926E+01 -0.11878613384E+02 -0.33767943500E+02  0.36363988843E+02  0.51100000000E-03 0. -1.
        -11    1    3    3    0    0 -0.43864107254E+01 -0.30478852902E+01 -0.84093815257E+01  0.99623241114E+01  0.51100000000E-03 0.  1.
        -12    1    3    3    0    0 -0.23475646080E+01  0.14413883732E+02  0.41167805763E+02  0.43681338524E+02  0.00000000000E+00 0.  1.
</event>
<event>
 7    1  0.2232484E-015  0.9000772E+02  0.7816164E-02  0.1186339E+00
        -11   -1    0    0    0    0  0.00000000000E+00  0.00000000000E+00  0.45593999997E+02  0.45594000000E+02  0.51100000000E-03 0. -1.
         11   -1    0    0    0    0 -0.00000000000E+00 -0.00000000000E+00 -0.45593999997E+02  0.45594000000E+02  0.51100000000E-03 0.  1.
    9900012    2    1    2    0    0 -0.98331865472E+00 -0.34102856959E+00 -0.55664534777E+00  0.90007716091E+02  0.89999977144E+02 0.  0.
        -12    1    1    2    0    0  0.98331865472E+00  0.34102856959E+00  0.55664534777E+00  0.11802839087E+01  0.00000000000E+00 0.  1.
         11    1    3    3    0    0 -0.20758168118E+01 -0.64793736475E+01 -0.71510392200E+01  0.98705957514E+01  0.51100000000E-03 0. -1.
        -11    1    3    3    0    0 -0.36558747991E+02 -0.55133425838E+01 -0.84930991373E+01  0.37935098976E+02  0.51100000000E-03 0.  1.
         12    1    3    3    0    0  0.37651246148E+02  0.11651687662E+02  0.15087493010E+02  0.42202021364E+02  0.00000000000E+00 0. -1.
</event>
<event>
 7    1  0.2232484E-015  0.9000777E+02  0.7816164E-02  0.1186339E+00
        -11   -1    0    0    0    0  0.00000000000E+00  0.00000000000E+00  0.45593999997E+02  0.45594000000E+02  0.51100000000E-03 0.  1.
         11   -1    0    0    0    0 -0.00000000000E+00 -0.00000000000E+00 -0.45593999997E+02  0.45594000000E+02  0.51100000000E-03 0. -1.
    9900012    2    1    2    0    0 -0.67517717222E+00  0.36802404045E+00 -0.89534723710E+00  0.90007765878E+02  0.90000027587E+02 0.  0.
        -12    1    1    2    0    0  0.67517717222E+00 -0.36802404045E+00  0.89534723710E+00  0.11802341222E+01  0.00000000000E+00 0.  1.
         11    1    3    3    0    0  0.38938498286E+01  0.92372488245E+01 -0.15700978097E+01  0.10146627012E+02  0.51100000000E-03 0. -1.
        -11    1    3    3    0    0  0.62278949726E+01  0.29565932493E+02  0.19252716268E+02  0.35827337662E+02  0.51100000000E-03 0.  1.
         12    1    3    3    0    0 -0.10796921973E+02 -0.38435157277E+02 -0.18577965696E+02  0.44033801203E+02  0.00000000000E+00 0. -1.
</event>
<event>
 7    1  0.2232484E-015  0.9000778E+02  0.7816164E-02  0.1186339E+00
        -11   -1    0    0    0    0  0.00000000000E+00  0.00000000000E+00  0.45593999997E+02  0.45594000000E+02  0.51100000000E-03 0.  1.
         11   -1    0    0    0    0 -0.00000000000E+00 -0.00000000000E+00 -0.45593999997E+02  0.45594000000E+02  0.51100000000E-03 0. -1.
    9900012    2    1    2    0    0 -0.14026477294E+00 -0.10952583345E-02 -0.11718515002E+01  0.90007783348E+02  0.90000045289E+02 0.  0.
        -12    1    1    2    0    0  0.14026477294E+00  0.10952583345E-02  0.11718515002E+01  0.11802166516E+01  0.00000000000E+00 0.  1.
         11    1    3    3    0    0 -0.51944412247E+01 -0.48387667691E+01  0.69957444441E+00  0.71333924711E+01  0.51100000000E-03 0. -1.
        -11    1    3    3    0    0 -0.26165922192E+01 -0.37024613392E+02  0.10463535775E+02  0.38563637443E+02  0.51100000000E-03 0.  1.
         12    1    3    3    0    0  0.76707686709E+01  0.41862284903E+02 -0.12334961719E+02  0.44310753434E+02  0.00000000000E+00 0. -1.
</event>
<event>
 7    1  0.2232484E-015  0.9000782E+02  0.7816164E-02  0.1186339E+00
        -11   -1    0    0    0    0  0.00000000000E+00  0.00000000000E+00  0.45593999997E+02  0.45594000000E+02  0.51100000000E-03 0. -1.
         11   -1    0    0    0    0 -0.00000000000E+00 -0.00000000000E+00 -0.45593999997E+02  0.45594000000E+02  0.51100000000E-03 0.  1.
    9900012    2    1    2    0    0 -0.48193339336E+00 -0.64564516651E-01  0.10753564048E+01  0.90007822145E+02  0.90000084597E+02 0.  0.
        -12    1    1    2    0    0  0.48193339336E+00  0.64564516651E-01 -0.10753564048E+01  0.11801778551E+01  0.00000000000E+00 0.  1.
         11    1    3    3    0    0 -0.76670939493E+00  0.42105471179E+01 -0.10164914808E+02  0.11029145191E+02  0.51100000000E-03 0. -1.
        -11    1    3    3    0    0 -0.70992712162E+01 -0.29624818068E+02 -0.21227717703E+02  0.37130115762E+02  0.51100000000E-03 0.  1.
         12    1    3    3    0    0  0.73840472177E+01  0.25349706434E+02  0.32467988916E+02  0.41848561192E+02  0.00000000000E+00 0. -1.
</event>
<event>
 7    1  0.2442210E-015  0.9000774E+02  0.7816164E-02  0.1186339E+00
        -11   -1    0    0    0    0  0.00000000000E+00  0.00000000000E+00  0.45593999997E+02  0.45594000000E+02  0.51100000000E-03 0.  1.
         11   -1    0    0    0    0 -0.00000000000E+00 -0.00000000000E+00 -0.45593999997E+02  0.45594000000E+02  0.51100000000E-03 0. -1.
    9900012    2    1    2    0    0  0.60395214145E-01 -0.11786187681E+01  0.15046065449E-01  0.90007738941E+02  0.90000000295E+02 0.  0.
        -12    1    1    2    0    0 -0.60395214145E-01  0.11786187681E+01 -0.15046065449E-01  0.11802610586E+01  0.00000000000E+00 0.  1.
         11    1    3    3    0    0  0.52383549689E+01 -0.21930977533E+00  0.82802600911E+01  0.98005697281E+01  0.51100000000E-03 0. -1.
        -11    1    3    3    0    0 -0.13452168695E+02  0.26946788095E+02  0.22696227033E+02  0.37712185737E+02  0.51100000000E-03 0.  1.
         12    1    3    3    0    0  0.82742089406E+01 -0.27906097087E+02 -0.30961441059E+02  0.42494983477E+02  0.00000000000E+00 0. -1.
</event>
<event>
 7    1  0.2232484E-015  0.9000673E+02  0.7816164E-02  0.1186341E+00
        -11   -1    0    0    0    0  0.00000000000E+00  0.00000000000E+00  0.45593999997E+02  0.45594000000E+02  0.51100000000E-03 0. -1.
         11   -1    0    0    0    0 -0.00000000000E+00 -0.00000000000E+00 -0.45593999997E+02  0.45594000000E+02  0.51100000000E-03 0.  1.
    9900012    2    1    2    0    0  0.36649332255E+00  0.93021086277E+00 -0.62912388042E+00  0.90006726763E+02  0.89998974750E+02 0.  0.
        -12    1    1    2    0    0 -0.36649332255E+00 -0.93021086277E+00  0.62912388042E+00  0.11812732375E+01  0.00000000000E+00 0.  1.
         11    1    3    3    0    0  0.76276358713E+01 -0.13675721838E+02  0.13314651490E+02  0.20554467674E+02  0.51100000000E-03 0. -1.
        -11    1    3    3    0    0  0.22234197317E+02  0.11575770785E+02  0.13997771172E+02  0.28710548543E+02  0.51100000000E-03 0.  1.
        -12    1    3    3    0    0 -0.29495339865E+02  0.30301619161E+01 -0.27941546543E+02  0.40741710546E+02  0.00000000000E+00 0.  1.
</event>
<event>
 7    1  0.2232484E-015  0.9000774E+02  0.7816164E-02  0.1186339E+00
        -11   -1    0    0    0    0  0.00000000000E+00  0.00000000000E+00  0.45593999997E+02  0.45594000000E+02  0.51100000000E-03 0. -1.
         11   -1    0    0    0    0 -0.00000000000E+00 -0.00000000000E+00 -0.45593999997E+02  0.45594000000E+02  0.51100000000E-03 0.  1.
    9900012    2    1    2    0    0 -0.44957889389E+00 -0.63037353794E+00  0.89079432129E+00  0.90007743036E+02  0.90000004444E+02 0.  0.
        -12    1    1    2    0    0  0.44957889389E+00  0.63037353794E+00 -0.89079432129E+00  0.11802569644E+01  0.00000000000E+00 0.  1.
         11    1    3    3    0    0  0.14689847488E+02 -0.25625625773E+01  0.33777698357E+02  0.36922774174E+02  0.51100000000E-03 0. -1.
        -11    1    3    3    0    0  0.70484799157E+01  0.66286287233E+01  0.34320951923E+01  0.10266404704E+02  0.51100000000E-03 0.  1.
        -12    1    3    3    0    0 -0.22187906297E+02 -0.46964396839E+01 -0.36318999228E+02  0.42818564157E+02  0.00000000000E+00 0.  1.
</event>
<event>
 7    1  0.2232484E-015  0.9000757E+02  0.7816164E-02  0.1186339E+00
        -11   -1    0    0    0    0  0.00000000000E+00  0.00000000000E+00  0.45593999997E+02  0.45594000000E+02  0.51100000000E-03 0.  1.
         11   -1    0    0    0    0 -0.00000000000E+00 -0.00000000000E+00 -0.45593999997E+02  0.45594000000E+02  0.51100000000E-03 0. -1.
    9900012    2    1    2    0    0 -0.79387522742E+00  0.77923065938E+00  0.39494990413E+00  0.90007566298E+02  0.89999825373E+02 0.  0.
        -12    1    1    2    0    0  0.79387522742E+00 -0.77923065938E+00 -0.39494990413E+00  0.11804337017E+01  0.00000000000E+00 0.  1.
         11    1    3    3    0    0 -0.31696660413E+02 -0.18802406976E+02 -0.55521981926E+01  0.37269769176E+02  0.51100000000E-03 0. -1.
        -11    1    3    3    0    0  0.10772497710E+01 -0.48326639556E+01 -0.98955474867E+01  0.11065123962E+02  0.51100000000E-03 0.  1.
        -12    1    3    3    0    0  0.29825535415E+02  0.24414301591E+02  0.15842695583E+02  0.41672673160E+02  0.00000000000E+00 0.  1.
</event>
<event>
 7    1  0.2232484E-015  0.9000776E+02  0.7816164E-02  0.1186339E+00
        -11   -1    0    0    0    0  0.00000000000E+00  0.00000000000E+00  0.45593999997E+02  0.45594000000E+02  0.51100000000E-03 0. -1.
         11   -1    0    0    0    0 -0.00000000000E+00 -0.00000000000E+00 -0.45593999997E+02  0.45594000000E+02  0.51100000000E-03 0.  1.
    9900012    2    1    2    0    0 -0.19531282919E+00  0.87316783451E+00  0.76967143382E+00  0.90007761344E+02  0.90000022994E+02 0.  0.
        -12    1    1    2    0    0  0.19531282919E+00 -0.87316783451E+00 -0.76967143382E+00  0.11802386557E+01  0.00000000000E+00 0.  1.
         11    1    3    3    0    0  0.20749806948E+02  0.97275934922E+01  0.15442770456E+02  0.27634393844E+02  0.51100000000E-03 0. -1.
        -11    1    3    3    0    0  0.17733869274E+02  0.40197056317E+01 -0.11433447003E+02  0.21479568511E+02  0.51100000000E-03 0.  1.
        -12    1    3    3    0    0 -0.38678989051E+02 -0.12874131289E+02 -0.32396520193E+01  0.40893798988E+02  0.00000000000E+00 0.  1.
</event>
<event>
 7    1  0.2557682E-015  0.9000781E+02  0.7816164E-02  0.1186339E+00
        -11   -1    0    0    0    0  0.00000000000E+00  0.00000000000E+00  0.45593999997E+02  0.45594000000E+02  0.51100000000E-03 0.  1.
         11   -1    0    0    0    0 -0.00000000000E+00 -0.00000000000E+00 -0.45593999997E+02  0.45594000000E+02  0.51100000000E-03 0. -1.
    9900012    2    1    2    0    0 -0.34379377172E+00  0.56214966853E+00 -0.97910127332E+00  0.90007811155E+02  0.90000073462E+02 0.  0.
        -12    1    1    2    0    0  0.34379377172E+00 -0.56214966853E+00  0.97910127332E+00  0.11801888454E+01  0.00000000000E+00 0.  1.
         11    1    3    3    0    0  0.87028606369E+01 -0.59320566507E+00 -0.30106199113E+01  0.92279742489E+01  0.51100000000E-03 0. -1.
        -11    1    3    3    0    0 -0.10111521065E+02 -0.10925194036E+02  0.39068185090E+02  0.41808202658E+02  0.51100000000E-03 0.  1.
         12    1    3    3    0    0  0.10648666561E+01  0.12080549370E+02 -0.37036666452E+02  0.38971634248E+02  0.00000000000E+00 0. -1.
</event>
<event>
 7    1  0.2232484E-015  0.9000776E+02  0.7816164E-02  0.1186339E+00
        -11   -1    0    0    0    0  0.00000000000E+00  0.00000000000E+00  0.45593999997E+02  0.45594000000E+02  0.51100000000E-03 0.  1.
         11   -1    0    0    0    0 -0.00000000000E+00 -0.00000000000E+00 -0.45593999997E+02  0.45594000000E+02  0.51100000000E-03 0. -1.
    9900012    2    1    2    0    0  0.11713902659E+01 -0.44812092064E-01  0.13716443358E+00  0.90007755381E+02  0.90000016952E+02 0.  0.
        -12    1    1    2    0    0 -0.11713902659E+01  0.44812092064E-01 -0.13716443358E+00  0.11802446189E+01  0.00000000000E+00 0.  1.
         11    1    3    3    0    0 -0.79348296832E+01 -0.20839288983E+00 -0.45572672813E+01  0.91527938375E+01  0.51100000000E-03 0. -1.
        -11    1    3    3    0    0 -0.24096482771E+02 -0.52168183196E+01  0.29950334744E+02  0.38792759980E+02  0.51100000000E-03 0.  1.
         12    1    3    3    0    0  0.33202702720E+02  0.53803991174E+01 -0.25255903029E+02  0.42062201564E+02  0.00000000000E+00 0. -1.
</event>
<event>
 7    1  0.2232484E-015  0.9000770E+02  0.7816164E-02  0.1186339E+00
        -11   -1    0    0    0    0  0.00000000000E+00  0.00000000000E+00  0.45593999997E+02  0.45594000000E+02  0.51100000000E-03 0. -1.
         11   -1    0    0    0    0 -0.00000000000E+00 -0.00000000000E+00 -0.45593999997E+02  0.45594000000E+02  0.51100000000E-03 0.  1.
    9900012    2    1    2    0    0  0.33356117773E+00 -0.11304200762E+01 -0.63144289501E-01  0.90007703508E+02  0.89999964394E+02 0.  0.
        -12    1    1    2    0    0 -0.33356117773E+00  0.11304200762E+01  0.63144289501E-01  0.11802964921E+01  0.00000000000E+00 0.  1.
         11    1    3    3    0    0 -0.27086865141E+02 -0.22398493179E+02 -0.12785303044E+02  0.37401266476E+02  0.51100000000E-03 0. -1.
        -11    1    3    3    0    0  0.11372418223E+01 -0.71404611724E+01 -0.62014818454E+01  0.95256433933E+01  0.51100000000E-03 0.  1.
        -12    1    3    3    0    0  0.26283184497E+02  0.28408534275E+02  0.18923640600E+02  0.43080793638E+02  0.00000000000E+00 0.  1.
</event>
<event>
 7    1  0.2232484E-015  0.9000784E+02  0.7816164E-02  0.1186339E+00
        -11   -1    0    0    0    0  0.00000000000E+00  0.00000000000E+00  0.45593999997E+02  0.45594000000E+02  0.51100000000E-03 0. -1.
         11   -1    0    0    0    0 -0.00000000000E+00 -0.00000000000E+00 -0.45593999997E+02  0.45594000000E+02  0.51100000000E-03 0.  1.
    9900012    2    1    2    0    0  0.53289507525E-01  0.34263150160E+00  0.11280720183E+01  0.90007837894E+02  0.90000100554E+02 0.  0.
        -12    1    1    2    0    0 -0.53289507525E-01 -0.34263150160E+00 -0.11280720183E+01  0.11801621058E+01  0.00000000000E+00 0.  1.
         11    1    3    3    0    0  0.29996778245E+01 -0.14049834714E+01 -0.10003532625E+02  0.10537680525E+02  0.51100000000E-03 0. -1.
        -11    1    3    3    0    0 -0.38643589703E+02 -0.64271209375E+01 -0.49263940207E+01  0.39482961730E+02  0.51100000000E-03 0.  1.
         12    1    3    3    0    0  0.35697201386E+02  0.81747359105E+01  0.16057998665E+02  0.39987195639E+02  0.00000000000E+00 0. -1.
</event>
<event>
 7    1  0.2232484E-015  0.9000777E+02  0.7816164E-02  0.1186339E+00
        -11   -1    0    0    0    0  0.00000000000E+00  0.00000000000E+00  0.45593999997E+02  0.45594000000E+02  0.51100000000E-03 0.  1.
         11   -1    0    0    0    0 -0.00000000000E+00 -0.00000000000E+00 -0.45593999997E+02  0.45594000000E+02  0.51100000000E-03 0. -1.
    9900012    2    1    2    0    0 -0.42458333900E-01 -0.23956682463E+00 -0.11548783371E+01  0.90007771655E+02  0.90000033440E+02 0.  0.
        -12    1    1    2    0    0  0.42458333900E-01  0.23956682463E+00  0.11548783371E+01  0.11802283453E+01  0.00000000000E+00 0.  1.
         11    1    3    3    0    0  0.69881257360E+01 -0.62513400269E+01 -0.60831400583E+01  0.11176660801E+02  0.51100000000E-03 0. -1.
        -11    1    3    3    0    0 -0.13259785291E+02  0.17566435143E+02  0.37629619731E+02  0.43593460874E+02  0.51100000000E-03 0.  1.
         12    1    3    3    0    0  0.62292012215E+01 -0.11554661941E+02 -0.32701358010E+02  0.35237649980E+02  0.00000000000E+00 0. -1.
</event>
<event>
 7    1  0.2232484E-015  0.9000775E+02  0.7816164E-02  0.1186339E+00
        -11   -1    0    0    0    0  0.00000000000E+00  0.00000000000E+00  0.45593999997E+02  0.45594000000E+02  0.51100000000E-03 0. -1.
         11   -1    0    0    0    0 -0.00000000000E+00 -0.00000000000E+00 -0.45593999997E+02  0.45594000000E+02  0.51100000000E-03 0.  1.
    9900012    2    1    2    0    0  0.38723886421E+00 -0.53348428711E+00  0.97899963481E+00  0.90007745914E+02  0.90000007360E+02 0.  0.
        -12    1    1    2    0    0 -0.38723886421E+00  0.53348428711E+00 -0.97899963481E+00  0.11802540860E+01  0.00000000000E+00 0.  1.
         11    1    3    3    0    0 -0.19104550233E+02  0.30155382421E+02 -0.14310336277E+02  0.38459285656E+02  0.51100000000E-03 0. -1.
        -11    1    3    3    0    0 -0.74960482272E+01  0.96514709157E+00  0.33859639759E+01  0.82817268876E+01  0.51100000000E-03 0.  1.
        -12    1    3    3    0    0  0.26987837324E+02 -0.31654013800E+02  0.11903371936E+02  0.43266733370E+02  0.00000000000E+00 0.  1.
</event>
<event>
 7    1  0.2232484E-015  0.9000758E+02  0.7816164E-02  0.1186339E+00
        -11   -1    0    0    0    0  0.00000000000E+00  0.00000000000E+00  0.45593999997E+02  0.45594000000E+02  0.51100000000E-03 0.  1.
         11   -1    0    0    0    0 -0.00000000000E+00 -0.00000000000E+00 -0.45593999997E+02  0.45594000000E+02  0.51100000000E-03 0. -1.
    9900012    2    1    2    0    0 -0.71712047730E+00 -0.92537187282E+00 -0.15101604623E+00  0.90007584510E+02  0.89999843826E+02 0.  0.
        -12    1    1    2    0    0  0.71712047730E+00  0.92537187282E+00  0.15101604623E+00  0.11804154896E+01  0.00000000000E+00 0.  1.
         11    1    3    3    0    0  0.23808233778E+02  0.26316428785E+02 -0.10233870097E+02  0.36933975105E+02  0.51100000000E-03 0. -1.
        -11    1    3    3    0    0 -0.14309106444E+01  0.89330851971E+01  0.28637321035E+00  0.90514930419E+01  0.51100000000E-03 0.  1.
        -12    1    3    3    0    0 -0.23094443611E+02 -0.36174885855E+02  0.97964808408E+01  0.44022116364E+02  0.00000000000E+00 0.  1.
</event>
<event>
 7    1  0.2232484E-015  0.9000774E+02  0.7816164E-02  0.1186339E+00
        -11   -1    0    0    0    0  0.00000000000E+00  0.00000000000E+00  0.45593999997E+02  0.45594000000E+02  0.51100000000E-03 0. -1.
         11   -1    0    0    0    0 -0.00000000000E+00 -0.00000000000E+00 -0.45593999997E+02  0.45594000000E+02  0.51100000000E-03 0.  1.
    9900012    2    1    2    0    0 -0.42171925652E+00  0.84450548469E+00 -0.70850145483E+00  0.90007741149E+02  0.90000002532E+02 0.  0.
        -12    1    1    2    0    0  0.42171925652E+00 -0.84450548469E+00  0.70850145483E+00  0.11802588515E+01  0.00000000000E+00 0.  1.
         11    1    3    3    0    0 -0.12873097156E+02  0.42452438142E+01  0.21999858316E+01  0.13732394669E+02  0.51100000000E-03 0. -1.
        -11    1    3    3    0    0 -0.24744365924E+02 -0.22895007665E+02 -0.56915946567E+01  0.34188583927E+02  0.51100000000E-03 0.  1.
         12    1    3    3    0    0  0.37195743823E+02  0.19494269335E+02  0.27831073702E+01  0.42086762552E+02  0.00000000000E+00 0. -1.
</event>
<event>
 7    1  0.2232484E-015  0.9000774E+02  0.7816164E-02  0.1186339E+00
        -11   -1    0    0    0    0  0.00000000000E+00  0.00000000000E+00  0.45593999997E+02  0.45594000000E+02  0.51100000000E-03 0.  1.
         11   -1    0    0    0    0 -0.00000000000E+00 -0.00000000000E+00 -0.45593999997E+02  0.45594000000E+02  0.51100000000E-03 0. -1.
    9900012    2    1    2    0    0  0.11372764857E+01 -0.41374914076E-01 -0.31290816561E+00  0.90007736805E+02  0.89999998131E+02 0.  0.
        -12    1    1    2    0    0 -0.11372764857E+01  0.41374914076E-01  0.31290816561E+00  0.11802631947E+01  0.00000000000E+00 0.  1.
         11    1    3    3    0    0  0.15321285649E+02  0.11591051271E+02 -0.35599359449E+02  0.40452548213E+02  0.51100000000E-03 0. -1.
        -11    1    3    3    0    0 -0.38402341658E+01 -0.80325095399E+01 -0.32612389422E+01  0.94817871552E+01  0.51100000000E-03 0.  1.
        -12    1    3    3    0    0 -0.10343774998E+02 -0.35999166451E+01  0.38547690225E+02  0.40073401437E+02  0.00000000000E+00 0.  1.
</event>
<event>
 7    1  0.2232484E-015  0.9000772E+02  0.7816164E-02  0.1186339E+00
        -11   -1    0    0    0    0  0.00000000000E+00  0.00000000000E+00  0.45593999997E+02  0.45594000000E+02  0.51100000000E-03 0.  1.
         11   -1    0    0    0    0 -0.00000000000E+00 -0.00000000000E+00 -0.45593999997E+02  0.45594000000E+02  0.51100000000E-03 0. -1.
    9900012    2    1    2    0    0 -0.73301857818E+00 -0.65806066125E+00 -0.65015258121E+00  0.90007721029E+02  0.89999982147E+02 0.  0.
        -12    1    1    2    0    0  0.73301857818E+00  0.65806066125E+00  0.65015258121E+00  0.11802789707E+01  0.00000000000E+00 0.  1.
         11    1    3    3    0    0 -0.83761079792E+01 -0.32499586599E+01  0.29397587813E+01  0.94532321522E+01  0.51100000000E-03 0. -1.
        -11    1    3    3    0    0  0.14828241659E+02 -0.37160189611E+02 -0.12148508593E+00  0.40009638857E+02  0.51100000000E-03 0.  1.
         12    1    3    3    0    0 -0.71851522582E+01  0.39752087609E+02 -0.34684262765E+01  0.40544850020E+02  0.00000000000E+00 0. -1.
</event>
<event>
 7    1  0.2232484E-015  0.9000771E+02  0.7816164E-02  0.1186339E+00
        -11   -1    0    0    0    0  0.00000000000E+00  0.00000000000E+00  0.45593999997E+02  0.45594000000E+02  0.51100000000E-03 0. -1.
         11   -1    0    0    0    0 -0.00000000000E+00 -0.00000000000E+00 -0.45593999997E+02  0.45594000000E+02  0.51100000000E-03 0.  1.
    9900012    2    1    2    0    0 -0.50156024910E+00 -0.85302409389E+00 -0.64332861497E+00  0.90007709995E+02  0.89999970967E+02 0.  0.
        -12    1    1    2    0    0  0.50156024910E+00  0.85302409389E+00  0.64332861497E+00  0.11802900047E+01  0.00000000000E+00 0.  1.
         11    1    3    3    0    0  0.94335542823E+01 -0.27427326004E+00 -0.10017487780E+01  0.94905570486E+01  0.51100000000E-03 0. -1.
        -11    1    3    3    0    0  0.14733517917E+02  0.34555412265E+02  0.10940888126E+01  0.37581246622E+02  0.51100000000E-03 0.  1.
         12    1    3    3    0    0 -0.24668632449E+02 -0.35134163099E+02 -0.73566864958E+00  0.42935906325E+02  0.00000000000E+00 0. -1.
</event>
<event>
 7    1  0.2232484E-015  0.9000778E+02  0.7816164E-02  0.1186339E+00
        -11   -1    0    0    0    0  0.00000000000E+00  0.00000000000E+00  0.45593999997E+02  0.45594000000E+02  0.51100000000E-03 0.  1.
         11   -1    0    0    0    0 -0.00000000000E+00 -0.00000000000E+00 -0.45593999997E+02  0.45594000000E+02  0.51100000000E-03 0. -1.
    9900012    2    1    2    0    0  0.10687707857E+00 -0.86905780425E+00 -0.79134827151E+00  0.90007781264E+02  0.90000043177E+02 0.  0.
        -12    1    1    2    0    0 -0.10687707857E+00  0.86905780425E+00  0.79134827151E+00  0.11802187356E+01  0.00000000000E+00 0.  1.
         11    1    3    3    0    0 -0.96366038590E+01 -0.47497094438E+01  0.13278149654E+01  0.10825292910E+02  0.51100000000E-03 0. -1.
        -11    1    3    3    0    0 -0.10714579192E+02  0.37547106951E+02  0.42477833017E+01  0.39276342891E+02  0.51100000000E-03 0.  1.
         12    1    3    3    0    0  0.20458060130E+02 -0.33666455312E+02 -0.63669465386E+01  0.39906145463E+02  0.00000000000E+00 0. -1.
</event>
<event>
 7    1  0.3895787E-015  0.9000792E+02  0.7816164E-02  0.1186339E+00
        -11   -1    0    0    0    0  0.00000000000E+00  0.00000000000E+00  0.45593999997E+02  0.45594000000E+02  0.51100000000E-03 0.  1.
         11   -1    0    0    0    0 -0.00000000000E+00 -0.00000000000E+00 -0.45593999997E+02  0.45594000000E+02  0.51100000000E-03 0. -1.
    9900012    2    1    2    0    0  0.46689091521E+00  0.31727648990E+00 -0.10363117446E+01  0.90007917999E+02  0.90000181716E+02 0.  0.
        -12    1    1    2    0    0 -0.46689091521E+00 -0.31727648990E+00  0.10363117446E+01  0.11800820013E+01  0.00000000000E+00 0.  1.
         11    1    3    3    0    0 -0.38762552362E+01 -0.80280240973E+01  0.29180394876E+01  0.93802707997E+01  0.51100000000E-03 0. -1.
        -11    1    3    3    0    0  0.75830932211E+01 -0.11650166713E+02  0.34483032955E+02  0.37179419701E+02  0.51100000000E-03 0.  1.
         12    1    3    3    0    0 -0.32399470696E+01  0.19995467300E+02 -0.38437384188E+02  0.43448227498E+02  0.00000000000E+00 0. -1.
</event>
<event>
 7    1  0.2232484E-015  0.9000775E+02  0.7816164E-02  0.1186339E+00
        -11   -1    0    0    0    0  0.00000000000E+00  0.00000000000E+00  0.45593999997E+02  0.45594000000E+02  0.51100000000E-03 0.  1.
         11   -1    0    0    0    0 -0.00000000000E+00 -0.00000000000E+00 -0.45593999997E+02  0.45594000000E+02  0.51100000000E-03 0. -1.
    9900012    2    1    2    0    0 -0.30612843569E+00 -0.11256215188E+01  0.17959905136E+00  0.90007748229E+02  0.90000009706E+02 0.  0.
        -12    1    1    2    0    0  0.30612843569E+00  0.11256215188E+01 -0.17959905136E+00  0.11802517706E+01  0.00000000000E+00 0.  1.
         11    1    3    3    0    0 -0.40781683739E+01 -0.36952086494E+02  0.22050824383E+02  0.43224148457E+02  0.51100000000E-03 0. -1.
        -11    1    3    3    0    0 -0.48371862455E+01  0.27004867131E+01 -0.82691256683E+01  0.99533631925E+01  0.51100000000E-03 0.  1.
        -12    1    3    3    0    0  0.86092261837E+01  0.33125978262E+02 -0.13602099663E+02  0.36830236580E+02  0.00000000000E+00 0.  1.
</event>
<event>
 7    1  0.2232484E-015  0.9000772E+02  0.7816164E-02  0.1186339E+00
        -11   -1    0    0    0    0  0.00000000000E+00  0.00000000000E+00  0.45593999997E+02  0.45594000000E+02  0.51100000000E-03 0.  1.
         11   -1    0    0    0    0 -0.00000000000E+00 -0.00000000000E+00 -0.45593999997E+02  0.45594000000E+02  0.51100000000E-03 0. -1.
    9900012    2    1    2    0    0 -0.11338499301E+01  0.28752377781E+00  0.15740203285E+00  0.90007719954E+02  0.89999981058E+02 0.  0.
        -12    1    1    2    0    0  0.11338499301E+01 -0.28752377781E+00 -0.15740203285E+00  0.11802800459E+01  0.00000000000E+00 0.  1.
         11    1    3    3    0    0  0.83756307401E+01 -0.21750122125E+01  0.13526362662E+01  0.87585097790E+01  0.51100000000E-03 0. -1.
        -11    1    3    3    0    0 -0.14831022546E+02 -0.14811757574E+02  0.34997275828E+02  0.40794076872E+02  0.51100000000E-03 0.  1.
         12    1    3    3    0    0  0.53215418759E+01  0.17274293564E+02 -0.36192510061E+02  0.40455133303E+02  0.00000000000E+00 0. -1.
</event>
<event>
 7    1  0.2232484E-015  0.9000776E+02  0.7816164E-02  0.1186339E+00
        -11   -1    0    0    0    0  0.00000000000E+00  0.00000000000E+00  0.45593999997E+02  0.45594000000E+02  0.51100000000E-03 0.  1.
         11   -1    0    0    0    0 -0.00000000000E+00 -0.00000000000E+00 -0.45593999997E+02  0.45594000000E+02  0.51100000000E-03 0. -1.
    9900012    2    1    2    0    0  0.26044619313E+00 -0.10250558861E+01  0.52382720000E+00  0.90007759887E+02  0.90000021517E+02 0.  0.
        -12    1    1    2    0    0 -0.26044619313E+00  0.10250558861E+01 -0.52382720000E+00  0.11802401131E+01  0.00000000000E+00 0.  1.
         11    1    3    3    0    0 -0.27255730230E+02 -0.10160198737E+02 -0.10150560115E+02  0.30808088867E+02  0.51100000000E-03 0. -1.
        -11    1    3    3    0    0  0.23687535441E+02 -0.13462659946E+02 -0.93081543313E+01  0.28792087201E+02  0.51100000000E-03 0.  1.
        -12    1    3    3    0    0  0.38286409824E+01  0.22597802797E+02  0.19982541646E+02  0.30407583819E+02  0.00000000000E+00 0.  1.
</event>
<event>
 7    1  0.2232484E-015  0.9000762E+02  0.7816164E-02  0.1186339E+00
        -11   -1    0    0    0    0  0.00000000000E+00  0.00000000000E+00  0.45593999997E+02  0.45594000000E+02  0.51100000000E-03 0.  1.
         11   -1    0    0    0    0 -0.00000000000E+00 -0.00000000000E+00 -0.45593999997E+02  0.45594000000E+02  0.51100000000E-03 0. -1.
    9900012    2    1    2    0    0  0.87881615877E+00  0.60385742566E+00 -0.50628469086E+00  0.90007624712E+02  0.89999884559E+02 0.  0.
        -12    1    1    2    0    0 -0.87881615877E+00 -0.60385742566E+00  0.50628469086E+00  0.11803752876E+01  0.00000000000E+00 0.  1.
         11    1    3    3    0    0 -0.29224262904E+00  0.92139430406E+01 -0.31887387912E+01  0.97544967809E+01  0.51100000000E-03 0. -1.
        -11    1    3    3    0    0  0.21857049593E+02 -0.32888441714E+02 -0.16760197613E+02  0.42898536566E+02  0.51100000000E-03 0.  1.
         12    1    3    3    0    0 -0.20685990805E+02  0.24278356099E+02  0.19442651713E+02  0.37354591365E+02  0.00000000000E+00 0. -1.
</event>
<event>
 7    1  0.2232484E-015  0.9000771E+02  0.7816164E-02  0.1186339E+00
        -11   -1    0    0    0    0  0.00000000000E+00  0.00000000000E+00  0.45593999997E+02  0.45594000000E+02  0.51100000000E-03 0.  1.
         11   -1    0    0    0    0 -0.00000000000E+00 -0.00000000000E+00 -0.45593999997E+02  0.45594000000E+02  0.51100000000E-03 0. -1.
    9900012    2    1    2    0    0 -0.29183105922E+00  0.90915622788E+00 -0.69379728380E+00  0.90007709746E+02  0.89999970714E+02 0.  0.
        -12    1    1    2    0    0  0.29183105922E+00 -0.90915622788E+00  0.69379728380E+00  0.11802902545E+01  0.00000000000E+00 0.  1.
         11    1    3    3    0    0  0.67529091099E+01  0.17369017456E+01 -0.41996844619E+02  0.42571746115E+02  0.51100000000E-03 0. -1.
        -11    1    3    3    0    0 -0.96783157039E+01 -0.71348851568E+00  0.47800047873E+01  0.10817916008E+02  0.51100000000E-03 0.  1.
        -12    1    3    3    0    0  0.26335755347E+01 -0.11425700202E+00  0.36523042547E+02  0.36618047622E+02  0.00000000000E+00 0.  1.
</event>
<event>
 7    1  0.2232484E-015  0.9000774E+02  0.7816164E-02  0.1186339E+00
        -11   -1    0    0    0    0  0.00000000000E+00  0.00000000000E+00  0.45593999997E+02  0.45594000000E+02  0.51100000000E-03 0. -1.
         11   -1    0    0    0    0 -0.00000000000E+00 -0.00000000000E+00 -0.45593999997E+02  0.45594000000E+02  0.51100000000E-03 0.  1.
    9900012    2    1    2    0    0  0.14864501296E+00 -0.11429768200E+01  0.25403092707E+00  0.90007736020E+02  0.89999997335E+02 0.  0.
        -12    1    1    2    0    0 -0.14864501296E+00  0.11429768200E+01 -0.25403092707E+00  0.11802639802E+01  0.00000000000E+00 0.  1.
         11    1    3    3    0    0 -0.16327416103E+02  0.51044649145E+01  0.36865124932E+02  0.40640835562E+02  0.51100000000E-03 0. -1.
        -11    1    3    3    0    0  0.78581103476E+00  0.86236885682E+01 -0.25542091196E+01  0.90282605186E+01  0.51100000000E-03 0.  1.
        -12    1    3    3    0    0  0.15690250082E+02 -0.14871130303E+02 -0.34056884885E+02  0.40338639939E+02  0.00000000000E+00 0.  1.
</event>
<event>
 7    1  0.2232484E-015  0.9000770E+02  0.7816164E-02  0.1186339E+00
        -11   -1    0    0    0    0  0.00000000000E+00  0.00000000000E+00  0.45593999997E+02  0.45594000000E+02  0.51100000000E-03 0.  1.
         11   -1    0    0    0    0 -0.00000000000E+00 -0.00000000000E+00 -0.45593999997E+02  0.45594000000E+02  0.51100000000E-03 0. -1.
    9900012    2    1    2    0    0  0.34508524547E-01  0.15856252508E+00 -0.11690881776E+01  0.90007703393E+02  0.89999964278E+02 0.  0.
        -12    1    1    2    0    0 -0.34508524547E-01 -0.15856252508E+00  0.11690881776E+01  0.11802966067E+01  0.00000000000E+00 0.  1.
         11    1    3    3    0    0 -0.90028487038E+01  0.29214266723E+01  0.53875332326E+01  0.10890892212E+02  0.51100000000E-03 0. -1.
        -11    1    3    3    0    0 -0.21768821568E+02  0.26419302197E+02  0.62379278520E+01  0.34796161644E+02  0.51100000000E-03 0.  1.
         12    1    3    3    0    0  0.30806178796E+02 -0.29182166344E+02 -0.12794549262E+02  0.44320649537E+02  0.00000000000E+00 0. -1.
</event>
<event>
 7    1  0.2232484E-015  0.9000776E+02  0.7816164E-02  0.1186339E+00
        -11   -1    0    0    0    0  0.00000000000E+00  0.00000000000E+00  0.45593999997E+02  0.45594000000E+02  0.51100000000E-03 0.  1.
         11   -1    0    0    0    0 -0.00000000000E+00 -0.00000000000E+00 -0.45593999997E+02  0.45594000000E+02  0.51100000000E-03 0. -1.
    9900012    2    1    2    0    0 -0.22643315727E+00  0.11144648128E+01 -0.31570861721E+00  0.90007756074E+02  0.90000017654E+02 0.  0.
        -12    1    1    2    0    0  0.22643315727E+00 -0.11144648128E+01  0.31570861721E+00  0.11802439259E+01  0.00000000000E+00 0.  1.
         11    1    3    3    0    0  0.18155574987E+02  0.37441015178E+02 -0.67241021468E+01  0.42150540574E+02  0.51100000000E-03 0. -1.
        -11    1    3    3    0    0 -0.96290961543E+01  0.11839731451E-01 -0.12290198179E+01  0.97072201429E+01  0.51100000000E-03 0.  1.
        -12    1    3    3    0    0 -0.87529119900E+01 -0.36338390097E+02  0.76374133476E+01  0.38149995358E+02  0.00000000000E+00 0.  1.
</event>
<event>
 7    1  0.2232484E-015  0.9000773E+02  0.7816164E-02  0.1186339E+00
        -11   -1    0    0    0    0  0.00000000000E+00  0.00000000000E+00  0.45593999997E+02  0.45594000000E+02  0.51100000000E-03 0. -1.
         11   -1    0    0    0    0 -0.00000000000E+00 -0.00000000000E+00 -0.45593999997E+02  0.45594000000E+02  0.51100000000E-03 0.  1.
    9900012    2    1    2    0    0 -0.73840304523E+00  0.88097694444E+00 -0.26772050165E+00  0.90007731513E+02  0.89999992769E+02 0.  0.
        -12    1    1    2    0    0  0.73840304523E+00 -0.88097694444E+00  0.26772050165E+00  0.11802684868E+01  0.00000000000E+00 0.  1.
         11    1    3    3    0    0 -0.26368328124E+01 -0.26366484575E+00  0.93145743097E+01  0.96841985349E+01  0.51100000000E-03 0. -1.
        -11    1    3    3    0    0  0.40534124210E+02  0.48004683442E+01 -0.71519712203E+01  0.41439237618E+02  0.51100000000E-03 0.  1.
         12    1    3    3    0    0 -0.38635694443E+02 -0.36558265540E+01 -0.24303235911E+01  0.38884295360E+02  0.00000000000E+00 0. -1.
</event>
<event>
 7    1  0.2232484E-015  0.9000773E+02  0.7816164E-02  0.1186339E+00
        -11   -1    0    0    0    0  0.00000000000E+00  0.00000000000E+00  0.45593999997E+02  0.45594000000E+02  0.51100000000E-03 0. -1.
         11   -1    0    0    0    0 -0.00000000000E+00 -0.00000000000E+00 -0.45593999997E+02  0.45594000000E+02  0.51100000000E-03 0.  1.
    9900012    2    1    2    0    0 -0.56672185337E+00  0.89838844196E+00  0.51453972874E+00  0.90007734528E+02  0.89999995824E+02 0.  0.
        -12    1    1    2    0    0  0.56672185337E+00 -0.89838844196E+00 -0.51453972874E+00  0.11802654719E+01  0.00000000000E+00 0.  1.
         11    1    3    3    0    0 -0.25773851269E+02 -0.33671107301E+01  0.27945701725E+02  0.38165312642E+02  0.51100000000E-03 0. -1.
        -11    1    3    3    0    0 -0.72009324059E+01 -0.53792178087E+01 -0.12422805250E+01  0.90737353340E+01  0.51100000000E-03 0.  1.
        -12    1    3    3    0    0  0.32408061822E+02  0.96447169807E+01 -0.26188881471E+02  0.42768686552E+02  0.00000000000E+00 0.  1.
</event>
<event>
 7    1  0.2232484E-015  0.9000810E+02  0.7816164E-02  0.1186338E+00
        -11   -1    0    0    0    0  0.00000000000E+00  0.00000000000E+00  0.45593999997E+02  0.45594000000E+02  0.51100000000E-03 0. -1.
         11   -1    0    0    0    0 -0.00000000000E+00 -0.00000000000E+00 -0.45593999997E+02  0.45594000000E+02  0.51100000000E-03 0.  1.
    9900012    2    1    2    0    0  0.80005064073E+00 -0.78971279925E+00  0.35837819506E+00  0.90008100740E+02  0.90000366869E+02 0.  0.
        -12    1    1    2    0    0 -0.80005064073E+00  0.78971279925E+00 -0.35837819506E+00  0.11798992600E+01  0.00000000000E+00 0.  1.
         11    1    3    3    0    0  0.37426586916E+02  0.14147942308E+02 -0.77038843611E+01  0.40746331298E+02  0.51100000000E-03 0. -1.
        -11    1    3    3    0    0  0.11419261831E+01  0.54642639746E+01 -0.12326957653E-01  0.55823228505E+01  0.51100000000E-03 0.  1.
        -12    1    3    3    0    0 -0.37768462459E+02 -0.20401919082E+02  0.80745895138E+01  0.43679446591E+02  0.00000000000E+00 0.  1.
</event>
<event>
 7    1  0.2232484E-015  0.9000775E+02  0.7816164E-02  0.1186339E+00
        -11   -1    0    0    0    0  0.00000000000E+00  0.00000000000E+00  0.45593999997E+02  0.45594000000E+02  0.51100000000E-03 0.  1.
         11   -1    0    0    0    0 -0.00000000000E+00 -0.00000000000E+00 -0.45593999997E+02  0.45594000000E+02  0.51100000000E-03 0. -1.
    9900012    2    1    2    0    0 -0.12640751013E-01  0.11672431715E+01  0.17426461054E+00  0.90007752329E+02  0.90000013860E+02 0.  0.
        -12    1    1    2    0    0  0.12640751013E-01 -0.11672431715E+01 -0.17426461054E+00  0.11802476709E+01  0.00000000000E+00 0.  1.
         11    1    3    3    0    0  0.30269287606E+01  0.11187161465E+02 -0.99910497734E+00  0.11632415501E+02  0.51100000000E-03 0. -1.
        -11    1    3    3    0    0 -0.92818167568E+01  0.26239288547E+02  0.22552103536E+02  0.35822475625E+02  0.51100000000E-03 0.  1.
         12    1    3    3    0    0  0.62422472452E+01 -0.36259206841E+02 -0.21378733948E+02  0.42552861203E+02  0.00000000000E+00 0. -1.
</event>
<event>
 7    1  0.2232484E-015  0.9000784E+02  0.7816164E-02  0.1186339E+00
        -11   -1    0    0    0    0  0.00000000000E+00  0.00000000000E+00  0.45593999997E+02  0.45594000000E+02  0.51100000000E-03 0. -1.
         11   -1    0    0    0    0 -0.00000000000E+00 -0.00000000000E+00 -0.45593999997E+02  0.45594000000E+02  0.51100000000E-03 0.  1.
    9900012    2    1    2    0    0 -0.28774021605E+00 -0.11258213444E+01  0.20619707687E+00  0.90007836721E+02  0.90000099365E+02 0.  0.
        -12    1    1    2    0    0  0.28774021605E+00  0.11258213444E+01 -0.20619707687E+00  0.11801632793E+01  0.00000000000E+00 0.  1.
         11    1    3    3    0    0  0.36670230875E+01 -0.61140874659E+01 -0.50259769481E+01  0.87229334750E+01  0.51100000000E-03 0. -1.
        -11    1    3    3    0    0  0.10696227162E+02 -0.34499427263E+02  0.13131517416E+02  0.38432492853E+02  0.51100000000E-03 0.  1.
         12    1    3    3    0    0 -0.14650990465E+02  0.39487693385E+02 -0.78993433909E+01  0.42852410393E+02  0.00000000000E+00 0. -1.
</event>
<event>
 7    1  0.2232484E-015  0.9000792E+02  0.7816164E-02  0.1186339E+00
        -11   -1    0    0    0    0  0.00000000000E+00  0.00000000000E+00  0.45593999997E+02  0.45594000000E+02  0.51100000000E-03 0.  1.
         11   -1    0    0    0    0 -0.00000000000E+00 -0.00000000000E+00 -0.45593999997E+02  0.45594000000E+02  0.51100000000E-03 0. -1.
    9900012    2    1    2    0    0  0.45310344891E+00 -0.54799839293E+00 -0.94179449263E+00  0.90007922951E+02  0.90000186734E+02 0.  0.
        -12    1    1    2    0    0 -0.45310344891E+00  0.54799839293E+00  0.94179449263E+00  0.11800770485E+01  0.00000000000E+00 0.  1.
         11    1    3    3    0    0  0.33830637267E+01  0.38290488149E+01  0.90997643906E+01  0.10436112649E+02  0.51100000000E-03 0. -1.
        -11    1    3    3    0    0 -0.12911907191E+02  0.13221623188E+02  0.29697824091E+02  0.34978413672E+02  0.51100000000E-03 0.  1.
         12    1    3    3    0    0  0.99819469131E+01 -0.17598670396E+02 -0.39739382974E+02  0.44593396630E+02  0.00000000000E+00 0. -1.
</event>
<event>
 7    1  0.2232484E-015  0.9000780E+02  0.7816164E-02  0.1186339E+00
        -11   -1    0    0    0    0  0.00000000000E+00  0.00000000000E+00  0.45593999997E+02  0.45594000000E+02  0.51100000000E-03 0.  1.
         11   -1    0    0    0    0 -0.00000000000E+00 -0.00000000000E+00 -0.45593999997E+02  0.45594000000E+02  0.51100000000E-03 0. -1.
    9900012    2    1    2    0    0  0.77903480802E+00  0.42253824860E+00 -0.77938500486E+00  0.90007798835E+02  0.90000060980E+02 0.  0.
        -12    1    1    2    0    0 -0.77903480802E+00 -0.42253824860E+00  0.77938500486E+00  0.11802011648E+01  0.00000000000E+00 0.  1.
         11    1    3    3    0    0 -0.18905631740E+02 -0.11035468265E+02 -0.32799290737E+02  0.39433462243E+02  0.51100000000E-03 0. -1.
        -11    1    3    3    0    0  0.88115371298E+01  0.13536831569E+00 -0.51629279382E+01  0.10213585870E+02  0.51100000000E-03 0.  1.
        -12    1    3    3    0    0  0.10873129418E+02  0.11322638198E+02  0.37182833671E+02  0.40360750722E+02  0.00000000000E+00 0.  1.
</event>
<event>
 7    1  0.2232484E-015  0.9000781E+02  0.7816164E-02  0.1186339E+00
        -11   -1    0    0    0    0  0.00000000000E+00  0.00000000000E+00  0.45593999997E+02  0.45594000000E+02  0.51100000000E-03 0.  1.
         11   -1    0    0    0    0 -0.00000000000E+00 -0.00000000000E+00 -0.45593999997E+02  0.45594000000E+02  0.51100000000E-03 0. -1.
    9900012    2    1    2    0    0  0.24750295292E-01 -0.11548549188E+01 -0.24195698037E+00  0.90007811184E+02  0.90000073492E+02 0.  0.
        -12    1    1    2    0    0 -0.24750295292E-01  0.11548549188E+01  0.24195698037E+00  0.11801888158E+01  0.00000000000E+00 0.  1.
         11    1    3    3    0    0  0.33626997775E+02  0.43118284184E+01  0.72076524015E+01  0.34660021596E+02  0.51100000000E-03 0. -1.
        -11    1    3    3    0    0  0.55522917716E+01 -0.49204839755E+01  0.10021467624E+02  0.12468717660E+02  0.51100000000E-03 0.  1.
        -12    1    3    3    0    0 -0.39154539251E+02 -0.54619936178E+00 -0.17471077006E+02  0.42879071928E+02  0.00000000000E+00 0.  1.
</event>
<event>
 7    1  0.2232484E-015  0.9000773E+02  0.7816164E-02  0.1186339E+00
        -11   -1    0    0    0    0  0.00000000000E+00  0.00000000000E+00  0.45593999997E+02  0.45594000000E+02  0.51100000000E-03 0. -1.
         11   -1    0    0    0    0 -0.00000000000E+00 -0.00000000000E+00 -0.45593999997E+02  0.45594000000E+02  0.51100000000E-03 0.  1.
    9900012    2    1    2    0    0  0.11152292143E+01 -0.14818631956E-01 -0.38609656425E+00  0.90007734628E+02  0.89999995925E+02 0.  0.
        -12    1    1    2    0    0 -0.11152292143E+01  0.14818631956E-01  0.38609656425E+00  0.11802653724E+01  0.00000000000E+00 0.  1.
         11    1    3    3    0    0  0.40175265262E+02 -0.77021322694E+01  0.65017979214E+01  0.41420383350E+02  0.51100000000E-03 0. -1.
        -11    1    3    3    0    0 -0.17693487066E+01 -0.31058342200E+01 -0.90252713135E+01  0.97073334954E+01  0.51100000000E-03 0.  1.
        -12    1    3    3    0    0 -0.37290687341E+02  0.10793147857E+02  0.21373768279E+01  0.38880017782E+02  0.00000000000E+00 0.  1.
</event>
<event>
 7    1  0.2494153E-015  0.9000784E+02  0.7816164E-02  0.1186339E+00
        -11   -1    0    0    0    0  0.00000000000E+00  0.00000000000E+00  0.45593999997E+02  0.45594000000E+02  0.51100000000E-03 0. -1.
         11   -1    0    0    0    0 -0.00000000000E+00 -0.00000000000E+00 -0.45593999997E+02  0.45594000000E+02  0.51100000000E-03 0.  1.
    9900012    2    1    2    0    0  0.19108693610E+00 -0.20790114350E+00  0.11458813112E+01  0.90007838536E+02  0.90000101204E+02 0.  0.
        -12    1    1    2    0    0 -0.19108693610E+00  0.20790114350E+00 -0.11458813112E+01  0.11801614644E+01  0.00000000000E+00 0.  1.
         11    1    3    3    0    0  0.98878000959E+01 -0.26846967189E+01 -0.70766599047E+00  0.10270198568E+02  0.51100000000E-03 0. -1.
        -11    1    3    3    0    0  0.19667740497E+02  0.62850762620E+01 -0.29889682044E+02  0.36327885884E+02  0.51100000000E-03 0.  1.
         12    1    3    3    0    0 -0.29364453657E+02 -0.38082806866E+01  0.31743229345E+02  0.43409754084E+02  0.00000000000E+00 0. -1.
</event>
<event>
 7    1  0.2232484E-015  0.9000768E+02  0.7816164E-02  0.1186339E+00
        -11   -1    0    0    0    0  0.00000000000E+00  0.00000000000E+00  0.45593999997E+02  0.45594000000E+02  0.51100000000E-03 0.  1.
         11   -1    0    0    0    0 -0.00000000000E+00 -0.00000000000E+00 -0.45593999997E+02  0.45594000000E+02  0.51100000000E-03 0. -1.
    9900012    2    1    2    0    0  0.47109886389E+00 -0.49106664584E+00 -0.96440529206E+00  0.90007678791E+02  0.89999939351E+02 0.  0.
        -12    1    1    2    0    0 -0.47109886389E+00  0.49106664584E+00  0.96440529206E+00  0.11803212095E+01  0.00000000000E+00 0.  1.
         11    1    3    3    0    0 -0.20951449119E+02 -0.21670222525E+02 -0.20400951480E+02  0.36397260694E+02  0.51100000000E-03 0. -1.
        -11    1    3    3    0    0 -0.17137789910E+01 -0.26316774287E+01 -0.92282244070E+01  0.97479685312E+01  0.51100000000E-03 0.  1.
        -12    1    3    3    0    0  0.23136326973E+02  0.23810833307E+02  0.28664770595E+02  0.43862449566E+02  0.00000000000E+00 0.  1.
</event>
<event>
 7    1  0.2232484E-015  0.9000783E+02  0.7816164E-02  0.1186339E+00
        -11   -1    0    0    0    0  0.00000000000E+00  0.00000000000E+00  0.45593999997E+02  0.45594000000E+02  0.51100000000E-03 0. -1.
         11   -1    0    0    0    0 -0.00000000000E+00 -0.00000000000E+00 -0.45593999997E+02  0.45594000000E+02  0.51100000000E-03 0.  1.
    9900012    2    1    2    0    0  0.76593905492E+00 -0.89486648744E+00  0.73158659928E-01  0.90007830158E+02  0.90000092716E+02 0.  0.
        -12    1    1    2    0    0 -0.76593905492E+00  0.89486648744E+00 -0.73158659928E-01  0.11801698419E+01  0.00000000000E+00 0.  1.
         11    1    3    3    0    0  0.12504834947E+01 -0.48223268454E+01 -0.82614940127E+01  0.96473223621E+01  0.51100000000E-03 0. -1.
        -11    1    3    3    0    0 -0.38715023723E+02 -0.73018782681E+01 -0.11010573701E+01  0.39412977758E+02  0.51100000000E-03 0.  1.
         12    1    3    3    0    0  0.38230479284E+02  0.11229338626E+02  0.94357100428E+01  0.40947530038E+02  0.00000000000E+00 0. -1.
</event>
<event>
 7    1  0.2232484E-015  0.9000766E+02  0.7816164E-02  0.1186339E+00
        -11   -1    0    0    0    0  0.00000000000E+00  0.00000000000E+00  0.45593999997E+02  0.45594000000E+02  0.51100000000E-03 0. -1.
         11   -1    0    0    0    0 -0.00000000000E+00 -0.00000000000E+00 -0.45593999997E+02  0.45594000000E+02  0.51100000000E-03 0.  1.
    9900012    2    1    2    0    0 -0.14917649576E+00  0.11330632414E+01  0.29515084196E+00  0.90007661085E+02  0.89999921411E+02 0.  0.
        -12    1    1    2    0    0  0.14917649576E+00 -0.11330632414E+01 -0.29515084196E+00  0.11803389155E+01  0.00000000000E+00 0.  1.
         11    1    3    3    0    0 -0.20470459471E+02 -0.24270298245E+02  0.16954927463E+02  0.35993841881E+02  0.51100000000E-03 0. -1.
        -11    1    3    3    0    0 -0.70231938455E+01 -0.63310513134E+01 -0.23066682134E+01  0.97328403373E+01  0.51100000000E-03 0.  1.
        -12    1    3    3    0    0  0.27344476821E+02  0.31734412800E+02 -0.14353108407E+02  0.44280978866E+02  0.00000000000E+00 0.  1.
</event>
<event>
 7    1  0.2232484E-015  0.9000770E+02  0.7816164E-02  0.1186339E+00
        -11   -1    0    0    0    0  0.00000000000E+00  0.00000000000E+00  0.45593999997E+02  0.45594000000E+02  0.51100000000E-03 0. -1.
         11   -1    0    0    0    0 -0.00000000000E+00 -0.00000000000E+00 -0.45593999997E+02  0.45594000000E+02  0.51100000000E-03 0.  1.
    9900012    2    1    2    0    0 -0.11176189460E+01 -0.47134920494E-01  0.37658857124E+00  0.90007698021E+02  0.89999958835E+02 0.  0.
        -12    1    1    2    0    0  0.11176189460E+01  0.47134920494E-01 -0.37658857124E+00  0.11803019788E+01  0.00000000000E+00 0.  1.
         11    1    3    3    0    0 -0.90692661664E+01  0.90591976551E-01  0.22700912232E+01  0.93494978542E+01  0.51100000000E-03 0. -1.
        -11    1    3    3    0    0 -0.27513256688E+02  0.24985608040E+02 -0.28178453458E+00  0.37166373316E+02  0.51100000000E-03 0.  1.
         12    1    3    3    0    0  0.35464903908E+02 -0.25123334937E+02 -0.16117181174E+01  0.43491826851E+02  0.00000000000E+00 0. -1.
</event>
<event>
 7    1  0.2232484E-015  0.9000781E+02  0.7816164E-02  0.1186339E+00
        -11   -1    0    0    0    0  0.00000000000E+00  0.00000000000E+00  0.45593999997E+02  0.45594000000E+02  0.51100000000E-03 0.  1.
         11   -1    0    0    0    0 -0.00000000000E+00 -0.00000000000E+00 -0.45593999997E+02  0.45594000000E+02  0.51100000000E-03 0. -1.
    9900012    2    1    2    0    0 -0.80735779373E+00 -0.17933121614E+00 -0.84193572856E+00  0.90007812700E+02  0.90000075028E+02 0.  0.
        -12    1    1    2    0    0  0.80735779373E+00  0.17933121614E+00  0.84193572856E+00  0.11801873001E+01  0.00000000000E+00 0.  1.
         11    1    3    3    0    0  0.48012483061E+01 -0.80148362492E+01 -0.39482222348E+02  0.40572595026E+02  0.51100000000E-03 0. -1.
        -11    1    3    3    0    0  0.97447667828E+01  0.13715686384E+01  0.33237516713E+01  0.10386963253E+02  0.51100000000E-03 0.  1.
        -12    1    3    3    0    0 -0.15353372883E+02  0.64639363946E+01  0.35316534948E+02  0.39048254421E+02  0.00000000000E+00 0.  1.
</event>
<event>
 7    1  0.2232484E-015  0.9000779E+02  0.7816164E-02  0.1186339E+00
        -11   -1    0    0    0    0  0.00000000000E+00  0.00000000000E+00  0.45593999997E+02  0.45594000000E+02  0.51100000000E-03 0.  1.
         11   -1    0    0    0    0 -0.00000000000E+00 -0.00000000000E+00 -0.45593999997E+02  0.45594000000E+02  0.51100000000E-03 0. -1.
    9900012    2    1    2    0    0  0.83005205058E+00 -0.28314447120E+00 -0.78976451919E+00  0.90007794427E+02  0.90000056514E+02 0.  0.
        -12    1    1    2    0    0 -0.83005205058E+00  0.28314447120E+00  0.78976451919E+00  0.11802055728E+01  0.00000000000E+00 0.  1.
         11    1    3    3    0    0  0.42012094188E+01  0.40469263949E+02 -0.54990275559E+00  0.40690464220E+02  0.51100000000E-03 0. -1.
        -11    1    3    3    0    0 -0.16995114291E+01  0.25807779973E+01  0.47490518790E+01  0.56658845894E+01  0.51100000000E-03 0.  1.
        -12    1    3    3    0    0 -0.16716459391E+01 -0.43333186417E+02 -0.49889136426E+01  0.43651445618E+02  0.00000000000E+00 0.  1.
</event>
<event>
 7    1  0.2232484E-015  0.9000771E+02  0.7816164E-02  0.1186339E+00
        -11   -1    0    0    0    0  0.00000000000E+00  0.00000000000E+00  0.45593999997E+02  0.45594000000E+02  0.51100000000E-03 0.  1.
         11   -1    0    0    0    0 -0.00000000000E+00 -0.00000000000E+00 -0.45593999997E+02  0.45594000000E+02  0.51100000000E-03 0. -1.
    9900012    2    1    2    0    0 -0.34522639294E-01 -0.11191486304E+01  0.37336851487E+00  0.90007707868E+02  0.89999968812E+02 0.  0.
        -12    1    1    2    0    0  0.34522639294E-01  0.11191486304E+01 -0.37336851487E+00  0.11802921323E+01  0.00000000000E+00 0.  1.
         11    1    3    3    0    0  0.26294359497E+02  0.16123109681E+02 -0.19258682839E+02  0.36362685161E+02  0.51100000000E-03 0. -1.
        -11    1    3    3    0    0  0.28636257049E+01  0.10974827737E+01 -0.85711428579E+01  0.91032582502E+01  0.51100000000E-03 0.  1.
        -12    1    3    3    0    0 -0.29192507841E+02 -0.18339741085E+02  0.28203194212E+02  0.44541764457E+02  0.00000000000E+00 0.  1.
</event>
<event>
 7    1  0.2232484E-015  0.9000772E+02  0.7816164E-02  0.1186339E+00
        -11   -1    0    0    0    0  0.00000000000E+00  0.00000000000E+00  0.45593999997E+02  0.45594000000E+02  0.51100000000E-03 0.  1.
         11   -1    0    0    0    0 -0.00000000000E+00 -0.00000000000E+00 -0.45593999997E+02  0.45594000000E+02  0.51100000000E-03 0. -1.
    9900012    2    1    2    0    0 -0.46086171091E+00  0.63408355342E+00 -0.88238069341E+00  0.90007724118E+02  0.89999985276E+02 0.  0.
        -12    1    1    2    0    0  0.46086171091E+00 -0.63408355342E+00  0.88238069341E+00  0.11802758819E+01  0.00000000000E+00 0.  1.
         11    1    3    3    0    0  0.57777267066E+01  0.77471140851E+01 -0.56394658897E+01  0.11189436015E+02  0.51100000000E-03 0. -1.
        -11    1    3    3    0    0  0.30362060630E+02  0.36463310034E+01  0.21268433373E+02  0.37249116955E+02  0.51100000000E-03 0.  1.
         12    1    3    3    0    0 -0.36600649048E+02 -0.10759361535E+02 -0.16511348177E+02  0.41569171149E+02  0.00000000000E+00 0. -1.
</event>
<event>
 7    1  0.2232484E-015  0.9000774E+02  0.7816164E-02  0.1186339E+00
        -11   -1    0    0    0    0  0.00000000000E+00  0.00000000000E+00  0.45593999997E+02  0.45594000000E+02  0.51100000000E-03 0.  1.
         11   -1    0    0    0    0 -0.00000000000E+00 -0.00000000000E+00 -0.45593999997E+02  0.45594000000E+02  0.51100000000E-03 0. -1.
    9900012    2    1    2    0    0 -0.85679754970E+00  0.67322282485E+00 -0.45351736955E+00  0.90007741970E+02  0.90000003364E+02 0.  0.
        -12    1    1    2    0    0  0.85679754970E+00 -0.67322282485E+00  0.45351736955E+00  0.11802580301E+01  0.00000000000E+00 0.  1.
         11    1    3    3    0    0 -0.51390203323E+01  0.19662720545E+02 -0.27142098943E+02  0.33907604524E+02  0.51100000000E-03 0. -1.
        -11    1    3    3    0    0  0.29520570293E+01 -0.77916926212E+01 -0.12666533465E+02  0.15161338493E+02  0.51100000000E-03 0.  1.
        -12    1    3    3    0    0  0.13301657533E+01 -0.11197805099E+02  0.39355115039E+02  0.40938798953E+02  0.00000000000E+00 0.  1.
</event>
<event>
 7    1  0.2232484E-015  0.9000750E+02  0.7816164E-02  0.1186340E+00
        -11   -1    0    0    0    0  0.00000000000E+00  0.00000000000E+00  0.45593999997E+02  0.45594000000E+02  0.51100000000E-03 0. -1.
         11   -1    0    0    0    0 -0.00000000000E+00 -0.00000000000E+00 -0.45593999997E+02  0.45594000000E+02  0.51100000000E-03 0.  1.
    9900012    2    1    2    0    0  0.90460073892E-01  0.63102012186E+00  0.99358330884E+00  0.90007501287E+02  0.89999759504E+02 0.  0.
        -12    1    1    2    0    0 -0.90460073892E-01 -0.63102012186E+00 -0.99358330884E+00  0.11804987127E+01  0.00000000000E+00 0.  1.
         11    1    3    3    0    0  0.10567821623E+02 -0.23125629136E+01  0.18535574119E+01  0.10975539915E+02  0.51100000000E-03 0. -1.
        -11    1    3    3    0    0 -0.35089041815E+02  0.11492008068E+02 -0.24122215324E+02  0.44104289783E+02  0.51100000000E-03 0.  1.
         12    1    3    3    0    0  0.24611680265E+02 -0.85484250321E+01  0.23262241221E+02  0.34927671589E+02  0.00000000000E+00 0. -1.
</event>
<event>
 7    1  0.2232484E-015  0.9000790E+02  0.7816164E-02  0.1186339E+00
        -11   -1    0    0    0    0  0.00000000000E+00  0.00000000000E+00  0.45593999997E+02  0.45594000000E+02  0.51100000000E-03 0.  1.
         11   -1    0    0    0    0 -0.00000000000E+00 -0.00000000000E+00 -0.45593999997E+02  0.45594000000E+02  0.51100000000E-03 0. -1.
    9900012    2    1    2    0    0 -0.53566559818E+00 -0.26698862500E+00 -0.10170603077E+01  0.90007901602E+02  0.90000165103E+02 0.  0.
        -12    1    1    2    0    0  0.53566559818E+00  0.26698862500E+00  0.10170603077E+01  0.11800983977E+01  0.00000000000E+00 0.  1.
         11    1    3    3    0    0  0.27769195471E+02  0.22969165972E+02 -0.40544681304E+01  0.36264990206E+02  0.51100000000E-03 0. -1.
        -11    1    3    3    0    0 -0.34449036149E+01  0.10023661285E+02  0.58817573102E+01  0.12121724951E+02  0.51100000000E-03 0.  1.
        -12    1    3    3    0    0 -0.24859957454E+02 -0.33259815882E+02 -0.28443494875E+01  0.41621186445E+02  0.00000000000E+00 0.  1.
</event>
<event>
 7    1  0.2232484E-015  0.9000782E+02  0.7816164E-02  0.1186339E+00
        -11   -1    0    0    0    0  0.00000000000E+00  0.00000000000E+00  0.45593999997E+02  0.45594000000E+02  0.51100000000E-03 0.  1.
         11   -1    0    0    0    0 -0.00000000000E+00 -0.00000000000E+00 -0.45593999997E+02  0.45594000000E+02  0.51100000000E-03 0. -1.
    9900012    2    1    2    0    0 -0.49331731993E+00 -0.86641854302E+00 -0.63148895002E+00  0.90007821470E+02  0.90000083913E+02 0.  0.
        -12    1    1    2    0    0  0.49331731993E+00  0.86641854302E+00  0.63148895002E+00  0.11801785305E+01  0.00000000000E+00 0.  1.
         11    1    3    3    0    0  0.39140072134E+01  0.38132898658E+02 -0.56645216343E+01  0.38749506037E+02  0.51100000000E-03 0. -1.
        -11    1    3    3    0    0 -0.81224953399E+00  0.25826094805E+01 -0.72601470024E+01  0.77485066814E+01  0.51100000000E-03 0.  1.
        -12    1    3    3    0    0 -0.35950749993E+01 -0.41581926681E+02  0.12293179687E+02  0.43509808751E+02  0.00000000000E+00 0.  1.
</event>
<event>
 7    1  0.2232484E-015  0.9000777E+02  0.7816164E-02  0.1186339E+00
        -11   -1    0    0    0    0  0.00000000000E+00  0.00000000000E+00  0.45593999997E+02  0.45594000000E+02  0.51100000000E-03 0. -1.
         11   -1    0    0    0    0 -0.00000000000E+00 -0.00000000000E+00 -0.45593999997E+02  0.45594000000E+02  0.51100000000E-03 0.  1.
    9900012    2    1    2    0    0  0.90292449836E+00 -0.57389498400E+00  0.49830546452E+00  0.90007772717E+02  0.90000034517E+02 0.  0.
        -12    1    1    2    0    0 -0.90292449836E+00  0.57389498400E+00 -0.49830546452E+00  0.11802272825E+01  0.00000000000E+00 0.  1.
         11    1    3    3    0    0  0.20983906238E+02 -0.28684580176E+02 -0.41226022243E+00  0.35542923622E+02  0.51100000000E-03 0. -1.
        -11    1    3    3    0    0  0.74097473453E+01 -0.35607168144E+01 -0.81313301554E+01  0.11562940383E+02  0.51100000000E-03 0.  1.
        -12    1    3    3    0    0 -0.27490729085E+02  0.31671402006E+02  0.90418958423E+01  0.42901908712E+02  0.00000000000E+00 0.  1.
</event>
<event>
 7    1  0.2232484E-015  0.9000771E+02  0.7816164E-02  0.1186339E+00
        -11   -1    0    0    0    0  0.00000000000E+00  0.00000000000E+00  0.45593999997E+02  0.45594000000E+02  0.51100000000E-03 0. -1.
         11   -1    0    0    0    0 -0.00000000000E+00 -0.00000000000E+00 -0.45593999997E+02  0.45594000000E+02  0.51100000000E-03 0.  1.
    9900012    2    1    2    0    0  0.20083024346E+00  0.26143335254E+00 -0.11333105131E+01  0.90007714906E+02  0.89999975943E+02 0.  0.
        -12    1    1    2    0    0 -0.20083024346E+00 -0.26143335254E+00  0.11333105131E+01  0.11802850942E+01  0.00000000000E+00 0.  1.
         11    1    3    3    0    0  0.16916631124E+02  0.30517869829E+02  0.94053192678E+01  0.36138245921E+02  0.51100000000E-03 0. -1.
        -11    1    3    3    0    0  0.90911475492E+01  0.33538130166E+01  0.15281337457E+01  0.98098021650E+01  0.51100000000E-03 0.  1.
        -12    1    3    3    0    0 -0.25806948430E+02 -0.33610249493E+02 -0.12066763527E+02  0.44059666819E+02  0.00000000000E+00 0.  1.
</event>
<event>
 7    1  0.2232484E-015  0.9000794E+02  0.7816164E-02  0.1186339E+00
        -11   -1    0    0    0    0  0.00000000000E+00  0.00000000000E+00  0.45593999997E+02  0.45594000000E+02  0.51100000000E-03 0. -1.
         11   -1    0    0    0    0 -0.00000000000E+00 -0.00000000000E+00 -0.45593999997E+02  0.45594000000E+02  0.51100000000E-03 0.  1.
    9900012    2    1    2    0    0 -0.46571721759E+00  0.10537038993E+01  0.25565331410E+00  0.90007939387E+02  0.90000203386E+02 0.  0.
        -12    1    1    2    0    0  0.46571721759E+00 -0.10537038993E+01 -0.25565331410E+00  0.11800606134E+01  0.00000000000E+00 0.  1.
         11    1    3    3    0    0  0.20562943138E+02  0.22438267843E+02  0.18126254734E+02  0.35424166966E+02  0.51100000000E-03 0. -1.
        -11    1    3    3    0    0  0.44366967912E+01  0.70779899581E+01  0.53189130137E+01  0.99031841431E+01  0.51100000000E-03 0.  1.
        -12    1    3    3    0    0 -0.25465357147E+02 -0.28462553902E+02 -0.23189514433E+02  0.44680588278E+02  0.00000000000E+00 0.  1.
</event>
<event>
 7    1  0.2232484E-015  0.9000772E+02  0.7816164E-02  0.1186339E+00
        -11   -1    0    0    0    0  0.00000000000E+00  0.00000000000E+00  0.45593999997E+02  0.45594000000E+02  0.51100000000E-03 0. -1.
         11   -1    0    0    0    0 -0.00000000000E+00 -0.00000000000E+00 -0.45593999997E+02  0.45594000000E+02  0.51100000000E-03 0.  1.
    9900012    2    1    2    0    0  0.56761563220E-01 -0.18326866873E+00  0.11645829643E+01  0.90007719203E+02  0.89999980296E+02 0.  0.
        -12    1    1    2    0    0 -0.56761563220E-01  0.18326866873E+00 -0.11645829643E+01  0.11802807974E+01  0.00000000000E+00 0.  1.
         11    1    3    3    0    0  0.78245626811E+01 -0.53482840721E+01 -0.98068070883E+00  0.95283607499E+01  0.51100000000E-03 0. -1.
        -11    1    3    3    0    0 -0.42016719991E+02 -0.37992869866E+01  0.11755859245E+02  0.43795428612E+02  0.51100000000E-03 0.  1.
         12    1    3    3    0    0  0.34248918874E+02  0.89643023900E+01 -0.96105955716E+01  0.36683929841E+02  0.00000000000E+00 0. -1.
</event>
<event>
 7    1  0.2232484E-015  0.9000778E+02  0.7816164E-02  0.1186339E+00
        -11   -1    0    0    0    0  0.00000000000E+00  0.00000000000E+00  0.45593999997E+02  0.45594000000E+02  0.51100000000E-03 0.  1.
         11   -1    0    0    0    0 -0.00000000000E+00 -0.00000000000E+00 -0.45593999997E+02  0.45594000000E+02  0.51100000000E-03 0. -1.
    9900012    2    1    2    0    0 -0.26834201060E+00 -0.11213565747E+01 -0.25195417306E+00  0.90007775908E+02  0.90000037750E+02 0.  0.
        -12    1    1    2    0    0  0.26834201060E+00  0.11213565747E+01  0.25195417306E+00  0.11802240921E+01  0.00000000000E+00 0.  1.
         11    1    3    3    0    0 -0.30329278093E+01 -0.28540508499E+02  0.27520225439E+02  0.39763325879E+02  0.51100000000E-03 0. -1.
        -11    1    3    3    0    0 -0.54149462626E+01  0.15981847031E+01  0.51295597896E+01  0.76281204283E+01  0.51100000000E-03 0.  1.
        -12    1    3    3    0    0  0.81795320613E+01  0.25820967222E+02 -0.32901739401E+02  0.42616329601E+02  0.00000000000E+00 0.  1.
</event>
<event>
 7    1  0.2232484E-015  0.9000770E+02  0.7816164E-02  0.1186339E+00
        -11   -1    0    0    0    0  0.00000000000E+00  0.00000000000E+00  0.45593999997E+02  0.45594000000E+02  0.51100000000E-03 0.  1.
         11   -1    0    0    0    0 -0.00000000000E+00 -0.00000000000E+00 -0.45593999997E+02  0.45594000000E+02  0.51100000000E-03 0. -1.
    9900012    2    1    2    0    0  0.98687842061E+00  0.12149625195E+00 -0.63593460070E+00  0.90007702083E+02  0.89999962951E+02 0.  0.
        -12    1    1    2    0    0 -0.98687842061E+00 -0.12149625195E+00  0.63593460070E+00  0.11802979169E+01  0.00000000000E+00 0.  1.
         11    1    3    3    0    0  0.15356723097E+02 -0.23317212058E+02  0.24712170871E+01  0.28029060573E+02  0.51100000000E-03 0. -1.
        -11    1    3    3    0    0 -0.20971010227E+02 -0.10274503809E+02  0.97387815734E+01  0.25302026900E+02  0.51100000000E-03 0.  1.
         12    1    3    3    0    0  0.66011655501E+01  0.33713212118E+02 -0.12845933261E+02  0.36676614611E+02  0.00000000000E+00 0. -1.
</event>
<event>
 7    1  0.2232484E-015  0.9000768E+02  0.7816164E-02  0.1186339E+00
        -11   -1    0    0    0    0  0.00000000000E+00  0.00000000000E+00  0.45593999997E+02  0.45594000000E+02  0.51100000000E-03 0. -1.
         11   -1    0    0    0    0 -0.00000000000E+00 -0.00000000000E+00 -0.45593999997E+02  0.45594000000E+02  0.51100000000E-03 0.  1.
    9900012    2    1    2    0    0 -0.73756484903E+00 -0.80657908386E+00 -0.44561851414E+00  0.90007683269E+02  0.89999943888E+02 0.  0.
        -12    1    1    2    0    0  0.73756484903E+00  0.80657908386E+00  0.44561851414E+00  0.11803167309E+01  0.00000000000E+00 0.  1.
         11    1    3    3    0    0  0.32228403257E+02  0.15047868942E+02  0.13931607429E+02  0.38199450546E+02  0.51100000000E-03 0. -1.
        -11    1    3    3    0    0 -0.32009595591E+01  0.91166867718E+01 -0.77679491672E+01  0.12397626963E+02  0.51100000000E-03 0.  1.
        -12    1    3    3    0    0 -0.29765008547E+02 -0.24971134797E+02 -0.66092767759E+01  0.39410605760E+02  0.00000000000E+00 0.  1.
</event>
<event>
 7    1  0.2232484E-015  0.9000785E+02  0.7816164E-02  0.1186339E+00
        -11   -1    0    0    0    0  0.00000000000E+00  0.00000000000E+00  0.45593999997E+02  0.45594000000E+02  0.51100000000E-03 0.  1.
         11   -1    0    0    0    0 -0.00000000000E+00 -0.00000000000E+00 -0.45593999997E+02  0.45594000000E+02  0.51100000000E-03 0. -1.
    9900012    2    1    2    0    0  0.33562983712E+00 -0.11309433948E+01  0.32735046774E-01  0.90007850885E+02  0.90000113717E+02 0.  0.
        -12    1    1    2    0    0 -0.33562983712E+00  0.11309433948E+01 -0.32735046774E-01  0.11801491148E+01  0.00000000000E+00 0.  1.
         11    1    3    3    0    0 -0.55746759067E+01 -0.81725344218E+01 -0.14397101778E+01  0.99970043512E+01  0.51100000000E-03 0. -1.
        -11    1    3    3    0    0  0.32065467289E+00 -0.26603272627E+02  0.26620137173E+02  0.37636001877E+02  0.51100000000E-03 0.  1.
         12    1    3    3    0    0  0.55896510709E+01  0.33644863654E+02 -0.25147691948E+02  0.42374844657E+02  0.00000000000E+00 0. -1.
</event>
<event>
 7    1  0.2334925E-015  0.9000766E+02  0.7816164E-02  0.1186339E+00
        -11   -1    0    0    0    0  0.00000000000E+00  0.00000000000E+00  0.45593999997E+02  0.45594000000E+02  0.51100000000E-03 0. -1.
         11   -1    0    0    0    0 -0.00000000000E+00 -0.00000000000E+00 -0.45593999997E+02  0.45594000000E+02  0.51100000000E-03 0.  1.
    9900012    2    1    2    0    0 -0.92630406862E+00 -0.14893433631E+00  0.71622660857E+00  0.90007660549E+02  0.89999920869E+02 0.  0.
        -12    1    1    2    0    0  0.92630406862E+00  0.14893433631E+00 -0.71622660857E+00  0.11803394507E+01  0.00000000000E+00 0.  1.
         11    1    3    3    0    0  0.42911505106E+01 -0.85676999935E+01 -0.12450198852E+01  0.96627910388E+01  0.51100000000E-03 0. -1.
        -11    1    3    3    0    0 -0.33528366317E+02 -0.16486725783E+02 -0.13310815538E+02  0.39662845151E+02  0.51100000000E-03 0.  1.
         12    1    3    3    0    0  0.28310911737E+02  0.24905491440E+02  0.15272062032E+02  0.40682024360E+02  0.00000000000E+00 0. -1.
</event>
<event>
 7    1  0.2232484E-015  0.9000768E+02  0.7816164E-02  0.1186339E+00
        -11   -1    0    0    0    0  0.00000000000E+00  0.00000000000E+00  0.45593999997E+02  0.45594000000E+02  0.51100000000E-03 0.  1.
         11   -1    0    0    0    0 -0.00000000000E+00 -0.00000000000E+00 -0.45593999997E+02  0.45594000000E+02  0.51100000000E-03 0. -1.
    9900012    2    1    2    0    0  0.82051252241E+00 -0.74278195640E-01  0.84521388365E+00  0.90007684551E+02  0.89999945187E+02 0.  0.
        -12    1    1    2    0    0 -0.82051252241E+00  0.74278195640E-01 -0.84521388365E+00  0.11803154489E+01  0.00000000000E+00 0.  1.
         11    1    3    3    0    0  0.48605577757E+01  0.58969334862E+01 -0.41044741343E+01  0.86744195548E+01  0.51100000000E-03 0. -1.
        -11    1    3    3    0    0  0.24736270970E+02 -0.33309912814E+02  0.24976429148E+01  0.41565269319E+02  0.51100000000E-03 0.  1.
         12    1    3    3    0    0 -0.28776316223E+02  0.27338701132E+02  0.24520451032E+01  0.39767995677E+02  0.00000000000E+00 0. -1.
</event>
<event>
 7    1  0.2232484E-015  0.9000776E+02  0.7816164E-02  0.1186339E+00
        -11   -1    0    0    0    0  0.00000000000E+00  0.00000000000E+00  0.45593999997E+02  0.45594000000E+02  0.51100000000E-03 0. -1.
         11   -1    0    0    0    0 -0.00000000000E+00 -0.00000000000E+00 -0.45593999997E+02  0.45594000000E+02  0.51100000000E-03 0.  1.
    9900012    2    1    2    0    0 -0.43858195219E+00 -0.10168260454E+01  0.40826604761E+00  0.90007758287E+02  0.90000019896E+02 0.  0.
        -12    1    1    2    0    0  0.43858195219E+00  0.10168260454E+01 -0.40826604761E+00  0.11802417130E+01  0.00000000000E+00 0.  1.
         11    1    3    3    0    0  0.89647046872E+01 -0.34874075447E+01 -0.19407639460E+01  0.98129764326E+01  0.51100000000E-03 0. -1.
        -11    1    3    3    0    0  0.23488696771E+02  0.28611069366E+02 -0.55884739303E+01  0.37437190164E+02  0.51100000000E-03 0.  1.
         12    1    3    3    0    0 -0.32891983410E+02 -0.26140487867E+02  0.79375039239E+01  0.42757591690E+02  0.00000000000E+00 0. -1.
</event>
<event>
 7    1  0.2232484E-015  0.9000775E+02  0.7816164E-02  0.1186339E+00
        -11   -1    0    0    0    0  0.00000000000E+00  0.00000000000E+00  0.45593999997E+02  0.45594000000E+02  0.51100000000E-03 0.  1.
         11   -1    0    0    0    0 -0.00000000000E+00 -0.00000000000E+00 -0.45593999997E+02  0.45594000000E+02  0.51100000000E-03 0. -1.
    9900012    2    1    2    0    0 -0.40476662295E+00  0.12316042130E+00 -0.11018102036E+01  0.90007749928E+02  0.90000011427E+02 0.  0.
        -12    1    1    2    0    0  0.40476662295E+00 -0.12316042130E+00  0.11018102036E+01  0.11802500724E+01  0.00000000000E+00 0.  1.
         11    1    3    3    0    0 -0.51071492258E+01  0.51908548290E+01 -0.62077014832E+01  0.95688821204E+01  0.51100000000E-03 0. -1.
        -11    1    3    3    0    0  0.20392436695E+02 -0.74003297468E+00  0.38340622999E+02  0.43432735297E+02  0.51100000000E-03 0.  1.
         12    1    3    3    0    0 -0.15690054092E+02 -0.43276614330E+01 -0.33234731719E+02  0.37006132510E+02  0.00000000000E+00 0. -1.
</event>
<event>
 7    1  0.2232484E-015  0.9000772E+02  0.7816164E-02  0.1186339E+00
        -11   -1    0    0    0    0  0.00000000000E+00  0.00000000000E+00  0.45593999997E+02  0.45594000000E+02  0.51100000000E-03 0.  1.
         11   -1    0    0    0    0 -0.00000000000E+00 -0.00000000000E+00 -0.45593999997E+02  0.45594000000E+02  0.51100000000E-03 0. -1.
    9900012    2    1    2    0    0 -0.68387387220E+00 -0.90565515122E+00 -0.32430971657E+00  0.90007715493E+02  0.89999976537E+02 0.  0.
        -12    1    1    2    0    0  0.68387387220E+00  0.90565515122E+00  0.32430971657E+00  0.11802845073E+01  0.00000000000E+00 0.  1.
         11    1    3    3    0    0  0.69150884762E+01  0.49888645530E+01  0.41352020496E+01  0.94766615648E+01  0.51100000000E-03 0. -1.
        -11    1    3    3    0    0 -0.15107950313E+02 -0.36620911832E+02  0.16148031289E+02  0.42779671116E+02  0.51100000000E-03 0.  1.
         12    1    3    3    0    0  0.75089879647E+01  0.30726392128E+02 -0.20607543055E+02  0.37751382812E+02  0.00000000000E+00 0. -1.
</event>
<event>
 7    1  0.2232484E-015  0.9000774E+02  0.7816164E-02  0.1186339E+00
        -11   -1    0    0    0    0  0.00000000000E+00  0.00000000000E+00  0.45593999997E+02  0.45594000000E+02  0.51100000000E-03 0.  1.
         11   -1    0    0    0    0 -0.00000000000E+00 -0.00000000000E+00 -0.45593999997E+02  0.45594000000E+02  0.51100000000E-03 0. -1.
    9900012    2    1    2    0    0  0.11326012236E+01  0.10263676182E+00  0.31572781988E+00  0.90007744141E+02  0.90000005564E+02 0.  0.
        -12    1    1    2    0    0 -0.11326012236E+01 -0.10263676182E+00 -0.31572781988E+00  0.11802558591E+01  0.00000000000E+00 0.  1.
         11    1    3    3    0    0  0.85384180857E+01  0.36920821906E+01 -0.38716498483E+01  0.10075997574E+02  0.51100000000E-03 0. -1.
        -11    1    3    3    0    0  0.30715619581E+02  0.46182299385E+01  0.20971819294E+02  0.37477920684E+02  0.51100000000E-03 0.  1.
         12    1    3    3    0    0 -0.38121436443E+02 -0.82076753673E+01 -0.16784441626E+02  0.42453825883E+02  0.00000000000E+00 0. -1.
</event>
<event>
 7    1  0.2232484E-015  0.9000763E+02  0.7816164E-02  0.1186339E+00
        -11   -1    0    0    0    0  0.00000000000E+00  0.00000000000E+00  0.45593999997E+02  0.45594000000E+02  0.51100000000E-03 0. -1.
         11   -1    0    0    0    0 -0.00000000000E+00 -0.00000000000E+00 -0.45593999997E+02  0.45594000000E+02  0.51100000000E-03 0.  1.
    9900012    2    1    2    0    0  0.28125880817E+00 -0.89993199782E+00  0.71013201454E+00  0.90007630737E+02  0.89999890663E+02 0.  0.
        -12    1    1    2    0    0 -0.28125880817E+00  0.89993199782E+00 -0.71013201454E+00  0.11803692625E+01  0.00000000000E+00 0.  1.
         11    1    3    3    0    0  0.10351305163E+02 -0.10473095784E+02  0.34118920481E+02  0.37160947094E+02  0.51100000000E-03 0. -1.
        -11    1    3    3    0    0 -0.21006957122E+01  0.15677078823E+01  0.87846390333E+01  0.91673613263E+01  0.51100000000E-03 0.  1.
        -12    1    3    3    0    0 -0.79693506423E+01  0.80054559041E+01 -0.42193427500E+02  0.43679322317E+02  0.00000000000E+00 0.  1.
</event>
<event>
 7    1  0.2232484E-015  0.9000768E+02  0.7816164E-02  0.1186339E+00
        -11   -1    0    0    0    0  0.00000000000E+00  0.00000000000E+00  0.45593999997E+02  0.45594000000E+02  0.51100000000E-03 0. -1.
         11   -1    0    0    0    0 -0.00000000000E+00 -0.00000000000E+00 -0.45593999997E+02  0.45594000000E+02  0.51100000000E-03 0.  1.
    9900012    2    1    2    0    0 -0.65675545301E+00  0.28588213085E+00  0.93814107099E+00  0.90007675898E+02  0.89999936419E+02 0.  0.
        -12    1    1    2    0    0  0.65675545301E+00 -0.28588213085E+00 -0.93814107099E+00  0.11803241025E+01  0.00000000000E+00 0.  1.
         11    1    3    3    0    0  0.18559438983E+02  0.17847686623E+02 -0.74154698991E+01  0.26795184031E+02  0.51100000000E-03 0. -1.
        -11    1    3    3    0    0 -0.17773601420E+02 -0.17391391335E+00 -0.21950471869E+02  0.28244545828E+02  0.51100000000E-03 0.  1.
        -12    1    3    3    0    0 -0.14425930158E+01 -0.17387890579E+02  0.30304082839E+02  0.34967946038E+02  0.00000000000E+00 0.  1.
</event>
<event>
 7    1  0.2295017E-015  0.9000785E+02  0.7816164E-02  0.1186339E+00
        -11   -1    0    0    0    0  0.00000000000E+00  0.00000000000E+00  0.45593999997E+02  0.45594000000E+02  0.51100000000E-03 0.  1.
         11   -1    0    0    0    0 -0.00000000000E+00 -0.00000000000E+00 -0.45593999997E+02  0.45594000000E+02  0.51100000000E-03 0. -1.
    9900012    2    1    2    0    0 -0.23099487344E+00  0.33643279420E+00 -0.11073390619E+01  0.90007853630E+02  0.90000116498E+02 0.  0.
        -12    1    1    2    0    0  0.23099487344E+00 -0.33643279420E+00  0.11073390619E+01  0.11801463700E+01  0.00000000000E+00 0.  1.
         11    1    3    3    0    0 -0.66230311275E+01 -0.53275252703E+01  0.56438497020E+01  0.10202945974E+02  0.51100000000E-03 0. -1.
        -11    1    3    3    0    0 -0.10041794452E+02 -0.73097899757E+01  0.32789334642E+02  0.35062959542E+02  0.51100000000E-03 0.  1.
         12    1    3    3    0    0  0.16433830706E+02  0.12973748040E+02 -0.39540523406E+02  0.44741948115E+02  0.00000000000E+00 0. -1.
</event>
<event>
 7    1  0.2232484E-015  0.9000771E+02  0.7816164E-02  0.1186339E+00
        -11   -1    0    0    0    0  0.00000000000E+00  0.00000000000E+00  0.45593999997E+02  0.45594000000E+02  0.51100000000E-03 0. -1.
         11   -1    0    0    0    0 -0.00000000000E+00 -0.00000000000E+00 -0.45593999997E+02  0.45594000000E+02  0.51100000000E-03 0.  1.
    9900012    2    1    2    0    0  0.11387920570E+00 -0.10670826476E+01  0.49137858206E+00  0.90007709035E+02  0.89999969995E+02 0.  0.
        -12    1    1    2    0    0 -0.11387920570E+00  0.10670826476E+01 -0.49137858206E+00  0.11802909646E+01  0.00000000000E+00 0.  1.
         11    1    3    3    0    0  0.19605236718E+02  0.14187191776E+02  0.31182037415E+02  0.39471016897E+02  0.51100000000E-03 0. -1.
        -11    1    3    3    0    0 -0.18444915172E+01 -0.66670816253E+01  0.58498860196E+01  0.90594311664E+01  0.51100000000E-03 0.  1.
        -12    1    3    3    0    0 -0.17646865995E+02 -0.85871927984E+01 -0.36540544853E+02  0.41477260972E+02  0.00000000000E+00 0.  1.
</event>
<event>
 7    1  0.2232484E-015  0.9000770E+02  0.7816164E-02  0.1186339E+00
        -11   -1    0    0    0    0  0.00000000000E+00  0.00000000000E+00  0.45593999997E+02  0.45594000000E+02  0.51100000000E-03 0.  1.
         11   -1    0    0    0    0 -0.00000000000E+00 -0.00000000000E+00 -0.45593999997E+02  0.45594000000E+02  0.51100000000E-03 0. -1.
    9900012    2    1    2    0    0  0.26483117264E+00  0.50214986576E+00 -0.10347997222E+01  0.90007703214E+02  0.89999964097E+02 0.  0.
        -12    1    1    2    0    0 -0.26483117264E+00 -0.50214986576E+00  0.10347997222E+01  0.11802967859E+01  0.00000000000E+00 0.  1.
         11    1    3    3    0    0 -0.89590123792E+01 -0.13041289922E+02 -0.60989333209E+01  0.16956890445E+02  0.51100000000E-03 0. -1.
        -11    1    3    3    0    0  0.13361596752E+02 -0.27352193344E+02 -0.47014786723E+01  0.30802250737E+02  0.51100000000E-03 0.  1.
         12    1    3    3    0    0 -0.41377532006E+01  0.40895633132E+02  0.97656122710E+01  0.42248562032E+02  0.00000000000E+00 0. -1.
</event>
<event>
 7    1  0.2232484E-015  0.9000771E+02  0.7816164E-02  0.1186339E+00
        -11   -1    0    0    0    0  0.00000000000E+00  0.00000000000E+00  0.45593999997E+02  0.45594000000E+02  0.51100000000E-03 0. -1.
         11   -1    0    0    0    0 -0.00000000000E+00 -0.00000000000E+00 -0.45593999997E+02  0.45594000000E+02  0.51100000000E-03 0.  1.
    9900012    2    1    2    0    0 -0.49565839204E+00  0.10524178090E+01  0.19953765040E+00  0.90007713696E+02  0.89999974716E+02 0.  0.
        -12    1    1    2    0    0  0.49565839204E+00 -0.10524178090E+01 -0.19953765040E+00  0.11802863043E+01  0.00000000000E+00 0.  1.
         11    1    3    3    0    0 -0.13436614277E+02  0.13525204675E+02  0.49112998847E+01  0.19687423182E+02  0.51100000000E-03 0. -1.
        -11    1    3    3    0    0  0.13906183871E+02  0.21326499776E+02  0.16560989136E+02  0.30372156723E+02  0.51100000000E-03 0.  1.
         12    1    3    3    0    0 -0.96522798587E+00 -0.33799286642E+02 -0.21272751370E+02  0.39948133791E+02  0.00000000000E+00 0. -1.
</event>
<event>
 7    1  0.2232484E-015  0.9000775E+02  0.7816164E-02  0.1186339E+00
        -11   -1    0    0    0    0  0.00000000000E+00  0.00000000000E+00  0.45593999997E+02  0.45594000000E+02  0.51100000000E-03 0.  1.
         11   -1    0    0    0    0 -0.00000000000E+00 -0.00000000000E+00 -0.45593999997E+02  0.45594000000E+02  0.51100000000E-03 0. -1.
    9900012    2    1    2    0    0 -0.11397818083E+01  0.30423313900E+00 -0.36518148727E-01  0.90007748354E+02  0.90000009832E+02 0.  0.
        -12    1    1    2    0    0  0.11397818083E+01 -0.30423313900E+00  0.36518148727E-01  0.11802516463E+01  0.00000000000E+00 0.  1.
         11    1    3    3    0    0 -0.94614535000E+01 -0.56288708505E+01  0.54927156745E+01  0.12303382264E+02  0.51100000000E-03 0. -1.
        -11    1    3    3    0    0 -0.33759886012E+02  0.91416777814E+01 -0.60627992571E+01  0.35497291605E+02  0.51100000000E-03 0.  1.
         12    1    3    3    0    0  0.42081557703E+02 -0.32085737919E+01  0.53356543381E+00  0.42207074485E+02  0.00000000000E+00 0. -1.
</event>
<event>
 7    1  0.2232484E-015  0.9000773E+02  0.7816164E-02  0.1186339E+00
        -11   -1    0    0    0    0  0.00000000000E+00  0.00000000000E+00  0.45593999997E+02  0.45594000000E+02  0.51100000000E-03 0.  1.
         11   -1    0    0    0    0 -0.00000000000E+00 -0.00000000000E+00 -0.45593999997E+02  0.45594000000E+02  0.51100000000E-03 0. -1.
    9900012    2    1    2    0    0  0.10266511059E+01 -0.47785099860E+00 -0.33269224226E+00  0.90007729608E+02  0.89999990839E+02 0.  0.
        -12    1    1    2    0    0 -0.10266511059E+01  0.47785099860E+00  0.33269224226E+00  0.11802703919E+01  0.00000000000E+00 0.  1.
         11    1    3    3    0    0  0.22413915109E+01  0.14196808160E+02 -0.36042072048E+02  0.38802115350E+02  0.51100000000E-03 0. -1.
        -11    1    3    3    0    0  0.77027346223E+01  0.56873258143E+01  0.52726934055E+00  0.95893591443E+01  0.51100000000E-03 0.  1.
        -12    1    3    3    0    0 -0.89174750274E+01 -0.20361984973E+02  0.35182110465E+02  0.41616255114E+02  0.00000000000E+00 0.  1.
</event>
<event>
 7    1  0.2232484E-015  0.9000779E+02  0.7816164E-02  0.1186339E+00
        -11   -1    0    0    0    0  0.00000000000E+00  0.00000000000E+00  0.45593999997E+02  0.45594000000E+02  0.51100000000E-03 0. -1.
         11   -1    0    0    0    0 -0.00000000000E+00 -0.00000000000E+00 -0.45593999997E+02  0.45594000000E+02  0.51100000000E-03 0.  1.
    9900012    2    1    2    0    0  0.11371537786E+01 -0.30713680513E+00 -0.73754801102E-01  0.90007791754E+02  0.90000053805E+02 0.  0.
        -12    1    1    2    0    0 -0.11371537786E+01  0.30713680513E+00  0.73754801102E-01  0.11802082460E+01  0.00000000000E+00 0.  1.
         11    1    3    3    0    0 -0.11777023627E+02 -0.25451004684E+02  0.28622972596E+02  0.40071517134E+02  0.51100000000E-03 0. -1.
        -11    1    3    3    0    0  0.10409587759E+02 -0.12626595680E+01  0.48980137445E+00  0.10497320237E+02  0.51100000000E-03 0.  1.
        -12    1    3    3    0    0  0.25045896465E+01  0.26406527447E+02 -0.29186528772E+02  0.39438954383E+02  0.00000000000E+00 0.  1.
</event>
<event>
 7    1  0.2232484E-015  0.9000788E+02  0.7816164E-02  0.1186339E+00
        -11   -1    0    0    0    0  0.00000000000E+00  0.00000000000E+00  0.45593999997E+02  0.45594000000E+02  0.51100000000E-03 0.  1.
         11   -1    0    0    0    0 -0.00000000000E+00 -0.00000000000E+00 -0.45593999997E+02  0.45594000000E+02  0.51100000000E-03 0. -1.
    9900012    2    1    2    0    0 -0.45899539186E+00  0.10856986345E+01  0.57173694081E-01  0.90007878343E+02  0.90000141537E+02 0.  0.
        -12    1    1    2    0    0  0.45899539186E+00 -0.10856986345E+01 -0.57173694081E-01  0.11801216573E+01  0.00000000000E+00 0.  1.
         11    1    3    3    0    0 -0.22134734095E+02  0.33546925698E+02  0.71778142699E+01  0.40827242072E+02  0.51100000000E-03 0. -1.
        -11    1    3    3    0    0  0.15628884878E+01  0.54696986673E+01 -0.19318006735E+00  0.56918839356E+01  0.51100000000E-03 0.  1.
        -12    1    3    3    0    0  0.20112850215E+02 -0.37930925731E+02 -0.69274605085E+01  0.43488752335E+02  0.00000000000E+00 0.  1.
</event>
<event>
 7    1  0.2232484E-015  0.9000772E+02  0.7816164E-02  0.1186339E+00
        -11   -1    0    0    0    0  0.00000000000E+00  0.00000000000E+00  0.45593999997E+02  0.45594000000E+02  0.51100000000E-03 0.  1.
         11   -1    0    0    0    0 -0.00000000000E+00 -0.00000000000E+00 -0.45593999997E+02  0.45594000000E+02  0.51100000000E-03 0. -1.
    9900012    2    1    2    0    0 -0.59503277115E+00  0.78123129997E+00 -0.65472683817E+00  0.90007723094E+02  0.89999984239E+02 0.  0.
        -12    1    1    2    0    0  0.59503277115E+00 -0.78123129997E+00  0.65472683817E+00  0.11802769062E+01  0.00000000000E+00 0.  1.
         11    1    3    3    0    0  0.14952877466E+02  0.33632815096E+02  0.73399646024E+01  0.37531718271E+02  0.51100000000E-03 0. -1.
        -11    1    3    3    0    0 -0.68809882323E+01  0.77256142561E+01 -0.94278790169E+00  0.10388549657E+02  0.51100000000E-03 0.  1.
        -12    1    3    3    0    0 -0.86669220050E+01 -0.40577198052E+02 -0.70519035388E+01  0.42087455165E+02  0.00000000000E+00 0.  1.
</event>
<event>
 7    1  0.2232484E-015  0.9000769E+02  0.7816164E-02  0.1186339E+00
        -11   -1    0    0    0    0  0.00000000000E+00  0.00000000000E+00  0.45593999997E+02  0.45594000000E+02  0.51100000000E-03 0. -1.
         11   -1    0    0    0    0 -0.00000000000E+00 -0.00000000000E+00 -0.45593999997E+02  0.45594000000E+02  0.51100000000E-03 0.  1.
    9900012    2    1    2    0    0 -0.20193883970E+00 -0.10489433696E+01 -0.50205771827E+00  0.90007693497E+02  0.89999954252E+02 0.  0.
        -12    1    1    2    0    0  0.20193883970E+00  0.10489433696E+01  0.50205771827E+00  0.11803065026E+01  0.00000000000E+00 0.  1.
         11    1    3    3    0    0  0.76770650396E+01  0.70140037604E+01  0.23605178333E+01  0.10663283785E+02  0.51100000000E-03 0. -1.
        -11    1    3    3    0    0  0.13215712334E+02  0.27708234892E+02 -0.17471138657E+02  0.35321976439E+02  0.51100000000E-03 0.  1.
         12    1    3    3    0    0 -0.21094716213E+02 -0.35771182022E+02  0.14608563105E+02  0.44022433274E+02  0.00000000000E+00 0. -1.
</event>
<event>
 7    1  0.2232484E-015  0.9000712E+02  0.7816164E-02  0.1186340E+00
        -11   -1    0    0    0    0  0.00000000000E+00  0.00000000000E+00  0.45593999997E+02  0.45594000000E+02  0.51100000000E-03 0. -1.
         11   -1    0    0    0    0 -0.00000000000E+00 -0.00000000000E+00 -0.45593999997E+02  0.45594000000E+02  0.51100000000E-03 0.  1.
    9900012    2    1    2    0    0 -0.17232238253E+00 -0.42013086707E-01  0.11674825996E+01  0.90007120784E+02  0.89999373976E+02 0.  0.
        -12    1    1    2    0    0  0.17232238253E+00  0.42013086707E-01 -0.11674825996E+01  0.11808792162E+01  0.00000000000E+00 0.  1.
         11    1    3    3    0    0 -0.28789228930E+01 -0.70961853403E+01 -0.69798469611E+01  0.10361578416E+02  0.51100000000E-03 0. -1.
        -11    1    3    3    0    0 -0.36859510465E+02 -0.59545516133E+01  0.75622722197E+00  0.37345040856E+02  0.51100000000E-03 0.  1.
         12    1    3    3    0    0  0.39566110976E+02  0.13008723867E+02  0.73911023387E+01  0.42300501512E+02  0.00000000000E+00 0. -1.
</event>
<event>
 7    1  0.2232484E-015  0.9000787E+02  0.7816164E-02  0.1186339E+00
        -11   -1    0    0    0    0  0.00000000000E+00  0.00000000000E+00  0.45593999997E+02  0.45594000000E+02  0.51100000000E-03 0. -1.
         11   -1    0    0    0    0 -0.00000000000E+00 -0.00000000000E+00 -0.45593999997E+02  0.45594000000E+02  0.51100000000E-03 0.  1.
    9900012    2    1    2    0    0 -0.97657256749E+00  0.48338401545E+00  0.45315374230E+00  0.90007871871E+02  0.90000134980E+02 0.  0.
        -12    1    1    2    0    0  0.97657256749E+00 -0.48338401545E+00 -0.45315374230E+00  0.11801281287E+01  0.00000000000E+00 0.  1.
         11    1    3    3    0    0  0.58479374247E+01  0.14519488483E+02  0.69916653834E+01  0.17143433233E+02  0.51100000000E-03 0. -1.
        -11    1    3    3    0    0 -0.22657768902E+02  0.21969342103E+02  0.48162726876E+01  0.31925271602E+02  0.51100000000E-03 0.  1.
         12    1    3    3    0    0  0.15833258910E+02 -0.36005446570E+02 -0.11354784329E+02  0.40939167036E+02  0.00000000000E+00 0. -1.
</event>
<event>
 7    1  0.2232484E-015  0.9000763E+02  0.7816164E-02  0.1186339E+00
        -11   -1    0    0    0    0  0.00000000000E+00  0.00000000000E+00  0.45593999997E+02  0.45594000000E+02  0.51100000000E-03 0.  1.
         11   -1    0    0    0    0 -0.00000000000E+00 -0.00000000000E+00 -0.45593999997E+02  0.45594000000E+02  0.51100000000E-03 0. -1.
    9900012    2    1    2    0    0  0.87721153371E+00 -0.52883863761E+00 -0.58659741584E+00  0.90007632723E+02  0.89999892675E+02 0.  0.
        -12    1    1    2    0    0 -0.87721153371E+00  0.52883863761E+00  0.58659741584E+00  0.11803672766E+01  0.00000000000E+00 0.  1.
         11    1    3    3    0    0  0.68807013630E+01 -0.31437875449E+00 -0.66640393362E+01  0.95839608610E+01  0.51100000000E-03 0. -1.
        -11    1    3    3    0    0  0.16188690297E+02 -0.30498624565E+02 -0.14683190126E+02  0.37521138928E+02  0.51100000000E-03 0.  1.
         12    1    3    3    0    0 -0.22192180126E+02  0.30284164682E+02  0.20760632046E+02  0.42902532935E+02  0.00000000000E+00 0. -1.
</event>
<event>
 7    1  0.2232484E-015  0.9000766E+02  0.7816164E-02  0.1186339E+00
        -11   -1    0    0    0    0  0.00000000000E+00  0.00000000000E+00  0.45593999997E+02  0.45594000000E+02  0.51100000000E-03 0.  1.
         11   -1    0    0    0    0 -0.00000000000E+00 -0.00000000000E+00 -0.45593999997E+02  0.45594000000E+02  0.51100000000E-03 0. -1.
    9900012    2    1    2    0    0  0.11492470092E+01 -0.70098330470E-01 -0.25986780681E+00  0.90007655245E+02  0.89999915494E+02 0.  0.
        -12    1    1    2    0    0 -0.11492470092E+01  0.70098330470E-01  0.25986780681E+00  0.11803447552E+01  0.00000000000E+00 0.  1.
         11    1    3    3    0    0  0.29451120786E+02 -0.41340462250E+01  0.28112200850E+02  0.40923766819E+02  0.51100000000E-03 0. -1.
        -11    1    3    3    0    0 -0.13287591284E+01 -0.89347485926E+01 -0.21555527374E+01  0.92866431556E+01  0.51100000000E-03 0.  1.
        -12    1    3    3    0    0 -0.26973114649E+02  0.12998696487E+02 -0.26216515919E+02  0.39797245271E+02  0.00000000000E+00 0.  1.
</event>
<event>
 7    1  0.2232484E-015  0.9000767E+02  0.7816164E-02  0.1186339E+00
        -11   -1    0    0    0    0  0.00000000000E+00  0.00000000000E+00  0.45593999997E+02  0.45594000000E+02  0.51100000000E-03 0.  1.
         11   -1    0    0    0    0 -0.00000000000E+00 -0.00000000000E+00 -0.45593999997E+02  0.45594000000E+02  0.51100000000E-03 0. -1.
    9900012    2    1    2    0    0  0.54530476279E+00 -0.10425780182E+01 -0.94059983834E-01  0.90007672296E+02  0.89999932770E+02 0.  0.
        -12    1    1    2    0    0 -0.54530476279E+00  0.10425780182E+01  0.94059983834E-01  0.11803277040E+01  0.00000000000E+00 0.  1.
         11    1    3    3    0    0 -0.69553184930E+01  0.67408221458E+01 -0.65999622432E+01  0.11720692830E+02  0.51100000000E-03 0. -1.
        -11    1    3    3    0    0 -0.43294658847E+01 -0.16616928178E+02 -0.32402591570E+02  0.36671440081E+02  0.51100000000E-03 0.  1.
        -12    1    3    3    0    0  0.11830089140E+02  0.88335280144E+01  0.38908493829E+02  0.41615539385E+02  0.00000000000E+00 0.  1.
</event>
<event>
 7    1  0.2232484E-015  0.9000772E+02  0.7816164E-02  0.1186339E+00
        -11   -1    0    0    0    0  0.00000000000E+00  0.00000000000E+00  0.45593999997E+02  0.45594000000E+02  0.51100000000E-03 0.  1.
         11   -1    0    0    0    0 -0.00000000000E+00 -0.00000000000E+00 -0.45593999997E+02  0.45594000000E+02  0.51100000000E-03 0. -1.
    9900012    2    1    2    0    0 -0.29789673970E-01 -0.11649785201E+01 -0.18704831452E+00  0.90007724842E+02  0.89999986010E+02 0.  0.
        -12    1    1    2    0    0  0.29789673970E-01  0.11649785201E+01  0.18704831452E+00  0.11802751582E+01  0.00000000000E+00 0.  1.
         11    1    3    3    0    0  0.45948444813E+01  0.39274459215E+02 -0.11148330448E+02  0.41083829112E+02  0.51100000000E-03 0. -1.
        -11    1    3    3    0    0  0.25138162121E+01 -0.33885513427E+01 -0.61781118512E+01  0.74813513791E+01  0.51100000000E-03 0.  1.
        -12    1    3    3    0    0 -0.71384503674E+01 -0.37050886392E+02  0.17139393985E+02  0.41442544351E+02  0.00000000000E+00 0.  1.
</event>
<event>
 7    1  0.2232484E-015  0.9000775E+02  0.7816164E-02  0.1186339E+00
        -11   -1    0    0    0    0  0.00000000000E+00  0.00000000000E+00  0.45593999997E+02  0.45594000000E+02  0.51100000000E-03 0.  1.
         11   -1    0    0    0    0 -0.00000000000E+00 -0.00000000000E+00 -0.45593999997E+02  0.45594000000E+02  0.51100000000E-03 0. -1.
    9900012    2    1    2    0    0  0.81758970371E+00  0.42680704037E+00 -0.73646610655E+00  0.90007746002E+02  0.90000007449E+02 0.  0.
        -12    1    1    2    0    0 -0.81758970371E+00 -0.42680704037E+00  0.73646610655E+00  0.11802539978E+01  0.00000000000E+00 0.  1.
         11    1    3    3    0    0 -0.47957140620E+01  0.91387484234E+01 -0.34934304635E+02  0.36426930102E+02  0.51100000000E-03 0. -1.
        -11    1    3    3    0    0 -0.97196582673E+01  0.19394186689E+01 -0.42931032154E+01  0.10801103512E+02  0.51100000000E-03 0.  1.
        -12    1    3    3    0    0  0.15332962033E+02 -0.10651360052E+02  0.38490941743E+02  0.42779712388E+02  0.00000000000E+00 0.  1.
</event>
<event>
 7    1  0.2232484E-015  0.9000773E+02  0.7816164E-02  0.1186339E+00
        -11   -1    0    0    0    0  0.00000000000E+00  0.00000000000E+00  0.45593999997E+02  0.45594000000E+02  0.51100000000E-03 0. -1.
         11   -1    0    0    0    0 -0.00000000000E+00 -0.00000000000E+00 -0.45593999997E+02  0.45594000000E+02  0.51100000000E-03 0.  1.
    9900012    2    1    2    0    0 -0.95011156887E+00  0.12099868248E+00  0.68970709706E+00  0.90007725221E+02  0.89999986394E+02 0.  0.
        -12    1    1    2    0    0  0.95011156887E+00 -0.12099868248E+00 -0.68970709706E+00  0.11802747791E+01  0.00000000000E+00 0.  1.
         11    1    3    3    0    0 -0.30976335149E+02  0.24919680202E+02 -0.18083754062E+01  0.39796909710E+02  0.51100000000E-03 0. -1.
        -11    1    3    3    0    0  0.67120617236E+00 -0.29757248107E+00  0.11013289792E+02  0.11037736154E+02  0.51100000000E-03 0.  1.
        -12    1    3    3    0    0  0.29355017407E+02 -0.24501109038E+02 -0.85152072886E+01  0.39173079357E+02  0.00000000000E+00 0.  1.
</event>
<event>
 7    1  0.2232484E-015  0.9000718E+02  0.7816164E-02  0.1186340E+00
        -11   -1    0    0    0    0  0.00000000000E+00  0.00000000000E+00  0.45593999997E+02  0.45594000000E+02  0.51100000000E-03 0.  1.
         11   -1    0    0    0    0 -0.00000000000E+00 -0.00000000000E+00 -0.45593999997E+02  0.45594000000E+02  0.51100000000E-03 0. -1.
    9900012    2    1    2    0    0 -0.85601207669E+00 -0.79900137178E+00  0.15225527633E+00  0.90007177602E+02  0.89999431544E+02 0.  0.
        -12    1    1    2    0    0  0.85601207669E+00  0.79900137178E+00 -0.15225527633E+00  0.11808223985E+01  0.00000000000E+00 0.  1.
         11    1    3    3    0    0 -0.31505957346E+02 -0.21414555377E+02 -0.56490147513E+01  0.38511295722E+02  0.51100000000E-03 0. -1.
        -11    1    3    3    0    0 -0.77632790264E+01  0.52102938615E+01 -0.15012885703E+01  0.94693997169E+01  0.51100000000E-03 0.  1.
        -12    1    3    3    0    0  0.38413224295E+02  0.15405260144E+02  0.73025585979E+01  0.42026482162E+02  0.00000000000E+00 0.  1.
</event>
<event>
 7    1  0.2232484E-015  0.9000772E+02  0.7816164E-02  0.1186339E+00
        -11   -1    0    0    0    0  0.00000000000E+00  0.00000000000E+00  0.45593999997E+02  0.45594000000E+02  0.51100000000E-03 0.  1.
         11   -1    0    0    0    0 -0.00000000000E+00 -0.00000000000E+00 -0.45593999997E+02  0.45594000000E+02  0.51100000000E-03 0. -1.
    9900012    2    1    2    0    0 -0.11042011087E+01 -0.37454768110E+00 -0.18305213187E+00  0.90007722856E+02  0.89999983998E+02 0.  0.
        -12    1    1    2    0    0  0.11042011087E+01  0.37454768110E+00  0.18305213187E+00  0.11802771441E+01  0.00000000000E+00 0.  1.
         11    1    3    3    0    0 -0.45175392670E+01 -0.27040680045E+01  0.75006902844E+01  0.91640875054E+01  0.51100000000E-03 0. -1.
        -11    1    3    3    0    0 -0.10330280996E+02 -0.30077842527E+02 -0.26077032788E+02  0.41126669642E+02  0.51100000000E-03 0.  1.
         12    1    3    3    0    0  0.13743619154E+02  0.32407362851E+02  0.18393290372E+02  0.39716965709E+02  0.00000000000E+00 0. -1.
</event>
<event>
 7    1  0.2232484E-015  0.9000760E+02  0.7816164E-02  0.1186339E+00
        -11   -1    0    0    0    0  0.00000000000E+00  0.00000000000E+00  0.45593999997E+02  0.45594000000E+02  0.51100000000E-03 0. -1.
         11   -1    0    0    0    0 -0.00000000000E+00 -0.00000000000E+00 -0.45593999997E+02  0.45594000000E+02  0.51100000000E-03 0.  1.
    9900012    2    1    2    0    0  0.23657952115E+00  0.68186458211E+00  0.93404695301E+00  0.90007596303E+02  0.89999855774E+02 0.  0.
        -12    1    1    2    0    0 -0.23657952115E+00 -0.68186458211E+00 -0.93404695301E+00  0.11804036973E+01  0.00000000000E+00 0.  1.
         11    1    3    3    0    0  0.58506925473E+01 -0.63644841490E+01  0.39387388114E+01  0.95000487078E+01  0.51100000000E-03 0. -1.
        -11    1    3    3    0    0  0.55392833822E+01 -0.34984797125E+02  0.64568953658E+01  0.36004321800E+02  0.51100000000E-03 0.  1.
         12    1    3    3    0    0 -0.11153396408E+02  0.42031145856E+02 -0.94615872241E+01  0.44503225795E+02  0.00000000000E+00 0. -1.
</event>
<event>
 7    1  0.2232484E-015  0.9000773E+02  0.7816164E-02  0.1186339E+00
        -11   -1    0    0    0    0  0.00000000000E+00  0.00000000000E+00  0.45593999997E+02  0.45594000000E+02  0.51100000000E-03 0. -1.
         11   -1    0    0    0    0 -0.00000000000E+00 -0.00000000000E+00 -0.45593999997E+02  0.45594000000E+02  0.51100000000E-03 0.  1.
    9900012    2    1    2    0    0 -0.11220977868E+01 -0.36307468309E+00 -0.45853474975E-01  0.90007733416E+02  0.89999994697E+02 0.  0.
        -12    1    1    2    0    0  0.11220977868E+01  0.36307468309E+00  0.45853474975E-01  0.11802665843E+01  0.00000000000E+00 0.  1.
         11    1    3    3    0    0  0.18221692186E+02  0.24120894009E+02  0.21214253071E+02  0.36930910191E+02  0.51100000000E-03 0. -1.
        -11    1    3    3    0    0  0.18934289055E+01 -0.34458514126E+00  0.88322988000E+01  0.90395417081E+01  0.51100000000E-03 0.  1.
        -12    1    3    3    0    0 -0.21237218879E+02 -0.24139383551E+02 -0.30092405346E+02  0.44037281517E+02  0.00000000000E+00 0.  1.
</event>
<event>
 7    1  0.2232484E-015  0.9000759E+02  0.7816164E-02  0.1186339E+00
        -11   -1    0    0    0    0  0.00000000000E+00  0.00000000000E+00  0.45593999997E+02  0.45594000000E+02  0.51100000000E-03 0.  1.
         11   -1    0    0    0    0 -0.00000000000E+00 -0.00000000000E+00 -0.45593999997E+02  0.45594000000E+02  0.51100000000E-03 0. -1.
    9900012    2    1    2    0    0 -0.33354630367E+00 -0.12846086293E+00 -0.11249972922E+01  0.90007587260E+02  0.89999846611E+02 0.  0.
        -12    1    1    2    0    0  0.33354630367E+00  0.12846086293E+00  0.11249972922E+01  0.11804127403E+01  0.00000000000E+00 0.  1.
         11    1    3    3    0    0  0.11740700146E+02  0.69725894771E+01  0.65359394667E+01  0.15138677251E+02  0.51100000000E-03 0. -1.
        -11    1    3    3    0    0  0.99472283186E+00 -0.12263378283E+00  0.32266155433E+02  0.32281717724E+02  0.51100000000E-03 0.  1.
         12    1    3    3    0    0 -0.13068969282E+02 -0.69784165571E+01 -0.39927092192E+02  0.42587192284E+02  0.00000000000E+00 0. -1.
</event>
<event>
 7    1  0.2232484E-015  0.9000775E+02  0.7816164E-02  0.1186339E+00
        -11   -1    0    0    0    0  0.00000000000E+00  0.00000000000E+00  0.45593999997E+02  0.45594000000E+02  0.51100000000E-03 0.  1.
         11   -1    0    0    0    0 -0.00000000000E+00 -0.00000000000E+00 -0.45593999997E+02  0.45594000000E+02  0.51100000000E-03 0. -1.
    9900012    2    1    2    0    0  0.44095454026E+00  0.84467317843E+00 -0.69647578611E+00  0.90007749092E+02  0.90000010580E+02 0.  0.
        -12    1    1    2    0    0 -0.44095454026E+00 -0.84467317843E+00  0.69647578611E+00  0.11802509079E+01  0.00000000000E+00 0.  1.
         11    1    3    3    0    0 -0.32261166966E+02 -0.14145986332E+01 -0.10916720536E+02  0.34087516349E+02  0.51100000000E-03 0. -1.
        -11    1    3    3    0    0 -0.15150397515E+00 -0.14671359162E+02  0.11946160734E+02  0.18920425198E+02  0.51100000000E-03 0.  1.
        -12    1    3    3    0    0  0.32853625481E+02  0.16930630974E+02 -0.17259159840E+01  0.36999807546E+02  0.00000000000E+00 0.  1.
</event>
<event>
 7    1  0.2232484E-015  0.9000772E+02  0.7816164E-02  0.1186339E+00
        -11   -1    0    0    0    0  0.00000000000E+00  0.00000000000E+00  0.45593999997E+02  0.45594000000E+02  0.51100000000E-03 0.  1.
         11   -1    0    0    0    0 -0.00000000000E+00 -0.00000000000E+00 -0.45593999997E+02  0.45594000000E+02  0.51100000000E-03 0. -1.
    9900012    2    1    2    0    0 -0.11198394370E+01  0.21470892265E+00 -0.30482023689E+00  0.90007722209E+02  0.89999983343E+02 0.  0.
        -12    1    1    2    0    0  0.11198394370E+01 -0.21470892265E+00  0.30482023689E+00  0.11802777906E+01  0.00000000000E+00 0.  1.
         11    1    3    3    0    0  0.91054294099E+01  0.15895968755E+01  0.59960341109E+01  0.11017626255E+02  0.51100000000E-03 0. -1.
        -11    1    3    3    0    0  0.30518128364E+02  0.43150338920E+01  0.13119592269E+02  0.33497751833E+02  0.51100000000E-03 0.  1.
         12    1    3    3    0    0 -0.40743397211E+02 -0.56899218449E+01 -0.19420446617E+02  0.45492344122E+02  0.00000000000E+00 0. -1.
</event>
<event>
 7    1  0.2232484E-015  0.9000775E+02  0.7816164E-02  0.1186339E+00
        -11   -1    0    0    0    0  0.00000000000E+00  0.00000000000E+00  0.45593999997E+02  0.45594000000E+02  0.51100000000E-03 0. -1.
         11   -1    0    0    0    0 -0.00000000000E+00 -0.00000000000E+00 -0.45593999997E+02  0.45594000000E+02  0.51100000000E-03 0.  1.
    9900012    2    1    2    0    0 -0.96636766795E+00 -0.67755987964E+00  0.64491675720E-02  0.90007747717E+02  0.90000009187E+02 0.  0.
        -12    1    1    2    0    0  0.96636766795E+00  0.67755987964E+00 -0.64491675720E-02  0.11802522832E+01  0.00000000000E+00 0.  1.
         11    1    3    3    0    0  0.36414724571E+02 -0.48273395784E+00  0.89882669856E+01  0.37510720352E+02  0.51100000000E-03 0. -1.
        -11    1    3    3    0    0  0.23594765718E+01  0.18799716483E+01  0.85090973660E+01  0.90280762810E+01  0.51100000000E-03 0.  1.
        -12    1    3    3    0    0 -0.39740568811E+02 -0.20747975701E+01 -0.17490915184E+02  0.43468951084E+02  0.00000000000E+00 0.  1.
</event>
<event>
 7    1  0.2232484E-015  0.9000718E+02  0.7816164E-02  0.1186340E+00
        -11   -1    0    0    0    0  0.00000000000E+00  0.00000000000E+00  0.45593999997E+02  0.45594000000E+02  0.51100000000E-03 0. -1.
         11   -1    0    0    0    0 -0.00000000000E+00 -0.00000000000E+00 -0.45593999997E+02  0.45594000000E+02  0.51100000000E-03 0.  1.
    9900012    2    1    2    0    0 -0.98589938716E-01 -0.89872594400E+00  0.75954695580E+00  0.90007178305E+02  0.89999432256E+02 0.  0.
        -12    1    1    2    0    0  0.98589938716E-01  0.89872594400E+00 -0.75954695580E+00  0.11808216955E+01  0.00000000000E+00 0.  1.
         11    1    3    3    0    0  0.82610061416E+01  0.14267052832E+02  0.87838305202E+01  0.18680168572E+02  0.51100000000E-03 0. -1.
        -11    1    3    3    0    0  0.17158538345E+01 -0.30913092977E+02  0.20564763758E+02  0.37168171605E+02  0.51100000000E-03 0.  1.
         12    1    3    3    0    0 -0.10075449915E+02  0.15747314200E+02 -0.28589047322E+02  0.34158838128E+02  0.00000000000E+00 0. -1.
</event>
<event>
 7    1  0.2232484E-015  0.9000803E+02  0.7816164E-02  0.1186338E+00
        -11   -1    0    0    0    0  0.00000000000E+00  0.00000000000E+00  0.45593999997E+02  0.45594000000E+02  0.51100000000E-03 0.  1.
         11   -1    0    0    0    0 -0.00000000000E+00 -0.00000000000E+00 -0.45593999997E+02  0.45594000000E+02  0.51100000000E-03 0. -1.
    9900012    2    1    2    0    0  0.11044095166E+01  0.32752674931E+00 -0.25562079405E+00  0.90008027059E+02  0.90000292215E+02 0.  0.
        -12    1    1    2    0    0 -0.11044095166E+01 -0.32752674931E+00  0.25562079405E+00  0.11799729413E+01  0.00000000000E+00 0.  1.
         11    1    3    3    0    0  0.21372628576E+02  0.99133815858E+01 -0.27060331853E+02  0.35879324784E+02  0.51100000000E-03 0. -1.
        -11    1    3    3    0    0  0.87134392632E+01  0.80500462182E+01  0.18337079808E+01  0.12003739131E+02  0.51100000000E-03 0.  1.
        -12    1    3    3    0    0 -0.28981658323E+02 -0.17635901055E+02  0.24971003078E+02  0.42124963144E+02  0.00000000000E+00 0.  1.
</event>
<event>
 7    1  0.2232484E-015  0.9000828E+02  0.7816164E-02  0.1186338E+00
        -11   -1    0    0    0    0  0.00000000000E+00  0.00000000000E+00  0.45593999997E+02  0.45594000000E+02  0.51100000000E-03 0. -1.
         11   -1    0    0    0    0 -0.00000000000E+00 -0.00000000000E+00 -0.45593999997E+02  0.45594000000E+02  0.51100000000E-03 0.  1.
    9900012    2    1    2    0    0 -0.54457933294E+00  0.10390484096E+01  0.12467550420E+00  0.90008282988E+02  0.90000551522E+02 0.  0.
        -12    1    1    2    0    0  0.54457933294E+00 -0.10390484096E+01 -0.12467550420E+00  0.11797170121E+01  0.00000000000E+00 0.  1.
         11    1    3    3    0    0  0.57074269079E+01 -0.27865606946E+02  0.23428673859E+02  0.36850638141E+02  0.51100000000E-03 0. -1.
        -11    1    3    3    0    0  0.65651981749E+01  0.94144331441E+00  0.72328896908E+01  0.98134008443E+01  0.51100000000E-03 0.  1.
        -12    1    3    3    0    0 -0.12817204416E+02  0.27963212041E+02 -0.30536888045E+02  0.43344244003E+02  0.00000000000E+00 0.  1.
</event>
<event>
 7    1  0.2232484E-015  0.9000783E+02  0.7816164E-02  0.1186339E+00
        -11   -1    0    0    0    0  0.00000000000E+00  0.00000000000E+00  0.45593999997E+02  0.45594000000E+02  0.51100000000E-03 0.  1.
         11   -1    0    0    0    0 -0.00000000000E+00 -0.00000000000E+00 -0.45593999997E+02  0.45594000000E+02  0.51100000000E-03 0. -1.
    9900012    2    1    2    0    0 -0.46376534600E+00 -0.62810939391E+00 -0.88498130822E+00  0.90007834070E+02  0.90000096679E+02 0.  0.
        -12    1    1    2    0    0  0.46376534600E+00  0.62810939391E+00  0.88498130822E+00  0.11801659302E+01  0.00000000000E+00 0.  1.
         11    1    3    3    0    0  0.30236226997E+01 -0.48933492951E+01 -0.85067365493E+01  0.10268969205E+02  0.51100000000E-03 0. -1.
        -11    1    3    3    0    0 -0.65280967710E+00 -0.34224550829E+02  0.19452928589E+02  0.39372102698E+02  0.51100000000E-03 0.  1.
         12    1    3    3    0    0 -0.28345783686E+01  0.38489790731E+02 -0.11831173348E+02  0.40366762166E+02  0.00000000000E+00 0. -1.
</event>
<event>
 7    1  0.2232484E-015  0.9000711E+02  0.7816164E-02  0.1186340E+00
        -11   -1    0    0    0    0  0.00000000000E+00  0.00000000000E+00  0.45593999997E+02  0.45594000000E+02  0.51100000000E-03 0.  1.
         11   -1    0    0    0    0 -0.00000000000E+00 -0.00000000000E+00 -0.45593999997E+02  0.45594000000E+02  0.51100000000E-03 0. -1.
    9900012    2    1    2    0    0  0.92423918648E+00 -0.58037665171E+00 -0.45105763035E+00  0.90007107068E+02  0.89999360079E+02 0.  0.
        -12    1    1    2    0    0 -0.92423918648E+00  0.58037665171E+00  0.45105763035E+00  0.11808929323E+01  0.00000000000E+00 0.  1.
         11    1    3    3    0    0 -0.52829615341E+01  0.82447316514E+01 -0.14780724125E+01  0.99030288746E+01  0.51100000000E-03 0. -1.
        -11    1    3    3    0    0  0.15719616325E+02  0.28590147481E+02  0.18743582802E+02  0.37627446989E+02  0.51100000000E-03 0.  1.
         12    1    3    3    0    0 -0.95124156043E+01 -0.37415255784E+02 -0.17716568020E+02  0.42476631204E+02  0.00000000000E+00 0. -1.
</event>
<event>
 7    1  0.2232484E-015  0.9000781E+02  0.7816164E-02  0.1186339E+00
        -11   -1    0    0    0    0  0.00000000000E+00  0.00000000000E+00  0.45593999997E+02  0.45594000000E+02  0.51100000000E-03 0.  1.
         11   -1    0    0    0    0 -0.00000000000E+00 -0.00000000000E+00 -0.45593999997E+02  0.45594000000E+02  0.51100000000E-03 0. -1.
    9900012    2    1    2    0    0 -0.19709194354E+00  0.18147266651E+00 -0.11493783631E+01  0.90007810107E+02  0.90000072400E+02 0.  0.
        -12    1    1    2    0    0  0.19709194354E+00 -0.18147266651E+00  0.11493783631E+01  0.11801898934E+01  0.00000000000E+00 0.  1.
         11    1    3    3    0    0 -0.62400937407E+01 -0.17008451234E+01 -0.54281111685E+01  0.84436979545E+01  0.51100000000E-03 0. -1.
        -11    1    3    3    0    0  0.80770137890E+01  0.41218792198E+02  0.37732301720E+01  0.42171841888E+02  0.51100000000E-03 0.  1.
         12    1    3    3    0    0 -0.20340119919E+01 -0.39336474408E+02  0.50550263341E+00  0.39392270264E+02  0.00000000000E+00 0. -1.
</event>
<event>
 7    1  0.3843221E-015  0.9000771E+02  0.7816164E-02  0.1186339E+00
        -11   -1    0    0    0    0  0.00000000000E+00  0.00000000000E+00  0.45593999997E+02  0.45594000000E+02  0.51100000000E-03 0. -1.
         11   -1    0    0    0    0 -0.00000000000E+00 -0.00000000000E+00 -0.45593999997E+02  0.45594000000E+02  0.51100000000E-03 0.  1.
    9900012    2    1    2    0    0 -0.52006741299E+00 -0.21747213935E+00  0.10369779593E+01  0.90007708708E+02  0.89999969663E+02 0.  0.
        -12    1    1    2    0    0  0.52006741299E+00  0.21747213935E+00 -0.10369779593E+01  0.11802912918E+01  0.00000000000E+00 0.  1.
         11    1    3    3    0    0 -0.35340141044E+01 -0.89384394214E+01 -0.24370910836E+01  0.99158644702E+01  0.51100000000E-03 0. -1.
        -11    1    3    3    0    0 -0.34173038708E+01  0.24658356109E+02 -0.32077654154E+02  0.40604043986E+02  0.51100000000E-03 0.  1.
         12    1    3    3    0    0  0.64312505621E+01 -0.15937388827E+02  0.35551723197E+02  0.39487800252E+02  0.00000000000E+00 0. -1.
</event>
<event>
 7    1  0.2232484E-015  0.9000765E+02  0.7816164E-02  0.1186339E+00
        -11   -1    0    0    0    0  0.00000000000E+00  0.00000000000E+00  0.45593999997E+02  0.45594000000E+02  0.51100000000E-03 0.  1.
         11   -1    0    0    0    0 -0.00000000000E+00 -0.00000000000E+00 -0.45593999997E+02  0.45594000000E+02  0.51100000000E-03 0. -1.
    9900012    2    1    2    0    0  0.11112648118E+01  0.12856204023E+00 -0.37653872406E+00  0.90007652979E+02  0.89999913198E+02 0.  0.
        -12    1    1    2    0    0 -0.11112648118E+01 -0.12856204023E+00  0.37653872406E+00  0.11803470213E+01  0.00000000000E+00 0.  1.
         11    1    3    3    0    0 -0.18997560738E+02 -0.10224387285E+01 -0.32533841789E+02  0.37688241625E+02  0.51100000000E-03 0. -1.
        -11    1    3    3    0    0 -0.84166511915E+01 -0.37766679111E+01  0.23759622161E+00  0.92282008005E+01  0.51100000000E-03 0.  1.
        -12    1    3    3    0    0  0.28525476742E+02  0.49276686798E+01  0.31919706843E+02  0.43091210553E+02  0.00000000000E+00 0.  1.
</event>
<event>
 7    1  0.2232484E-015  0.9000773E+02  0.7816164E-02  0.1186339E+00
        -11   -1    0    0    0    0  0.00000000000E+00  0.00000000000E+00  0.45593999997E+02  0.45594000000E+02  0.51100000000E-03 0.  1.
         11   -1    0    0    0    0 -0.00000000000E+00 -0.00000000000E+00 -0.45593999997E+02  0.45594000000E+02  0.51100000000E-03 0. -1.
    9900012    2    1    2    0    0  0.83937816330E+00 -0.60440821918E+00 -0.56847916571E+00  0.90007731574E+02  0.89999992830E+02 0.  0.
        -12    1    1    2    0    0 -0.83937816330E+00  0.60440821918E+00  0.56847916571E+00  0.11802684264E+01  0.00000000000E+00 0.  1.
         11    1    3    3    0    0  0.43594302769E+01  0.44040079404E+01  0.75504712797E+00  0.62425967917E+01  0.51100000000E-03 0. -1.
        -11    1    3    3    0    0  0.26932772995E+02 -0.15334559523E+02  0.26855703369E+02  0.41009167032E+02  0.51100000000E-03 0.  1.
         12    1    3    3    0    0 -0.30452825108E+02  0.10326143363E+02 -0.28179229663E+02  0.42755967750E+02  0.00000000000E+00 0. -1.
</event>
<event>
 7    1  0.2232484E-015  0.9000777E+02  0.7816164E-02  0.1186339E+00
        -11   -1    0    0    0    0  0.00000000000E+00  0.00000000000E+00  0.45593999997E+02  0.45594000000E+02  0.51100000000E-03 0. -1.
         11   -1    0    0    0    0 -0.00000000000E+00 -0.00000000000E+00 -0.45593999997E+02  0.45594000000E+02  0.51100000000E-03 0.  1.
    9900012    2    1    2    0    0  0.85557265132E+00  0.60924434907E+00 -0.53829045494E+00  0.90007771271E+02  0.90000033052E+02 0.  0.
        -12    1    1    2    0    0 -0.85557265132E+00 -0.60924434907E+00  0.53829045494E+00  0.11802287289E+01  0.00000000000E+00 0.  1.
         11    1    3    3    0    0 -0.94359570097E+01  0.62562625899E+01 -0.89421899039E+01  0.14427087954E+02  0.51100000000E-03 0. -1.
        -11    1    3    3    0    0  0.32567649015E+02 -0.12776849851E+01 -0.20745321728E+02  0.38634862691E+02  0.51100000000E-03 0.  1.
         12    1    3    3    0    0 -0.22276119354E+02 -0.43693332557E+01  0.29149221177E+02  0.36945820627E+02  0.00000000000E+00 0. -1.
</event>
<event>
 7    1  0.2232484E-015  0.9000778E+02  0.7816164E-02  0.1186339E+00
        -11   -1    0    0    0    0  0.00000000000E+00  0.00000000000E+00  0.45593999997E+02  0.45594000000E+02  0.51100000000E-03 0.  1.
         11   -1    0    0    0    0 -0.00000000000E+00 -0.00000000000E+00 -0.45593999997E+02  0.45594000000E+02  0.51100000000E-03 0. -1.
    9900012    2    1    2    0    0  0.10671908068E+01  0.40301561979E+00  0.30266579366E+00  0.90007777822E+02  0.90000039689E+02 0.  0.
        -12    1    1    2    0    0 -0.10671908068E+01 -0.40301561979E+00 -0.30266579366E+00  0.11802221785E+01  0.00000000000E+00 0.  1.
         11    1    3    3    0    0  0.28831163244E+01 -0.68826716316E+01  0.56670816240E+01  0.93701303578E+01  0.51100000000E-03 0. -1.
        -11    1    3    3    0    0  0.16274761858E+02 -0.12985417162E+02 -0.34816850227E+02  0.40567252710E+02  0.51100000000E-03 0.  1.
         12    1    3    3    0    0 -0.18090687376E+02  0.20271104414E+02  0.29452434397E+02  0.40070394754E+02  0.00000000000E+00 0. -1.
</event>
<event>
 7    1  0.2232484E-015  0.9000819E+02  0.7816164E-02  0.1186338E+00
        -11   -1    0    0    0    0  0.00000000000E+00  0.00000000000E+00  0.45593999997E+02  0.45594000000E+02  0.51100000000E-03 0.  1.
         11   -1    0    0    0    0 -0.00000000000E+00 -0.00000000000E+00 -0.45593999997E+02  0.45594000000E+02  0.51100000000E-03 0. -1.
    9900012    2    1    2    0    0  0.46065554317E-01 -0.10427594827E+01  0.54998797726E+00  0.90008188087E+02  0.90000455369E+02 0.  0.
        -12    1    1    2    0    0 -0.46065554317E-01  0.10427594827E+01 -0.54998797726E+00  0.11798119126E+01  0.00000000000E+00 0.  1.
         11    1    3    3    0    0 -0.12913388509E+02 -0.16247962181E+01  0.10350453635E+02  0.16629114716E+02  0.51100000000E-03 0. -1.
        -11    1    3    3    0    0  0.12761338689E+01  0.77476166940E+01  0.30143376364E+02  0.31149273202E+02  0.51100000000E-03 0.  1.
         12    1    3    3    0    0  0.11683320194E+02 -0.71655799586E+01 -0.39943842022E+02  0.42229800170E+02  0.00000000000E+00 0. -1.
</event>
<event>
 7    1  0.2232484E-015  0.9000741E+02  0.7816164E-02  0.1186340E+00
        -11   -1    0    0    0    0  0.00000000000E+00  0.00000000000E+00  0.45593999997E+02  0.45594000000E+02  0.51100000000E-03 0.  1.
         11   -1    0    0    0    0 -0.00000000000E+00 -0.00000000000E+00 -0.45593999997E+02  0.45594000000E+02  0.51100000000E-03 0. -1.
    9900012    2    1    2    0    0 -0.26914836376E+00 -0.11228561495E+01  0.24604662960E+00  0.90007412977E+02  0.89999670028E+02 0.  0.
        -12    1    1    2    0    0  0.26914836376E+00  0.11228561495E+01 -0.24604662960E+00  0.11805870227E+01  0.00000000000E+00 0.  1.
         11    1    3    3    0    0  0.11218050679E+02 -0.30382880726E+00 -0.68312880886E+00  0.11242937259E+02  0.51100000000E-03 0. -1.
        -11    1    3    3    0    0 -0.60053901595E+01  0.24975383907E+02 -0.29089711332E+02  0.38807806146E+02  0.51100000000E-03 0.  1.
         12    1    3    3    0    0 -0.54818088837E+01 -0.25794411249E+02  0.30018886770E+02  0.39956669572E+02  0.00000000000E+00 0. -1.
</event>
<event>
 7    1  0.2232484E-015  0.9000773E+02  0.7816164E-02  0.1186339E+00
        -11   -1    0    0    0    0  0.00000000000E+00  0.00000000000E+00  0.45593999997E+02  0.45594000000E+02  0.51100000000E-03 0.  1.
         11   -1    0    0    0    0 -0.00000000000E+00 -0.00000000000E+00 -0.45593999997E+02  0.45594000000E+02  0.51100000000E-03 0. -1.
    9900012    2    1    2    0    0 -0.17803856152E+00 -0.11660070609E+01 -0.42059320698E-01  0.90007729191E+02  0.89999990417E+02 0.  0.
        -12    1    1    2    0    0  0.17803856152E+00  0.11660070609E+01  0.42059320698E-01  0.11802708087E+01  0.00000000000E+00 0.  1.
         11    1    3    3    0    0  0.51963802894E+01  0.77237099709E+01 -0.17751462479E+01  0.94767720395E+01  0.51100000000E-03 0. -1.
        -11    1    3    3    0    0 -0.52926637585E+01 -0.35620872223E+02  0.26008615395E+02  0.44421919168E+02  0.51100000000E-03 0.  1.
         12    1    3    3    0    0 -0.81755092393E-01  0.26731155191E+02 -0.24275528468E+02  0.36109037984E+02  0.00000000000E+00 0. -1.
</event>
<event>
 7    1  0.2232484E-015  0.9000769E+02  0.7816164E-02  0.1186339E+00
        -11   -1    0    0    0    0  0.00000000000E+00  0.00000000000E+00  0.45593999997E+02  0.45594000000E+02  0.51100000000E-03 0.  1.
         11   -1    0    0    0    0 -0.00000000000E+00 -0.00000000000E+00 -0.45593999997E+02  0.45594000000E+02  0.51100000000E-03 0. -1.
    9900012    2    1    2    0    0 -0.47653525176E+00  0.54492480022E+00  0.93225782447E+00  0.90007689221E+02  0.89999949919E+02 0.  0.
        -12    1    1    2    0    0  0.47653525176E+00 -0.54492480022E+00 -0.93225782447E+00  0.11803107791E+01  0.00000000000E+00 0.  1.
         11    1    3    3    0    0  0.12884416974E+02  0.12198757170E+02 -0.95301874596E+01  0.20140564802E+02  0.51100000000E-03 0. -1.
        -11    1    3    3    0    0 -0.54918981418E+01  0.20815773516E+02  0.25378122675E+02  0.33279219989E+02  0.51100000000E-03 0.  1.
         12    1    3    3    0    0 -0.78690540840E+01 -0.32469605886E+02 -0.14915677391E+02  0.36587904430E+02  0.00000000000E+00 0. -1.
</event>
<event>
 7    1  0.2232484E-015  0.9000753E+02  0.7816164E-02  0.1186339E+00
        -11   -1    0    0    0    0  0.00000000000E+00  0.00000000000E+00  0.45593999997E+02  0.45594000000E+02  0.51100000000E-03 0.  1.
         11   -1    0    0    0    0 -0.00000000000E+00 -0.00000000000E+00 -0.45593999997E+02  0.45594000000E+02  0.51100000000E-03 0. -1.
    9900012    2    1    2    0    0  0.11027228724E+01 -0.38306798735E+00 -0.17540286696E+00  0.90007531880E+02  0.89999790501E+02 0.  0.
        -12    1    1    2    0    0 -0.11027228724E+01  0.38306798735E+00  0.17540286696E+00  0.11804681198E+01  0.00000000000E+00 0.  1.
         11    1    3    3    0    0  0.68848481631E+01 -0.71546952707E+01 -0.13246806880E+02  0.16555020127E+02  0.51100000000E-03 0. -1.
        -11    1    3    3    0    0  0.17776639368E+00 -0.32167185515E+02  0.74351598070E+00  0.32176268291E+02  0.51100000000E-03 0.  1.
         12    1    3    3    0    0 -0.59598916845E+01  0.38938812798E+02  0.12327888032E+02  0.41276243462E+02  0.00000000000E+00 0. -1.
</event>
<event>
 7    1  0.2232484E-015  0.9000767E+02  0.7816164E-02  0.1186339E+00
        -11   -1    0    0    0    0  0.00000000000E+00  0.00000000000E+00  0.45593999997E+02  0.45594000000E+02  0.51100000000E-03 0.  1.
         11   -1    0    0    0    0 -0.00000000000E+00 -0.00000000000E+00 -0.45593999997E+02  0.45594000000E+02  0.51100000000E-03 0. -1.
    9900012    2    1    2    0    0 -0.19510561161E+00  0.11384827719E+01  0.24282164213E+00  0.90007673108E+02  0.89999933593E+02 0.  0.
        -12    1    1    2    0    0  0.19510561161E+00 -0.11384827719E+01 -0.24282164213E+00  0.11803268918E+01  0.00000000000E+00 0.  1.
         11    1    3    3    0    0 -0.45817279103E+01 -0.45483590935E+01 -0.61457601490E+01  0.89134824371E+01  0.51100000000E-03 0. -1.
        -11    1    3    3    0    0 -0.31910275312E+02 -0.18471135177E+02  0.67918438206E+01  0.37491034235E+02  0.51100000000E-03 0.  1.
         12    1    3    3    0    0  0.36296897611E+02  0.24157977043E+02 -0.40326202950E+00  0.43603156437E+02  0.00000000000E+00 0. -1.
</event>
<event>
 7    1  0.2232484E-015  0.9000765E+02  0.7816164E-02  0.1186339E+00
        -11   -1    0    0    0    0  0.00000000000E+00  0.00000000000E+00  0.45593999997E+02  0.45594000000E+02  0.51100000000E-03 0. -1.
         11   -1    0    0    0    0 -0.00000000000E+00 -0.00000000000E+00 -0.45593999997E+02  0.45594000000E+02  0.51100000000E-03 0.  1.
    9900012    2    1    2    0    0 -0.46921367773E-01  0.38620936295E+00  0.11143930394E+01  0.90007647878E+02  0.89999908029E+02 0.  0.
        -12    1    1    2    0    0  0.46921367773E-01 -0.38620936295E+00 -0.11143930394E+01  0.11803521225E+01  0.00000000000E+00 0.  1.
         11    1    3    3    0    0  0.19490105251E+02 -0.27430244587E+02 -0.54446800854E+01  0.34087051240E+02  0.51100000000E-03 0. -1.
        -11    1    3    3    0    0 -0.84365508762E+00 -0.79021721110E+01 -0.96223596908E+01  0.12479819080E+02  0.51100000000E-03 0.  1.
        -12    1    3    3    0    0 -0.18693371531E+02  0.35718626061E+02  0.16181432816E+02  0.43440777558E+02  0.00000000000E+00 0.  1.
</event>
<event>
 7    1  0.2232484E-015  0.9000836E+02  0.7816164E-02  0.1186338E+00
        -11   -1    0    0    0    0  0.00000000000E+00  0.00000000000E+00  0.45593999997E+02  0.45594000000E+02  0.51100000000E-03 0.  1.
         11   -1    0    0    0    0 -0.00000000000E+00 -0.00000000000E+00 -0.45593999997E+02  0.45594000000E+02  0.51100000000E-03 0. -1.
    9900012    2    1    2    0    0  0.36805781507E+00  0.10066820062E+01 -0.49262760833E+00  0.90008357182E+02  0.90000626695E+02 0.  0.
        -12    1    1    2    0    0 -0.36805781507E+00 -0.10066820062E+01  0.49262760833E+00  0.11796428177E+01  0.00000000000E+00 0.  1.
         11    1    3    3    0    0 -0.64736458808E+01  0.74527313508E+01 -0.43071820512E+02  0.44188607333E+02  0.51100000000E-03 0. -1.
        -11    1    3    3    0    0 -0.43601929511E+01 -0.10328522748E+01  0.11662550126E+02  0.12493724109E+02  0.51100000000E-03 0.  1.
        -12    1    3    3    0    0  0.11201896647E+02 -0.54131970698E+01  0.30916642778E+02  0.33326025740E+02  0.00000000000E+00 0.  1.
</event>
<event>
 7    1  0.2454364E-015  0.9000773E+02  0.7816164E-02  0.1186339E+00
        -11   -1    0    0    0    0  0.00000000000E+00  0.00000000000E+00  0.45593999997E+02  0.45594000000E+02  0.51100000000E-03 0.  1.
         11   -1    0    0    0    0 -0.00000000000E+00 -0.00000000000E+00 -0.45593999997E+02  0.45594000000E+02  0.51100000000E-03 0. -1.
    9900012    2    1    2    0    0 -0.51071846095E+00 -0.10016500015E+01 -0.35901678410E+00  0.90007733452E+02  0.89999994734E+02 0.  0.
        -12    1    1    2    0    0  0.51071846095E+00  0.10016500015E+01  0.35901678410E+00  0.11802665475E+01  0.00000000000E+00 0.  1.
         11    1    3    3    0    0  0.67552919698E+01  0.61757729535E+01  0.21274883925E+01  0.93968265011E+01  0.51100000000E-03 0. -1.
        -11    1    3    3    0    0  0.32880312194E+02  0.21428902324E+01  0.14543570503E+02  0.36016973106E+02  0.51100000000E-03 0.  1.
         12    1    3    3    0    0 -0.40146322624E+02 -0.93203131873E+01 -0.17030075679E+02  0.44593933845E+02  0.00000000000E+00 0. -1.
</event>
<event>
 7    1  0.2232484E-015  0.9000782E+02  0.7816164E-02  0.1186339E+00
        -11   -1    0    0    0    0  0.00000000000E+00  0.00000000000E+00  0.45593999997E+02  0.45594000000E+02  0.51100000000E-03 0.  1.
         11   -1    0    0    0    0 -0.00000000000E+00 -0.00000000000E+00 -0.45593999997E+02  0.45594000000E+02  0.51100000000E-03 0. -1.
    9900012    2    1    2    0    0 -0.81662000574E+00 -0.71324414881E+00 -0.46609988839E+00  0.90007815881E+02  0.90000078250E+02 0.  0.
        -12    1    1    2    0    0  0.81662000574E+00  0.71324414881E+00  0.46609988839E+00  0.11801841193E+01  0.00000000000E+00 0.  1.
         11    1    3    3    0    0 -0.30772911518E+01 -0.13606412010E+02 -0.99900353512E+01  0.17158233452E+02  0.51100000000E-03 0. -1.
        -11    1    3    3    0    0 -0.67620259452E+00 -0.81729708264E+01  0.37115859396E+02  0.38011073664E+02  0.51100000000E-03 0.  1.
         12    1    3    3    0    0  0.29368737406E+01  0.21066138688E+02 -0.27591923934E+02  0.34838508765E+02  0.00000000000E+00 0. -1.
</event>
<event>
 7    1  0.2232484E-015  0.9000767E+02  0.7816164E-02  0.1186339E+00
        -11   -1    0    0    0    0  0.00000000000E+00  0.00000000000E+00  0.45593999997E+02  0.45594000000E+02  0.51100000000E-03 0. -1.
         11   -1    0    0    0    0 -0.00000000000E+00 -0.00000000000E+00 -0.45593999997E+02  0.45594000000E+02  0.51100000000E-03 0.  1.
    9900012    2    1    2    0    0  0.10086661177E+01  0.56683552851E+00  0.23338263864E+00  0.90007670678E+02  0.89999931130E+02 0.  0.
        -12    1    1    2    0    0 -0.10086661177E+01 -0.56683552851E+00 -0.23338263864E+00  0.11803293224E+01  0.00000000000E+00 0.  1.
         11    1    3    3    0    0  0.51314414930E+01 -0.10929930342E+01 -0.77166473505E+01  0.93312899517E+01  0.51100000000E-03 0. -1.
        -11    1    3    3    0    0  0.51330445033E+00 -0.38762261890E+02  0.96679634834E+01  0.39953046773E+02  0.51100000000E-03 0.  1.
         12    1    3    3    0    0 -0.46360798256E+01  0.40422090453E+02 -0.17179334943E+01  0.40723333953E+02  0.00000000000E+00 0. -1.
</event>
<event>
 7    1  0.2232484E-015  0.9000816E+02  0.7816164E-02  0.1186338E+00
        -11   -1    0    0    0    0  0.00000000000E+00  0.00000000000E+00  0.45593999997E+02  0.45594000000E+02  0.51100000000E-03 0.  1.
         11   -1    0    0    0    0 -0.00000000000E+00 -0.00000000000E+00 -0.45593999997E+02  0.45594000000E+02  0.51100000000E-03 0. -1.
    9900012    2    1    2    0    0  0.93723143236E+00  0.65991664316E+00 -0.27950181550E+00  0.90008163571E+02  0.90000430529E+02 0.  0.
        -12    1    1    2    0    0 -0.93723143236E+00 -0.65991664316E+00  0.27950181550E+00  0.11798364287E+01  0.00000000000E+00 0.  1.
         11    1    3    3    0    0 -0.13036768801E+01 -0.86983626655E+01  0.67993696349E+01  0.11117217015E+02  0.51100000000E-03 0. -1.
        -11    1    3    3    0    0 -0.60744474166E+00  0.12209285053E+02  0.34765952344E+02  0.36852504301E+02  0.51100000000E-03 0.  1.
         12    1    3    3    0    0  0.28483530541E+01 -0.28510057446E+01 -0.41844823794E+02  0.42038442255E+02  0.00000000000E+00 0. -1.
</event>
<event>
 7    1  0.2232484E-015  0.9000778E+02  0.7816164E-02  0.1186339E+00
        -11   -1    0    0    0    0  0.00000000000E+00  0.00000000000E+00  0.45593999997E+02  0.45594000000E+02  0.51100000000E-03 0. -1.
         11   -1    0    0    0    0 -0.00000000000E+00 -0.00000000000E+00 -0.45593999997E+02  0.45594000000E+02  0.51100000000E-03 0.  1.
    9900012    2    1    2    0    0  0.87271633225E+00  0.76393644582E+00 -0.21838363092E+00  0.90007777945E+02  0.90000039813E+02 0.  0.
        -12    1    1    2    0    0 -0.87271633225E+00 -0.76393644582E+00  0.21838363092E+00  0.11802220554E+01  0.00000000000E+00 0.  1.
         11    1    3    3    0    0  0.36174603141E+02 -0.87058762770E+01 -0.11781326088E+01  0.37226095563E+02  0.51100000000E-03 0. -1.
        -11    1    3    3    0    0  0.81299779580E+01  0.28248779558E+01  0.19840510918E+01  0.88324931961E+01  0.51100000000E-03 0.  1.
        -12    1    3    3    0    0 -0.43431864767E+02  0.66449347670E+01 -0.10243021139E+01  0.43949189185E+02  0.00000000000E+00 0.  1.
</event>
<event>
 7    1  0.2232484E-015  0.9000771E+02  0.7816164E-02  0.1186339E+00
        -11   -1    0    0    0    0  0.00000000000E+00  0.00000000000E+00  0.45593999997E+02  0.45594000000E+02  0.51100000000E-03 0.  1.
         11   -1    0    0    0    0 -0.00000000000E+00 -0.00000000000E+00 -0.45593999997E+02  0.45594000000E+02  0.51100000000E-03 0. -1.
    9900012    2    1    2    0    0 -0.81247742902E+00  0.72209570894E-01 -0.85308950144E+00  0.90007705337E+02  0.89999966247E+02 0.  0.
        -12    1    1    2    0    0  0.81247742902E+00 -0.72209570894E-01  0.85308950144E+00  0.11802946633E+01  0.00000000000E+00 0.  1.
         11    1    3    3    0    0  0.64912937972E+00 -0.92429339982E+01 -0.50536789366E+01  0.10554282017E+02  0.51100000000E-03 0. -1.
        -11    1    3    3    0    0 -0.13160044027E+02 -0.32953360913E+02  0.20625661621E+01  0.35543845229E+02  0.51100000000E-03 0.  1.
         12    1    3    3    0    0  0.11698437218E+02  0.42268504482E+02  0.21380232730E+01  0.43909578090E+02  0.00000000000E+00 0. -1.
</event>
<event>
 7    1  0.2232484E-015  0.9000831E+02  0.7816164E-02  0.1186338E+00
        -11   -1    0    0    0    0  0.00000000000E+00  0.00000000000E+00  0.45593999997E+02  0.45594000000E+02  0.51100000000E-03 0.  1.
         11   -1    0    0    0    0 -0.00000000000E+00 -0.00000000000E+00 -0.45593999997E+02  0.45594000000E+02  0.51100000000E-03 0. -1.
    9900012    2    1    2    0    0  0.10799234824E+01 -0.47461094066E+00  0.13771682614E-01  0.90008305153E+02  0.90000573979E+02 0.  0.
        -12    1    1    2    0    0 -0.10799234824E+01  0.47461094066E+00 -0.13771682614E-01  0.11796948470E+01  0.00000000000E+00 0.  1.
         11    1    3    3    0    0 -0.10324283645E+02  0.56643109209E+01 -0.98992214865E-01  0.11776461723E+02  0.51100000000E-03 0. -1.
        -11    1    3    3    0    0 -0.24110143147E+02  0.57895112781E+00  0.24697094793E+02  0.34519279808E+02  0.51100000000E-03 0.  1.
         12    1    3    3    0    0  0.35514350274E+02 -0.67178729894E+01 -0.24584330895E+02  0.43712563623E+02  0.00000000000E+00 0. -1.
</event>
<event>
 7    1  0.2232484E-015  0.9000773E+02  0.7816164E-02  0.1186339E+00
        -11   -1    0    0    0    0  0.00000000000E+00  0.00000000000E+00  0.45593999997E+02  0.45594000000E+02  0.51100000000E-03 0. -1.
         11   -1    0    0    0    0 -0.00000000000E+00 -0.00000000000E+00 -0.45593999997E+02  0.45594000000E+02  0.51100000000E-03 0.  1.
    9900012    2    1    2    0    0  0.14581590478E+00 -0.92361639471E+00  0.72021422430E+00  0.90007729670E+02  0.89999990902E+02 0.  0.
        -12    1    1    2    0    0 -0.14581590478E+00  0.92361639471E+00 -0.72021422430E+00  0.11802703299E+01  0.00000000000E+00 0.  1.
         11    1    3    3    0    0 -0.21126143572E+02 -0.10716296681E+02  0.34862170130E+02  0.42148829915E+02  0.51100000000E-03 0. -1.
        -11    1    3    3    0    0 -0.24207644173E+01  0.75198950124E+01 -0.25437794451E+01  0.82993816329E+01  0.51100000000E-03 0.  1.
         12    1    3    3    0    0  0.23692723894E+02  0.22727852736E+01 -0.31598176461E+02  0.39559518122E+02  0.00000000000E+00 0. -1.
</event>
<event>
 7    1  0.2232484E-015  0.9000780E+02  0.7816164E-02  0.1186339E+00
        -11   -1    0    0    0    0  0.00000000000E+00  0.00000000000E+00  0.45593999997E+02  0.45594000000E+02  0.51100000000E-03 0. -1.
         11   -1    0    0    0    0 -0.00000000000E+00 -0.00000000000E+00 -0.45593999997E+02  0.45594000000E+02  0.51100000000E-03 0.  1.
    9900012    2    1    2    0    0  0.80687028143E+00 -0.20201188475E+00  0.83727726958E+00  0.90007795916E+02  0.90000058023E+02 0.  0.
        -12    1    1    2    0    0 -0.80687028143E+00  0.20201188475E+00 -0.83727726958E+00  0.11802040835E+01  0.00000000000E+00 0.  1.
         11    1    3    3    0    0  0.43948638262E+01 -0.32750418268E+02  0.23362752013E+02  0.40468789291E+02  0.51100000000E-03 0. -1.
        -11    1    3    3    0    0 -0.11003565335E+02  0.10168316684E+01 -0.96884829059E+01  0.14696227339E+02  0.51100000000E-03 0.  1.
        -12    1    3    3    0    0  0.74155717902E+01  0.31531574715E+02 -0.12836991838E+02  0.34842779287E+02  0.00000000000E+00 0.  1.
</event>
<event>
 7    1  0.2232484E-015  0.9000776E+02  0.7816164E-02  0.1186339E+00
        -11   -1    0    0    0    0  0.00000000000E+00  0.00000000000E+00  0.45593999997E+02  0.45594000000E+02  0.51100000000E-03 0. -1.
         11   -1    0    0    0    0 -0.00000000000E+00 -0.00000000000E+00 -0.45593999997E+02  0.45594000000E+02  0.51100000000E-03 0.  1.
    9900012    2    1    2    0    0 -0.29171841042E+00  0.28364859526E+00  0.11078846448E+01  0.90007760811E+02  0.90000022454E+02 0.  0.
        -12    1    1    2    0    0  0.29171841042E+00 -0.28364859526E+00 -0.11078846448E+01  0.11802391888E+01  0.00000000000E+00 0.  1.
         11    1    3    3    0    0 -0.56615844858E+01 -0.18052761300E+00  0.34048634078E+01  0.66090259642E+01  0.51100000000E-03 0. -1.
        -11    1    3    3    0    0 -0.30346931276E+02 -0.21385143269E+02 -0.14391986336E+02  0.39816954447E+02  0.51100000000E-03 0.  1.
         12    1    3    3    0    0  0.35716797351E+02  0.21849319477E+02  0.12095007573E+02  0.43581780400E+02  0.00000000000E+00 0. -1.
</event>
<event>
 7    1  0.2232484E-015  0.9000769E+02  0.7816164E-02  0.1186339E+00
        -11   -1    0    0    0    0  0.00000000000E+00  0.00000000000E+00  0.45593999997E+02  0.45594000000E+02  0.51100000000E-03 0.  1.
         11   -1    0    0    0    0 -0.00000000000E+00 -0.00000000000E+00 -0.45593999997E+02  0.45594000000E+02  0.51100000000E-03 0. -1.
    9900012    2    1    2    0    0  0.37552261756E+00  0.13119845396E-01 -0.11189026241E+01  0.90007689681E+02  0.89999950385E+02 0.  0.
        -12    1    1    2    0    0 -0.37552261756E+00 -0.13119845396E-01  0.11189026241E+01  0.11803103189E+01  0.00000000000E+00 0.  1.
         11    1    3    3    0    0  0.18376364319E+01  0.32978809655E+02 -0.15841884039E+02  0.36632554976E+02  0.51100000000E-03 0. -1.
        -11    1    3    3    0    0  0.96253077988E+00  0.40221845269E+01 -0.86265210041E+01  0.95666764744E+01  0.51100000000E-03 0.  1.
        -12    1    3    3    0    0 -0.24246445942E+01 -0.36987874336E+02  0.23349502419E+02  0.43808458231E+02  0.00000000000E+00 0.  1.
</event>
<event>
 7    1  0.2232484E-015  0.9000750E+02  0.7816164E-02  0.1186340E+00
        -11   -1    0    0    0    0  0.00000000000E+00  0.00000000000E+00  0.45593999997E+02  0.45594000000E+02  0.51100000000E-03 0. -1.
         11   -1    0    0    0    0 -0.00000000000E+00 -0.00000000000E+00 -0.45593999997E+02  0.45594000000E+02  0.51100000000E-03 0.  1.
    9900012    2    1    2    0    0 -0.19239870112E-01  0.11483625079E+00  0.11747405541E+01  0.90007503110E+02  0.89999761351E+02 0.  0.
        -12    1    1    2    0    0  0.19239870112E-01 -0.11483625079E+00 -0.11747405541E+01  0.11804968897E+01  0.00000000000E+00 0.  1.
         11    1    3    3    0    0 -0.42541174259E+01  0.14304822809E+01 -0.74823622426E+01  0.87252243306E+01  0.51100000000E-03 0. -1.
        -11    1    3    3    0    0 -0.25382823224E+02 -0.14179302367E+02 -0.22228863979E+02  0.36598671075E+02  0.51100000000E-03 0.  1.
         12    1    3    3    0    0  0.29617700779E+02  0.12863656337E+02  0.30885966776E+02  0.44683607704E+02  0.00000000000E+00 0. -1.
</event>
<event>
 7    1  0.2232484E-015  0.9000765E+02  0.7816164E-02  0.1186339E+00
        -11   -1    0    0    0    0  0.00000000000E+00  0.00000000000E+00  0.45593999997E+02  0.45594000000E+02  0.51100000000E-03 0. -1.
         11   -1    0    0    0    0 -0.00000000000E+00 -0.00000000000E+00 -0.45593999997E+02  0.45594000000E+02  0.51100000000E-03 0.  1.
    9900012    2    1    2    0    0  0.57690195263E+00 -0.54097287870E+00  0.87622282267E+00  0.90007646683E+02  0.89999906819E+02 0.  0.
        -12    1    1    2    0    0 -0.57690195263E+00  0.54097287870E+00 -0.87622282267E+00  0.11803533172E+01  0.00000000000E+00 0.  1.
         11    1    3    3    0    0 -0.97221977188E+01  0.43237763854E+00  0.24437110901E+00  0.97348752640E+01  0.51100000000E-03 0. -1.
        -11    1    3    3    0    0  0.28798984312E+02 -0.18965992571E+02 -0.26001438484E+02  0.43187558105E+02  0.51100000000E-03 0.  1.
         12    1    3    3    0    0 -0.18499884641E+02  0.17992642054E+02  0.26633290197E+02  0.37085213314E+02  0.00000000000E+00 0. -1.
</event>
<event>
 7    1  0.2232484E-015  0.9000774E+02  0.7816164E-02  0.1186339E+00
        -11   -1    0    0    0    0  0.00000000000E+00  0.00000000000E+00  0.45593999997E+02  0.45594000000E+02  0.51100000000E-03 0. -1.
         11   -1    0    0    0    0 -0.00000000000E+00 -0.00000000000E+00 -0.45593999997E+02  0.45594000000E+02  0.51100000000E-03 0.  1.
    9900012    2    1    2    0    0  0.54347597944E+00 -0.10169928606E+01  0.25171712070E+00  0.90007744889E+02  0.90000006321E+02 0.  0.
        -12    1    1    2    0    0 -0.54347597944E+00  0.10169928606E+01 -0.25171712070E+00  0.11802551112E+01  0.00000000000E+00 0.  1.
         11    1    3    3    0    0 -0.11660562476E+02  0.16844912937E+02 -0.19632064555E+02  0.28374949658E+02  0.51100000000E-03 0. -1.
        -11    1    3    3    0    0 -0.18953036669E+02 -0.80795367858E+01 -0.42362925538E+01  0.21034321680E+02  0.51100000000E-03 0.  1.
        -12    1    3    3    0    0  0.31157075125E+02 -0.97823690116E+01  0.24120074230E+02  0.40598473551E+02  0.00000000000E+00 0.  1.
</event>
<event>
 7    1  0.2232484E-015  0.9000773E+02  0.7816164E-02  0.1186339E+00
        -11   -1    0    0    0    0  0.00000000000E+00  0.00000000000E+00  0.45593999997E+02  0.45594000000E+02  0.51100000000E-03 0. -1.
         11   -1    0    0    0    0 -0.00000000000E+00 -0.00000000000E+00 -0.45593999997E+02  0.45594000000E+02  0.51100000000E-03 0.  1.
    9900012    2    1    2    0    0 -0.30680064259E+00  0.10681027916E+01 -0.39756577754E+00  0.90007733608E+02  0.89999994892E+02 0.  0.
        -12    1    1    2    0    0  0.30680064259E+00 -0.10681027916E+01  0.39756577754E+00  0.11802663916E+01  0.00000000000E+00 0.  1.
         11    1    3    3    0    0 -0.19971823519E+02  0.29280971108E+02  0.74474793055E+01  0.36217591747E+02  0.51100000000E-03 0. -1.
        -11    1    3    3    0    0  0.75692967936E+00  0.10256065693E+02 -0.46188465735E+00  0.10294326774E+02  0.51100000000E-03 0.  1.
        -12    1    3    3    0    0  0.18908093197E+02 -0.38468934010E+02 -0.73831604257E+01  0.43495815087E+02  0.00000000000E+00 0.  1.
</event>
<event>
 7    1  0.2232484E-015  0.9000774E+02  0.7816164E-02  0.1186339E+00
        -11   -1    0    0    0    0  0.00000000000E+00  0.00000000000E+00  0.45593999997E+02  0.45594000000E+02  0.51100000000E-03 0.  1.
         11   -1    0    0    0    0 -0.00000000000E+00 -0.00000000000E+00 -0.45593999997E+02  0.45594000000E+02  0.51100000000E-03 0. -1.
    9900012    2    1    2    0    0 -0.26892867960E+00 -0.44451912495E+00 -0.10597612624E+01  0.90007739935E+02  0.90000001302E+02 0.  0.
        -12    1    1    2    0    0  0.26892867960E+00  0.44451912495E+00  0.10597612624E+01  0.11802600648E+01  0.00000000000E+00 0.  1.
         11    1    3    3    0    0 -0.54521203577E+01  0.10661386996E+01 -0.34915723552E+02  0.35354915069E+02  0.51100000000E-03 0. -1.
        -11    1    3    3    0    0  0.45888807981E+01 -0.67347333847E+01 -0.86142942161E+01  0.11858352577E+02  0.51100000000E-03 0.  1.
        -12    1    3    3    0    0  0.59431088003E+00  0.52240755601E+01  0.42470256505E+02  0.42794472289E+02  0.00000000000E+00 0.  1.
</event>
<event>
 7    1  0.2232484E-015  0.9000772E+02  0.7816164E-02  0.1186339E+00
        -11   -1    0    0    0    0  0.00000000000E+00  0.00000000000E+00  0.45593999997E+02  0.45594000000E+02  0.51100000000E-03 0. -1.
         11   -1    0    0    0    0 -0.00000000000E+00 -0.00000000000E+00 -0.45593999997E+02  0.45594000000E+02  0.51100000000E-03 0.  1.
    9900012    2    1    2    0    0 -0.50691976070E+00  0.84364958050E+00 -0.65141613997E+00  0.90007722386E+02  0.89999983522E+02 0.  0.
        -12    1    1    2    0    0  0.50691976070E+00 -0.84364958050E+00  0.65141613997E+00  0.11802776139E+01  0.00000000000E+00 0.  1.
         11    1    3    3    0    0  0.21146556617E+02  0.12673778519E+02  0.10761351537E+02  0.26899966652E+02  0.51100000000E-03 0. -1.
        -11    1    3    3    0    0  0.15150336655E+02 -0.22717078133E+01  0.11099961042E+02  0.18918311038E+02  0.51100000000E-03 0.  1.
        -12    1    3    3    0    0 -0.36803813032E+02 -0.95584211255E+01 -0.22512728719E+02  0.44189444696E+02  0.00000000000E+00 0.  1.
</event>
<event>
 7    1  0.2232484E-015  0.9000763E+02  0.7816164E-02  0.1186339E+00
        -11   -1    0    0    0    0  0.00000000000E+00  0.00000000000E+00  0.45593999997E+02  0.45594000000E+02  0.51100000000E-03 0. -1.
         11   -1    0    0    0    0 -0.00000000000E+00 -0.00000000000E+00 -0.45593999997E+02  0.45594000000E+02  0.51100000000E-03 0.  1.
    9900012    2    1    2    0    0 -0.59971540244E+00  0.84313594994E+00  0.56809879537E+00  0.90007630128E+02  0.89999890045E+02 0.  0.
        -12    1    1    2    0    0  0.59971540244E+00 -0.84313594994E+00 -0.56809879537E+00  0.11803698722E+01  0.00000000000E+00 0.  1.
         11    1    3    3    0    0  0.97052450387E+01  0.15078049075E+00  0.27102516819E+01  0.10077697180E+02  0.51100000000E-03 0. -1.
        -11    1    3    3    0    0  0.34437020324E+02 -0.18135030792E+01 -0.57988079086E+01  0.34968890969E+02  0.51100000000E-03 0.  1.
         12    1    3    3    0    0 -0.44741980765E+02  0.25058585384E+01  0.36566550220E+01  0.44961041978E+02  0.00000000000E+00 0. -1.
</event>
<event>
 7    1  0.2232484E-015  0.9000779E+02  0.7816164E-02  0.1186339E+00
        -11   -1    0    0    0    0  0.00000000000E+00  0.00000000000E+00  0.45593999997E+02  0.45594000000E+02  0.51100000000E-03 0. -1.
         11   -1    0    0    0    0 -0.00000000000E+00 -0.00000000000E+00 -0.45593999997E+02  0.45594000000E+02  0.51100000000E-03 0.  1.
    9900012    2    1    2    0    0  0.55790164839E+00  0.10031716137E+01  0.27439655807E+00  0.90007787728E+02  0.90000049726E+02 0.  0.
        -12    1    1    2    0    0 -0.55790164839E+00 -0.10031716137E+01 -0.27439655807E+00  0.11802122720E+01  0.00000000000E+00 0.  1.
         11    1    3    3    0    0 -0.44096370439E+01  0.17347066179E+02  0.36363460743E+02  0.40529827058E+02  0.51100000000E-03 0. -1.
        -11    1    3    3    0    0 -0.56104840014E+01 -0.77305850534E+01  0.13354467720E+01  0.96448377042E+01  0.51100000000E-03 0.  1.
        -12    1    3    3    0    0  0.10578022694E+02 -0.86133095116E+01 -0.37424510957E+02  0.39833122966E+02  0.00000000000E+00 0.  1.
</event>
<event>
 7    1  0.2397787E-015  0.9000782E+02  0.7816164E-02  0.1186339E+00
        -11   -1    0    0    0    0  0.00000000000E+00  0.00000000000E+00  0.45593999997E+02  0.45594000000E+02  0.51100000000E-03 0.  1.
         11   -1    0    0    0    0 -0.00000000000E+00 -0.00000000000E+00 -0.45593999997E+02  0.45594000000E+02  0.51100000000E-03 0. -1.
    9900012    2    1    2    0    0 -0.75902033207E+00  0.88243046122E+00  0.19503302615E+00  0.90007816428E+02  0.90000078804E+02 0.  0.
        -12    1    1    2    0    0  0.75902033207E+00 -0.88243046122E+00 -0.19503302615E+00  0.11801835724E+01  0.00000000000E+00 0.  1.
         11    1    3    3    0    0  0.72937062680E+01 -0.51754518342E+00  0.60192113210E+01  0.94708452278E+01  0.51100000000E-03 0. -1.
        -11    1    3    3    0    0  0.34138078530E+02 -0.10882334687E+02  0.20739118846E+01  0.35890593820E+02  0.51100000000E-03 0.  1.
         12    1    3    3    0    0 -0.42190805131E+02  0.12282310332E+02 -0.78980901795E+01  0.44646377380E+02  0.00000000000E+00 0. -1.
</event>
<event>
 7    1  0.2232484E-015  0.9000768E+02  0.7816164E-02  0.1186339E+00
        -11   -1    0    0    0    0  0.00000000000E+00  0.00000000000E+00  0.45593999997E+02  0.45594000000E+02  0.51100000000E-03 0.  1.
         11   -1    0    0    0    0 -0.00000000000E+00 -0.00000000000E+00 -0.45593999997E+02  0.45594000000E+02  0.51100000000E-03 0. -1.
    9900012    2    1    2    0    0  0.63511439275E+00  0.26030190258E+00 -0.96022227024E+00  0.90007680475E+02  0.89999941057E+02 0.  0.
        -12    1    1    2    0    0 -0.63511439275E+00 -0.26030190258E+00  0.96022227024E+00  0.11803195248E+01  0.00000000000E+00 0.  1.
         11    1    3    3    0    0  0.27041385036E+02 -0.19866731742E+02 -0.15488879270E+02  0.36957122670E+02  0.51100000000E-03 0. -1.
        -11    1    3    3    0    0  0.54709826815E+00 -0.57867368485E+01 -0.76269180460E+01  0.95893440344E+01  0.51100000000E-03 0.  1.
        -12    1    3    3    0    0 -0.26953368911E+02  0.25913770493E+02  0.22155575045E+02  0.43461213771E+02  0.00000000000E+00 0.  1.
</event>
<event>
 7    1  0.2232484E-015  0.9000776E+02  0.7816164E-02  0.1186339E+00
        -11   -1    0    0    0    0  0.00000000000E+00  0.00000000000E+00  0.45593999997E+02  0.45594000000E+02  0.51100000000E-03 0.  1.
         11   -1    0    0    0    0 -0.00000000000E+00 -0.00000000000E+00 -0.45593999997E+02  0.45594000000E+02  0.51100000000E-03 0. -1.
    9900012    2    1    2    0    0  0.57702916624E+00 -0.99496623807E+00 -0.26464021514E+00  0.90007764889E+02  0.90000026586E+02 0.  0.
        -12    1    1    2    0    0 -0.57702916624E+00  0.99496623807E+00  0.26464021514E+00  0.11802351109E+01  0.00000000000E+00 0.  1.
         11    1    3    3    0    0  0.12504012939E+02 -0.99689595023E+00 -0.36091798955E+02  0.38209450313E+02  0.51100000000E-03 0. -1.
        -11    1    3    3    0    0  0.43684674783E+01  0.53939264133E+01 -0.42925346189E+01  0.81611153636E+01  0.51100000000E-03 0.  1.
        -12    1    3    3    0    0 -0.16295451251E+02 -0.53919967011E+01  0.40119693359E+02  0.43637199213E+02  0.00000000000E+00 0.  1.
</event>
<event>
 7    1  0.2232484E-015  0.9000756E+02  0.7816164E-02  0.1186339E+00
        -11   -1    0    0    0    0  0.00000000000E+00  0.00000000000E+00  0.45593999997E+02  0.45594000000E+02  0.51100000000E-03 0. -1.
         11   -1    0    0    0    0 -0.00000000000E+00 -0.00000000000E+00 -0.45593999997E+02  0.45594000000E+02  0.51100000000E-03 0.  1.
    9900012    2    1    2    0    0  0.66617900593E-01  0.11101836228E+01  0.39559185630E+00  0.90007560024E+02  0.89999819016E+02 0.  0.
        -12    1    1    2    0    0 -0.66617900593E-01 -0.11101836228E+01 -0.39559185630E+00  0.11804399764E+01  0.00000000000E+00 0.  1.
         11    1    3    3    0    0  0.57120387071E+01  0.53473949153E+01 -0.33739186196E+01  0.85208770490E+01  0.51100000000E-03 0. -1.
        -11    1    3    3    0    0  0.78424427360E+01 -0.44079323385E+01 -0.37242332061E+02  0.38313510322E+02  0.51100000000E-03 0.  1.
         12    1    3    3    0    0 -0.13487863542E+02  0.17072104605E+00  0.41011842537E+02  0.43173172653E+02  0.00000000000E+00 0. -1.
</event>
<event>
 7    1  0.2232484E-015  0.9000772E+02  0.7816164E-02  0.1186339E+00
        -11   -1    0    0    0    0  0.00000000000E+00  0.00000000000E+00  0.45593999997E+02  0.45594000000E+02  0.51100000000E-03 0. -1.
         11   -1    0    0    0    0 -0.00000000000E+00 -0.00000000000E+00 -0.45593999997E+02  0.45594000000E+02  0.51100000000E-03 0.  1.
    9900012    2    1    2    0    0 -0.29629145210E+00 -0.10888021244E+01 -0.34610920871E+00  0.90007716019E+02  0.89999977071E+02 0.  0.
        -12    1    1    2    0    0  0.29629145210E+00  0.10888021244E+01  0.34610920871E+00  0.11802839806E+01  0.00000000000E+00 0.  1.
         11    1    3    3    0    0  0.58965470681E+01 -0.53568525524E+01 -0.64680418664E+01  0.10261613053E+02  0.51100000000E-03 0. -1.
        -11    1    3    3    0    0 -0.94860718845E+01  0.27756229791E+02 -0.26420899777E+02  0.39477307372E+02  0.51100000000E-03 0.  1.
         12    1    3    3    0    0  0.32932333643E+01 -0.23488179363E+02  0.32542832435E+02  0.40268795595E+02  0.00000000000E+00 0. -1.
</event>
<event>
 7    1  0.2232484E-015  0.9000770E+02  0.7816164E-02  0.1186339E+00
        -11   -1    0    0    0    0  0.00000000000E+00  0.00000000000E+00  0.45593999997E+02  0.45594000000E+02  0.51100000000E-03 0.  1.
         11   -1    0    0    0    0 -0.00000000000E+00 -0.00000000000E+00 -0.45593999997E+02  0.45594000000E+02  0.51100000000E-03 0. -1.
    9900012    2    1    2    0    0 -0.34460934260E+00 -0.67128192246E+00 -0.90759200799E+00  0.90007704159E+02  0.89999965054E+02 0.  0.
        -12    1    1    2    0    0  0.34460934260E+00  0.67128192246E+00  0.90759200799E+00  0.11802958406E+01  0.00000000000E+00 0.  1.
         11    1    3    3    0    0  0.24164266145E+02  0.11950739724E+00  0.25889247469E+02  0.35414392203E+02  0.51100000000E-03 0. -1.
        -11    1    3    3    0    0  0.34379622119E+01  0.53781011906E+01  0.75492578853E+01  0.98860938427E+01  0.51100000000E-03 0.  1.
        -12    1    3    3    0    0 -0.27946837699E+02 -0.61688905103E+01 -0.34346097362E+02  0.44707218114E+02  0.00000000000E+00 0.  1.
</event>
<event>
 7    1  0.2232484E-015  0.9000774E+02  0.7816164E-02  0.1186339E+00
        -11   -1    0    0    0    0  0.00000000000E+00  0.00000000000E+00  0.45593999997E+02  0.45594000000E+02  0.51100000000E-03 0.  1.
         11   -1    0    0    0    0 -0.00000000000E+00 -0.00000000000E+00 -0.45593999997E+02  0.45594000000E+02  0.51100000000E-03 0. -1.
    9900012    2    1    2    0    0 -0.65419192290E+00  0.88002711371E+00 -0.43658670779E+00  0.90007736154E+02  0.89999997471E+02 0.  0.
        -12    1    1    2    0    0  0.65419192290E+00 -0.88002711371E+00  0.43658670779E+00  0.11802638460E+01  0.00000000000E+00 0.  1.
         11    1    3    3    0    0 -0.59513593441E+01  0.13527138522E+01  0.89877372115E+00  0.61689794351E+01  0.51100000000E-03 0. -1.
        -11    1    3    3    0    0 -0.69178644732E+00 -0.41893164152E+02  0.11403202131E+01  0.41914390149E+02  0.51100000000E-03 0.  1.
         12    1    3    3    0    0  0.59889538685E+01  0.41420477413E+02 -0.24756806421E+01  0.41924366569E+02  0.00000000000E+00 0. -1.
</event>
<event>
 7    1  0.2232484E-015  0.9000769E+02  0.7816164E-02  0.1186339E+00
        -11   -1    0    0    0    0  0.00000000000E+00  0.00000000000E+00  0.45593999997E+02  0.45594000000E+02  0.51100000000E-03 0. -1.
         11   -1    0    0    0    0 -0.00000000000E+00 -0.00000000000E+00 -0.45593999997E+02  0.45594000000E+02  0.51100000000E-03 0.  1.
    9900012    2    1    2    0    0 -0.66140497851E+00 -0.52743809877E+00  0.82309662256E+00  0.90007688370E+02  0.89999949057E+02 0.  0.
        -12    1    1    2    0    0  0.66140497851E+00  0.52743809877E+00 -0.82309662256E+00  0.11803116299E+01  0.00000000000E+00 0.  1.
         11    1    3    3    0    0 -0.65387316043E+01 -0.38891888813E+02 -0.19256470915E+02  0.43887876445E+02  0.51100000000E-03 0. -1.
        -11    1    3    3    0    0  0.67024920131E+01  0.56168488954E+01  0.37067123099E+01  0.94980054279E+01  0.51100000000E-03 0.  1.
        -12    1    3    3    0    0 -0.82516538731E+00  0.32747601819E+02  0.16372855227E+02  0.36621806497E+02  0.00000000000E+00 0.  1.
</event>
<event>
 7    1  0.2232484E-015  0.9000777E+02  0.7816164E-02  0.1186339E+00
        -11   -1    0    0    0    0  0.00000000000E+00  0.00000000000E+00  0.45593999997E+02  0.45594000000E+02  0.51100000000E-03 0.  1.
         11   -1    0    0    0    0 -0.00000000000E+00 -0.00000000000E+00 -0.45593999997E+02  0.45594000000E+02  0.51100000000E-03 0. -1.
    9900012    2    1    2    0    0 -0.80887153833E+00  0.20866119672E+00 -0.83374707703E+00  0.90007768307E+02  0.90000030049E+02 0.  0.
        -12    1    1    2    0    0  0.80887153833E+00 -0.20866119672E+00  0.83374707703E+00  0.11802316929E+01  0.00000000000E+00 0.  1.
         11    1    3    3    0    0  0.73664396250E+01  0.77742115355E+00  0.22070734101E+01  0.77291648771E+01  0.51100000000E-03 0. -1.
        -11    1    3    3    0    0  0.10759913658E+02 -0.14278334271E+01  0.36687889568E+02  0.38259844373E+02  0.51100000000E-03 0.  1.
         12    1    3    3    0    0 -0.18935224821E+02  0.85907347022E+00 -0.39728710055E+02  0.44018759057E+02  0.00000000000E+00 0. -1.
</event>
<event>
 7    1  0.2232484E-015  0.9000780E+02  0.7816164E-02  0.1186339E+00
        -11   -1    0    0    0    0  0.00000000000E+00  0.00000000000E+00  0.45593999997E+02  0.45594000000E+02  0.51100000000E-03 0. -1.
         11   -1    0    0    0    0 -0.00000000000E+00 -0.00000000000E+00 -0.45593999997E+02  0.45594000000E+02  0.51100000000E-03 0.  1.
    9900012    2    1    2    0    0 -0.79472573607E+00 -0.16488416611E+00  0.85680011138E+00  0.90007795689E+02  0.90000057793E+02 0.  0.
        -12    1    1    2    0    0  0.79472573607E+00  0.16488416611E+00 -0.85680011138E+00  0.11802043106E+01  0.00000000000E+00 0.  1.
         11    1    3    3    0    0 -0.70757660272E+01  0.25308257503E+02  0.28231607165E+02  0.38569392089E+02  0.51100000000E-03 0. -1.
        -11    1    3    3    0    0  0.53250547678E+01 -0.12768154393E+01  0.73120777472E+01  0.91352584632E+01  0.51100000000E-03 0.  1.
        -12    1    3    3    0    0  0.95598552335E+00 -0.24196326230E+02 -0.34686884801E+02  0.42303145138E+02  0.00000000000E+00 0.  1.
</event>
<event>
 7    1  0.2232484E-015  0.9000768E+02  0.7816164E-02  0.1186339E+00
        -11   -1    0    0    0    0  0.00000000000E+00  0.00000000000E+00  0.45593999997E+02  0.45594000000E+02  0.51100000000E-03 0. -1.
         11   -1    0    0    0    0 -0.00000000000E+00 -0.00000000000E+00 -0.45593999997E+02  0.45594000000E+02  0.51100000000E-03 0.  1.
    9900012    2    1    2    0    0  0.65834705648E+00  0.96665172050E-02 -0.97960849172E+00  0.90007683481E+02  0.89999944103E+02 0.  0.
        -12    1    1    2    0    0 -0.65834705648E+00 -0.96665172050E-02  0.97960849172E+00  0.11803165192E+01  0.00000000000E+00 0.  1.
         11    1    3    3    0    0  0.79232238483E+01  0.26812485686E-01 -0.38133836564E+01  0.87931843056E+01  0.51100000000E-03 0. -1.
        -11    1    3    3    0    0  0.73123750909E+01 -0.52794016844E+01 -0.37204141872E+02  0.38281733037E+02  0.51100000000E-03 0.  1.
         12    1    3    3    0    0 -0.14577251883E+02  0.52622557159E+01  0.40037917037E+02  0.42932766138E+02  0.00000000000E+00 0. -1.
</event>
<event>
 7    1  0.2232484E-015  0.9000785E+02  0.7816164E-02  0.1186339E+00
        -11   -1    0    0    0    0  0.00000000000E+00  0.00000000000E+00  0.45593999997E+02  0.45594000000E+02  0.51100000000E-03 0.  1.
         11   -1    0    0    0    0 -0.00000000000E+00 -0.00000000000E+00 -0.45593999997E+02  0.45594000000E+02  0.51100000000E-03 0. -1.
    9900012    2    1    2    0    0  0.72901584522E+00  0.29836413116E+00 -0.87879064091E+00  0.90007848210E+02  0.90000111006E+02 0.  0.
        -12    1    1    2    0    0 -0.72901584522E+00 -0.29836413116E+00  0.87879064091E+00  0.11801517902E+01  0.00000000000E+00 0.  1.
         11    1    3    3    0    0  0.79894133806E+01 -0.20129322764E+01  0.50966297562E+01  0.96880471535E+01  0.51100000000E-03 0. -1.
        -11    1    3    3    0    0 -0.10939963878E+02 -0.25729157869E+02 -0.31574550361E+02  0.42173743076E+02  0.51100000000E-03 0.  1.
         12    1    3    3    0    0  0.36795663422E+01  0.28040454276E+02  0.25599129964E+02  0.38146057980E+02  0.00000000000E+00 0. -1.
</event>
<event>
 7    1  0.2232484E-015  0.9000778E+02  0.7816164E-02  0.1186339E+00
        -11   -1    0    0    0    0  0.00000000000E+00  0.00000000000E+00  0.45593999997E+02  0.45594000000E+02  0.51100000000E-03 0. -1.
         11   -1    0    0    0    0 -0.00000000000E+00 -0.00000000000E+00 -0.45593999997E+02  0.45594000000E+02  0.51100000000E-03 0.  1.
    9900012    2    1    2    0    0  0.58786883522E+00  0.70379315250E+00 -0.74297548163E+00  0.90007776659E+02  0.90000038511E+02 0.  0.
        -12    1    1    2    0    0 -0.58786883522E+00 -0.70379315250E+00  0.74297548163E+00  0.11802233412E+01  0.00000000000E+00 0.  1.
         11    1    3    3    0    0 -0.34534563661E+01  0.59813469180E+01  0.74355478461E+01  0.10148410903E+02  0.51100000000E-03 0. -1.
        -11    1    3    3    0    0 -0.28301774937E+02  0.11167130214E+01  0.21452939277E+02  0.35531199198E+02  0.51100000000E-03 0.  1.
         12    1    3    3    0    0  0.32343100138E+02 -0.63942667869E+01 -0.29631462604E+02  0.44328166558E+02  0.00000000000E+00 0. -1.
</event>
<event>
 7    1  0.2232484E-015  0.9000776E+02  0.7816164E-02  0.1186339E+00
        -11   -1    0    0    0    0  0.00000000000E+00  0.00000000000E+00  0.45593999997E+02  0.45594000000E+02  0.51100000000E-03 0. -1.
         11   -1    0    0    0    0 -0.00000000000E+00 -0.00000000000E+00 -0.45593999997E+02  0.45594000000E+02  0.51100000000E-03 0.  1.
    9900012    2    1    2    0    0 -0.96736372144E+00  0.19763675344E+00  0.64661916159E+00  0.90007758840E+02  0.90000020457E+02 0.  0.
        -12    1    1    2    0    0  0.96736372144E+00 -0.19763675344E+00 -0.64661916159E+00  0.11802411601E+01  0.00000000000E+00 0.  1.
         11    1    3    3    0    0 -0.17114729784E+02 -0.28069070103E+02  0.38027532922E+01  0.33094525301E+02  0.51100000000E-03 0. -1.
        -11    1    3    3    0    0  0.67241607554E+00 -0.11118286180E+02 -0.88359216420E+01  0.14217663046E+02  0.51100000000E-03 0.  1.
        -12    1    3    3    0    0  0.15474949987E+02  0.39384993036E+02  0.56797875114E+01  0.42695570493E+02  0.00000000000E+00 0.  1.
</event>
<event>
 7    1  0.2232484E-015  0.9000766E+02  0.7816164E-02  0.1186339E+00
        -11   -1    0    0    0    0  0.00000000000E+00  0.00000000000E+00  0.45593999997E+02  0.45594000000E+02  0.51100000000E-03 0. -1.
         11   -1    0    0    0    0 -0.00000000000E+00 -0.00000000000E+00 -0.45593999997E+02  0.45594000000E+02  0.51100000000E-03 0.  1.
    9900012    2    1    2    0    0 -0.33315257716E+00 -0.10366520982E+01  0.45560390658E+00  0.90007655503E+02  0.89999915755E+02 0.  0.
        -12    1    1    2    0    0  0.33315257716E+00  0.10366520982E+01 -0.45560390658E+00  0.11803444972E+01  0.00000000000E+00 0.  1.
         11    1    3    3    0    0 -0.33004104894E+02  0.56548857904E+01  0.12773326186E+02  0.35838617932E+02  0.51100000000E-03 0. -1.
        -11    1    3    3    0    0 -0.68301459593E+01  0.67115331314E+01  0.25094498898E+01  0.98991368215E+01  0.51100000000E-03 0.  1.
        -12    1    3    3    0    0  0.39501098277E+02 -0.13403071020E+02 -0.14827172169E+02  0.44269900749E+02  0.00000000000E+00 0.  1.
</event>
<event>
 7    1  0.2662406E-015  0.9000770E+02  0.7816164E-02  0.1186339E+00
        -11   -1    0    0    0    0  0.00000000000E+00  0.00000000000E+00  0.45593999997E+02  0.45594000000E+02  0.51100000000E-03 0. -1.
         11   -1    0    0    0    0 -0.00000000000E+00 -0.00000000000E+00 -0.45593999997E+02  0.45594000000E+02  0.51100000000E-03 0.  1.
    9900012    2    1    2    0    0  0.90563868484E+00  0.74498115763E+00 -0.13386660923E+00  0.90007704011E+02  0.89999964904E+02 0.  0.
        -12    1    1    2    0    0 -0.90563868484E+00 -0.74498115763E+00  0.13386660923E+00  0.11802959891E+01  0.00000000000E+00 0.  1.
         11    1    3    3    0    0  0.41573995418E+01 -0.81102921425E+01  0.12859416497E+01  0.92040456200E+01  0.51100000000E-03 0. -1.
        -11    1    3    3    0    0  0.14931735228E+02 -0.19359473530E+02 -0.28590393543E+02  0.37618566366E+02  0.51100000000E-03 0.  1.
         12    1    3    3    0    0 -0.18183496084E+02  0.28214746830E+02  0.27170585284E+02  0.43185092025E+02  0.00000000000E+00 0. -1.
</event>
<event>
 7    1  0.2232484E-015  0.9000792E+02  0.7816164E-02  0.1186339E+00
        -11   -1    0    0    0    0  0.00000000000E+00  0.00000000000E+00  0.45593999997E+02  0.45594000000E+02  0.51100000000E-03 0.  1.
         11   -1    0    0    0    0 -0.00000000000E+00 -0.00000000000E+00 -0.45593999997E+02  0.45594000000E+02  0.51100000000E-03 0. -1.
    9900012    2    1    2    0    0 -0.57824995205E+00  0.79416883144E+00 -0.65384657215E+00  0.90007918444E+02  0.90000182167E+02 0.  0.
        -12    1    1    2    0    0  0.57824995205E+00 -0.79416883144E+00  0.65384657215E+00  0.11800815564E+01  0.00000000000E+00 0.  1.
         11    1    3    3    0    0 -0.24242635368E+02 -0.11681770935E+01 -0.32567985724E+02  0.40617037086E+02  0.51100000000E-03 0. -1.
        -11    1    3    3    0    0 -0.59616692259E+01  0.48337026502E+01  0.43434002922E+01  0.88188042063E+01  0.51100000000E-03 0.  1.
        -12    1    3    3    0    0  0.29626054642E+02 -0.28713567253E+01  0.27570738860E+02  0.40572077151E+02  0.00000000000E+00 0.  1.
</event>
<event>
 7    1  0.2232484E-015  0.9000779E+02  0.7816164E-02  0.1186339E+00
        -11   -1    0    0    0    0  0.00000000000E+00  0.00000000000E+00  0.45593999997E+02  0.45594000000E+02  0.51100000000E-03 0. -1.
         11   -1    0    0    0    0 -0.00000000000E+00 -0.00000000000E+00 -0.45593999997E+02  0.45594000000E+02  0.51100000000E-03 0.  1.
    9900012    2    1    2    0    0 -0.39245792623E+00 -0.75364014157E+00  0.81909046387E+00  0.90007785666E+02  0.90000047636E+02 0.  0.
        -12    1    1    2    0    0  0.39245792623E+00  0.75364014157E+00 -0.81909046387E+00  0.11802143343E+01  0.00000000000E+00 0.  1.
         11    1    3    3    0    0 -0.87579832221E+01  0.52790078990E+01  0.58394797154E+00  0.10242616365E+02  0.51100000000E-03 0. -1.
        -11    1    3    3    0    0  0.14319308199E+01  0.26890661721E+02 -0.25745863064E+02  0.37255973734E+02  0.51100000000E-03 0.  1.
         12    1    3    3    0    0  0.69335944760E+01 -0.32923309762E+02  0.25981005556E+02  0.42509195567E+02  0.00000000000E+00 0. -1.
</event>
<event>
 7    1  0.2232484E-015  0.9000820E+02  0.7816164E-02  0.1186338E+00
        -11   -1    0    0    0    0  0.00000000000E+00  0.00000000000E+00  0.45593999997E+02  0.45594000000E+02  0.51100000000E-03 0.  1.
         11   -1    0    0    0    0 -0.00000000000E+00 -0.00000000000E+00 -0.45593999997E+02  0.45594000000E+02  0.51100000000E-03 0. -1.
    9900012    2    1    2    0    0 -0.10797130561E+00  0.90204487956E+00 -0.75271744201E+00  0.90008200731E+02  0.90000468179E+02 0.  0.
        -12    1    1    2    0    0  0.10797130561E+00 -0.90204487956E+00  0.75271744201E+00  0.11797992690E+01  0.00000000000E+00 0.  1.
         11    1    3    3    0    0 -0.96612157258E+01  0.60511252000E+01 -0.68859891476E+01  0.13318109937E+02  0.51100000000E-03 0. -1.
        -11    1    3    3    0    0 -0.32820369795E+02 -0.37095226590E+01  0.88828813181E+01  0.34202964968E+02  0.51100000000E-03 0.  1.
         12    1    3    3    0    0  0.42373614215E+02 -0.14395576614E+01 -0.27496096126E+01  0.42487125826E+02  0.00000000000E+00 0. -1.
</event>
<event>
 7    1  0.2232484E-015  0.9000709E+02  0.7816164E-02  0.1186340E+00
        -11   -1    0    0    0    0  0.00000000000E+00  0.00000000000E+00  0.45593999997E+02  0.45594000000E+02  0.51100000000E-03 0.  1.
         11   -1    0    0    0    0 -0.00000000000E+00 -0.00000000000E+00 -0.45593999997E+02  0.45594000000E+02  0.51100000000E-03 0. -1.
    9900012    2    1    2    0    0  0.82467799855E+00  0.84520599380E+00  0.85876381810E-02  0.90007093263E+02  0.89999346092E+02 0.  0.
        -12    1    1    2    0    0 -0.82467799855E+00 -0.84520599380E+00 -0.85876381810E-02  0.11809067367E+01  0.00000000000E+00 0.  1.
         11    1    3    3    0    0  0.99852893663E+01  0.38535986390E+02 -0.30440474473E+01  0.39924860374E+02  0.51100000000E-03 0. -1.
        -11    1    3    3    0    0  0.13263566860E+01 -0.18219010134E+01 -0.10188903892E+02  0.10435147730E+02  0.51100000000E-03 0.  1.
        -12    1    3    3    0    0 -0.10486968054E+02 -0.35868879382E+02  0.13241538978E+02  0.39647085159E+02  0.00000000000E+00 0.  1.
</event>
<event>
 7    1  0.2232484E-015  0.9000770E+02  0.7816164E-02  0.1186339E+00
        -11   -1    0    0    0    0  0.00000000000E+00  0.00000000000E+00  0.45593999997E+02  0.45594000000E+02  0.51100000000E-03 0. -1.
         11   -1    0    0    0    0 -0.00000000000E+00 -0.00000000000E+00 -0.45593999997E+02  0.45594000000E+02  0.51100000000E-03 0.  1.
    9900012    2    1    2    0    0  0.45176507358E+00  0.66049488013E+00  0.86761401030E+00  0.90007703749E+02  0.89999964639E+02 0.  0.
        -12    1    1    2    0    0 -0.45176507358E+00 -0.66049488013E+00 -0.86761401030E+00  0.11802962506E+01  0.00000000000E+00 0.  1.
         11    1    3    3    0    0 -0.54826411640E+01  0.38008824833E+01 -0.77723363489E+01  0.10242815744E+02  0.51100000000E-03 0. -1.
        -11    1    3    3    0    0 -0.27581311080E+02 -0.26624095873E+02  0.53869452587E+01  0.38711631087E+02  0.51100000000E-03 0.  1.
         12    1    3    3    0    0  0.33515717317E+02  0.23483708270E+02  0.32530051004E+01  0.41053256918E+02  0.00000000000E+00 0. -1.
</event>
<event>
 7    1  0.2232484E-015  0.9000768E+02  0.7816164E-02  0.1186339E+00
        -11   -1    0    0    0    0  0.00000000000E+00  0.00000000000E+00  0.45593999997E+02  0.45594000000E+02  0.51100000000E-03 0.  1.
         11   -1    0    0    0    0 -0.00000000000E+00 -0.00000000000E+00 -0.45593999997E+02  0.45594000000E+02  0.51100000000E-03 0. -1.
    9900012    2    1    2    0    0 -0.20418128186E-01 -0.66690031033E+00 -0.97364613618E+00  0.90007678128E+02  0.89999938679E+02 0.  0.
        -12    1    1    2    0    0  0.20418128186E-01  0.66690031033E+00  0.97364613618E+00  0.11803218724E+01  0.00000000000E+00 0.  1.
         11    1    3    3    0    0  0.38720811581E+01 -0.23854103514E+02 -0.25964212602E+02  0.35470432804E+02  0.51100000000E-03 0. -1.
        -11    1    3    3    0    0  0.50659342729E+01 -0.99036520452E+00 -0.98931981227E+01  0.11158847730E+02  0.51100000000E-03 0.  1.
        -12    1    3    3    0    0 -0.89584335592E+01  0.24177568408E+02  0.34883764589E+02  0.43378397594E+02  0.00000000000E+00 0.  1.
</event>
<event>
 7    1  0.2232484E-015  0.9000772E+02  0.7816164E-02  0.1186339E+00
        -11   -1    0    0    0    0  0.00000000000E+00  0.00000000000E+00  0.45593999997E+02  0.45594000000E+02  0.51100000000E-03 0. -1.
         11   -1    0    0    0    0 -0.00000000000E+00 -0.00000000000E+00 -0.45593999997E+02  0.45594000000E+02  0.51100000000E-03 0.  1.
    9900012    2    1    2    0    0  0.70241478308E+00  0.93007011587E+00 -0.18610810296E+00  0.90007723264E+02  0.89999984411E+02 0.  0.
        -12    1    1    2    0    0 -0.70241478308E+00 -0.93007011587E+00  0.18610810296E+00  0.11802767362E+01  0.00000000000E+00 0.  1.
         11    1    3    3    0    0  0.53951781586E+01 -0.16976091536E+01  0.66819083250E+01  0.87542974205E+01  0.51100000000E-03 0. -1.
        -11    1    3    3    0    0 -0.24518000288E+02  0.33746949860E+02  0.60710918091E+01  0.42152664435E+02  0.51100000000E-03 0.  1.
         12    1    3    3    0    0  0.19825236912E+02 -0.31119270591E+02 -0.12939108237E+02  0.39100761408E+02  0.00000000000E+00 0. -1.
</event>
<event>
 7    1  0.2232484E-015  0.9000772E+02  0.7816164E-02  0.1186339E+00
        -11   -1    0    0    0    0  0.00000000000E+00  0.00000000000E+00  0.45593999997E+02  0.45594000000E+02  0.51100000000E-03 0. -1.
         11   -1    0    0    0    0 -0.00000000000E+00 -0.00000000000E+00 -0.45593999997E+02  0.45594000000E+02  0.51100000000E-03 0.  1.
    9900012    2    1    2    0    0  0.50048002878E+00  0.10614108539E+01  0.12643548466E+00  0.90007720715E+02  0.89999981828E+02 0.  0.
        -12    1    1    2    0    0 -0.50048002878E+00 -0.10614108539E+01 -0.12643548466E+00  0.11802792855E+01  0.00000000000E+00 0.  1.
         11    1    3    3    0    0 -0.79155656334E+01  0.20589319632E+01  0.42895289686E+01  0.92355529970E+01  0.51100000000E-03 0. -1.
        -11    1    3    3    0    0 -0.10571780308E+02  0.32551396282E+02 -0.19376285546E+02  0.39329332318E+02  0.51100000000E-03 0.  1.
         12    1    3    3    0    0  0.18987825970E+02 -0.33548917391E+02  0.15213192062E+02  0.41442835399E+02  0.00000000000E+00 0. -1.
</event>
<event>
 7    1  0.2232484E-015  0.9000784E+02  0.7816164E-02  0.1186339E+00
        -11   -1    0    0    0    0  0.00000000000E+00  0.00000000000E+00  0.45593999997E+02  0.45594000000E+02  0.51100000000E-03 0.  1.
         11   -1    0    0    0    0 -0.00000000000E+00 -0.00000000000E+00 -0.45593999997E+02  0.45594000000E+02  0.51100000000E-03 0. -1.
    9900012    2    1    2    0    0 -0.31272748040E+00 -0.57098677646E+00 -0.98434987766E+00  0.90007843630E+02  0.90000106366E+02 0.  0.
        -12    1    1    2    0    0  0.31272748040E+00  0.57098677646E+00  0.98434987766E+00  0.11801563700E+01  0.00000000000E+00 0.  1.
         11    1    3    3    0    0 -0.23615403674E+01  0.78643469327E+01 -0.30018177687E+01  0.87427533285E+01  0.51100000000E-03 0. -1.
        -11    1    3    3    0    0  0.37198694626E+01  0.14986055710E+02  0.36451542047E+02  0.39587046018E+02  0.51100000000E-03 0.  1.
         12    1    3    3    0    0 -0.16710565756E+01 -0.23421389419E+02 -0.34434074156E+02  0.41678044284E+02  0.00000000000E+00 0. -1.
</event>
<event>
 7    1  0.2232484E-015  0.9000769E+02  0.7816164E-02  0.1186339E+00
        -11   -1    0    0    0    0  0.00000000000E+00  0.00000000000E+00  0.45593999997E+02  0.45594000000E+02  0.51100000000E-03 0. -1.
         11   -1    0    0    0    0 -0.00000000000E+00 -0.00000000000E+00 -0.45593999997E+02  0.45594000000E+02  0.51100000000E-03 0.  1.
    9900012    2    1    2    0    0  0.85326381328E+00 -0.81343643182E+00  0.58223844672E-01  0.90007691574E+02  0.89999952303E+02 0.  0.
        -12    1    1    2    0    0 -0.85326381328E+00  0.81343643182E+00 -0.58223844672E-01  0.11803084257E+01  0.00000000000E+00 0.  1.
         11    1    3    3    0    0  0.19915184843E+01  0.60237796687E+01 -0.88248244256E+01  0.10868743891E+02  0.51100000000E-03 0. -1.
        -11    1    3    3    0    0 -0.29383105375E+02  0.22404614806E+02 -0.21506640072E+01  0.37012957218E+02  0.51100000000E-03 0.  1.
         12    1    3    3    0    0  0.28244850704E+02 -0.29241830907E+02  0.11033712277E+02  0.42125990465E+02  0.00000000000E+00 0. -1.
</event>
<event>
 7    1  0.2232484E-015  0.9000769E+02  0.7816164E-02  0.1186339E+00
        -11   -1    0    0    0    0  0.00000000000E+00  0.00000000000E+00  0.45593999997E+02  0.45594000000E+02  0.51100000000E-03 0.  1.
         11   -1    0    0    0    0 -0.00000000000E+00 -0.00000000000E+00 -0.45593999997E+02  0.45594000000E+02  0.51100000000E-03 0. -1.
    9900012    2    1    2    0    0 -0.19547044694E+00  0.11515233912E+01  0.17006796526E+00  0.90007687360E+02  0.89999948033E+02 0.  0.
        -12    1    1    2    0    0  0.19547044694E+00 -0.11515233912E+01 -0.17006796526E+00  0.11803126404E+01  0.00000000000E+00 0.  1.
         11    1    3    3    0    0  0.23024929082E+02 -0.10010135028E+02 -0.26401126366E+02  0.36433084362E+02  0.51100000000E-03 0. -1.
        -11    1    3    3    0    0  0.81696684594E+01  0.26238896668E+01 -0.35069662183E+01  0.92696867281E+01  0.51100000000E-03 0.  1.
        -12    1    3    3    0    0 -0.31390067989E+02  0.85377687524E+01  0.30078160549E+02  0.44304916269E+02  0.00000000000E+00 0.  1.
</event>
<event>
 7    1  0.2232484E-015  0.9000775E+02  0.7816164E-02  0.1186339E+00
        -11   -1    0    0    0    0  0.00000000000E+00  0.00000000000E+00  0.45593999997E+02  0.45594000000E+02  0.51100000000E-03 0. -1.
         11   -1    0    0    0    0 -0.00000000000E+00 -0.00000000000E+00 -0.45593999997E+02  0.45594000000E+02  0.51100000000E-03 0.  1.
    9900012    2    1    2    0    0  0.64941746173E+00  0.38698108049E+00  0.90635602883E+00  0.90007754836E+02  0.90000016400E+02 0.  0.
        -12    1    1    2    0    0 -0.64941746173E+00 -0.38698108049E+00 -0.90635602883E+00  0.11802451640E+01  0.00000000000E+00 0.  1.
         11    1    3    3    0    0 -0.43809921020E+01 -0.41759814515E+01 -0.92272560838E+01  0.11035133347E+02  0.51100000000E-03 0. -1.
        -11    1    3    3    0    0 -0.33903779347E+02  0.63852572118E+01  0.18442740438E+02  0.39119974933E+02  0.51100000000E-03 0.  1.
         12    1    3    3    0    0  0.38934188910E+02 -0.18222946799E+01 -0.83091283254E+01  0.39852646556E+02  0.00000000000E+00 0. -1.
</event>
<event>
 7    1  0.2232484E-015  0.9000780E+02  0.7816164E-02  0.1186339E+00
        -11   -1    0    0    0    0  0.00000000000E+00  0.00000000000E+00  0.45593999997E+02  0.45594000000E+02  0.51100000000E-03 0. -1.
         11   -1    0    0    0    0 -0.00000000000E+00 -0.00000000000E+00 -0.45593999997E+02  0.45594000000E+02  0.51100000000E-03 0.  1.
    9900012    2    1    2    0    0  0.52739428199E-01 -0.11614254112E+01  0.20292758249E+00  0.90007800849E+02  0.90000063020E+02 0.  0.
        -12    1    1    2    0    0 -0.52739428199E-01  0.11614254112E+01 -0.20292758249E+00  0.11801991513E+01  0.00000000000E+00 0.  1.
         11    1    3    3    0    0  0.10698702492E+01  0.17086643578E+01 -0.99637192508E+01  0.10165621369E+02  0.51100000000E-03 0. -1.
        -11    1    3    3    0    0 -0.35581804943E+02 -0.12931951793E+02 -0.92045877160E+01  0.38961835884E+02  0.51100000000E-03 0.  1.
         12    1    3    3    0    0  0.34564674122E+02  0.10061862024E+02  0.19371234549E+02  0.40880343596E+02  0.00000000000E+00 0. -1.
</event>
<event>
 7    1  0.2232484E-015  0.9000766E+02  0.7816164E-02  0.1186339E+00
        -11   -1    0    0    0    0  0.00000000000E+00  0.00000000000E+00  0.45593999997E+02  0.45594000000E+02  0.51100000000E-03 0.  1.
         11   -1    0    0    0    0 -0.00000000000E+00 -0.00000000000E+00 -0.45593999997E+02  0.45594000000E+02  0.51100000000E-03 0. -1.
    9900012    2    1    2    0    0  0.89642796302E-02  0.11786963308E+01 -0.61684913534E-01  0.90007656649E+02  0.89999916916E+02 0.  0.
        -12    1    1    2    0    0 -0.89642796302E-02 -0.11786963308E+01  0.61684913534E-01  0.11803433514E+01  0.00000000000E+00 0.  1.
         11    1    3    3    0    0  0.19952785568E+00 -0.33506405053E+01  0.75989410837E+01  0.83072564072E+01  0.51100000000E-03 0. -1.
        -11    1    3    3    0    0 -0.32132154771E+02 -0.21379441579E+02  0.43886585680E+01  0.38843483582E+02  0.51100000000E-03 0.  1.
         12    1    3    3    0    0  0.31941591195E+02  0.25908778415E+02 -0.12049284565E+02  0.42856916660E+02  0.00000000000E+00 0. -1.
</event>
<event>
 7    1  0.2232484E-015  0.9000777E+02  0.7816164E-02  0.1186339E+00
        -11   -1    0    0    0    0  0.00000000000E+00  0.00000000000E+00  0.45593999997E+02  0.45594000000E+02  0.51100000000E-03 0. -1.
         11   -1    0    0    0    0 -0.00000000000E+00 -0.00000000000E+00 -0.45593999997E+02  0.45594000000E+02  0.51100000000E-03 0.  1.
    9900012    2    1    2    0    0 -0.32355853485E+00  0.92032008056E+00  0.66426965192E+00  0.90007774027E+02  0.90000035844E+02 0.  0.
        -12    1    1    2    0    0  0.32355853485E+00 -0.92032008056E+00 -0.66426965192E+00  0.11802259727E+01  0.00000000000E+00 0.  1.
         11    1    3    3    0    0 -0.21089945961E+02 -0.27791535015E+02  0.20330859337E+02  0.40379438837E+02  0.51100000000E-03 0. -1.
        -11    1    3    3    0    0 -0.47525783284E+01  0.66867659553E+01  0.32960421135E+01  0.88410255957E+01  0.51100000000E-03 0.  1.
        -12    1    3    3    0    0  0.25518965755E+02  0.22025089141E+02 -0.22962631799E+02  0.40787309595E+02  0.00000000000E+00 0.  1.
</event>
<event>
 7    1  0.2232484E-015  0.9000775E+02  0.7816164E-02  0.1186339E+00
        -11   -1    0    0    0    0  0.00000000000E+00  0.00000000000E+00  0.45593999997E+02  0.45594000000E+02  0.51100000000E-03 0.  1.
         11   -1    0    0    0    0 -0.00000000000E+00 -0.00000000000E+00 -0.45593999997E+02  0.45594000000E+02  0.51100000000E-03 0. -1.
    9900012    2    1    2    0    0 -0.18536123902E+00  0.11639639398E+01  0.61721608054E-01  0.90007754094E+02  0.90000015648E+02 0.  0.
        -12    1    1    2    0    0  0.18536123902E+00 -0.11639639398E+01 -0.61721608054E-01  0.11802459062E+01  0.00000000000E+00 0.  1.
         11    1    3    3    0    0 -0.25724093895E+01  0.16664817629E+01  0.13188919959E+02  0.13540386312E+02  0.51100000000E-03 0. -1.
        -11    1    3    3    0    0 -0.12257531761E+02 -0.20739914211E+02  0.22493944295E+02  0.32960107047E+02  0.51100000000E-03 0.  1.
         12    1    3    3    0    0  0.14644579911E+02  0.20237396388E+02 -0.35621142645E+02  0.43507260735E+02  0.00000000000E+00 0. -1.
</event>
<event>
 7    1  0.2232484E-015  0.9000778E+02  0.7816164E-02  0.1186339E+00
        -11   -1    0    0    0    0  0.00000000000E+00  0.00000000000E+00  0.45593999997E+02  0.45594000000E+02  0.51100000000E-03 0.  1.
         11   -1    0    0    0    0 -0.00000000000E+00 -0.00000000000E+00 -0.45593999997E+02  0.45594000000E+02  0.51100000000E-03 0. -1.
    9900012    2    1    2    0    0 -0.11082507287E+01  0.29125792973E+00 -0.28261627006E+00  0.90007778489E+02  0.90000040365E+02 0.  0.
        -12    1    1    2    0    0  0.11082507287E+01 -0.29125792973E+00  0.28261627006E+00  0.11802215112E+01  0.00000000000E+00 0.  1.
         11    1    3    3    0    0 -0.28511476903E+01  0.41919864760E+02 -0.96697530379E+01  0.43115058028E+02  0.51100000000E-03 0. -1.
        -11    1    3    3    0    0  0.53323419759E+01 -0.45801995607E+01 -0.30295654856E+01  0.76544344178E+01  0.51100000000E-03 0.  1.
        -12    1    3    3    0    0 -0.35894450144E+01 -0.37048407270E+02  0.12416702254E+02  0.39238286043E+02  0.00000000000E+00 0.  1.
</event>
<event>
 7    1  0.2232484E-015  0.9000797E+02  0.7816164E-02  0.1186339E+00
        -11   -1    0    0    0    0  0.00000000000E+00  0.00000000000E+00  0.45593999997E+02  0.45594000000E+02  0.51100000000E-03 0. -1.
         11   -1    0    0    0    0 -0.00000000000E+00 -0.00000000000E+00 -0.45593999997E+02  0.45594000000E+02  0.51100000000E-03 0.  1.
    9900012    2    1    2    0    0  0.84248583936E+00 -0.59635248256E+00  0.57187503311E+00  0.90007974692E+02  0.90000239158E+02 0.  0.
        -12    1    1    2    0    0 -0.84248583936E+00  0.59635248256E+00 -0.57187503311E+00  0.11800253076E+01  0.00000000000E+00 0.  1.
         11    1    3    3    0    0 -0.15755536783E+01  0.71196598272E+01 -0.96538353477E+01  0.12098283458E+02  0.51100000000E-03 0. -1.
        -11    1    3    3    0    0 -0.28473369318E+02  0.19986544385E+02 -0.14073775773E+01  0.34816309808E+02  0.51100000000E-03 0.  1.
         12    1    3    3    0    0  0.30891408835E+02 -0.27702556695E+02  0.11633087958E+02  0.43093381426E+02  0.00000000000E+00 0. -1.
</event>
<event>
 7    1  0.2232484E-015  0.9000776E+02  0.7816164E-02  0.1186339E+00
        -11   -1    0    0    0    0  0.00000000000E+00  0.00000000000E+00  0.45593999997E+02  0.45594000000E+02  0.51100000000E-03 0. -1.
         11   -1    0    0    0    0 -0.00000000000E+00 -0.00000000000E+00 -0.45593999997E+02  0.45594000000E+02  0.51100000000E-03 0.  1.
    9900012    2    1    2    0    0  0.20169343927E+00  0.11628766669E+01  0.45553744997E-03  0.90007761637E+02  0.90000023291E+02 0.  0.
        -12    1    1    2    0    0 -0.20169343927E+00 -0.11628766669E+01 -0.45553744996E-03  0.11802383629E+01  0.00000000000E+00 0.  1.
         11    1    3    3    0    0  0.22446064341E+01  0.13904837117E+02  0.36571262266E+02  0.39189794300E+02  0.51100000000E-03 0. -1.
        -11    1    3    3    0    0 -0.74056122307E+01  0.22770657583E+00  0.36207307617E+01  0.82464922425E+01  0.51100000000E-03 0.  1.
        -12    1    3    3    0    0  0.53626992359E+01 -0.12969667026E+02 -0.40191537490E+02  0.42571475094E+02  0.00000000000E+00 0.  1.
</event>
<event>
 7    1  0.2232484E-015  0.9000769E+02  0.7816164E-02  0.1186339E+00
        -11   -1    0    0    0    0  0.00000000000E+00  0.00000000000E+00  0.45593999997E+02  0.45594000000E+02  0.51100000000E-03 0. -1.
         11   -1    0    0    0    0 -0.00000000000E+00 -0.00000000000E+00 -0.45593999997E+02  0.45594000000E+02  0.51100000000E-03 0.  1.
    9900012    2    1    2    0    0 -0.18570399212E+00  0.10890524988E+01  0.41546324436E+00  0.90007690284E+02  0.89999950996E+02 0.  0.
        -12    1    1    2    0    0  0.18570399212E+00 -0.10890524988E+01 -0.41546324436E+00  0.11803097158E+01  0.00000000000E+00 0.  1.
         11    1    3    3    0    0  0.21097091599E+02  0.28191406154E+02  0.18232920203E+02  0.39652011731E+02  0.51100000000E-03 0. -1.
        -11    1    3    3    0    0 -0.28672415268E+01  0.22660384909E+00  0.79941856275E+01  0.84958476555E+01  0.51100000000E-03 0.  1.
        -12    1    3    3    0    0 -0.18415554064E+02 -0.27328957505E+02 -0.25811642587E+02  0.41859830898E+02  0.00000000000E+00 0.  1.
</event>
<event>
 7    1  0.2232484E-015  0.9000777E+02  0.7816164E-02  0.1186339E+00
        -11   -1    0    0    0    0  0.00000000000E+00  0.00000000000E+00  0.45593999997E+02  0.45594000000E+02  0.51100000000E-03 0.  1.
         11   -1    0    0    0    0 -0.00000000000E+00 -0.00000000000E+00 -0.45593999997E+02  0.45594000000E+02  0.51100000000E-03 0. -1.
    9900012    2    1    2    0    0  0.89419663434E+00  0.64885770300E+00 -0.41514772266E+00  0.90007766307E+02  0.90000028022E+02 0.  0.
        -12    1    1    2    0    0 -0.89419663434E+00 -0.64885770300E+00  0.41514772266E+00  0.11802336935E+01  0.00000000000E+00 0.  1.
         11    1    3    3    0    0  0.88090831189E+01 -0.24164588517E+02 -0.11832158290E+02  0.28311256660E+02  0.51100000000E-03 0. -1.
        -11    1    3    3    0    0 -0.25909459942E+02  0.91012437180E+00 -0.66245246921E+01  0.26758414910E+02  0.51100000000E-03 0.  1.
        -12    1    3    3    0    0  0.17994573458E+02  0.23903321848E+02  0.18041535259E+02  0.34938094736E+02  0.00000000000E+00 0.  1.
</event>
<event>
 7    1  0.2232484E-015  0.9000771E+02  0.7816164E-02  0.1186339E+00
        -11   -1    0    0    0    0  0.00000000000E+00  0.00000000000E+00  0.45593999997E+02  0.45594000000E+02  0.51100000000E-03 0.  1.
         11   -1    0    0    0    0 -0.00000000000E+00 -0.00000000000E+00 -0.45593999997E+02  0.45594000000E+02  0.51100000000E-03 0. -1.
    9900012    2    1    2    0    0  0.99037770771E+00 -0.50901682531E+00 -0.39132892349E+00  0.90007710011E+02  0.89999970983E+02 0.  0.
        -12    1    1    2    0    0 -0.99037770771E+00  0.50901682531E+00  0.39132892349E+00  0.11802899893E+01  0.00000000000E+00 0.  1.
         11    1    3    3    0    0  0.40836316356E+01  0.58622254134E+01 -0.70327998437E+01  0.10025068979E+02  0.51100000000E-03 0. -1.
        -11    1    3    3    0    0 -0.31344291566E+02  0.13414395484E+02  0.23682211853E+02  0.41512140134E+02  0.51100000000E-03 0.  1.
         12    1    3    3    0    0  0.28251037639E+02 -0.19785637723E+02 -0.17040740933E+02  0.38470500897E+02  0.00000000000E+00 0. -1.
</event>
<event>
 7    1  0.2232484E-015  0.9000785E+02  0.7816164E-02  0.1186339E+00
        -11   -1    0    0    0    0  0.00000000000E+00  0.00000000000E+00  0.45593999997E+02  0.45594000000E+02  0.51100000000E-03 0.  1.
         11   -1    0    0    0    0 -0.00000000000E+00 -0.00000000000E+00 -0.45593999997E+02  0.45594000000E+02  0.51100000000E-03 0. -1.
    9900012    2    1    2    0    0  0.86824801223E+00 -0.29023994527E+00 -0.74475169958E+00  0.90007852157E+02  0.90000115006E+02 0.  0.
        -12    1    1    2    0    0 -0.86824801223E+00  0.29023994527E+00  0.74475169958E+00  0.11801478427E+01  0.00000000000E+00 0.  1.
         11    1    3    3    0    0 -0.14257162050E+02 -0.36243483055E+02  0.27324544681E+01  0.39042579850E+02  0.51100000000E-03 0. -1.
        -11    1    3    3    0    0 -0.75730782552E+01 -0.81157300739E+00 -0.10664959681E+01  0.76907463173E+01  0.51100000000E-03 0.  1.
        -12    1    3    3    0    0  0.22698488318E+02  0.36764816117E+02 -0.24107101995E+01  0.43274525990E+02  0.00000000000E+00 0.  1.
</event>
<event>
 7    1  0.2232484E-015  0.9000772E+02  0.7816164E-02  0.1186339E+00
        -11   -1    0    0    0    0  0.00000000000E+00  0.00000000000E+00  0.45593999997E+02  0.45594000000E+02  0.51100000000E-03 0.  1.
         11   -1    0    0    0    0 -0.00000000000E+00 -0.00000000000E+00 -0.45593999997E+02  0.45594000000E+02  0.51100000000E-03 0. -1.
    9900012    2    1    2    0    0  0.67179445791E+00 -0.89905852160E+00  0.36530785236E+00  0.90007718743E+02  0.89999979830E+02 0.  0.
        -12    1    1    2    0    0 -0.67179445791E+00  0.89905852160E+00 -0.36530785236E+00  0.11802812571E+01  0.00000000000E+00 0.  1.
         11    1    3    3    0    0  0.39588567940E+01 -0.85312826608E+01  0.10175329391E+01  0.94599526688E+01  0.51100000000E-03 0. -1.
        -11    1    3    3    0    0  0.37169198821E+02 -0.48637460381E+00  0.88359507039E+01  0.38208113357E+02  0.51100000000E-03 0.  1.
         12    1    3    3    0    0 -0.40456261157E+02  0.81185987430E+01 -0.94881757906E+01  0.42339652717E+02  0.00000000000E+00 0. -1.
</event>
<event>
 7    1  0.2232484E-015  0.9000774E+02  0.7816164E-02  0.1186339E+00
        -11   -1    0    0    0    0  0.00000000000E+00  0.00000000000E+00  0.45593999997E+02  0.45594000000E+02  0.51100000000E-03 0. -1.
         11   -1    0    0    0    0 -0.00000000000E+00 -0.00000000000E+00 -0.45593999997E+02  0.45594000000E+02  0.51100000000E-03 0.  1.
    9900012    2    1    2    0    0 -0.32179314697E+00  0.24981728774E+00  0.11077212362E+01  0.90007743314E+02  0.90000004726E+02 0.  0.
        -12    1    1    2    0    0  0.32179314697E+00 -0.24981728774E+00 -0.11077212362E+01  0.11802566855E+01  0.00000000000E+00 0.  1.
         11    1    3    3    0    0  0.28556043437E+02 -0.12103881086E+02 -0.24149165232E+02  0.39308189170E+02  0.51100000000E-03 0. -1.
        -11    1    3    3    0    0  0.50887576673E+01  0.63389703523E+01  0.10248691875E+02  0.13081042968E+02  0.51100000000E-03 0.  1.
        -12    1    3    3    0    0 -0.33966594251E+02  0.60147280213E+01  0.15008194593E+02  0.37618511177E+02  0.00000000000E+00 0.  1.
</event>
<event>
 7    1  0.2232484E-015  0.9000777E+02  0.7816164E-02  0.1186339E+00
        -11   -1    0    0    0    0  0.00000000000E+00  0.00000000000E+00  0.45593999997E+02  0.45594000000E+02  0.51100000000E-03 0.  1.
         11   -1    0    0    0    0 -0.00000000000E+00 -0.00000000000E+00 -0.45593999997E+02  0.45594000000E+02  0.51100000000E-03 0. -1.
    9900012    2    1    2    0    0 -0.26299102050E+00 -0.45281440952E+00 -0.10577032098E+01  0.90007770681E+02  0.90000032454E+02 0.  0.
        -12    1    1    2    0    0  0.26299102050E+00  0.45281440952E+00  0.10577032098E+01  0.11802293194E+01  0.00000000000E+00 0.  1.
         11    1    3    3    0    0  0.10739028476E+02 -0.15932408804E+01 -0.45370341936E+01  0.11766470526E+02  0.51100000000E-03 0. -1.
        -11    1    3    3    0    0  0.17415975482E+02 -0.18265685214E+02  0.26690287532E+02  0.36733130919E+02  0.51100000000E-03 0.  1.
         12    1    3    3    0    0 -0.28417994979E+02  0.19406111685E+02 -0.23210956548E+02  0.41508169235E+02  0.00000000000E+00 0. -1.
</event>
<event>
 7    1  0.2232484E-015  0.9000776E+02  0.7816164E-02  0.1186339E+00
        -11   -1    0    0    0    0  0.00000000000E+00  0.00000000000E+00  0.45593999997E+02  0.45594000000E+02  0.51100000000E-03 0. -1.
         11   -1    0    0    0    0 -0.00000000000E+00 -0.00000000000E+00 -0.45593999997E+02  0.45594000000E+02  0.51100000000E-03 0.  1.
    9900012    2    1    2    0    0  0.75405695974E+00  0.81574040889E+00 -0.39867661529E+00  0.90007755383E+02  0.90000016954E+02 0.  0.
        -12    1    1    2    0    0 -0.75405695974E+00 -0.81574040889E+00  0.39867661529E+00  0.11802446174E+01  0.00000000000E+00 0.  1.
         11    1    3    3    0    0 -0.72271979583E+01 -0.45109656146E+00 -0.56392159166E+01  0.91780518004E+01  0.51100000000E-03 0. -1.
        -11    1    3    3    0    0 -0.34520025497E+02  0.11458736858E+02 -0.24393271853E+01  0.36453876722E+02  0.51100000000E-03 0.  1.
         12    1    3    3    0    0  0.42501280415E+02 -0.10191899888E+02  0.76798664866E+01  0.44375826860E+02  0.00000000000E+00 0. -1.
</event>
<event>
 7    1  0.2232484E-015  0.9000775E+02  0.7816164E-02  0.1186339E+00
        -11   -1    0    0    0    0  0.00000000000E+00  0.00000000000E+00  0.45593999997E+02  0.45594000000E+02  0.51100000000E-03 0. -1.
         11   -1    0    0    0    0 -0.00000000000E+00 -0.00000000000E+00 -0.45593999997E+02  0.45594000000E+02  0.51100000000E-03 0.  1.
    9900012    2    1    2    0    0  0.31494412279E+00 -0.90598251319E+00  0.68774281676E+00  0.90007752443E+02  0.90000013975E+02 0.  0.
        -12    1    1    2    0    0 -0.31494412279E+00  0.90598251319E+00 -0.68774281676E+00  0.11802475574E+01  0.00000000000E+00 0.  1.
         11    1    3    3    0    0 -0.54674044422E+01 -0.65158832293E+01  0.97562386231E+01  0.12943470861E+02  0.51100000000E-03 0. -1.
        -11    1    3    3    0    0  0.21136436539E+02 -0.19620175262E+02 -0.29419295813E+02  0.41197028937E+02  0.51100000000E-03 0.  1.
         12    1    3    3    0    0 -0.15354087974E+02  0.25230075978E+02  0.20350800007E+02  0.35867252645E+02  0.00000000000E+00 0. -1.
</event>
<event>
 7    1  0.2232484E-015  0.9000788E+02  0.7816164E-02  0.1186339E+00
        -11   -1    0    0    0    0  0.00000000000E+00  0.00000000000E+00  0.45593999997E+02  0.45594000000E+02  0.51100000000E-03 0.  1.
         11   -1    0    0    0    0 -0.00000000000E+00 -0.00000000000E+00 -0.45593999997E+02  0.45594000000E+02  0.51100000000E-03 0. -1.
    9900012    2    1    2    0    0  0.94831361820E+00  0.69287082295E+00 -0.11534977597E+00  0.90007883791E+02  0.90000147057E+02 0.  0.
        -12    1    1    2    0    0 -0.94831361820E+00 -0.69287082295E+00  0.11534977597E+00  0.11801162089E+01  0.00000000000E+00 0.  1.
         11    1    3    3    0    0 -0.27308639872E+02 -0.10505673276E+02  0.21213621557E+02  0.36140679607E+02  0.51100000000E-03 0. -1.
        -11    1    3    3    0    0 -0.78218298046E+01 -0.45609570079E+01  0.74614590918E-01  0.90547732118E+01  0.51100000000E-03 0.  1.
        -12    1    3    3    0    0  0.36078783295E+02  0.15759501107E+02 -0.21403585924E+02  0.44812430972E+02  0.00000000000E+00 0.  1.
</event>
<event>
 7    1  0.2232484E-015  0.9000789E+02  0.7816164E-02  0.1186339E+00
        -11   -1    0    0    0    0  0.00000000000E+00  0.00000000000E+00  0.45593999997E+02  0.45594000000E+02  0.51100000000E-03 0.  1.
         11   -1    0    0    0    0 -0.00000000000E+00 -0.00000000000E+00 -0.45593999997E+02  0.45594000000E+02  0.51100000000E-03 0. -1.
    9900012    2    1    2    0    0 -0.86820598279E+00  0.55847138748E+00 -0.57182059375E+00  0.90007893771E+02  0.90000157169E+02 0.  0.
        -12    1    1    2    0    0  0.86820598279E+00 -0.55847138748E+00  0.57182059375E+00  0.11801062285E+01  0.00000000000E+00 0.  1.
         11    1    3    3    0    0  0.13442914472E+02 -0.46448249091E+01 -0.32103648579E+02  0.35113111515E+02  0.51100000000E-03 0. -1.
        -11    1    3    3    0    0  0.34074002351E+01  0.16345844812E+02 -0.41436142431E+00  0.16702356559E+02  0.51100000000E-03 0.  1.
        -12    1    3    3    0    0 -0.17718520690E+02 -0.11142548515E+02  0.31946189410E+02  0.38192425697E+02  0.00000000000E+00 0.  1.
</event>
<event>
 7    1  0.2232484E-015  0.9000772E+02  0.7816164E-02  0.1186339E+00
        -11   -1    0    0    0    0  0.00000000000E+00  0.00000000000E+00  0.45593999997E+02  0.45594000000E+02  0.51100000000E-03 0.  1.
         11   -1    0    0    0    0 -0.00000000000E+00 -0.00000000000E+00 -0.45593999997E+02  0.45594000000E+02  0.51100000000E-03 0. -1.
    9900012    2    1    2    0    0  0.44387369218E+00  0.30719908582E+00 -0.10496001485E+01  0.90007722234E+02  0.89999983368E+02 0.  0.
        -12    1    1    2    0    0 -0.44387369218E+00 -0.30719908582E+00  0.10496001485E+01  0.11802777659E+01  0.00000000000E+00 0.  1.
         11    1    3    3    0    0 -0.27495174920E+01 -0.83048890338E+01  0.13630024744E+01  0.88537452137E+01  0.51100000000E-03 0. -1.
        -11    1    3    3    0    0  0.16907340482E+02  0.18109603980E+02  0.33435690047E+02  0.41614436049E+02  0.51100000000E-03 0.  1.
         12    1    3    3    0    0 -0.13713949298E+02 -0.94975158601E+01 -0.35848292670E+02  0.39539540971E+02  0.00000000000E+00 0. -1.
</event>
<event>
 7    1  0.2232484E-015  0.9000780E+02  0.7816164E-02  0.1186339E+00
        -11   -1    0    0    0    0  0.00000000000E+00  0.00000000000E+00  0.45593999997E+02  0.45594000000E+02  0.51100000000E-03 0.  1.
         11   -1    0    0    0    0 -0.00000000000E+00 -0.00000000000E+00 -0.45593999997E+02  0.45594000000E+02  0.51100000000E-03 0. -1.
    9900012    2    1    2    0    0  0.98138380370E+00 -0.61984980196E+00 -0.21342836937E+00  0.90007796790E+02  0.90000058908E+02 0.  0.
        -12    1    1    2    0    0 -0.98138380370E+00  0.61984980196E+00  0.21342836937E+00  0.11802032096E+01  0.00000000000E+00 0.  1.
         11    1    3    3    0    0  0.29851539638E+02  0.67115902495E+01 -0.20954734953E+02  0.37084508621E+02  0.51100000000E-03 0. -1.
        -11    1    3    3    0    0  0.19746956873E+01 -0.34075087102E+01 -0.90447912312E+01  0.98650285019E+01  0.51100000000E-03 0.  1.
        -12    1    3    3    0    0 -0.30844851522E+02 -0.39239313412E+01  0.29786097814E+02  0.43058259668E+02  0.00000000000E+00 0.  1.
</event>
<event>
 7    1  0.2232484E-015  0.9000775E+02  0.7816164E-02  0.1186339E+00
        -11   -1    0    0    0    0  0.00000000000E+00  0.00000000000E+00  0.45593999997E+02  0.45594000000E+02  0.51100000000E-03 0. -1.
         11   -1    0    0    0    0 -0.00000000000E+00 -0.00000000000E+00 -0.45593999997E+02  0.45594000000E+02  0.51100000000E-03 0.  1.
    9900012    2    1    2    0    0 -0.45788605296E+00 -0.31444263037E+00  0.10413682849E+01  0.90007753538E+02  0.90000015085E+02 0.  0.
        -12    1    1    2    0    0  0.45788605296E+00  0.31444263037E+00 -0.10413682849E+01  0.11802464616E+01  0.00000000000E+00 0.  1.
         11    1    3    3    0    0  0.75517097666E+01  0.37631959105E+02  0.11141170297E+02  0.39966465222E+02  0.51100000000E-03 0. -1.
        -11    1    3    3    0    0 -0.70961178430E+01 -0.91104651508E+00  0.62945498415E+01  0.95292314571E+01  0.51100000000E-03 0.  1.
        -12    1    3    3    0    0 -0.91347797665E+00 -0.37035355220E+02 -0.16394351853E+02  0.40512056860E+02  0.00000000000E+00 0.  1.
</event>
<event>
 7    1  0.2232484E-015  0.9000774E+02  0.7816164E-02  0.1186339E+00
        -11   -1    0    0    0    0  0.00000000000E+00  0.00000000000E+00  0.45593999997E+02  0.45594000000E+02  0.51100000000E-03 0. -1.
         11   -1    0    0    0    0 -0.00000000000E+00 -0.00000000000E+00 -0.45593999997E+02  0.45594000000E+02  0.51100000000E-03 0.  1.
    9900012    2    1    2    0    0 -0.34774171482E+00 -0.13119554997E+00  0.11202087604E+01  0.90007743994E+02  0.90000005415E+02 0.  0.
        -12    1    1    2    0    0  0.34774171482E+00  0.13119554997E+00 -0.11202087604E+01  0.11802560059E+01  0.00000000000E+00 0.  1.
         11    1    3    3    0    0 -0.17064145854E+02  0.11499150633E+02  0.30043596755E+02  0.36414739395E+02  0.51100000000E-03 0. -1.
        -11    1    3    3    0    0 -0.73405505273E+01  0.76486575226E+01  0.97675508991E+00  0.10646111718E+02  0.51100000000E-03 0.  1.
        -12    1    3    3    0    0  0.24056954666E+02 -0.19279003706E+02 -0.29900143084E+02  0.42946892881E+02  0.00000000000E+00 0.  1.
</event>
<event>
 7    1  0.2232484E-015  0.9000763E+02  0.7816164E-02  0.1186339E+00
        -11   -1    0    0    0    0  0.00000000000E+00  0.00000000000E+00  0.45593999997E+02  0.45594000000E+02  0.51100000000E-03 0.  1.
         11   -1    0    0    0    0 -0.00000000000E+00 -0.00000000000E+00 -0.45593999997E+02  0.45594000000E+02  0.51100000000E-03 0. -1.
    9900012    2    1    2    0    0 -0.23538365922E+00  0.79537465021E+00  0.83979044363E+00  0.90007629596E+02  0.89999889507E+02 0.  0.
        -12    1    1    2    0    0  0.23538365922E+00 -0.79537465021E+00 -0.83979044363E+00  0.11803704039E+01  0.00000000000E+00 0.  1.
         11    1    3    3    0    0  0.25301137345E+02 -0.60168785697E+00 -0.27168259408E+02  0.37129824923E+02  0.51100000000E-03 0. -1.
        -11    1    3    3    0    0  0.57009512209E+01  0.48808241115E+01 -0.35811807782E+01  0.83155363542E+01  0.51100000000E-03 0.  1.
        -12    1    3    3    0    0 -0.31237472226E+02 -0.34837616043E+01  0.31589230630E+02  0.44562268319E+02  0.00000000000E+00 0.  1.
</event>
<event>
 7    1  0.2232484E-015  0.9000775E+02  0.7816164E-02  0.1186339E+00
        -11   -1    0    0    0    0  0.00000000000E+00  0.00000000000E+00  0.45593999997E+02  0.45594000000E+02  0.51100000000E-03 0.  1.
         11   -1    0    0    0    0 -0.00000000000E+00 -0.00000000000E+00 -0.45593999997E+02  0.45594000000E+02  0.51100000000E-03 0. -1.
    9900012    2    1    2    0    0 -0.68427387941E+00  0.58275906239E+00 -0.76495646225E+00  0.90007746953E+02  0.90000008412E+02 0.  0.
        -12    1    1    2    0    0  0.68427387941E+00 -0.58275906239E+00  0.76495646225E+00  0.11802530474E+01  0.00000000000E+00 0.  1.
         11    1    3    3    0    0  0.28260821522E+02  0.21710421936E+02  0.53591319180E+01  0.36037990356E+02  0.51100000000E-03 0. -1.
        -11    1    3    3    0    0  0.76823327927E+01  0.39972392567E+01 -0.38996486224E+01  0.94975480232E+01  0.51100000000E-03 0.  1.
        -12    1    3    3    0    0 -0.36627428194E+02 -0.25124902130E+02 -0.22244397578E+01  0.44472208573E+02  0.00000000000E+00 0.  1.
</event>
<event>
 7    1  0.2232484E-015  0.9000789E+02  0.7816164E-02  0.1186339E+00
        -11   -1    0    0    0    0  0.00000000000E+00  0.00000000000E+00  0.45593999997E+02  0.45594000000E+02  0.51100000000E-03 0. -1.
         11   -1    0    0    0    0 -0.00000000000E+00 -0.00000000000E+00 -0.45593999997E+02  0.45594000000E+02  0.51100000000E-03 0.  1.
    9900012    2    1    2    0    0 -0.38741967837E+00  0.64710350795E+00  0.90764735163E+00  0.90007889551E+02  0.90000152893E+02 0.  0.
        -12    1    1    2    0    0  0.38741967837E+00 -0.64710350795E+00 -0.90764735163E+00  0.11801104491E+01  0.00000000000E+00 0.  1.
         11    1    3    3    0    0 -0.29625986116E+02  0.13001752996E+02  0.27609477967E+02  0.42532668717E+02  0.51100000000E-03 0. -1.
        -11    1    3    3    0    0  0.22094564540E+01 -0.10866038020E+02 -0.29796960227E+01  0.11481771149E+02  0.51100000000E-03 0.  1.
        -12    1    3    3    0    0  0.27029109984E+02 -0.14886114679E+01 -0.23722134592E+02  0.35993449685E+02  0.00000000000E+00 0.  1.
</event>
<event>
 7    1  0.2232484E-015  0.9000779E+02  0.7816164E-02  0.1186339E+00
        -11   -1    0    0    0    0  0.00000000000E+00  0.00000000000E+00  0.45593999997E+02  0.45594000000E+02  0.51100000000E-03 0. -1.
         11   -1    0    0    0    0 -0.00000000000E+00 -0.00000000000E+00 -0.45593999997E+02  0.45594000000E+02  0.51100000000E-03 0.  1.
    9900012    2    1    2    0    0 -0.27585052020E+00 -0.62195830270E+00  0.96434675449E+00  0.90007792263E+02  0.90000054321E+02 0.  0.
        -12    1    1    2    0    0  0.27585052020E+00  0.62195830270E+00 -0.96434675449E+00  0.11802077371E+01  0.00000000000E+00 0.  1.
         11    1    3    3    0    0 -0.25654059907E+02  0.25085447763E+02  0.71656724043E+00  0.35887657322E+02  0.51100000000E-03 0. -1.
        -11    1    3    3    0    0 -0.76492446554E+01  0.17205658267E+01  0.71816553083E+01  0.10632378087E+02  0.51100000000E-03 0.  1.
        -12    1    3    3    0    0  0.33027454042E+02 -0.27427971892E+02 -0.69338757943E+01  0.43487756854E+02  0.00000000000E+00 0.  1.
</event>
<event>
 7    1  0.2232484E-015  0.9000770E+02  0.7816164E-02  0.1186339E+00
        -11   -1    0    0    0    0  0.00000000000E+00  0.00000000000E+00  0.45593999997E+02  0.45594000000E+02  0.51100000000E-03 0. -1.
         11   -1    0    0    0    0 -0.00000000000E+00 -0.00000000000E+00 -0.45593999997E+02  0.45594000000E+02  0.51100000000E-03 0.  1.
    9900012    2    1    2    0    0 -0.20200724203E+00  0.11538728815E+01 -0.14451045682E+00  0.90007697994E+02  0.89999958808E+02 0.  0.
        -12    1    1    2    0    0  0.20200724203E+00 -0.11538728815E+01  0.14451045682E+00  0.11803020057E+01  0.00000000000E+00 0.  1.
         11    1    3    3    0    0 -0.35346497290E+02  0.28060667929E+01  0.15015440711E+02  0.38506003967E+02  0.51100000000E-03 0. -1.
        -11    1    3    3    0    0 -0.31485952734E-01 -0.41138643262E+01  0.82206298066E+01  0.91925853675E+01  0.51100000000E-03 0.  1.
        -12    1    3    3    0    0  0.35175976001E+02  0.24616704148E+01 -0.23380580974E+02  0.42309108659E+02  0.00000000000E+00 0.  1.
</event>
<event>
 7    1  0.2232484E-015  0.9000770E+02  0.7816164E-02  0.1186339E+00
        -11   -1    0    0    0    0  0.00000000000E+00  0.00000000000E+00  0.45593999997E+02  0.45594000000E+02  0.51100000000E-03 0.  1.
         11   -1    0    0    0    0 -0.00000000000E+00 -0.00000000000E+00 -0.45593999997E+02  0.45594000000E+02  0.51100000000E-03 0. -1.
    9900012    2    1    2    0    0 -0.42725982383E+00  0.10416698772E+01 -0.35422027710E+00  0.90007703811E+02  0.89999964701E+02 0.  0.
        -12    1    1    2    0    0  0.42725982383E+00 -0.10416698772E+01  0.35422027710E+00  0.11802961894E+01  0.00000000000E+00 0.  1.
         11    1    3    3    0    0 -0.28486282152E+02 -0.20715429283E+02 -0.16274910871E+02  0.38800386665E+02  0.51100000000E-03 0. -1.
        -11    1    3    3    0    0 -0.15995000214E+01 -0.56370733957E+01  0.82369876934E+01  0.10108558914E+02  0.51100000000E-03 0.  1.
        -12    1    3    3    0    0  0.29658522349E+02  0.27394172556E+02  0.76837029007E+01  0.41098758232E+02  0.00000000000E+00 0.  1.
</event>
<event>
 7    1  0.2232484E-015  0.9000777E+02  0.7816164E-02  0.1186339E+00
        -11   -1    0    0    0    0  0.00000000000E+00  0.00000000000E+00  0.45593999997E+02  0.45594000000E+02  0.51100000000E-03 0. -1.
         11   -1    0    0    0    0 -0.00000000000E+00 -0.00000000000E+00 -0.45593999997E+02  0.45594000000E+02  0.51100000000E-03 0.  1.
    9900012    2    1    2    0    0  0.43137006822E+00  0.57502260894E+00  0.93605924722E+00  0.90007772034E+02  0.90000033825E+02 0.  0.
        -12    1    1    2    0    0 -0.43137006822E+00 -0.57502260894E+00 -0.93605924722E+00  0.11802279656E+01  0.00000000000E+00 0.  1.
         11    1    3    3    0    0  0.12821850659E+02  0.41974881742E+02 -0.96127137156E+00  0.43900052329E+02  0.51100000000E-03 0. -1.
        -11    1    3    3    0    0 -0.62724811465E+01 -0.88179916035E+01  0.65229726019E+01  0.12635274729E+02  0.51100000000E-03 0.  1.
        -12    1    3    3    0    0 -0.61179994439E+01 -0.32581867530E+02 -0.46256419832E+01  0.33472444976E+02  0.00000000000E+00 0.  1.
</event>
<event>
 7    1  0.2232484E-015  0.9000787E+02  0.7816164E-02  0.1186339E+00
        -11   -1    0    0    0    0  0.00000000000E+00  0.00000000000E+00  0.45593999997E+02  0.45594000000E+02  0.51100000000E-03 0. -1.
         11   -1    0    0    0    0 -0.00000000000E+00 -0.00000000000E+00 -0.45593999997E+02  0.45594000000E+02  0.51100000000E-03 0.  1.
    9900012    2    1    2    0    0 -0.40468785125E-01 -0.23198740326E+00  0.11563989717E+01  0.90007866762E+02  0.90000129803E+02 0.  0.
        -12    1    1    2    0    0  0.40468785125E-01  0.23198740326E+00 -0.11563989717E+01  0.11801332381E+01  0.00000000000E+00 0.  1.
         11    1    3    3    0    0  0.27934297600E+02 -0.40127746239E+01  0.24196057570E+02  0.37173600106E+02  0.51100000000E-03 0. -1.
        -11    1    3    3    0    0  0.70577596285E+00  0.71499407010E+01  0.77864798800E+01  0.10594764788E+02  0.51100000000E-03 0.  1.
        -12    1    3    3    0    0 -0.28680542348E+02 -0.33691534804E+01 -0.30826138478E+02  0.42239501868E+02  0.00000000000E+00 0.  1.
</event>
<event>
 7    1  0.2232484E-015  0.9000779E+02  0.7816164E-02  0.1186339E+00
        -11   -1    0    0    0    0  0.00000000000E+00  0.00000000000E+00  0.45593999997E+02  0.45594000000E+02  0.51100000000E-03 0.  1.
         11   -1    0    0    0    0 -0.00000000000E+00 -0.00000000000E+00 -0.45593999997E+02  0.45594000000E+02  0.51100000000E-03 0. -1.
    9900012    2    1    2    0    0 -0.11647090833E+01  0.18367146914E+00  0.51070431222E-01  0.90007792117E+02  0.90000054173E+02 0.  0.
        -12    1    1    2    0    0  0.11647090833E+01 -0.18367146914E+00 -0.51070431222E-01  0.11802078826E+01  0.00000000000E+00 0.  1.
         11    1    3    3    0    0 -0.41715462037E+01 -0.23949607257E+01  0.78364824394E+01  0.91950036374E+01  0.51100000000E-03 0. -1.
        -11    1    3    3    0    0  0.11733938283E+02  0.39795519766E+02 -0.94430784199E+01  0.42550445725E+02  0.51100000000E-03 0.  1.
         12    1    3    3    0    0 -0.87271011624E+01 -0.37216887571E+02  0.16576664117E+01  0.38262342755E+02  0.00000000000E+00 0. -1.
</event>
<event>
 7    1  0.2232484E-015  0.9000783E+02  0.7816164E-02  0.1186339E+00
        -11   -1    0    0    0    0  0.00000000000E+00  0.00000000000E+00  0.45593999997E+02  0.45594000000E+02  0.51100000000E-03 0.  1.
         11   -1    0    0    0    0 -0.00000000000E+00 -0.00000000000E+00 -0.45593999997E+02  0.45594000000E+02  0.51100000000E-03 0. -1.
    9900012    2    1    2    0    0  0.59551829593E+00 -0.66476258947E+00 -0.77217101605E+00  0.90007830767E+02  0.90000093333E+02 0.  0.
        -12    1    1    2    0    0 -0.59551829593E+00  0.66476258947E+00  0.77217101605E+00  0.11801692333E+01  0.00000000000E+00 0.  1.
         11    1    3    3    0    0  0.44293461903E+01  0.17020979218E+02  0.94587620100E+01  0.19970003010E+02  0.51100000000E-03 0. -1.
        -11    1    3    3    0    0 -0.14219536393E+02  0.20931581646E+02  0.73555893424E+01  0.26352059128E+02  0.51100000000E-03 0.  1.
         12    1    3    3    0    0  0.10385708499E+02 -0.38617323453E+02 -0.17586522368E+02  0.43685768629E+02  0.00000000000E+00 0. -1.
</event>
<event>
 7    1  0.2232484E-015  0.9000775E+02  0.7816164E-02  0.1186339E+00
        -11   -1    0    0    0    0  0.00000000000E+00  0.00000000000E+00  0.45593999997E+02  0.45594000000E+02  0.51100000000E-03 0.  1.
         11   -1    0    0    0    0 -0.00000000000E+00 -0.00000000000E+00 -0.45593999997E+02  0.45594000000E+02  0.51100000000E-03 0. -1.
    9900012    2    1    2    0    0 -0.87962532420E+00  0.73812072734E+00  0.27282643797E+00  0.90007746983E+02  0.90000008443E+02 0.  0.
        -12    1    1    2    0    0  0.87962532420E+00 -0.73812072734E+00 -0.27282643797E+00  0.11802530171E+01  0.00000000000E+00 0.  1.
         11    1    3    3    0    0 -0.50815606894E+01 -0.50633944518E+01  0.10261728722E+02  0.12520515126E+02  0.51100000000E-03 0. -1.
        -11    1    3    3    0    0 -0.29604176913E+02  0.15867404584E+01  0.16865115843E+02  0.34108022057E+02  0.51100000000E-03 0.  1.
         12    1    3    3    0    0  0.33806112278E+02  0.42147747207E+01 -0.26854018127E+02  0.43379209800E+02  0.00000000000E+00 0. -1.
</event>
<event>
 7    1  0.2232484E-015  0.9000754E+02  0.7816164E-02  0.1186339E+00
        -11   -1    0    0    0    0  0.00000000000E+00  0.00000000000E+00  0.45593999997E+02  0.45594000000E+02  0.51100000000E-03 0. -1.
         11   -1    0    0    0    0 -0.00000000000E+00 -0.00000000000E+00 -0.45593999997E+02  0.45594000000E+02  0.51100000000E-03 0.  1.
    9900012    2    1    2    0    0 -0.79792576464E+00 -0.84947776662E+00  0.18758740421E+00  0.90007539481E+02  0.89999798202E+02 0.  0.
        -12    1    1    2    0    0  0.79792576464E+00  0.84947776662E+00 -0.18758740421E+00  0.11804605186E+01  0.00000000000E+00 0.  1.
         11    1    3    3    0    0 -0.23824364734E+02  0.13326190913E+02 -0.32470897679E+02  0.42421066884E+02  0.51100000000E-03 0. -1.
        -11    1    3    3    0    0  0.56575199131E+01  0.57919244645E+01  0.87516872905E+01  0.11922497694E+02  0.51100000000E-03 0.  1.
        -12    1    3    3    0    0  0.17368919057E+02 -0.19967593145E+02  0.23906797793E+02  0.35663974903E+02  0.00000000000E+00 0.  1.
</event>
<event>
 7    1  0.2232484E-015  0.9000775E+02  0.7816164E-02  0.1186339E+00
        -11   -1    0    0    0    0  0.00000000000E+00  0.00000000000E+00  0.45593999997E+02  0.45594000000E+02  0.51100000000E-03 0. -1.
         11   -1    0    0    0    0 -0.00000000000E+00 -0.00000000000E+00 -0.45593999997E+02  0.45594000000E+02  0.51100000000E-03 0.  1.
    9900012    2    1    2    0    0  0.10256578363E+01  0.58360989160E+00 -0.20192734355E-01  0.90007753310E+02  0.90000014854E+02 0.  0.
        -12    1    1    2    0    0 -0.10256578363E+01 -0.58360989160E+00  0.20192734355E-01  0.11802466900E+01  0.00000000000E+00 0.  1.
         11    1    3    3    0    0 -0.15031652836E+02 -0.98197397155E+01 -0.34404147065E+02  0.38807514873E+02  0.51100000000E-03 0. -1.
        -11    1    3    3    0    0  0.60593714865E+01 -0.72412367872E+01 -0.19018320289E+01  0.96316384041E+01  0.51100000000E-03 0.  1.
        -12    1    3    3    0    0  0.99979391855E+01  0.17644586394E+02  0.36285786360E+02  0.41568600033E+02  0.00000000000E+00 0.  1.
</event>
<event>
 7    1  0.2232484E-015  0.9000752E+02  0.7816164E-02  0.1186339E+00
        -11   -1    0    0    0    0  0.00000000000E+00  0.00000000000E+00  0.45593999997E+02  0.45594000000E+02  0.51100000000E-03 0.  1.
         11   -1    0    0    0    0 -0.00000000000E+00 -0.00000000000E+00 -0.45593999997E+02  0.45594000000E+02  0.51100000000E-03 0. -1.
    9900012    2    1    2    0    0 -0.45678880562E+00 -0.10290587929E+01 -0.35483458014E+00  0.90007523151E+02  0.89999781656E+02 0.  0.
        -12    1    1    2    0    0  0.45678880562E+00  0.10290587929E+01  0.35483458014E+00  0.11804768492E+01  0.00000000000E+00 0.  1.
         11    1    3    3    0    0  0.14929763132E+01 -0.32817596271E+01  0.76466000975E+01  0.84539587078E+01  0.51100000000E-03 0. -1.
        -11    1    3    3    0    0 -0.12774981706E+02  0.38803059743E+02  0.52683344064E+01  0.41190204548E+02  0.51100000000E-03 0.  1.
         12    1    3    3    0    0  0.10825216588E+02 -0.36550358908E+02 -0.13269769084E+02  0.40363359895E+02  0.00000000000E+00 0. -1.
</event>
<event>
 7    1  0.2232484E-015  0.9000771E+02  0.7816164E-02  0.1186339E+00
        -11   -1    0    0    0    0  0.00000000000E+00  0.00000000000E+00  0.45593999997E+02  0.45594000000E+02  0.51100000000E-03 0. -1.
         11   -1    0    0    0    0 -0.00000000000E+00 -0.00000000000E+00 -0.45593999997E+02  0.45594000000E+02  0.51100000000E-03 0.  1.
    9900012    2    1    2    0    0  0.65138754242E+00 -0.31382620687E-02  0.98425624104E+00  0.90007713625E+02  0.89999974645E+02 0.  0.
        -12    1    1    2    0    0 -0.65138754242E+00  0.31382620687E-02 -0.98425624104E+00  0.11802863751E+01  0.00000000000E+00 0.  1.
         11    1    3    3    0    0 -0.81312598161E+00 -0.11210277546E+02  0.43546169864E+01  0.12053803793E+02  0.51100000000E-03 0. -1.
        -11    1    3    3    0    0 -0.22461877298E+02  0.36434453911E+01 -0.32393311296E+02  0.39587084296E+02  0.51100000000E-03 0.  1.
         12    1    3    3    0    0  0.23926390822E+02  0.75636938924E+01  0.29022950551E+02  0.38366825536E+02  0.00000000000E+00 0. -1.
</event>
<event>
 7    1  0.2232484E-015  0.9000777E+02  0.7816164E-02  0.1186339E+00
        -11   -1    0    0    0    0  0.00000000000E+00  0.00000000000E+00  0.45593999997E+02  0.45594000000E+02  0.51100000000E-03 0.  1.
         11   -1    0    0    0    0 -0.00000000000E+00 -0.00000000000E+00 -0.45593999997E+02  0.45594000000E+02  0.51100000000E-03 0. -1.
    9900012    2    1    2    0    0  0.11225357843E+01  0.36200451805E+00 -0.42453528695E-01  0.90007772835E+02  0.90000034637E+02 0.  0.
        -12    1    1    2    0    0 -0.11225357843E+01 -0.36200451805E+00  0.42453528695E-01  0.11802271647E+01  0.00000000000E+00 0.  1.
         11    1    3    3    0    0 -0.21292077504E+02  0.88032619265E+01 -0.36748915262E+02  0.43374332942E+02  0.51100000000E-03 0. -1.
        -11    1    3    3    0    0 -0.98435929954E+00 -0.31688596477E+01  0.73518000649E+00  0.33986945436E+01  0.51100000000E-03 0.  1.
        -12    1    3    3    0    0  0.23398972588E+02 -0.52723977607E+01  0.35971281727E+02  0.43234745349E+02  0.00000000000E+00 0.  1.
</event>
<event>
 7    1  0.2232484E-015  0.9000766E+02  0.7816164E-02  0.1186339E+00
        -11   -1    0    0    0    0  0.00000000000E+00  0.00000000000E+00  0.45593999997E+02  0.45594000000E+02  0.51100000000E-03 0. -1.
         11   -1    0    0    0    0 -0.00000000000E+00 -0.00000000000E+00 -0.45593999997E+02  0.45594000000E+02  0.51100000000E-03 0.  1.
    9900012    2    1    2    0    0  0.92481366109E+00  0.33015465154E+00  0.65491534459E+00  0.90007662544E+02  0.89999922889E+02 0.  0.
        -12    1    1    2    0    0 -0.92481366109E+00 -0.33015465154E+00 -0.65491534459E+00  0.11803374561E+01  0.00000000000E+00 0.  1.
         11    1    3    3    0    0  0.25428906921E+02 -0.22098058241E+02  0.20599504883E+02  0.39487885318E+02  0.51100000000E-03 0. -1.
        -11    1    3    3    0    0 -0.19661632485E+01 -0.61890179735E+01  0.33244641686E+01  0.72953275229E+01  0.51100000000E-03 0.  1.
        -12    1    3    3    0    0 -0.22537930012E+02  0.28617230866E+02 -0.23269053707E+02  0.43224449703E+02  0.00000000000E+00 0.  1.
</event>
<event>
 7    1  0.2232484E-015  0.9000770E+02  0.7816164E-02  0.1186339E+00
        -11   -1    0    0    0    0  0.00000000000E+00  0.00000000000E+00  0.45593999997E+02  0.45594000000E+02  0.51100000000E-03 0.  1.
         11   -1    0    0    0    0 -0.00000000000E+00 -0.00000000000E+00 -0.45593999997E+02  0.45594000000E+02  0.51100000000E-03 0. -1.
    9900012    2    1    2    0    0  0.67596911025E+00 -0.94747045329E+00 -0.19613593944E+00  0.90007701815E+02  0.89999962679E+02 0.  0.
        -12    1    1    2    0    0 -0.67596911025E+00  0.94747045329E+00  0.19613593944E+00  0.11802981846E+01  0.00000000000E+00 0.  1.
         11    1    3    3    0    0 -0.25464454734E+02 -0.13471919295E+02  0.98258956730E+01  0.30438122321E+02  0.51100000000E-03 0. -1.
        -11    1    3    3    0    0 -0.14621473932E+01 -0.41533487309E+01  0.16959229691E+02  0.17521519702E+02  0.51100000000E-03 0.  1.
        -12    1    3    3    0    0  0.27602571238E+02  0.16677797573E+02 -0.26981261303E+02  0.42048059793E+02  0.00000000000E+00 0.  1.
</event>
<event>
 7    1  0.2232484E-015  0.9000775E+02  0.7816164E-02  0.1186339E+00
        -11   -1    0    0    0    0  0.00000000000E+00  0.00000000000E+00  0.45593999997E+02  0.45594000000E+02  0.51100000000E-03 0.  1.
         11   -1    0    0    0    0 -0.00000000000E+00 -0.00000000000E+00 -0.45593999997E+02  0.45594000000E+02  0.51100000000E-03 0. -1.
    9900012    2    1    2    0    0 -0.44990235092E+00 -0.52777118643E+00  0.95500772071E+00  0.90007748206E+02  0.90000009682E+02 0.  0.
        -12    1    1    2    0    0  0.44990235092E+00  0.52777118643E+00 -0.95500772071E+00  0.11802517940E+01  0.00000000000E+00 0.  1.
         11    1    3    3    0    0  0.44835482335E+01  0.32159712793E+02 -0.13904291913E+02  0.35322495177E+02  0.51100000000E-03 0. -1.
        -11    1    3    3    0    0 -0.16066440853E+01  0.98077724836E+01  0.17645962640E+01  0.10093934146E+02  0.51100000000E-03 0.  1.
        -12    1    3    3    0    0 -0.33268064992E+01 -0.42495256463E+02  0.13094703369E+02  0.44591318883E+02  0.00000000000E+00 0.  1.
</event>
<event>
 7    1  0.2232484E-015  0.9000768E+02  0.7816164E-02  0.1186339E+00
        -11   -1    0    0    0    0  0.00000000000E+00  0.00000000000E+00  0.45593999997E+02  0.45594000000E+02  0.51100000000E-03 0. -1.
         11   -1    0    0    0    0 -0.00000000000E+00 -0.00000000000E+00 -0.45593999997E+02  0.45594000000E+02  0.51100000000E-03 0.  1.
    9900012    2    1    2    0    0 -0.86717967491E+00  0.79768094755E+00 -0.69663612000E-01  0.90007682881E+02  0.89999943495E+02 0.  0.
        -12    1    1    2    0    0  0.86717967491E+00 -0.79768094755E+00  0.69663612000E-01  0.11803171190E+01  0.00000000000E+00 0.  1.
         11    1    3    3    0    0 -0.13396751973E+02  0.31996583133E+02 -0.24821016626E+02  0.42653688729E+02  0.51100000000E-03 0. -1.
        -11    1    3    3    0    0  0.86476759706E+01  0.24742146666E+00  0.45204406726E+01  0.97610399656E+01  0.51100000000E-03 0.  1.
        -12    1    3    3    0    0  0.38818963272E+01 -0.31446323652E+02  0.20230912341E+02  0.37592954186E+02  0.00000000000E+00 0.  1.
</event>
<event>
 7    1  0.2232484E-015  0.9000801E+02  0.7816164E-02  0.1186339E+00
        -11   -1    0    0    0    0  0.00000000000E+00  0.00000000000E+00  0.45593999997E+02  0.45594000000E+02  0.51100000000E-03 0.  1.
         11   -1    0    0    0    0 -0.00000000000E+00 -0.00000000000E+00 -0.45593999997E+02  0.45594000000E+02  0.51100000000E-03 0. -1.
    9900012    2    1    2    0    0  0.82596583493E+00 -0.58143999494E+00 -0.60998400636E+00  0.90008011646E+02  0.90000276599E+02 0.  0.
        -12    1    1    2    0    0 -0.82596583493E+00  0.58143999494E+00  0.60998400636E+00  0.11799883543E+01  0.00000000000E+00 0.  1.
         11    1    3    3    0    0  0.27998679376E+02 -0.24491566016E+02 -0.13381731250E+02  0.39532690071E+02  0.51100000000E-03 0. -1.
        -11    1    3    3    0    0 -0.50023345352E+01 -0.55520379834E+01 -0.55437412505E+01  0.93049204126E+01  0.51100000000E-03 0.  1.
        -12    1    3    3    0    0 -0.22170379006E+02  0.29462164005E+02  0.18315488494E+02  0.41170401162E+02  0.00000000000E+00 0.  1.
</event>
<event>
 7    1  0.2232484E-015  0.9000771E+02  0.7816164E-02  0.1186339E+00
        -11   -1    0    0    0    0  0.00000000000E+00  0.00000000000E+00  0.45593999997E+02  0.45594000000E+02  0.51100000000E-03 0.  1.
         11   -1    0    0    0    0 -0.00000000000E+00 -0.00000000000E+00 -0.45593999997E+02  0.45594000000E+02  0.51100000000E-03 0. -1.
    9900012    2    1    2    0    0 -0.30279679581E+00  0.10760991752E+01  0.37869290041E+00  0.90007710355E+02  0.89999971331E+02 0.  0.
        -12    1    1    2    0    0  0.30279679581E+00 -0.10760991752E+01 -0.37869290041E+00  0.11802896454E+01  0.00000000000E+00 0.  1.
         11    1    3    3    0    0 -0.13148935011E+01  0.37825379463E+02 -0.20415274170E+01  0.37903246706E+02  0.51100000000E-03 0. -1.
        -11    1    3    3    0    0  0.80062171317E+01  0.51806366514E+01  0.65313968304E+00  0.95585093283E+01  0.51100000000E-03 0.  1.
        -12    1    3    3    0    0 -0.69941204264E+01 -0.41929916939E+02  0.17670806344E+01  0.42545954320E+02  0.00000000000E+00 0.  1.
</event>
<event>
 7    1  0.2232484E-015  0.9000771E+02  0.7816164E-02  0.1186339E+00
        -11   -1    0    0    0    0  0.00000000000E+00  0.00000000000E+00  0.45593999997E+02  0.45594000000E+02  0.51100000000E-03 0. -1.
         11   -1    0    0    0    0 -0.00000000000E+00 -0.00000000000E+00 -0.45593999997E+02  0.45594000000E+02  0.51100000000E-03 0.  1.
    9900012    2    1    2    0    0 -0.16022985408E+00 -0.11515139316E+01  0.20351796994E+00  0.90007712957E+02  0.89999973968E+02 0.  0.
        -12    1    1    2    0    0  0.16022985408E+00  0.11515139316E+01 -0.20351796994E+00  0.11802870435E+01  0.00000000000E+00 0.  1.
         11    1    3    3    0    0  0.12653065139E+01  0.43596651888E+01 -0.65946813067E+01  0.80060916139E+01  0.51100000000E-03 0. -1.
        -11    1    3    3    0    0  0.17023525692E+02  0.31549824761E+02 -0.10163674956E+02  0.37262476546E+02  0.51100000000E-03 0.  1.
         12    1    3    3    0    0 -0.18449062060E+02 -0.37061003882E+02  0.16961874233E+02  0.44739144797E+02  0.00000000000E+00 0. -1.
</event>
<event>
 7    1  0.2232484E-015  0.9000793E+02  0.7816164E-02  0.1186339E+00
        -11   -1    0    0    0    0  0.00000000000E+00  0.00000000000E+00  0.45593999997E+02  0.45594000000E+02  0.51100000000E-03 0. -1.
         11   -1    0    0    0    0 -0.00000000000E+00 -0.00000000000E+00 -0.45593999997E+02  0.45594000000E+02  0.51100000000E-03 0.  1.
    9900012    2    1    2    0    0 -0.76994725812E+00 -0.88864771772E+00  0.10026449477E+00  0.90007929445E+02  0.90000193313E+02 0.  0.
        -12    1    1    2    0    0  0.76994725812E+00  0.88864771772E+00 -0.10026449477E+00  0.11800705553E+01  0.00000000000E+00 0.  1.
         11    1    3    3    0    0 -0.11130510109E+02 -0.37924164051E+01  0.47842432945E+01  0.12694867531E+02  0.51100000000E-03 0. -1.
        -11    1    3    3    0    0 -0.95229752122E+00 -0.33196586691E+02 -0.17283791298E+02  0.37438612159E+02  0.51100000000E-03 0.  1.
         12    1    3    3    0    0  0.11312860372E+02  0.36100355378E+02  0.12599812499E+02  0.39874449754E+02  0.00000000000E+00 0. -1.
</event>
<event>
 7    1  0.2232484E-015  0.9000763E+02  0.7816164E-02  0.1186339E+00
        -11   -1    0    0    0    0  0.00000000000E+00  0.00000000000E+00  0.45593999997E+02  0.45594000000E+02  0.51100000000E-03 0. -1.
         11   -1    0    0    0    0 -0.00000000000E+00 -0.00000000000E+00 -0.45593999997E+02  0.45594000000E+02  0.51100000000E-03 0.  1.
    9900012    2    1    2    0    0  0.68010982991E+00  0.73667814188E+00  0.62291214298E+00  0.90007634123E+02  0.89999894093E+02 0.  0.
        -12    1    1    2    0    0 -0.68010982991E+00 -0.73667814188E+00 -0.62291214298E+00  0.11803658769E+01  0.00000000000E+00 0.  1.
         11    1    3    3    0    0  0.32745360450E+02 -0.13070794108E+02  0.12092289914E+02  0.37273687304E+02  0.51100000000E-03 0. -1.
        -11    1    3    3    0    0  0.25639075869E+01 -0.90025257077E+01 -0.54535421214E+01  0.10833291889E+02  0.51100000000E-03 0.  1.
        -12    1    3    3    0    0 -0.34629158207E+02  0.22809997958E+02 -0.60158356501E+01  0.41900654929E+02  0.00000000000E+00 0.  1.
</event>
<event>
 7    1  0.2232484E-015  0.9000775E+02  0.7816164E-02  0.1186339E+00
        -11   -1    0    0    0    0  0.00000000000E+00  0.00000000000E+00  0.45593999997E+02  0.45594000000E+02  0.51100000000E-03 0. -1.
         11   -1    0    0    0    0 -0.00000000000E+00 -0.00000000000E+00 -0.45593999997E+02  0.45594000000E+02  0.51100000000E-03 0.  1.
    9900012    2    1    2    0    0  0.98936377384E+00  0.64342748321E+00  0.12445900610E-01  0.90007748119E+02  0.90000009594E+02 0.  0.
        -12    1    1    2    0    0 -0.98936377384E+00 -0.64342748321E+00 -0.12445900609E-01  0.11802518814E+01  0.00000000000E+00 0.  1.
         11    1    3    3    0    0 -0.10373099412E+02 -0.42007025803E+01  0.12030814143E+01  0.11255865081E+02  0.51100000000E-03 0. -1.
        -11    1    3    3    0    0 -0.10792404742E+02 -0.17503569812E+02 -0.29810837117E+02  0.36215148297E+02  0.51100000000E-03 0.  1.
         12    1    3    3    0    0  0.22154867928E+02  0.22347699875E+02  0.28620201603E+02  0.42536734741E+02  0.00000000000E+00 0. -1.
</event>
<event>
 7    1  0.2232484E-015  0.9000779E+02  0.7816164E-02  0.1186339E+00
        -11   -1    0    0    0    0  0.00000000000E+00  0.00000000000E+00  0.45593999997E+02  0.45594000000E+02  0.51100000000E-03 0.  1.
         11   -1    0    0    0    0 -0.00000000000E+00 -0.00000000000E+00 -0.45593999997E+02  0.45594000000E+02  0.51100000000E-03 0. -1.
    9900012    2    1    2    0    0 -0.16850230445E+00  0.11440328356E+00 -0.11625076091E+01  0.90007786003E+02  0.90000047978E+02 0.  0.
        -12    1    1    2    0    0  0.16850230445E+00 -0.11440328356E+00  0.11625076091E+01  0.11802139971E+01  0.00000000000E+00 0.  1.
         11    1    3    3    0    0  0.24779313867E+01 -0.90013772280E+00  0.80905264747E+01  0.85092309156E+01  0.51100000000E-03 0. -1.
        -11    1    3    3    0    0 -0.10887182032E+02 -0.20986302319E+02  0.28501612417E+02  0.37031034663E+02  0.51100000000E-03 0.  1.
         12    1    3    3    0    0  0.82407483406E+01  0.22000843326E+02 -0.37754646500E+02  0.44467520424E+02  0.00000000000E+00 0. -1.
</event>
<event>
 7    1  0.2232484E-015  0.9000779E+02  0.7816164E-02  0.1186339E+00
        -11   -1    0    0    0    0  0.00000000000E+00  0.00000000000E+00  0.45593999997E+02  0.45594000000E+02  0.51100000000E-03 0. -1.
         11   -1    0    0    0    0 -0.00000000000E+00 -0.00000000000E+00 -0.45593999997E+02  0.45594000000E+02  0.51100000000E-03 0.  1.
    9900012    2    1    2    0    0 -0.11190516207E+01  0.14636940931E+00  0.34525978559E+00  0.90007786098E+02  0.90000048075E+02 0.  0.
        -12    1    1    2    0    0  0.11190516207E+01 -0.14636940931E+00 -0.34525978559E+00  0.11802139015E+01  0.00000000000E+00 0.  1.
         11    1    3    3    0    0  0.39928937055E+01 -0.30875190099E+01 -0.93517329964E+01  0.10626894376E+02  0.51100000000E-03 0. -1.
        -11    1    3    3    0    0  0.77191256977E+00  0.35987233638E+02 -0.13899945832E+02  0.38586076871E+02  0.51100000000E-03 0.  1.
         12    1    3    3    0    0 -0.58838578960E+01 -0.32753345219E+02  0.23596938614E+02  0.40794814851E+02  0.00000000000E+00 0. -1.
</event>
<event>
 7    1  0.2232484E-015  0.9000771E+02  0.7816164E-02  0.1186339E+00
        -11   -1    0    0    0    0  0.00000000000E+00  0.00000000000E+00  0.45593999997E+02  0.45594000000E+02  0.51100000000E-03 0. -1.
         11   -1    0    0    0    0 -0.00000000000E+00 -0.00000000000E+00 -0.45593999997E+02  0.45594000000E+02  0.51100000000E-03 0.  1.
    9900012    2    1    2    0    0  0.50249542871E+00 -0.11360650559E+00  0.10619176723E+01  0.90007713070E+02  0.89999974083E+02 0.  0.
        -12    1    1    2    0    0 -0.50249542871E+00  0.11360650559E+00 -0.10619176723E+01  0.11802869299E+01  0.00000000000E+00 0.  1.
         11    1    3    3    0    0 -0.87118651439E+00  0.31864915604E+01 -0.96757924488E+01  0.10224170097E+02  0.51100000000E-03 0. -1.
        -11    1    3    3    0    0  0.33513989027E+02 -0.58895938966E+01 -0.16275042482E+02  0.37719382084E+02  0.51100000000E-03 0.  1.
         12    1    3    3    0    0 -0.32140307084E+02  0.25894958307E+01  0.27012752603E+02  0.42064160889E+02  0.00000000000E+00 0. -1.
</event>
<event>
 7    1  0.2232484E-015  0.9000777E+02  0.7816164E-02  0.1186339E+00
        -11   -1    0    0    0    0  0.00000000000E+00  0.00000000000E+00  0.45593999997E+02  0.45594000000E+02  0.51100000000E-03 0.  1.
         11   -1    0    0    0    0 -0.00000000000E+00 -0.00000000000E+00 -0.45593999997E+02  0.45594000000E+02  0.51100000000E-03 0. -1.
    9900012    2    1    2    0    0  0.44694253277E+00  0.68515314496E+00  0.85072903411E+00  0.90007774450E+02  0.90000036273E+02 0.  0.
        -12    1    1    2    0    0 -0.44694253277E+00 -0.68515314496E+00 -0.85072903411E+00  0.11802255501E+01  0.00000000000E+00 0.  1.
         11    1    3    3    0    0 -0.22293031546E+01  0.23972034102E+02 -0.78516026450E+01  0.25323425438E+02  0.51100000000E-03 0. -1.
        -11    1    3    3    0    0  0.25661625251E+02  0.14198285720E+01  0.15843161460E+02  0.30191732130E+02  0.51100000000E-03 0.  1.
        -12    1    3    3    0    0 -0.22985379563E+02 -0.24706709529E+02 -0.71408297814E+01  0.34492616882E+02  0.00000000000E+00 0.  1.
</event>
<event>
 7    1  0.2232484E-015  0.9000773E+02  0.7816164E-02  0.1186339E+00
        -11   -1    0    0    0    0  0.00000000000E+00  0.00000000000E+00  0.45593999997E+02  0.45594000000E+02  0.51100000000E-03 0. -1.
         11   -1    0    0    0    0 -0.00000000000E+00 -0.00000000000E+00 -0.45593999997E+02  0.45594000000E+02  0.51100000000E-03 0.  1.
    9900012    2    1    2    0    0  0.33857197924E+00  0.10131260986E+01  0.50198800265E+00  0.90007725696E+02  0.89999986876E+02 0.  0.
        -12    1    1    2    0    0 -0.33857197924E+00 -0.10131260986E+01 -0.50198800265E+00  0.11802743036E+01  0.00000000000E+00 0.  1.
         11    1    3    3    0    0  0.14970337251E+01 -0.47038949274E+01 -0.99842782068E+01  0.11137932889E+02  0.51100000000E-03 0. -1.
        -11    1    3    3    0    0 -0.50890201032E+01  0.24594493018E+02 -0.26901075885E+02  0.36802922390E+02  0.51100000000E-03 0.  1.
         12    1    3    3    0    0  0.39305583573E+01 -0.18877471992E+02  0.37387342095E+02  0.42066870417E+02  0.00000000000E+00 0. -1.
</event>
<event>
 7    1  0.2232484E-015  0.9000774E+02  0.7816164E-02  0.1186339E+00
        -11   -1    0    0    0    0  0.00000000000E+00  0.00000000000E+00  0.45593999997E+02  0.45594000000E+02  0.51100000000E-03 0. -1.
         11   -1    0    0    0    0 -0.00000000000E+00 -0.00000000000E+00 -0.45593999997E+02  0.45594000000E+02  0.51100000000E-03 0.  1.
    9900012    2    1    2    0    0 -0.72621837221E+00  0.66059119368E-01  0.92804237488E+00  0.90007737495E+02  0.89999998830E+02 0.  0.
        -12    1    1    2    0    0  0.72621837221E+00 -0.66059119368E-01 -0.92804237488E+00  0.11802625051E+01  0.00000000000E+00 0.  1.
         11    1    3    3    0    0 -0.27602339154E+02  0.29507913199E+02 -0.42955336256E+01  0.40633209048E+02  0.51100000000E-03 0. -1.
        -11    1    3    3    0    0  0.94956741192E+01  0.48086009095E+01  0.20140179982E+01  0.10832669959E+02  0.51100000000E-03 0.  1.
        -12    1    3    3    0    0  0.17380446662E+02 -0.34250454989E+02  0.32095580022E+01  0.38541858488E+02  0.00000000000E+00 0.  1.
</event>
<event>
 7    1  0.2232484E-015  0.9000779E+02  0.7816164E-02  0.1186339E+00
        -11   -1    0    0    0    0  0.00000000000E+00  0.00000000000E+00  0.45593999997E+02  0.45594000000E+02  0.51100000000E-03 0.  1.
         11   -1    0    0    0    0 -0.00000000000E+00 -0.00000000000E+00 -0.45593999997E+02  0.45594000000E+02  0.51100000000E-03 0. -1.
    9900012    2    1    2    0    0 -0.11502264211E+01  0.28349326506E-01 -0.26280548192E+00  0.90007791872E+02  0.90000053925E+02 0.  0.
        -12    1    1    2    0    0  0.11502264211E+01 -0.28349326506E-01  0.26280548192E+00  0.11802081281E+01  0.00000000000E+00 0.  1.
         11    1    3    3    0    0 -0.33277923360E+01  0.83019253245E+01  0.10204885672E+01  0.90020865971E+01  0.51100000000E-03 0. -1.
        -11    1    3    3    0    0 -0.57099236808E+01  0.48369869165E+01  0.38061741858E+02  0.38790409438E+02  0.51100000000E-03 0.  1.
         12    1    3    3    0    0  0.78874895956E+01 -0.13110562914E+02 -0.39345035907E+02  0.42215295837E+02  0.00000000000E+00 0. -1.
</event>
<event>
 7    1  0.2232484E-015  0.9000772E+02  0.7816164E-02  0.1186339E+00
        -11   -1    0    0    0    0  0.00000000000E+00  0.00000000000E+00  0.45593999997E+02  0.45594000000E+02  0.51100000000E-03 0.  1.
         11   -1    0    0    0    0 -0.00000000000E+00 -0.00000000000E+00 -0.45593999997E+02  0.45594000000E+02  0.51100000000E-03 0. -1.
    9900012    2    1    2    0    0  0.55251731529E+00  0.74679437033E+00  0.72807411741E+00  0.90007716502E+02  0.89999977560E+02 0.  0.
        -12    1    1    2    0    0 -0.55251731529E+00 -0.74679437033E+00 -0.72807411741E+00  0.11802834980E+01  0.00000000000E+00 0.  1.
         11    1    3    3    0    0  0.33639636029E+02 -0.96753749157E+01  0.27945887141E+01  0.35114779200E+02  0.51100000000E-03 0. -1.
        -11    1    3    3    0    0  0.74118514771E+01 -0.56381215240E+01  0.52882483981E+01  0.10709319680E+02  0.51100000000E-03 0.  1.
        -12    1    3    3    0    0 -0.40498970191E+02  0.16060290810E+02 -0.73547629947E+01  0.44183617622E+02  0.00000000000E+00 0.  1.
</event>
<event>
 7    1  0.2232484E-015  0.9000771E+02  0.7816164E-02  0.1186339E+00
        -11   -1    0    0    0    0  0.00000000000E+00  0.00000000000E+00  0.45593999997E+02  0.45594000000E+02  0.51100000000E-03 0.  1.
         11   -1    0    0    0    0 -0.00000000000E+00 -0.00000000000E+00 -0.45593999997E+02  0.45594000000E+02  0.51100000000E-03 0. -1.
    9900012    2    1    2    0    0 -0.18843014598E+00 -0.11550967411E+01  0.15271707657E+00  0.90007713210E+02  0.89999974224E+02 0.  0.
        -12    1    1    2    0    0  0.18843014598E+00  0.11550967411E+01 -0.15271707657E+00  0.11802867900E+01  0.00000000000E+00 0.  1.
         11    1    3    3    0    0 -0.27700351256E+01 -0.11924461653E+02  0.18854092892E+02  0.22479828722E+02  0.51100000000E-03 0. -1.
        -11    1    3    3    0    0  0.14956205357E+02 -0.14423101142E+02  0.13525286686E+02  0.24792081507E+02  0.51100000000E-03 0.  1.
         12    1    3    3    0    0 -0.12374600378E+02  0.25192466055E+02 -0.32226662502E+02  0.42735802981E+02  0.00000000000E+00 0. -1.
</event>
<event>
 7    1  0.2232484E-015  0.9000786E+02  0.7816164E-02  0.1186339E+00
        -11   -1    0    0    0    0  0.00000000000E+00  0.00000000000E+00  0.45593999997E+02  0.45594000000E+02  0.51100000000E-03 0.  1.
         11   -1    0    0    0    0 -0.00000000000E+00 -0.00000000000E+00 -0.45593999997E+02  0.45594000000E+02  0.51100000000E-03 0. -1.
    9900012    2    1    2    0    0  0.39901743392E+00 -0.55886377971E+00 -0.95978224322E+00  0.90007862046E+02  0.90000125025E+02 0.  0.
        -12    1    1    2    0    0 -0.39901743392E+00  0.55886377971E+00  0.95978224322E+00  0.11801379543E+01  0.00000000000E+00 0.  1.
         11    1    3    3    0    0 -0.73819705742E+01 -0.18695041236E+01 -0.60945350417E+01  0.97535579591E+01  0.51100000000E-03 0. -1.
        -11    1    3    3    0    0  0.10193015549E+02 -0.38465264412E+02 -0.16727976721E+01  0.39828035159E+02  0.51100000000E-03 0.  1.
         12    1    3    3    0    0 -0.24120275408E+01  0.39775904756E+02  0.68075504706E+01  0.40426268928E+02  0.00000000000E+00 0. -1.
</event>
<event>
 7    1  0.2232484E-015  0.9000780E+02  0.7816164E-02  0.1186339E+00
        -11   -1    0    0    0    0  0.00000000000E+00  0.00000000000E+00  0.45593999997E+02  0.45594000000E+02  0.51100000000E-03 0. -1.
         11   -1    0    0    0    0 -0.00000000000E+00 -0.00000000000E+00 -0.45593999997E+02  0.45594000000E+02  0.51100000000E-03 0.  1.
    9900012    2    1    2    0    0  0.40358298515E+00  0.81631386403E-01  0.11060427865E+01  0.90007799358E+02  0.90000061510E+02 0.  0.
        -12    1    1    2    0    0 -0.40358298515E+00 -0.81631386403E-01 -0.11060427865E+01  0.11802006417E+01  0.00000000000E+00 0.  1.
         11    1    3    3    0    0  0.18004175715E+02  0.30456361936E+02  0.24418811374E+02  0.42988587726E+02  0.51100000000E-03 0. -1.
        -11    1    3    3    0    0 -0.49125517855E+01  0.24481612552E+01 -0.18091176411E+01  0.57792357174E+01  0.51100000000E-03 0.  1.
        -12    1    3    3    0    0 -0.12688040944E+02 -0.32822891805E+02 -0.21503650946E+02  0.41239975915E+02  0.00000000000E+00 0.  1.
</event>
<event>
 7    1  0.2232484E-015  0.9000783E+02  0.7816164E-02  0.1186339E+00
        -11   -1    0    0    0    0  0.00000000000E+00  0.00000000000E+00  0.45593999997E+02  0.45594000000E+02  0.51100000000E-03 0.  1.
         11   -1    0    0    0    0 -0.00000000000E+00 -0.00000000000E+00 -0.45593999997E+02  0.45594000000E+02  0.51100000000E-03 0. -1.
    9900012    2    1    2    0    0  0.11436473290E+00  0.80966293392E+00 -0.85098210532E+00  0.90007828867E+02  0.90000091408E+02 0.  0.
        -12    1    1    2    0    0 -0.11436473290E+00 -0.80966293392E+00  0.85098210532E+00  0.11801711326E+01  0.00000000000E+00 0.  1.
         11    1    3    3    0    0 -0.82265250508E+01  0.25085660065E+01 -0.45344155819E+01  0.97226304440E+01  0.51100000000E-03 0. -1.
        -11    1    3    3    0    0 -0.35135780604E+01  0.30005765786E+02  0.25903182668E+02  0.39795302283E+02  0.51100000000E-03 0.  1.
         12    1    3    3    0    0  0.11854467844E+02 -0.31704668859E+02 -0.22219749192E+02  0.40489896140E+02  0.00000000000E+00 0. -1.
</event>
<event>
 7    1  0.2232484E-015  0.9000757E+02  0.7816164E-02  0.1186339E+00
        -11   -1    0    0    0    0  0.00000000000E+00  0.00000000000E+00  0.45593999997E+02  0.45594000000E+02  0.51100000000E-03 0. -1.
         11   -1    0    0    0    0 -0.00000000000E+00 -0.00000000000E+00 -0.45593999997E+02  0.45594000000E+02  0.51100000000E-03 0.  1.
    9900012    2    1    2    0    0  0.77436091068E+00 -0.67280869575E+00  0.58403980274E+00  0.90007572598E+02  0.89999831756E+02 0.  0.
        -12    1    1    2    0    0 -0.77436091068E+00  0.67280869575E+00 -0.58403980274E+00  0.11804274024E+01  0.00000000000E+00 0.  1.
         11    1    3    3    0    0  0.28312652771E+00 -0.77758849199E+01 -0.22572535188E+01  0.81018356332E+01  0.51100000000E-03 0. -1.
        -11    1    3    3    0    0  0.23652297217E+02 -0.25675564398E+02 -0.14984558599E+02  0.37989508650E+02  0.51100000000E-03 0.  1.
         12    1    3    3    0    0 -0.23161062834E+02  0.32778640622E+02  0.17825851920E+02  0.43916228314E+02  0.00000000000E+00 0. -1.
</event>
<event>
 7    1  0.2232484E-015  0.9000757E+02  0.7816164E-02  0.1186339E+00
        -11   -1    0    0    0    0  0.00000000000E+00  0.00000000000E+00  0.45593999997E+02  0.45594000000E+02  0.51100000000E-03 0.  1.
         11   -1    0    0    0    0 -0.00000000000E+00 -0.00000000000E+00 -0.45593999997E+02  0.45594000000E+02  0.51100000000E-03 0. -1.
    9900012    2    1    2    0    0 -0.74434832342E+00  0.69840580555E+00 -0.59295011878E+00  0.90007570019E+02  0.89999829143E+02 0.  0.
        -12    1    1    2    0    0  0.74434832342E+00 -0.69840580555E+00  0.59295011878E+00  0.11804299806E+01  0.00000000000E+00 0.  1.
         11    1    3    3    0    0  0.71642357613E+01  0.19413427844E+01 -0.71860058715E+01  0.10331203536E+02  0.51100000000E-03 0. -1.
        -11    1    3    3    0    0 -0.89238480803E+00 -0.22403691062E+02  0.36220220829E+02  0.42598428621E+02  0.51100000000E-03 0.  1.
         12    1    3    3    0    0 -0.70161992767E+01  0.21160754083E+02 -0.29627165076E+02  0.37077937862E+02  0.00000000000E+00 0. -1.
</event>
<event>
 7    1  0.2232484E-015  0.9000767E+02  0.7816164E-02  0.1186339E+00
        -11   -1    0    0    0    0  0.00000000000E+00  0.00000000000E+00  0.45593999997E+02  0.45594000000E+02  0.51100000000E-03 0. -1.
         11   -1    0    0    0    0 -0.00000000000E+00 -0.00000000000E+00 -0.45593999997E+02  0.45594000000E+02  0.51100000000E-03 0.  1.
    9900012    2    1    2    0    0 -0.22909660859E+00 -0.98769045637E+00  0.60428610645E+00  0.90007669795E+02  0.89999930237E+02 0.  0.
        -12    1    1    2    0    0  0.22909660859E+00  0.98769045637E+00 -0.60428610645E+00  0.11803302047E+01  0.00000000000E+00 0.  1.
         11    1    3    3    0    0  0.71455770766E+01  0.42768148215E+01  0.17836260096E+01  0.85165567442E+01  0.51100000000E-03 0. -1.
        -11    1    3    3    0    0  0.90570914678E+00  0.35531899328E+02 -0.13588948297E+02  0.38052538614E+02  0.51100000000E-03 0.  1.
         12    1    3    3    0    0 -0.82803828319E+01 -0.40796404606E+02  0.12409608394E+02  0.43438574437E+02  0.00000000000E+00 0. -1.
</event>
<event>
 7    1  0.2232484E-015  0.9000780E+02  0.7816164E-02  0.1186339E+00
        -11   -1    0    0    0    0  0.00000000000E+00  0.00000000000E+00  0.45593999997E+02  0.45594000000E+02  0.51100000000E-03 0. -1.
         11   -1    0    0    0    0 -0.00000000000E+00 -0.00000000000E+00 -0.45593999997E+02  0.45594000000E+02  0.51100000000E-03 0.  1.
    9900012    2    1    2    0    0 -0.90269910141E-01  0.10889042885E+01 -0.44610794793E+00  0.90007799378E+02  0.90000061530E+02 0.  0.
        -12    1    1    2    0    0  0.90269910141E-01 -0.10889042885E+01  0.44610794793E+00  0.11802006217E+01  0.00000000000E+00 0.  1.
         11    1    3    3    0    0 -0.31603095659E+02 -0.35427876729E+01  0.18677733939E+02  0.36880411401E+02  0.51100000000E-03 0. -1.
        -11    1    3    3    0    0 -0.79646614096E+01  0.61390862027E+01 -0.36168745162E+01  0.10686720372E+02  0.51100000000E-03 0.  1.
        -12    1    3    3    0    0  0.39477487159E+02 -0.15073942412E+01 -0.15506967371E+02  0.42440667606E+02  0.00000000000E+00 0.  1.
</event>
<event>
 7    1  0.2232484E-015  0.9000754E+02  0.7816164E-02  0.1186339E+00
        -11   -1    0    0    0    0  0.00000000000E+00  0.00000000000E+00  0.45593999997E+02  0.45594000000E+02  0.51100000000E-03 0. -1.
         11   -1    0    0    0    0 -0.00000000000E+00 -0.00000000000E+00 -0.45593999997E+02  0.45594000000E+02  0.51100000000E-03 0.  1.
    9900012    2    1    2    0    0  0.91205649701E+00  0.57613239886E+00  0.47927388012E+00  0.90007542865E+02  0.89999801631E+02 0.  0.
        -12    1    1    2    0    0 -0.91205649701E+00 -0.57613239886E+00 -0.47927388012E+00  0.11804571347E+01  0.00000000000E+00 0.  1.
         11    1    3    3    0    0 -0.25524227764E+02  0.77674326989E+01  0.26353001007E+02  0.37500665008E+02  0.51100000000E-03 0. -1.
        -11    1    3    3    0    0 -0.79018456048E+01 -0.47346408406E+01  0.36912563896E+00  0.92191237030E+01  0.51100000000E-03 0.  1.
        -12    1    3    3    0    0  0.34338129866E+02 -0.24566594595E+01 -0.26242852766E+02  0.43287754154E+02  0.00000000000E+00 0.  1.
</event>
<event>
 7    1  0.2232484E-015  0.9000823E+02  0.7816164E-02  0.1186338E+00
        -11   -1    0    0    0    0  0.00000000000E+00  0.00000000000E+00  0.45593999997E+02  0.45594000000E+02  0.51100000000E-03 0.  1.
         11   -1    0    0    0    0 -0.00000000000E+00 -0.00000000000E+00 -0.45593999997E+02  0.45594000000E+02  0.51100000000E-03 0. -1.
    9900012    2    1    2    0    0 -0.98446071074E+00  0.49491093358E+00  0.42160870701E+00  0.90008231538E+02  0.90000499392E+02 0.  0.
        -12    1    1    2    0    0  0.98446071074E+00 -0.49491093358E+00 -0.42160870701E+00  0.11797684625E+01  0.00000000000E+00 0.  1.
         11    1    3    3    0    0  0.80623949224E+00  0.39174095111E+02 -0.11885280778E+01  0.39200412615E+02  0.51100000000E-03 0. -1.
        -11    1    3    3    0    0 -0.92833761530E+01  0.13227161572E+01  0.36419892635E+01  0.10059559478E+02  0.51100000000E-03 0.  1.
        -12    1    3    3    0    0  0.74926759500E+01 -0.40001900335E+02 -0.20318524787E+01  0.40748259445E+02  0.00000000000E+00 0.  1.
</event>
<event>
 7    1  0.2232484E-015  0.9000776E+02  0.7816164E-02  0.1186339E+00
        -11   -1    0    0    0    0  0.00000000000E+00  0.00000000000E+00  0.45593999997E+02  0.45594000000E+02  0.51100000000E-03 0.  1.
         11   -1    0    0    0    0 -0.00000000000E+00 -0.00000000000E+00 -0.45593999997E+02  0.45594000000E+02  0.51100000000E-03 0. -1.
    9900012    2    1    2    0    0 -0.10493440019E+01  0.43820116015E+00 -0.31595282322E+00  0.90007758805E+02  0.90000020422E+02 0.  0.
        -12    1    1    2    0    0  0.10493440019E+01 -0.43820116015E+00  0.31595282322E+00  0.11802411947E+01  0.00000000000E+00 0.  1.
         11    1    3    3    0    0  0.10658230183E+02  0.31360524112E+02  0.24376527973E+00  0.33123100171E+02  0.51100000000E-03 0. -1.
        -11    1    3    3    0    0  0.12056227476E+02  0.51746223008E+01 -0.34664700833E+01  0.13570031393E+02  0.51100000000E-03 0.  1.
        -12    1    3    3    0    0 -0.23763801661E+02 -0.36096945252E+02  0.29067519804E+01  0.43314627241E+02  0.00000000000E+00 0.  1.
</event>
<event>
 7    1  0.2232484E-015  0.9000774E+02  0.7816164E-02  0.1186339E+00
        -11   -1    0    0    0    0  0.00000000000E+00  0.00000000000E+00  0.45593999997E+02  0.45594000000E+02  0.51100000000E-03 0. -1.
         11   -1    0    0    0    0 -0.00000000000E+00 -0.00000000000E+00 -0.45593999997E+02  0.45594000000E+02  0.51100000000E-03 0.  1.
    9900012    2    1    2    0    0  0.83375342321E+00  0.61644163117E+00  0.56379984196E+00  0.90007739301E+02  0.90000000660E+02 0.  0.
        -12    1    1    2    0    0 -0.83375342321E+00 -0.61644163117E+00 -0.56379984196E+00  0.11802606988E+01  0.00000000000E+00 0.  1.
         11    1    3    3    0    0  0.12082017224E+02 -0.34985769286E+01 -0.32590554436E+01  0.12993714765E+02  0.51100000000E-03 0. -1.
        -11    1    3    3    0    0 -0.10019968048E+02 -0.33893741742E+02 -0.97031793265E+01  0.36651564472E+02  0.51100000000E-03 0.  1.
         12    1    3    3    0    0 -0.12282957533E+01  0.38008760302E+02  0.13526034612E+02  0.40362460065E+02  0.00000000000E+00 0. -1.
</event>
<event>
 7    1  0.2232484E-015  0.9000749E+02  0.7816164E-02  0.1186340E+00
        -11   -1    0    0    0    0  0.00000000000E+00  0.00000000000E+00  0.45593999997E+02  0.45594000000E+02  0.51100000000E-03 0. -1.
         11   -1    0    0    0    0 -0.00000000000E+00 -0.00000000000E+00 -0.45593999997E+02  0.45594000000E+02  0.51100000000E-03 0.  1.
    9900012    2    1    2    0    0 -0.13649929944E-01  0.95806329668E+00  0.68958812516E+00  0.90007490202E+02  0.89999748272E+02 0.  0.
        -12    1    1    2    0    0  0.13649929944E-01 -0.95806329668E+00 -0.68958812516E+00  0.11805097981E+01  0.00000000000E+00 0.  1.
         11    1    3    3    0    0 -0.20822169726E+02 -0.23936215980E+02  0.21818771797E+02  0.38504077583E+02  0.51100000000E-03 0. -1.
        -11    1    3    3    0    0  0.17472928429E+01 -0.45052447061E+01  0.56273911725E+01  0.74173980485E+01  0.51100000000E-03 0.  1.
        -12    1    3    3    0    0  0.19061226953E+02  0.29399523982E+02 -0.26756574844E+02  0.44086014571E+02  0.00000000000E+00 0.  1.
</event>
<event>
 7    1  0.2232484E-015  0.9000772E+02  0.7816164E-02  0.1186339E+00
        -11   -1    0    0    0    0  0.00000000000E+00  0.00000000000E+00  0.45593999997E+02  0.45594000000E+02  0.51100000000E-03 0.  1.
         11   -1    0    0    0    0 -0.00000000000E+00 -0.00000000000E+00 -0.45593999997E+02  0.45594000000E+02  0.51100000000E-03 0. -1.
    9900012    2    1    2    0    0  0.49775394643E+00  0.98600540905E+00 -0.41604885768E+00  0.90007719394E+02  0.89999980490E+02 0.  0.
        -12    1    1    2    0    0 -0.49775394643E+00 -0.98600540905E+00  0.41604885768E+00  0.11802806064E+01  0.00000000000E+00 0.  1.
         11    1    3    3    0    0 -0.82560783670E+01  0.20688965731E+02 -0.21395792415E+02  0.30886502980E+02  0.51100000000E-03 0. -1.
        -11    1    3    3    0    0 -0.89722514046E+01  0.13874676071E+02  0.19127004008E+01  0.16633290547E+02  0.51100000000E-03 0.  1.
        -12    1    3    3    0    0  0.17726083718E+02 -0.33577636392E+02  0.19067043157E+02  0.42487925866E+02  0.00000000000E+00 0.  1.
</event>
<event>
 7    1  0.2232484E-015  0.9000773E+02  0.7816164E-02  0.1186339E+00
        -11   -1    0    0    0    0  0.00000000000E+00  0.00000000000E+00  0.45593999997E+02  0.45594000000E+02  0.51100000000E-03 0.  1.
         11   -1    0    0    0    0 -0.00000000000E+00 -0.00000000000E+00 -0.45593999997E+02  0.45594000000E+02  0.51100000000E-03 0. -1.
    9900012    2    1    2    0    0  0.98243962284E-02  0.95013678619E+00 -0.70013347062E+00  0.90007727443E+02  0.89999988646E+02 0.  0.
        -12    1    1    2    0    0 -0.98243962284E-02 -0.95013678619E+00  0.70013347062E+00  0.11802725566E+01  0.00000000000E+00 0.  1.
         11    1    3    3    0    0 -0.36287330016E+02 -0.17441341742E+02 -0.14075532201E+01  0.40285877523E+02  0.51100000000E-03 0. -1.
        -11    1    3    3    0    0  0.29730008966E+01 -0.94727516337E+00  0.96726829931E+01  0.10163506339E+02  0.51100000000E-03 0.  1.
        -12    1    3    3    0    0  0.33324153516E+02  0.19338753691E+02 -0.89652632437E+01  0.39558343581E+02  0.00000000000E+00 0.  1.
</event>
<event>
 7    1  0.2232484E-015  0.9000774E+02  0.7816164E-02  0.1186339E+00
        -11   -1    0    0    0    0  0.00000000000E+00  0.00000000000E+00  0.45593999997E+02  0.45594000000E+02  0.51100000000E-03 0.  1.
         11   -1    0    0    0    0 -0.00000000000E+00 -0.00000000000E+00 -0.45593999997E+02  0.45594000000E+02  0.51100000000E-03 0. -1.
    9900012    2    1    2    0    0  0.10401362211E+01 -0.37526649426E+00 -0.41267219466E+00  0.90007742977E+02  0.90000004384E+02 0.  0.
        -12    1    1    2    0    0 -0.10401362211E+01  0.37526649426E+00  0.41267219466E+00  0.11802570230E+01  0.00000000000E+00 0.  1.
         11    1    3    3    0    0  0.14819651163E+01  0.11212544783E+02  0.23789060358E+01  0.11557533271E+02  0.51100000000E-03 0. -1.
        -11    1    3    3    0    0  0.24015878788E+02 -0.31005992339E+02  0.15600324921E+02  0.42207868138E+02  0.51100000000E-03 0.  1.
         12    1    3    3    0    0 -0.24457707683E+02  0.19418181061E+02 -0.18391903151E+02  0.36242341568E+02  0.00000000000E+00 0. -1.
</event>
<event>
 7    1  0.2232484E-015  0.9000774E+02  0.7816164E-02  0.1186339E+00
        -11   -1    0    0    0    0  0.00000000000E+00  0.00000000000E+00  0.45593999997E+02  0.45594000000E+02  0.51100000000E-03 0.  1.
         11   -1    0    0    0    0 -0.00000000000E+00 -0.00000000000E+00 -0.45593999997E+02  0.45594000000E+02  0.51100000000E-03 0. -1.
    9900012    2    1    2    0    0  0.52953174978E+00 -0.53751971164E+00 -0.90756968342E+00  0.90007739840E+02  0.90000001206E+02 0.  0.
        -12    1    1    2    0    0 -0.52953174978E+00  0.53751971164E+00  0.90756968342E+00  0.11802601597E+01  0.00000000000E+00 0.  1.
         11    1    3    3    0    0  0.76383564295E+00 -0.31413088774E+02 -0.23063211343E+02  0.38977907960E+02  0.51100000000E-03 0. -1.
        -11    1    3    3    0    0 -0.40701656139E+01  0.60249130559E+01 -0.86271961055E+01  0.11282479265E+02  0.51100000000E-03 0.  1.
        -12    1    3    3    0    0  0.38358617207E+01  0.24850656006E+02  0.30782837765E+02  0.39747352616E+02  0.00000000000E+00 0.  1.
</event>
<event>
 7    1  0.2232484E-015  0.9000777E+02  0.7816164E-02  0.1186339E+00
        -11   -1    0    0    0    0  0.00000000000E+00  0.00000000000E+00  0.45593999997E+02  0.45594000000E+02  0.51100000000E-03 0. -1.
         11   -1    0    0    0    0 -0.00000000000E+00 -0.00000000000E+00 -0.45593999997E+02  0.45594000000E+02  0.51100000000E-03 0.  1.
    9900012    2    1    2    0    0 -0.33881541401E+00 -0.99230585010E+00  0.54172439874E+00  0.90007774552E+02  0.90000036376E+02 0.  0.
        -12    1    1    2    0    0  0.33881541401E+00  0.99230585010E+00 -0.54172439874E+00  0.11802254484E+01  0.00000000000E+00 0.  1.
         11    1    3    3    0    0  0.77395185734E+01 -0.76246891432E+01  0.20000192596E+00  0.10866279644E+02  0.51100000000E-03 0. -1.
        -11    1    3    3    0    0  0.35125786146E+01 -0.31680091278E+02 -0.16290698253E+02  0.35795994773E+02  0.51100000000E-03 0.  1.
         12    1    3    3    0    0 -0.11590912602E+02  0.38312474571E+02  0.16632420726E+02  0.43345500135E+02  0.00000000000E+00 0. -1.
</event>
<event>
 7    1  0.2232484E-015  0.9000774E+02  0.7816164E-02  0.1186339E+00
        -11   -1    0    0    0    0  0.00000000000E+00  0.00000000000E+00  0.45593999997E+02  0.45594000000E+02  0.51100000000E-03 0. -1.
         11   -1    0    0    0    0 -0.00000000000E+00 -0.00000000000E+00 -0.45593999997E+02  0.45594000000E+02  0.51100000000E-03 0.  1.
    9900012    2    1    2    0    0  0.11590953731E+01  0.19175445443E+00  0.11286270689E+00  0.90007741619E+02  0.90000003009E+02 0.  0.
        -12    1    1    2    0    0 -0.11590953731E+01 -0.19175445443E+00 -0.11286270689E+00  0.11802583807E+01  0.00000000000E+00 0.  1.
         11    1    3    3    0    0 -0.38117154919E+01 -0.90650085084E+01  0.16766636253E+01  0.99757082667E+01  0.51100000000E-03 0. -1.
        -11    1    3    3    0    0 -0.25822986666E+02  0.22249280737E+02 -0.22269094204E+02  0.40715717979E+02  0.51100000000E-03 0.  1.
         12    1    3    3    0    0  0.30793797531E+02 -0.12992517774E+02  0.20705293286E+02  0.39316315373E+02  0.00000000000E+00 0. -1.
</event>
<event>
 7    1  0.2232484E-015  0.9000744E+02  0.7816164E-02  0.1186340E+00
        -11   -1    0    0    0    0  0.00000000000E+00  0.00000000000E+00  0.45593999997E+02  0.45594000000E+02  0.51100000000E-03 0.  1.
         11   -1    0    0    0    0 -0.00000000000E+00 -0.00000000000E+00 -0.45593999997E+02  0.45594000000E+02  0.51100000000E-03 0. -1.
    9900012    2    1    2    0    0  0.30000945754E+00  0.46010147021E+00 -0.10449942505E+01  0.90007444190E+02  0.89999701653E+02 0.  0.
        -12    1    1    2    0    0 -0.30000945754E+00 -0.46010147021E+00  0.10449942505E+01  0.11805558102E+01  0.00000000000E+00 0.  1.
         11    1    3    3    0    0  0.23617948526E+02  0.15151807694E+02 -0.34043532759E+02  0.44117421637E+02  0.51100000000E-03 0. -1.
        -11    1    3    3    0    0 -0.22368707888E+01  0.11711696180E+01 -0.11189728660E+01  0.27617620708E+01  0.51100000000E-03 0.  1.
        -12    1    3    3    0    0 -0.21081068280E+02 -0.15862875842E+02  0.34117511374E+02  0.43128260482E+02  0.00000000000E+00 0.  1.
</event>
<event>
 7    1  0.2232484E-015  0.9000775E+02  0.7816164E-02  0.1186339E+00
        -11   -1    0    0    0    0  0.00000000000E+00  0.00000000000E+00  0.45593999997E+02  0.45594000000E+02  0.51100000000E-03 0.  1.
         11   -1    0    0    0    0 -0.00000000000E+00 -0.00000000000E+00 -0.45593999997E+02  0.45594000000E+02  0.51100000000E-03 0. -1.
    9900012    2    1    2    0    0 -0.99755302513E+00  0.33404740461E+00  0.53506637699E+00  0.90007747597E+02  0.90000009066E+02 0.  0.
        -12    1    1    2    0    0  0.99755302513E+00 -0.33404740461E+00 -0.53506637699E+00  0.11802524028E+01  0.00000000000E+00 0.  1.
         11    1    3    3    0    0 -0.19284375395E+02  0.14589769915E+02 -0.29575893341E+02  0.38203167247E+02  0.51100000000E-03 0. -1.
        -11    1    3    3    0    0 -0.36802213548E+00  0.90302208836E+01 -0.50838635595E+00  0.90520045541E+01  0.51100000000E-03 0.  1.
        -12    1    3    3    0    0  0.18654844506E+02 -0.23285943394E+02  0.30619346073E+02  0.42752575796E+02  0.00000000000E+00 0.  1.
</event>
<event>
 7    1  0.2232484E-015  0.9000777E+02  0.7816164E-02  0.1186339E+00
        -11   -1    0    0    0    0  0.00000000000E+00  0.00000000000E+00  0.45593999997E+02  0.45594000000E+02  0.51100000000E-03 0. -1.
         11   -1    0    0    0    0 -0.00000000000E+00 -0.00000000000E+00 -0.45593999997E+02  0.45594000000E+02  0.51100000000E-03 0.  1.
    9900012    2    1    2    0    0 -0.61123611182E+00  0.32112865608E+00  0.95719043257E+00  0.90007768361E+02  0.90000030103E+02 0.  0.
        -12    1    1    2    0    0  0.61123611182E+00 -0.32112865608E+00 -0.95719043257E+00  0.11802316393E+01  0.00000000000E+00 0.  1.
         11    1    3    3    0    0 -0.65232490058E+01  0.82418360426E+00 -0.11246200152E+02  0.13027243543E+02  0.51100000000E-03 0. -1.
        -11    1    3    3    0    0 -0.27634946818E+02 -0.52271581566E+01 -0.16474042964E+02  0.32594594028E+02  0.51100000000E-03 0.  1.
         12    1    3    3    0    0  0.33546959712E+02  0.47241032084E+01  0.28677433549E+02  0.44385930789E+02  0.00000000000E+00 0. -1.
</event>
<event>
 7    1  0.2232484E-015  0.9000767E+02  0.7816164E-02  0.1186339E+00
        -11   -1    0    0    0    0  0.00000000000E+00  0.00000000000E+00  0.45593999997E+02  0.45594000000E+02  0.51100000000E-03 0. -1.
         11   -1    0    0    0    0 -0.00000000000E+00 -0.00000000000E+00 -0.45593999997E+02  0.45594000000E+02  0.51100000000E-03 0.  1.
    9900012    2    1    2    0    0 -0.69160487977E-01 -0.11772928659E+01 -0.48840243268E-01  0.90007666558E+02  0.89999926956E+02 0.  0.
        -12    1    1    2    0    0  0.69160487977E-01  0.11772928659E+01  0.48840243268E-01  0.11803334421E+01  0.00000000000E+00 0.  1.
         11    1    3    3    0    0  0.20952083319E+02  0.97781961000E+01 -0.17635735058E+02  0.29079581594E+02  0.51100000000E-03 0. -1.
        -11    1    3    3    0    0  0.64829679131E+01 -0.10355836502E+02 -0.14303429847E+02  0.18811175622E+02  0.51100000000E-03 0.  1.
         12    1    3    3    0    0 -0.27504211720E+02 -0.59965246351E+00  0.31890324662E+02  0.42116909342E+02  0.00000000000E+00 0. -1.
</event>
<event>
 7    1  0.2232484E-015  0.9000775E+02  0.7816164E-02  0.1186339E+00
        -11   -1    0    0    0    0  0.00000000000E+00  0.00000000000E+00  0.45593999997E+02  0.45594000000E+02  0.51100000000E-03 0. -1.
         11   -1    0    0    0    0 -0.00000000000E+00 -0.00000000000E+00 -0.45593999997E+02  0.45594000000E+02  0.51100000000E-03 0.  1.
    9900012    2    1    2    0    0  0.80286325308E+00  0.70593123773E+00 -0.50005573648E+00  0.90007752545E+02  0.90000014079E+02 0.  0.
        -12    1    1    2    0    0 -0.80286325308E+00 -0.70593123773E+00  0.50005573648E+00  0.11802474550E+01  0.00000000000E+00 0.  1.
         11    1    3    3    0    0 -0.34373086374E+02 -0.64440868615E+01  0.10809749620E+02  0.36604453411E+02  0.51100000000E-03 0. -1.
        -11    1    3    3    0    0 -0.44353435237E+01 -0.84813322703E+01 -0.13026214391E+01  0.96593008094E+01  0.51100000000E-03 0.  1.
        -12    1    3    3    0    0  0.39611293151E+02  0.15631350370E+02 -0.10007183918E+02  0.43743998325E+02  0.00000000000E+00 0.  1.
</event>
<event>
 7    1  0.2232484E-015  0.9000771E+02  0.7816164E-02  0.1186339E+00
        -11   -1    0    0    0    0  0.00000000000E+00  0.00000000000E+00  0.45593999997E+02  0.45594000000E+02  0.51100000000E-03 0. -1.
         11   -1    0    0    0    0 -0.00000000000E+00 -0.00000000000E+00 -0.45593999997E+02  0.45594000000E+02  0.51100000000E-03 0.  1.
    9900012    2    1    2    0    0  0.90758296343E+00 -0.61289872166E+00  0.44014199735E+00  0.90007713316E+02  0.89999974332E+02 0.  0.
        -12    1    1    2    0    0 -0.90758296343E+00  0.61289872166E+00 -0.44014199735E+00  0.11802866840E+01  0.00000000000E+00 0.  1.
         11    1    3    3    0    0  0.18238204463E+02  0.31533116182E+02  0.15177405534E+02  0.39462933966E+02  0.51100000000E-03 0. -1.
        -11    1    3    3    0    0  0.24235354507E+01  0.20457309036E+01 -0.10336736960E+02  0.10812338797E+02  0.51100000000E-03 0.  1.
        -12    1    3    3    0    0 -0.19754156950E+02 -0.34191745807E+02 -0.44005265765E+01  0.39732440553E+02  0.00000000000E+00 0.  1.
</event>
<event>
 7    1  0.2232484E-015  0.9000778E+02  0.7816164E-02  0.1186339E+00
        -11   -1    0    0    0    0  0.00000000000E+00  0.00000000000E+00  0.45593999997E+02  0.45594000000E+02  0.51100000000E-03 0. -1.
         11   -1    0    0    0    0 -0.00000000000E+00 -0.00000000000E+00 -0.45593999997E+02  0.45594000000E+02  0.51100000000E-03 0.  1.
    9900012    2    1    2    0    0  0.10780419223E+01  0.10845330196E+00  0.46794588353E+00  0.90007783980E+02  0.90000045928E+02 0.  0.
        -12    1    1    2    0    0 -0.10780419223E+01 -0.10845330196E+00 -0.46794588353E+00  0.11802160204E+01  0.00000000000E+00 0.  1.
         11    1    3    3    0    0  0.69583957171E+01 -0.35843060517E+01 -0.66069669440E+01  0.10242974826E+02  0.51100000000E-03 0. -1.
        -11    1    3    3    0    0 -0.13762451183E+02 -0.21241638579E+02 -0.26870942674E+02  0.36914222632E+02  0.51100000000E-03 0.  1.
         12    1    3    3    0    0  0.78820973885E+01  0.24934397933E+02  0.33945855501E+02  0.42850586521E+02  0.00000000000E+00 0. -1.
</event>
<event>
 7    1  0.2232484E-015  0.9000781E+02  0.7816164E-02  0.1186339E+00
        -11   -1    0    0    0    0  0.00000000000E+00  0.00000000000E+00  0.45593999997E+02  0.45594000000E+02  0.51100000000E-03 0.  1.
         11   -1    0    0    0    0 -0.00000000000E+00 -0.00000000000E+00 -0.45593999997E+02  0.45594000000E+02  0.51100000000E-03 0. -1.
    9900012    2    1    2    0    0 -0.11672348595E+01 -0.16907354868E+00 -0.42857454020E-01  0.90007805167E+02  0.90000067395E+02 0.  0.
        -12    1    1    2    0    0  0.11672348595E+01  0.16907354868E+00  0.42857454020E-01  0.11801948328E+01  0.00000000000E+00 0.  1.
         11    1    3    3    0    0 -0.53603015921E-01 -0.12296941830E+01  0.10131614605E+02  0.10206107771E+02  0.51100000000E-03 0. -1.
        -11    1    3    3    0    0 -0.24651671862E+01  0.28827252221E+02  0.22681322620E+02  0.36763159765E+02  0.51100000000E-03 0.  1.
         12    1    3    3    0    0  0.13515353426E+01 -0.27766631587E+02 -0.32855794679E+02  0.43038537631E+02  0.00000000000E+00 0. -1.
</event>
<event>
 7    1  0.2232484E-015  0.9000774E+02  0.7816164E-02  0.1186339E+00
        -11   -1    0    0    0    0  0.00000000000E+00  0.00000000000E+00  0.45593999997E+02  0.45594000000E+02  0.51100000000E-03 0.  1.
         11   -1    0    0    0    0 -0.00000000000E+00 -0.00000000000E+00 -0.45593999997E+02  0.45594000000E+02  0.51100000000E-03 0. -1.
    9900012    2    1    2    0    0  0.79372016676E+00 -0.72006045989E+00 -0.49450652399E+00  0.90007739236E+02  0.90000000594E+02 0.  0.
        -12    1    1    2    0    0 -0.79372016676E+00  0.72006045989E+00  0.49450652399E+00  0.11802607641E+01  0.00000000000E+00 0.  1.
         11    1    3    3    0    0  0.23838172011E+02  0.20307150379E+02 -0.25699921178E+02  0.40510797946E+02  0.51100000000E-03 0. -1.
        -11    1    3    3    0    0 -0.13788913263E+02  0.52011519024E+01  0.76233390654E+01  0.16592209282E+02  0.51100000000E-03 0.  1.
        -12    1    3    3    0    0 -0.92555385814E+01 -0.26228362742E+02  0.17582075589E+02  0.32904732008E+02  0.00000000000E+00 0.  1.
</event>
<event>
 7    1  0.2232484E-015  0.9000774E+02  0.7816164E-02  0.1186339E+00
        -11   -1    0    0    0    0  0.00000000000E+00  0.00000000000E+00  0.45593999997E+02  0.45594000000E+02  0.51100000000E-03 0.  1.
         11   -1    0    0    0    0 -0.00000000000E+00 -0.00000000000E+00 -0.45593999997E+02  0.45594000000E+02  0.51100000000E-03 0. -1.
    9900012    2    1    2    0    0 -0.23482341196E-01  0.10739859986E+01 -0.48888596818E+00  0.90007742894E+02  0.90000004301E+02 0.  0.
        -12    1    1    2    0    0  0.23482341196E-01 -0.10739859986E+01  0.48888596818E+00  0.11802571057E+01  0.00000000000E+00 0.  1.
         11    1    3    3    0    0  0.24030046307E+02  0.16587946523E+02  0.19189968074E+02  0.34940778044E+02  0.51100000000E-03 0. -1.
        -11    1    3    3    0    0  0.27961924451E+01 -0.10864359250E+02 -0.24910401139E+02  0.27319975828E+02  0.51100000000E-03 0.  1.
        -12    1    3    3    0    0 -0.26849721093E+02 -0.46496012744E+01  0.52315470964E+01  0.27746989022E+02  0.00000000000E+00 0.  1.
</event>
<event>
 7    1  0.2232484E-015  0.9000852E+02  0.7816164E-02  0.1186337E+00
        -11   -1    0    0    0    0  0.00000000000E+00  0.00000000000E+00  0.45593999997E+02  0.45594000000E+02  0.51100000000E-03 0.  1.
         11   -1    0    0    0    0 -0.00000000000E+00 -0.00000000000E+00 -0.45593999997E+02  0.45594000000E+02  0.51100000000E-03 0. -1.
    9900012    2    1    2    0    0  0.27113663024E+00 -0.10365871958E+01 -0.49310389307E+00  0.90008517259E+02  0.90000788883E+02 0.  0.
        -12    1    1    2    0    0 -0.27113663024E+00  0.10365871958E+01  0.49310389307E+00  0.11794827410E+01  0.00000000000E+00 0.  1.
         11    1    3    3    0    0  0.31150279556E+02  0.84585477406E+01 -0.19398046784E+02  0.37658613432E+02  0.51100000000E-03 0. -1.
        -11    1    3    3    0    0  0.52827085144E+01 -0.87413702879E+01 -0.22351830227E+01  0.10455362603E+02  0.51100000000E-03 0.  1.
        -12    1    3    3    0    0 -0.36161851440E+02 -0.75376464846E+00  0.21140125913E+02  0.41894541224E+02  0.00000000000E+00 0.  1.
</event>
<event>
 7    1  0.2232484E-015  0.9000780E+02  0.7816164E-02  0.1186339E+00
        -11   -1    0    0    0    0  0.00000000000E+00  0.00000000000E+00  0.45593999997E+02  0.45594000000E+02  0.51100000000E-03 0. -1.
         11   -1    0    0    0    0 -0.00000000000E+00 -0.00000000000E+00 -0.45593999997E+02  0.45594000000E+02  0.51100000000E-03 0.  1.
    9900012    2    1    2    0    0  0.97262001032E+00 -0.37292220235E+00  0.55480810588E+00  0.90007799726E+02  0.90000061882E+02 0.  0.
        -12    1    1    2    0    0 -0.97262001032E+00  0.37292220235E+00 -0.55480810588E+00  0.11802002745E+01  0.00000000000E+00 0.  1.
         11    1    3    3    0    0  0.20929007955E+02  0.18676430658E+02  0.35309835948E+02  0.45095642262E+02  0.51100000000E-03 0. -1.
        -11    1    3    3    0    0 -0.36282638723E+00 -0.20542949791E+01 -0.92131234715E+00  0.22804796756E+01  0.51100000000E-03 0.  1.
        -12    1    3    3    0    0 -0.19593561557E+02 -0.16995057881E+02 -0.33833715494E+02  0.42631677788E+02  0.00000000000E+00 0.  1.
</event>
<event>
 7    1  0.2232484E-015  0.9000779E+02  0.7816164E-02  0.1186339E+00
        -11   -1    0    0    0    0  0.00000000000E+00  0.00000000000E+00  0.45593999997E+02  0.45594000000E+02  0.51100000000E-03 0.  1.
         11   -1    0    0    0    0 -0.00000000000E+00 -0.00000000000E+00 -0.45593999997E+02  0.45594000000E+02  0.51100000000E-03 0. -1.
    9900012    2    1    2    0    0 -0.68505680149E+00 -0.27003154583E+00  0.92232189506E+00  0.90007789199E+02  0.90000051216E+02 0.  0.
        -12    1    1    2    0    0  0.68505680149E+00  0.27003154583E+00 -0.92232189506E+00  0.11802108011E+01  0.00000000000E+00 0.  1.
         11    1    3    3    0    0  0.13259925603E+02  0.17336102204E+02  0.24743717188E+02  0.32994205661E+02  0.51100000000E-03 0. -1.
        -11    1    3    3    0    0  0.65648588717E+01  0.13196466636E+02 -0.79622407742E+01  0.16752354524E+02  0.51100000000E-03 0.  1.
        -12    1    3    3    0    0 -0.20509841276E+02 -0.30802600386E+02 -0.15859154519E+02  0.40261229015E+02  0.00000000000E+00 0.  1.
</event>
<event>
 7    1  0.2232484E-015  0.9000784E+02  0.7816164E-02  0.1186339E+00
        -11   -1    0    0    0    0  0.00000000000E+00  0.00000000000E+00  0.45593999997E+02  0.45594000000E+02  0.51100000000E-03 0. -1.
         11   -1    0    0    0    0 -0.00000000000E+00 -0.00000000000E+00 -0.45593999997E+02  0.45594000000E+02  0.51100000000E-03 0.  1.
    9900012    2    1    2    0    0  0.82701993850E+00 -0.14698886913E+00  0.82898150901E+00  0.90007839821E+02  0.90000102506E+02 0.  0.
        -12    1    1    2    0    0 -0.82701993850E+00  0.14698886913E+00 -0.82898150901E+00  0.11801601792E+01  0.00000000000E+00 0.  1.
         11    1    3    3    0    0 -0.89439343925E+01 -0.10177702592E+02  0.21227921077E+02  0.25183411722E+02  0.51100000000E-03 0. -1.
        -11    1    3    3    0    0  0.78869530766E+01 -0.14975362320E+01  0.20644841883E+02  0.22150759360E+02  0.51100000000E-03 0.  1.
        -12    1    3    3    0    0  0.18840012545E+01  0.11528249955E+02 -0.41043781451E+02  0.42673668738E+02  0.00000000000E+00 0.  1.
</event>
<event>
 7    1  0.2232484E-015  0.9000772E+02  0.7816164E-02  0.1186339E+00
        -11   -1    0    0    0    0  0.00000000000E+00  0.00000000000E+00  0.45593999997E+02  0.45594000000E+02  0.51100000000E-03 0.  1.
         11   -1    0    0    0    0 -0.00000000000E+00 -0.00000000000E+00 -0.45593999997E+02  0.45594000000E+02  0.51100000000E-03 0. -1.
    9900012    2    1    2    0    0 -0.13643754409E+00  0.29275960701E+00 -0.11352273211E+01  0.90007718482E+02  0.89999979566E+02 0.  0.
        -12    1    1    2    0    0  0.13643754409E+00 -0.29275960701E+00  0.11352273211E+01  0.11802815179E+01  0.00000000000E+00 0.  1.
         11    1    3    3    0    0 -0.51132846746E+00 -0.18969728924E+02 -0.35363701854E+02  0.40133570503E+02  0.51100000000E-03 0. -1.
        -11    1    3    3    0    0  0.49199363376E+01  0.26831991293E+01 -0.47030589169E+01  0.73160163047E+01  0.51100000000E-03 0.  1.
        -12    1    3    3    0    0 -0.45450454143E+01  0.16579289402E+02  0.38931533450E+02  0.42558131674E+02  0.00000000000E+00 0.  1.
</event>
<event>
 7    1  0.2232484E-015  0.9000775E+02  0.7816164E-02  0.1186339E+00
        -11   -1    0    0    0    0  0.00000000000E+00  0.00000000000E+00  0.45593999997E+02  0.45594000000E+02  0.51100000000E-03 0.  1.
         11   -1    0    0    0    0 -0.00000000000E+00 -0.00000000000E+00 -0.45593999997E+02  0.45594000000E+02  0.51100000000E-03 0. -1.
    9900012    2    1    2    0    0  0.10819151262E+01  0.32004631043E+00 -0.34644296385E+00  0.90007748879E+02  0.90000010364E+02 0.  0.
        -12    1    1    2    0    0 -0.10819151262E+01 -0.32004631043E+00  0.34644296385E+00  0.11802511208E+01  0.00000000000E+00 0.  1.
         11    1    3    3    0    0  0.59419120032E+01  0.70301891863E+01 -0.26148598678E+01  0.95690841066E+01  0.51100000000E-03 0. -1.
        -11    1    3    3    0    0 -0.73059593482E+01  0.36385539460E+02  0.33272837741E+01  0.37260640646E+02  0.51100000000E-03 0.  1.
         12    1    3    3    0    0  0.24459624711E+01 -0.43095682336E+02 -0.10588668701E+01  0.43178024126E+02  0.00000000000E+00 0. -1.
</event>
<event>
 7    1  0.2232484E-015  0.9000780E+02  0.7816164E-02  0.1186339E+00
        -11   -1    0    0    0    0  0.00000000000E+00  0.00000000000E+00  0.45593999997E+02  0.45594000000E+02  0.51100000000E-03 0. -1.
         11   -1    0    0    0    0 -0.00000000000E+00 -0.00000000000E+00 -0.45593999997E+02  0.45594000000E+02  0.51100000000E-03 0.  1.
    9900012    2    1    2    0    0  0.21769947797E+00  0.96241466505E+00  0.64749421511E+00  0.90007795014E+02  0.90000057108E+02 0.  0.
        -12    1    1    2    0    0 -0.21769947797E+00 -0.96241466505E+00 -0.64749421511E+00  0.11802049859E+01  0.00000000000E+00 0.  1.
         11    1    3    3    0    0  0.50793376360E+01  0.33695819057E+01  0.11701763062E+02  0.13194127938E+02  0.51100000000E-03 0. -1.
        -11    1    3    3    0    0 -0.41732767357E+00 -0.36968274989E+02 -0.18254716723E+02  0.41231810546E+02  0.51100000000E-03 0.  1.
         12    1    3    3    0    0 -0.44443104844E+01  0.34561107748E+02  0.72004478766E+01  0.35581856529E+02  0.00000000000E+00 0. -1.
</event>
<event>
 7    1  0.2232484E-015  0.9000773E+02  0.7816164E-02  0.1186339E+00
        -11   -1    0    0    0    0  0.00000000000E+00  0.00000000000E+00  0.45593999997E+02  0.45594000000E+02  0.51100000000E-03 0.  1.
         11   -1    0    0    0    0 -0.00000000000E+00 -0.00000000000E+00 -0.45593999997E+02  0.45594000000E+02  0.51100000000E-03 0. -1.
    9900012    2    1    2    0    0  0.11483897553E+01  0.13286943051E+00  0.23785265587E+00  0.90007734267E+02  0.89999995559E+02 0.  0.
        -12    1    1    2    0    0 -0.11483897553E+01 -0.13286943051E+00 -0.23785265587E+00  0.11802657335E+01  0.00000000000E+00 0.  1.
         11    1    3    3    0    0 -0.97704907553E+01  0.19497448728E+01  0.10244612773E+01  0.10015663525E+02  0.51100000000E-03 0. -1.
        -11    1    3    3    0    0 -0.12430612861E+01  0.55897460089E+01  0.38127141821E+02  0.38554758533E+02  0.51100000000E-03 0.  1.
         12    1    3    3    0    0  0.12161941797E+02 -0.74066214513E+01 -0.38913750443E+02  0.41437312209E+02  0.00000000000E+00 0. -1.
</event>
<event>
 7    1  0.2232484E-015  0.9000778E+02  0.7816164E-02  0.1186339E+00
        -11   -1    0    0    0    0  0.00000000000E+00  0.00000000000E+00  0.45593999997E+02  0.45594000000E+02  0.51100000000E-03 0.  1.
         11   -1    0    0    0    0 -0.00000000000E+00 -0.00000000000E+00 -0.45593999997E+02  0.45594000000E+02  0.51100000000E-03 0. -1.
    9900012    2    1    2    0    0 -0.71733965698E+00 -0.66200912484E+00 -0.66339740017E+00  0.90007776133E+02  0.90000037978E+02 0.  0.
        -12    1    1    2    0    0  0.71733965698E+00  0.66200912484E+00  0.66339740017E+00  0.11802238666E+01  0.00000000000E+00 0.  1.
         11    1    3    3    0    0  0.26176469348E+01  0.51025366915E+01 -0.53630175510E+01  0.78517458999E+01  0.51100000000E-03 0. -1.
        -11    1    3    3    0    0  0.25711002169E+02  0.27594321097E+02  0.43281975487E+00  0.37718556740E+02  0.51100000000E-03 0.  1.
         12    1    3    3    0    0 -0.29045988761E+02 -0.33358866914E+02  0.42668003959E+01  0.44437473493E+02  0.00000000000E+00 0. -1.
</event>
<event>
 7    1  0.2232484E-015  0.9000770E+02  0.7816164E-02  0.1186339E+00
        -11   -1    0    0    0    0  0.00000000000E+00  0.00000000000E+00  0.45593999997E+02  0.45594000000E+02  0.51100000000E-03 0.  1.
         11   -1    0    0    0    0 -0.00000000000E+00 -0.00000000000E+00 -0.45593999997E+02  0.45594000000E+02  0.51100000000E-03 0. -1.
    9900012    2    1    2    0    0  0.75915542557E+00 -0.40011957028E+00 -0.81036137507E+00  0.90007704194E+02  0.89999965090E+02 0.  0.
        -12    1    1    2    0    0 -0.75915542557E+00  0.40011957028E+00  0.81036137507E+00  0.11802958057E+01  0.00000000000E+00 0.  1.
         11    1    3    3    0    0 -0.96641402020E+01  0.10222931215E+02 -0.39478807568E+02  0.41910382672E+02  0.51100000000E-03 0. -1.
        -11    1    3    3    0    0 -0.51271274715E+01 -0.55221905700E+01  0.17818427847E+01  0.77431898317E+01  0.51100000000E-03 0.  1.
        -12    1    3    3    0    0  0.15550423099E+02 -0.51008602157E+01  0.36886603408E+02  0.40354131690E+02  0.00000000000E+00 0.  1.
</event>
<event>
 7    1  0.2232484E-015  0.9000736E+02  0.7816164E-02  0.1186340E+00
        -11   -1    0    0    0    0  0.00000000000E+00  0.00000000000E+00  0.45593999997E+02  0.45594000000E+02  0.51100000000E-03 0. -1.
         11   -1    0    0    0    0 -0.00000000000E+00 -0.00000000000E+00 -0.45593999997E+02  0.45594000000E+02  0.51100000000E-03 0.  1.
    9900012    2    1    2    0    0  0.11039444167E+01  0.32458415842E+00  0.26429583683E+00  0.90007364391E+02  0.89999620801E+02 0.  0.
        -12    1    1    2    0    0 -0.11039444167E+01 -0.32458415842E+00 -0.26429583683E+00  0.11806356087E+01  0.00000000000E+00 0.  1.
         11    1    3    3    0    0 -0.12417939887E+02  0.28237069362E+02 -0.19904166845E+02  0.36711213209E+02  0.51100000000E-03 0. -1.
        -11    1    3    3    0    0 -0.12083008570E+02 -0.23767685922E+01  0.96679699580E+00  0.12352441934E+02  0.51100000000E-03 0.  1.
        -12    1    3    3    0    0  0.25604892874E+02 -0.25535716612E+02  0.19201665686E+02  0.40943709249E+02  0.00000000000E+00 0.  1.
</event>
<event>
 7    1  0.2232484E-015  0.9000770E+02  0.7816164E-02  0.1186339E+00
        -11   -1    0    0    0    0  0.00000000000E+00  0.00000000000E+00  0.45593999997E+02  0.45594000000E+02  0.51100000000E-03 0. -1.
         11   -1    0    0    0    0 -0.00000000000E+00 -0.00000000000E+00 -0.45593999997E+02  0.45594000000E+02  0.51100000000E-03 0.  1.
    9900012    2    1    2    0    0  0.94668401388E+00  0.50751895897E-01  0.70308231341E+00  0.90007698718E+02  0.89999959541E+02 0.  0.
        -12    1    1    2    0    0 -0.94668401388E+00 -0.50751895897E-01 -0.70308231341E+00  0.11803012821E+01  0.00000000000E+00 0.  1.
         11    1    3    3    0    0 -0.17109025985E+02  0.15883958732E+02  0.10259679434E+02  0.25500587003E+02  0.51100000000E-03 0. -1.
        -11    1    3    3    0    0 -0.12044414787E+02  0.15517383044E+02 -0.74050937984E+01  0.20992677736E+02  0.51100000000E-03 0.  1.
         12    1    3    3    0    0  0.30100124786E+02 -0.31350589880E+02 -0.21515033223E+01  0.43514433979E+02  0.00000000000E+00 0. -1.
</event>
<event>
 7    1  0.2232484E-015  0.9000835E+02  0.7816164E-02  0.1186338E+00
        -11   -1    0    0    0    0  0.00000000000E+00  0.00000000000E+00  0.45593999997E+02  0.45594000000E+02  0.51100000000E-03 0. -1.
         11   -1    0    0    0    0 -0.00000000000E+00 -0.00000000000E+00 -0.45593999997E+02  0.45594000000E+02  0.51100000000E-03 0.  1.
    9900012    2    1    2    0    0 -0.50894502115E+00  0.10322331731E+01 -0.25892652861E+00  0.90008350346E+02  0.90000619769E+02 0.  0.
        -12    1    1    2    0    0  0.50894502115E+00 -0.10322331731E+01  0.25892652861E+00  0.11796496537E+01  0.00000000000E+00 0.  1.
         11    1    3    3    0    0 -0.32855750684E+01 -0.43195848336E+01 -0.68495302994E+01  0.87389863398E+01  0.51100000000E-03 0. -1.
        -11    1    3    3    0    0 -0.34851727048E+02  0.17731676316E+02 -0.63102006440E+01  0.39609012303E+02  0.51100000000E-03 0.  1.
         12    1    3    3    0    0  0.37628357096E+02 -0.12379858309E+02  0.12900804415E+02  0.41660351703E+02  0.00000000000E+00 0. -1.
</event>
<event>
 7    1  0.2232484E-015  0.9000774E+02  0.7816164E-02  0.1186339E+00
        -11   -1    0    0    0    0  0.00000000000E+00  0.00000000000E+00  0.45593999997E+02  0.45594000000E+02  0.51100000000E-03 0. -1.
         11   -1    0    0    0    0 -0.00000000000E+00 -0.00000000000E+00 -0.45593999997E+02  0.45594000000E+02  0.51100000000E-03 0.  1.
    9900012    2    1    2    0    0 -0.95349138683E+00  0.28859755847E+00  0.63291642333E+00  0.90007738345E+02  0.89999999691E+02 0.  0.
        -12    1    1    2    0    0  0.95349138683E+00 -0.28859755847E+00 -0.63291642333E+00  0.11802616551E+01  0.00000000000E+00 0.  1.
         11    1    3    3    0    0 -0.34783716625E+02  0.11153223177E+02  0.13465381234E+02  0.38930936561E+02  0.51100000000E-03 0. -1.
        -11    1    3    3    0    0 -0.31185130098E+01 -0.11011526774E+02 -0.76503527777E+01  0.13766144818E+02  0.51100000000E-03 0.  1.
        -12    1    3    3    0    0  0.36948738248E+02  0.14690115495E+00 -0.51821120330E+01  0.37310656965E+02  0.00000000000E+00 0.  1.
</event>
<event>
 7    1  0.2232484E-015  0.9000760E+02  0.7816164E-02  0.1186339E+00
        -11   -1    0    0    0    0  0.00000000000E+00  0.00000000000E+00  0.45593999997E+02  0.45594000000E+02  0.51100000000E-03 0.  1.
         11   -1    0    0    0    0 -0.00000000000E+00 -0.00000000000E+00 -0.45593999997E+02  0.45594000000E+02  0.51100000000E-03 0. -1.
    9900012    2    1    2    0    0 -0.83084480499E-01  0.26054337498E+00 -0.11482857173E+01  0.90007599233E+02  0.89999858743E+02 0.  0.
        -12    1    1    2    0    0  0.83084480499E-01 -0.26054337498E+00  0.11482857173E+01  0.11804007665E+01  0.00000000000E+00 0.  1.
         11    1    3    3    0    0  0.20958343609E+02  0.16318512790E+02 -0.24385909719E+02  0.36058544335E+02  0.51100000000E-03 0. -1.
        -11    1    3    3    0    0 -0.11218499656E+01  0.90768428653E+01 -0.56798623148E+01  0.10766079134E+02  0.51100000000E-03 0.  1.
        -12    1    3    3    0    0 -0.19919578124E+02 -0.25134812281E+02  0.28917486316E+02  0.43182975764E+02  0.00000000000E+00 0.  1.
</event>
<event>
 7    1  0.2232484E-015  0.9000772E+02  0.7816164E-02  0.1186339E+00
        -11   -1    0    0    0    0  0.00000000000E+00  0.00000000000E+00  0.45593999997E+02  0.45594000000E+02  0.51100000000E-03 0. -1.
         11   -1    0    0    0    0 -0.00000000000E+00 -0.00000000000E+00 -0.45593999997E+02  0.45594000000E+02  0.51100000000E-03 0.  1.
    9900012    2    1    2    0    0  0.17773740897E+00 -0.71993515526E+00  0.91824333369E+00  0.90007716969E+02  0.89999978033E+02 0.  0.
        -12    1    1    2    0    0 -0.17773740897E+00  0.71993515526E+00 -0.91824333369E+00  0.11802830314E+01  0.00000000000E+00 0.  1.
         11    1    3    3    0    0 -0.74160761477E+01  0.19540377243E+01 -0.76560195858E+01  0.10836562417E+02  0.51100000000E-03 0. -1.
        -11    1    3    3    0    0 -0.27728427272E+02 -0.23530912319E+02  0.11239231406E+02  0.38064285576E+02  0.51100000000E-03 0.  1.
         12    1    3    3    0    0  0.35322240829E+02  0.20856939440E+02 -0.26649684864E+01  0.41106868976E+02  0.00000000000E+00 0. -1.
</event>
<event>
 7    1  0.2232484E-015  0.9000768E+02  0.7816164E-02  0.1186339E+00
        -11   -1    0    0    0    0  0.00000000000E+00  0.00000000000E+00  0.45593999997E+02  0.45594000000E+02  0.51100000000E-03 0. -1.
         11   -1    0    0    0    0 -0.00000000000E+00 -0.00000000000E+00 -0.45593999997E+02  0.45594000000E+02  0.51100000000E-03 0.  1.
    9900012    2    1    2    0    0 -0.80276667599E+00  0.59093613141E-01  0.86326672208E+00  0.90007679779E+02  0.89999940352E+02 0.  0.
        -12    1    1    2    0    0  0.80276667599E+00 -0.59093613141E-01 -0.86326672208E+00  0.11803202212E+01  0.00000000000E+00 0.  1.
         11    1    3    3    0    0 -0.12320094565E+01 -0.89647085577E+01  0.35116669325E+01  0.97064747325E+01  0.51100000000E-03 0. -1.
        -11    1    3    3    0    0  0.15187877221E+01  0.27310547230E+02  0.31396656198E+02  0.41640397775E+02  0.51100000000E-03 0.  1.
         12    1    3    3    0    0 -0.10895449416E+01 -0.18286745060E+02 -0.34045056408E+02  0.38660807272E+02  0.00000000000E+00 0. -1.
</event>
<event>
 7    1  0.2353678E-015  0.9000796E+02  0.7816164E-02  0.1186339E+00
        -11   -1    0    0    0    0  0.00000000000E+00  0.00000000000E+00  0.45593999997E+02  0.45594000000E+02  0.51100000000E-03 0. -1.
         11   -1    0    0    0    0 -0.00000000000E+00 -0.00000000000E+00 -0.45593999997E+02  0.45594000000E+02  0.51100000000E-03 0.  1.
    9900012    2    1    2    0    0 -0.59230281717E+00  0.10193407760E+01  0.51063933626E-01  0.90007963657E+02  0.90000227977E+02 0.  0.
        -12    1    1    2    0    0  0.59230281717E+00 -0.10193407760E+01 -0.51063933626E-01  0.11800363427E+01  0.00000000000E+00 0.  1.
         11    1    3    3    0    0 -0.38870240851E+01 -0.46687330162E+01  0.76345119906E+01  0.97566284038E+01  0.51100000000E-03 0. -1.
        -11    1    3    3    0    0  0.37361650958E+02 -0.11965910063E+02 -0.13372540479E+02  0.41447566938E+02  0.51100000000E-03 0.  1.
         12    1    3    3    0    0 -0.34066929690E+02  0.17653983855E+02  0.57890924219E+01  0.38803768316E+02  0.00000000000E+00 0. -1.
</event>
<event>
 7    1  0.2232484E-015  0.9000776E+02  0.7816164E-02  0.1186339E+00
        -11   -1    0    0    0    0  0.00000000000E+00  0.00000000000E+00  0.45593999997E+02  0.45594000000E+02  0.51100000000E-03 0. -1.
         11   -1    0    0    0    0 -0.00000000000E+00 -0.00000000000E+00 -0.45593999997E+02  0.45594000000E+02  0.51100000000E-03 0.  1.
    9900012    2    1    2    0    0 -0.11529691548E+01 -0.10284702698E+00 -0.23032444457E+00  0.90007760731E+02  0.90000022372E+02 0.  0.
        -12    1    1    2    0    0  0.11529691548E+01  0.10284702698E+00  0.23032444457E+00  0.11802392692E+01  0.00000000000E+00 0.  1.
         11    1    3    3    0    0 -0.27449042371E+02 -0.32971615983E+00 -0.23652822939E+02  0.36235544332E+02  0.51100000000E-03 0. -1.
        -11    1    3    3    0    0 -0.51065752496E+01  0.52699727621E+01 -0.67219454102E+01  0.99515965580E+01  0.51100000000E-03 0.  1.
        -12    1    3    3    0    0  0.31402648466E+02 -0.50431036293E+01  0.30144443905E+02  0.43820619840E+02  0.00000000000E+00 0.  1.
</event>
<event>
 7    1  0.2232484E-015  0.9000784E+02  0.7816164E-02  0.1186339E+00
        -11   -1    0    0    0    0  0.00000000000E+00  0.00000000000E+00  0.45593999997E+02  0.45594000000E+02  0.51100000000E-03 0.  1.
         11   -1    0    0    0    0 -0.00000000000E+00 -0.00000000000E+00 -0.45593999997E+02  0.45594000000E+02  0.51100000000E-03 0. -1.
    9900012    2    1    2    0    0  0.10753772730E+01  0.32376351746E+00  0.36263887278E+00  0.90007844906E+02  0.90000107658E+02 0.  0.
        -12    1    1    2    0    0 -0.10753772730E+01 -0.32376351746E+00 -0.36263887278E+00  0.11801550943E+01  0.00000000000E+00 0.  1.
         11    1    3    3    0    0 -0.74573027608E+01 -0.13513317136E+01 -0.50751657867E+01  0.91211167019E+01  0.51100000000E-03 0. -1.
        -11    1    3    3    0    0 -0.11468330814E+02  0.34524945400E+02 -0.12475985386E+02  0.38459650000E+02  0.51100000000E-03 0.  1.
         12    1    3    3    0    0  0.20001010848E+02 -0.32849850169E+02  0.17913790046E+02  0.42427078203E+02  0.00000000000E+00 0. -1.
</event>
<event>
 7    1  0.2232484E-015  0.9000773E+02  0.7816164E-02  0.1186339E+00
        -11   -1    0    0    0    0  0.00000000000E+00  0.00000000000E+00  0.45593999997E+02  0.45594000000E+02  0.51100000000E-03 0. -1.
         11   -1    0    0    0    0 -0.00000000000E+00 -0.00000000000E+00 -0.45593999997E+02  0.45594000000E+02  0.51100000000E-03 0.  1.
    9900012    2    1    2    0    0 -0.10559552872E+01 -0.43987661303E+00 -0.29070840587E+00  0.90007726989E+02  0.89999988185E+02 0.  0.
        -12    1    1    2    0    0  0.10559552872E+01  0.43987661303E+00  0.29070840587E+00  0.11802730110E+01  0.00000000000E+00 0.  1.
         11    1    3    3    0    0  0.19433861951E+02 -0.21546605604E+01  0.29380506838E+02  0.35292091674E+02  0.51100000000E-03 0. -1.
        -11    1    3    3    0    0  0.81170221991E+01  0.37958124584E+01  0.45616677067E+01  0.10055001448E+02  0.51100000000E-03 0.  1.
        -12    1    3    3    0    0 -0.28606839437E+02 -0.20810285110E+01 -0.34232882950E+02  0.44660633866E+02  0.00000000000E+00 0.  1.
</event>
<event>
 7    1  0.2232484E-015  0.9000766E+02  0.7816164E-02  0.1186339E+00
        -11   -1    0    0    0    0  0.00000000000E+00  0.00000000000E+00  0.45593999997E+02  0.45594000000E+02  0.51100000000E-03 0. -1.
         11   -1    0    0    0    0 -0.00000000000E+00 -0.00000000000E+00 -0.45593999997E+02  0.45594000000E+02  0.51100000000E-03 0.  1.
    9900012    2    1    2    0    0  0.13028529915E+00  0.97081338467E+00  0.65859654753E+00  0.90007660092E+02  0.89999920405E+02 0.  0.
        -12    1    1    2    0    0 -0.13028529915E+00 -0.97081338467E+00 -0.65859654753E+00  0.11803399084E+01  0.00000000000E+00 0.  1.
         11    1    3    3    0    0  0.69018811782E+01 -0.11309419786E+02  0.52880378179E+01  0.14265422669E+02  0.51100000000E-03 0. -1.
        -11    1    3    3    0    0  0.68602113694E+01 -0.13285491884E+02 -0.32353609970E+02  0.35641589092E+02  0.51100000000E-03 0.  1.
         12    1    3    3    0    0 -0.13631807248E+02  0.25565725055E+02  0.27724168700E+02  0.40100648331E+02  0.00000000000E+00 0. -1.
</event>
<event>
 7    1  0.2232484E-015  0.9000773E+02  0.7816164E-02  0.1186339E+00
        -11   -1    0    0    0    0  0.00000000000E+00  0.00000000000E+00  0.45593999997E+02  0.45594000000E+02  0.51100000000E-03 0.  1.
         11   -1    0    0    0    0 -0.00000000000E+00 -0.00000000000E+00 -0.45593999997E+02  0.45594000000E+02  0.51100000000E-03 0. -1.
    9900012    2    1    2    0    0  0.80470538734E-01  0.68095387025E+00 -0.96066076084E+00  0.90007727668E+02  0.89999988873E+02 0.  0.
        -12    1    1    2    0    0 -0.80470538734E-01 -0.68095387025E+00  0.96066076084E+00  0.11802723323E+01  0.00000000000E+00 0.  1.
         11    1    3    3    0    0  0.22961430412E+02 -0.24737940187E+02  0.20941880674E+02  0.39720968489E+02  0.51100000000E-03 0. -1.
        -11    1    3    3    0    0  0.49746653466E+01  0.13627915186E+02 -0.36557506935E+01  0.14961012032E+02  0.51100000000E-03 0.  1.
        -12    1    3    3    0    0 -0.27855625220E+02  0.11790978871E+02 -0.18246790741E+02  0.35325747147E+02  0.00000000000E+00 0.  1.
</event>
<event>
 7    1  0.2232484E-015  0.9000774E+02  0.7816164E-02  0.1186339E+00
        -11   -1    0    0    0    0  0.00000000000E+00  0.00000000000E+00  0.45593999997E+02  0.45594000000E+02  0.51100000000E-03 0. -1.
         11   -1    0    0    0    0 -0.00000000000E+00 -0.00000000000E+00 -0.45593999997E+02  0.45594000000E+02  0.51100000000E-03 0.  1.
    9900012    2    1    2    0    0  0.37205280678E+00  0.10288965574E+01 -0.44268388794E+00  0.90007737130E+02  0.89999998460E+02 0.  0.
        -12    1    1    2    0    0 -0.37205280678E+00 -0.10288965574E+01  0.44268388794E+00  0.11802628696E+01  0.00000000000E+00 0.  1.
         11    1    3    3    0    0 -0.31878256593E+02  0.18967403495E+02  0.23554203128E+02  0.43940711464E+02  0.51100000000E-03 0. -1.
        -11    1    3    3    0    0  0.10584127425E+02 -0.96129287516E+01 -0.26682445778E+01  0.14544816325E+02  0.51100000000E-03 0.  1.
        -12    1    3    3    0    0  0.21666181975E+02 -0.83255781859E+01 -0.21328642438E+02  0.31522209341E+02  0.00000000000E+00 0.  1.
</event>
<event>
 7    1  0.2232484E-015  0.9000775E+02  0.7816164E-02  0.1186339E+00
        -11   -1    0    0    0    0  0.00000000000E+00  0.00000000000E+00  0.45593999997E+02  0.45594000000E+02  0.51100000000E-03 0.  1.
         11   -1    0    0    0    0 -0.00000000000E+00 -0.00000000000E+00 -0.45593999997E+02  0.45594000000E+02  0.51100000000E-03 0. -1.
    9900012    2    1    2    0    0  0.11238281535E+00 -0.11724754546E+01 -0.75188001748E-01  0.90007753490E+02  0.90000015036E+02 0.  0.
        -12    1    1    2    0    0 -0.11238281535E+00  0.11724754546E+01  0.75188001748E-01  0.11802465100E+01  0.00000000000E+00 0.  1.
         11    1    3    3    0    0 -0.16896183576E+02 -0.17192610722E+02 -0.30186502742E+02  0.38630193255E+02  0.51100000000E-03 0. -1.
        -11    1    3    3    0    0  0.32826376090E+01  0.71930690916E+01 -0.71746503054E+01  0.10676683001E+02  0.51100000000E-03 0.  1.
        -12    1    3    3    0    0  0.13725928782E+02  0.88270661763E+01  0.37285965046E+02  0.40700877234E+02  0.00000000000E+00 0.  1.
</event>
<event>
 7    1  0.2232484E-015  0.9000759E+02  0.7816164E-02  0.1186339E+00
        -11   -1    0    0    0    0  0.00000000000E+00  0.00000000000E+00  0.45593999997E+02  0.45594000000E+02  0.51100000000E-03 0.  1.
         11   -1    0    0    0    0 -0.00000000000E+00 -0.00000000000E+00 -0.45593999997E+02  0.45594000000E+02  0.51100000000E-03 0. -1.
    9900012    2    1    2    0    0  0.10548789850E+00 -0.48473356060E+00 -0.10711037308E+01  0.90007594339E+02  0.89999853785E+02 0.  0.
        -12    1    1    2    0    0 -0.10548789850E+00  0.48473356060E+00  0.10711037308E+01  0.11804056606E+01  0.00000000000E+00 0.  1.
         11    1    3    3    0    0 -0.16232929959E+02  0.12441652964E+02 -0.34822674559E+02  0.40384667972E+02  0.51100000000E-03 0. -1.
        -11    1    3    3    0    0 -0.54791595131E+01 -0.69289458133E+01 -0.18426665133E+00  0.88354645329E+01  0.51100000000E-03 0.  1.
        -12    1    3    3    0    0  0.21817577371E+02 -0.59974407118E+01  0.33935837479E+02  0.40787461834E+02  0.00000000000E+00 0.  1.
</event>
<event>
 7    1  0.2232484E-015  0.9000770E+02  0.7816164E-02  0.1186339E+00
        -11   -1    0    0    0    0  0.00000000000E+00  0.00000000000E+00  0.45593999997E+02  0.45594000000E+02  0.51100000000E-03 0. -1.
         11   -1    0    0    0    0 -0.00000000000E+00 -0.00000000000E+00 -0.45593999997E+02  0.45594000000E+02  0.51100000000E-03 0.  1.
    9900012    2    1    2    0    0  0.82831925428E+00  0.82248180501E+00  0.17466399959E+00  0.90007704859E+02  0.89999965763E+02 0.  0.
        -12    1    1    2    0    0 -0.82831925428E+00 -0.82248180501E+00 -0.17466399959E+00  0.11802951408E+01  0.00000000000E+00 0.  1.
         11    1    3    3    0    0  0.41588577892E+01 -0.40342727938E+02  0.18337337033E+01  0.40597960234E+02  0.51100000000E-03 0. -1.
        -11    1    3    3    0    0  0.61702203772E+01  0.29517689247E+01 -0.68643482205E+01  0.96903991684E+01  0.51100000000E-03 0.  1.
        -12    1    3    3    0    0 -0.95007589122E+01  0.38213440818E+02  0.52052785168E+01  0.39719345457E+02  0.00000000000E+00 0.  1.
</event>
<event>
 7    1  0.2232484E-015  0.9000772E+02  0.7816164E-02  0.1186339E+00
        -11   -1    0    0    0    0  0.00000000000E+00  0.00000000000E+00  0.45593999997E+02  0.45594000000E+02  0.51100000000E-03 0.  1.
         11   -1    0    0    0    0 -0.00000000000E+00 -0.00000000000E+00 -0.45593999997E+02  0.45594000000E+02  0.51100000000E-03 0. -1.
    9900012    2    1    2    0    0 -0.86480447795E+00  0.48460812854E-01 -0.80175771025E+00  0.90007724328E+02  0.89999985489E+02 0.  0.
        -12    1    1    2    0    0  0.86480447795E+00 -0.48460812854E-01  0.80175771025E+00  0.11802756718E+01  0.00000000000E+00 0.  1.
         11    1    3    3    0    0 -0.24490270838E+02 -0.16743980330E+01  0.50656196768E+01  0.25064665916E+02  0.51100000000E-03 0. -1.
        -11    1    3    3    0    0 -0.15988580370E+02  0.98314852584E+01  0.10282897702E+02  0.21401653910E+02  0.51100000000E-03 0.  1.
        -12    1    3    3    0    0  0.39614046730E+02 -0.81086264126E+01 -0.16150275089E+02  0.43541404503E+02  0.00000000000E+00 0.  1.
</event>
<event>
 7    1  0.2232484E-015  0.9000783E+02  0.7816164E-02  0.1186339E+00
        -11   -1    0    0    0    0  0.00000000000E+00  0.00000000000E+00  0.45593999997E+02  0.45594000000E+02  0.51100000000E-03 0.  1.
         11   -1    0    0    0    0 -0.00000000000E+00 -0.00000000000E+00 -0.45593999997E+02  0.45594000000E+02  0.51100000000E-03 0. -1.
    9900012    2    1    2    0    0 -0.73361790310E-01  0.11717042949E+01 -0.12051686167E+00  0.90007831698E+02  0.90000094276E+02 0.  0.
        -12    1    1    2    0    0  0.73361790310E-01 -0.11717042949E+01  0.12051686167E+00  0.11801683019E+01  0.00000000000E+00 0.  1.
         11    1    3    3    0    0 -0.55836430628E+01  0.99263295533E+01 -0.31112679247E+00  0.11393238714E+02  0.51100000000E-03 0. -1.
        -11    1    3    3    0    0  0.13694084735E+02  0.15850184101E+02  0.31583037778E+02  0.37897817462E+02  0.51100000000E-03 0.  1.
         12    1    3    3    0    0 -0.81838034630E+01 -0.24604809360E+02 -0.31392427848E+02  0.40716775522E+02  0.00000000000E+00 0. -1.
</event>
<event>
 7    1  0.2232484E-015  0.9000785E+02  0.7816164E-02  0.1186339E+00
        -11   -1    0    0    0    0  0.00000000000E+00  0.00000000000E+00  0.45593999997E+02  0.45594000000E+02  0.51100000000E-03 0.  1.
         11   -1    0    0    0    0 -0.00000000000E+00 -0.00000000000E+00 -0.45593999997E+02  0.45594000000E+02  0.51100000000E-03 0. -1.
    9900012    2    1    2    0    0 -0.10676144495E-01  0.73889454752E+00 -0.92014740234E+00  0.90007851546E+02  0.90000114386E+02 0.  0.
        -12    1    1    2    0    0  0.10676144495E-01 -0.73889454752E+00  0.92014740234E+00  0.11801484544E+01  0.00000000000E+00 0.  1.
         11    1    3    3    0    0 -0.39505659851E+02 -0.46808280139E+01  0.10349642144E+01  0.39795457811E+02  0.51100000000E-03 0. -1.
        -11    1    3    3    0    0  0.79115526135E+01 -0.10088540001E+02 -0.70957356427E+01  0.14653353496E+02  0.51100000000E-03 0.  1.
        -12    1    3    3    0    0  0.31583431093E+02  0.15508262563E+02  0.51406240259E+01  0.35559040239E+02  0.00000000000E+00 0.  1.
</event>
<event>
 7    1  0.2232484E-015  0.9000769E+02  0.7816164E-02  0.1186339E+00
        -11   -1    0    0    0    0  0.00000000000E+00  0.00000000000E+00  0.45593999997E+02  0.45594000000E+02  0.51100000000E-03 0.  1.
         11   -1    0    0    0    0 -0.00000000000E+00 -0.00000000000E+00 -0.45593999997E+02  0.45594000000E+02  0.51100000000E-03 0. -1.
    9900012    2    1    2    0    0 -0.61603837162E+00  0.98890048560E+00  0.18896665108E+00  0.90007688244E+02  0.89999948929E+02 0.  0.
        -12    1    1    2    0    0  0.61603837162E+00 -0.98890048560E+00 -0.18896665108E+00  0.11803117558E+01  0.00000000000E+00 0.  1.
         11    1    3    3    0    0  0.20053861988E+02  0.28644792815E+02 -0.11194619212E+02  0.36715133605E+02  0.51100000000E-03 0. -1.
        -11    1    3    3    0    0  0.63302216711E+01  0.55476275792E+01 -0.16057671916E+01  0.85689186423E+01  0.51100000000E-03 0.  1.
        -12    1    3    3    0    0 -0.27000122031E+02 -0.33203519909E+02  0.12989353055E+02  0.44723635997E+02  0.00000000000E+00 0.  1.
</event>
<event>
 7    1  0.2232484E-015  0.9000778E+02  0.7816164E-02  0.1186339E+00
        -11   -1    0    0    0    0  0.00000000000E+00  0.00000000000E+00  0.45593999997E+02  0.45594000000E+02  0.51100000000E-03 0.  1.
         11   -1    0    0    0    0 -0.00000000000E+00 -0.00000000000E+00 -0.45593999997E+02  0.45594000000E+02  0.51100000000E-03 0. -1.
    9900012    2    1    2    0    0  0.10628958956E+01  0.20728379206E-01  0.51258675879E+00  0.90007778607E+02  0.90000040485E+02 0.  0.
        -12    1    1    2    0    0 -0.10628958956E+01 -0.20728379206E-01 -0.51258675879E+00  0.11802213927E+01  0.00000000000E+00 0.  1.
         11    1    3    3    0    0  0.89568485671E+01 -0.10543097211E+02  0.47718240980E+00  0.13842316944E+02  0.51100000000E-03 0. -1.
        -11    1    3    3    0    0  0.23485707018E+02 -0.16557676965E+02  0.14567646393E+02  0.32217253488E+02  0.51100000000E-03 0.  1.
         12    1    3    3    0    0 -0.31379659689E+02  0.27121502555E+02 -0.14532242044E+02  0.43948208176E+02  0.00000000000E+00 0. -1.
</event>
<event>
 7    1  0.2232484E-015  0.9000733E+02  0.7816164E-02  0.1186340E+00
        -11   -1    0    0    0    0  0.00000000000E+00  0.00000000000E+00  0.45593999997E+02  0.45594000000E+02  0.51100000000E-03 0.  1.
         11   -1    0    0    0    0 -0.00000000000E+00 -0.00000000000E+00 -0.45593999997E+02  0.45594000000E+02  0.51100000000E-03 0. -1.
    9900012    2    1    2    0    0 -0.10792240900E+01  0.18536524471E+00 -0.44148127136E+00  0.90007326199E+02  0.89999582104E+02 0.  0.
        -12    1    1    2    0    0  0.10792240900E+01 -0.18536524471E+00  0.44148127136E+00  0.11806738006E+01  0.00000000000E+00 0.  1.
         11    1    3    3    0    0  0.87496350129E+01  0.42625442243E-01 -0.65007057962E+01  0.10900325954E+02  0.51100000000E-03 0. -1.
        -11    1    3    3    0    0 -0.59754728661E+01  0.21312409657E+02  0.35985590363E+02  0.42247932440E+02  0.51100000000E-03 0.  1.
         12    1    3    3    0    0 -0.38533862368E+01 -0.21169669855E+02 -0.29926365838E+02  0.36859067806E+02  0.00000000000E+00 0. -1.
</event>
<event>
 7    1  0.2232484E-015  0.9000775E+02  0.7816164E-02  0.1186339E+00
        -11   -1    0    0    0    0  0.00000000000E+00  0.00000000000E+00  0.45593999997E+02  0.45594000000E+02  0.51100000000E-03 0. -1.
         11   -1    0    0    0    0 -0.00000000000E+00 -0.00000000000E+00 -0.45593999997E+02  0.45594000000E+02  0.51100000000E-03 0.  1.
    9900012    2    1    2    0    0  0.14740104093E+00 -0.95680228492E+00 -0.67513251823E+00  0.90007745114E+02  0.90000006549E+02 0.  0.
        -12    1    1    2    0    0 -0.14740104093E+00  0.95680228492E+00  0.67513251823E+00  0.11802548862E+01  0.00000000000E+00 0.  1.
         11    1    3    3    0    0 -0.18849247997E+02 -0.31618060782E+02 -0.22526265215E+02  0.43155863361E+02  0.51100000000E-03 0. -1.
        -11    1    3    3    0    0  0.56940306870E+01 -0.12145858293E+01  0.73865022189E+01  0.94051910928E+01  0.51100000000E-03 0.  1.
        -12    1    3    3    0    0  0.13302618351E+02  0.31875844327E+02  0.14464630477E+02  0.37446690660E+02  0.00000000000E+00 0.  1.
</event>
<event>
 7    1  0.2232484E-015  0.9000678E+02  0.7816164E-02  0.1186341E+00
        -11   -1    0    0    0    0  0.00000000000E+00  0.00000000000E+00  0.45593999997E+02  0.45594000000E+02  0.51100000000E-03 0. -1.
         11   -1    0    0    0    0 -0.00000000000E+00 -0.00000000000E+00 -0.45593999997E+02  0.45594000000E+02  0.51100000000E-03 0.  1.
    9900012    2    1    2    0    0 -0.10855085693E+01 -0.51414217826E-01  0.46293075407E+00  0.90006781494E+02  0.89999030205E+02 0.  0.
        -12    1    1    2    0    0  0.10855085693E+01  0.51414217826E-01 -0.46293075407E+00  0.11812185060E+01  0.00000000000E+00 0.  1.
         11    1    3    3    0    0  0.71534482894E+01 -0.75436391779E+01  0.15783654555E+02  0.18899790100E+02  0.51100000000E-03 0. -1.
        -11    1    3    3    0    0  0.66808776778E+01  0.52361102118E+01 -0.40702730499E+02  0.41578398803E+02  0.51100000000E-03 0.  1.
         12    1    3    3    0    0 -0.14919834536E+02  0.22561147483E+01  0.25382006698E+02  0.29528592591E+02  0.00000000000E+00 0. -1.
</event>
<event>
 7    1  0.2232484E-015  0.9000776E+02  0.7816164E-02  0.1186339E+00
        -11   -1    0    0    0    0  0.00000000000E+00  0.00000000000E+00  0.45593999997E+02  0.45594000000E+02  0.51100000000E-03 0. -1.
         11   -1    0    0    0    0 -0.00000000000E+00 -0.00000000000E+00 -0.45593999997E+02  0.45594000000E+02  0.51100000000E-03 0.  1.
    9900012    2    1    2    0    0 -0.11470020344E+01 -0.14117625971E-01 -0.27776924599E+00  0.90007759038E+02  0.90000020657E+02 0.  0.
        -12    1    1    2    0    0  0.11470020344E+01  0.14117625971E-01  0.27776924599E+00  0.11802409620E+01  0.00000000000E+00 0.  1.
         11    1    3    3    0    0  0.26881794500E+01 -0.39085859207E+00 -0.53772281710E+01  0.60244221514E+01  0.51100000000E-03 0. -1.
        -11    1    3    3    0    0 -0.35554849579E+00 -0.41330657777E+02 -0.26604711116E+01  0.41417723185E+02  0.51100000000E-03 0.  1.
         12    1    3    3    0    0 -0.34796329886E+01  0.41707398743E+02  0.77599300367E+01  0.42565613702E+02  0.00000000000E+00 0. -1.
</event>
<event>
 7    1  0.2232484E-015  0.9000767E+02  0.7816164E-02  0.1186339E+00
        -11   -1    0    0    0    0  0.00000000000E+00  0.00000000000E+00  0.45593999997E+02  0.45594000000E+02  0.51100000000E-03 0.  1.
         11   -1    0    0    0    0 -0.00000000000E+00 -0.00000000000E+00 -0.45593999997E+02  0.45594000000E+02  0.51100000000E-03 0. -1.
    9900012    2    1    2    0    0 -0.11756861182E+01 -0.10174585566E+00 -0.24494641683E-01  0.90007665278E+02  0.89999925660E+02 0.  0.
        -12    1    1    2    0    0  0.11756861182E+01  0.10174585566E+00  0.24494641683E-01  0.11803347216E+01  0.00000000000E+00 0.  1.
         11    1    3    3    0    0  0.29500141610E+02 -0.83433226034E+01  0.19147833869E+02  0.36145662661E+02  0.51100000000E-03 0. -1.
        -11    1    3    3    0    0 -0.13888396142E+00 -0.37147652827E+01  0.95626208103E+01  0.10259750820E+02  0.51100000000E-03 0.  1.
        -12    1    3    3    0    0 -0.30536943767E+02  0.11956342030E+02 -0.28734949321E+02  0.43602251798E+02  0.00000000000E+00 0.  1.
</event>
<event>
 7    1  0.2232484E-015  0.9000773E+02  0.7816164E-02  0.1186339E+00
        -11   -1    0    0    0    0  0.00000000000E+00  0.00000000000E+00  0.45593999997E+02  0.45594000000E+02  0.51100000000E-03 0. -1.
         11   -1    0    0    0    0 -0.00000000000E+00 -0.00000000000E+00 -0.45593999997E+02  0.45594000000E+02  0.51100000000E-03 0.  1.
    9900012    2    1    2    0    0 -0.38931608830E+00 -0.85569734516E+00  0.71361169121E+00  0.90007734518E+02  0.89999995813E+02 0.  0.
        -12    1    1    2    0    0  0.38931608830E+00  0.85569734516E+00 -0.71361169121E+00  0.11802654824E+01  0.00000000000E+00 0.  1.
         11    1    3    3    0    0 -0.61074169787E+01 -0.64539810965E+00 -0.85205506107E+01  0.10503183510E+02  0.51100000000E-03 0. -1.
        -11    1    3    3    0    0 -0.15200441057E+02  0.24149989168E+02  0.29890708381E+02  0.41324687935E+02  0.51100000000E-03 0.  1.
         12    1    3    3    0    0  0.20918541948E+02 -0.24360288403E+02 -0.20656546079E+02  0.38179863073E+02  0.00000000000E+00 0. -1.
</event>
<event>
 7    1  0.2232484E-015  0.9000780E+02  0.7816164E-02  0.1186339E+00
        -11   -1    0    0    0    0  0.00000000000E+00  0.00000000000E+00  0.45593999997E+02  0.45594000000E+02  0.51100000000E-03 0.  1.
         11   -1    0    0    0    0 -0.00000000000E+00 -0.00000000000E+00 -0.45593999997E+02  0.45594000000E+02  0.51100000000E-03 0. -1.
    9900012    2    1    2    0    0 -0.86433350543E+00 -0.19341286473E+00 -0.77999142446E+00  0.90007801895E+02  0.90000064080E+02 0.  0.
        -12    1    1    2    0    0  0.86433350543E+00  0.19341286473E+00  0.77999142446E+00  0.11801981050E+01  0.00000000000E+00 0.  1.
         11    1    3    3    0    0  0.12942650191E+02 -0.15347858630E+02 -0.15234114824E+02  0.25202127157E+02  0.51100000000E-03 0. -1.
        -11    1    3    3    0    0  0.20928702915E+02  0.26036778653E-01 -0.59706647683E+01  0.21763734093E+02  0.51100000000E-03 0.  1.
         12    1    3    3    0    0 -0.34735686612E+02  0.15128408987E+02  0.20424788167E+02  0.43041940646E+02  0.00000000000E+00 0. -1.
</event>
<event>
 7    1  0.2232484E-015  0.9000771E+02  0.7816164E-02  0.1186339E+00
        -11   -1    0    0    0    0  0.00000000000E+00  0.00000000000E+00  0.45593999997E+02  0.45594000000E+02  0.51100000000E-03 0.  1.
         11   -1    0    0    0    0 -0.00000000000E+00 -0.00000000000E+00 -0.45593999997E+02  0.45594000000E+02  0.51100000000E-03 0. -1.
    9900012    2    1    2    0    0 -0.35647578725E+00 -0.76409053678E+00  0.82593565713E+00  0.90007712304E+02  0.89999973307E+02 0.  0.
        -12    1    1    2    0    0  0.35647578725E+00  0.76409053678E+00 -0.82593565713E+00  0.11802876959E+01  0.00000000000E+00 0.  1.
         11    1    3    3    0    0  0.28893409915E+02  0.57407167676E+01 -0.28231807434E+02  0.40802204803E+02  0.51100000000E-03 0. -1.
        -11    1    3    3    0    0  0.27512924055E+01  0.47451456203E+01  0.63222111724E+01  0.83699684126E+01  0.51100000000E-03 0.  1.
        -12    1    3    3    0    0 -0.32001178107E+02 -0.11249952925E+02  0.22735531919E+02  0.40835539089E+02  0.00000000000E+00 0.  1.
</event>
<event>
 7    1  0.2232484E-015  0.9000773E+02  0.7816164E-02  0.1186339E+00
        -11   -1    0    0    0    0  0.00000000000E+00  0.00000000000E+00  0.45593999997E+02  0.45594000000E+02  0.51100000000E-03 0.  1.
         11   -1    0    0    0    0 -0.00000000000E+00 -0.00000000000E+00 -0.45593999997E+02  0.45594000000E+02  0.51100000000E-03 0. -1.
    9900012    2    1    2    0    0 -0.16164943868E+00  0.95268799201E+00 -0.67771701724E+00  0.90007726597E+02  0.89999987788E+02 0.  0.
        -12    1    1    2    0    0  0.16164943868E+00 -0.95268799201E+00  0.67771701724E+00  0.11802734033E+01  0.00000000000E+00 0.  1.
         11    1    3    3    0    0 -0.26964217221E+02  0.22676005316E+02 -0.51297779343E+01  0.35603157856E+02  0.51100000000E-03 0. -1.
        -11    1    3    3    0    0 -0.33943036835E+01 -0.21762218259E+02  0.91389908261E+01  0.23846102294E+02  0.51100000000E-03 0.  1.
        -12    1    3    3    0    0  0.30196871465E+02  0.38900935559E-01 -0.46869299090E+01  0.30558466446E+02  0.00000000000E+00 0.  1.
</event>
<event>
 7    1  0.2232484E-015  0.9000817E+02  0.7816164E-02  0.1186338E+00
        -11   -1    0    0    0    0  0.00000000000E+00  0.00000000000E+00  0.45593999997E+02  0.45594000000E+02  0.51100000000E-03 0.  1.
         11   -1    0    0    0    0 -0.00000000000E+00 -0.00000000000E+00 -0.45593999997E+02  0.45594000000E+02  0.51100000000E-03 0. -1.
    9900012    2    1    2    0    0 -0.23561125426E+00  0.11531089450E+01 -0.82679860044E-01  0.90008165748E+02  0.90000432735E+02 0.  0.
        -12    1    1    2    0    0  0.23561125426E+00 -0.11531089450E+01  0.82679860044E-01  0.11798342516E+01  0.00000000000E+00 0.  1.
         11    1    3    3    0    0 -0.23253365432E+01 -0.83297430183E+01  0.83473671008E+01  0.12019581797E+02  0.51100000000E-03 0. -1.
        -11    1    3    3    0    0  0.16924034674E+02 -0.30003944575E+01  0.30210020415E+02  0.34757310746E+02  0.51100000000E-03 0.  1.
         12    1    3    3    0    0 -0.14834309385E+02  0.12483246421E+02 -0.38640067376E+02  0.43231273206E+02  0.00000000000E+00 0. -1.
</event>
<event>
 7    1  0.2232484E-015  0.9000789E+02  0.7816164E-02  0.1186339E+00
        -11   -1    0    0    0    0  0.00000000000E+00  0.00000000000E+00  0.45593999997E+02  0.45594000000E+02  0.51100000000E-03 0. -1.
         11   -1    0    0    0    0 -0.00000000000E+00 -0.00000000000E+00 -0.45593999997E+02  0.45594000000E+02  0.51100000000E-03 0.  1.
    9900012    2    1    2    0    0 -0.35931362187E-01 -0.82549602954E+00  0.84256602681E+00  0.90007893112E+02  0.90000156501E+02 0.  0.
        -12    1    1    2    0    0  0.35931362187E-01  0.82549602954E+00 -0.84256602681E+00  0.11801068880E+01  0.00000000000E+00 0.  1.
         11    1    3    3    0    0 -0.70563269233E+01 -0.14769328447E+02  0.38160476538E+01  0.16807350546E+02  0.51100000000E-03 0. -1.
        -11    1    3    3    0    0 -0.23832335216E+02  0.20552152745E+02 -0.20058771755E+02  0.37319237786E+02  0.51100000000E-03 0.  1.
         12    1    3    3    0    0  0.30852730778E+02 -0.66083203277E+01  0.17085290128E+02  0.35881304781E+02  0.00000000000E+00 0. -1.
</event>
<event>
 7    1  0.2232484E-015  0.9000770E+02  0.7816164E-02  0.1186339E+00
        -11   -1    0    0    0    0  0.00000000000E+00  0.00000000000E+00  0.45593999997E+02  0.45594000000E+02  0.51100000000E-03 0. -1.
         11   -1    0    0    0    0 -0.00000000000E+00 -0.00000000000E+00 -0.45593999997E+02  0.45594000000E+02  0.51100000000E-03 0.  1.
    9900012    2    1    2    0    0  0.17921951670E+00  0.25230483592E+00  0.11389993063E+01  0.90007704789E+02  0.89999965692E+02 0.  0.
        -12    1    1    2    0    0 -0.17921951670E+00 -0.25230483592E+00 -0.11389993063E+01  0.11802952110E+01  0.00000000000E+00 0.  1.
         11    1    3    3    0    0 -0.32205061082E+02  0.19289947058E+01 -0.22393362290E+02  0.39272759704E+02  0.51100000000E-03 0. -1.
        -11    1    3    3    0    0 -0.74348893729E+00  0.92501003127E+01  0.13032831711E+01  0.93710020212E+01  0.51100000000E-03 0.  1.
        -12    1    3    3    0    0  0.33127769536E+02 -0.10926790183E+02  0.22229078425E+02  0.41363943064E+02  0.00000000000E+00 0.  1.
</event>
<event>
 7    1  0.2232484E-015  0.9000769E+02  0.7816164E-02  0.1186339E+00
        -11   -1    0    0    0    0  0.00000000000E+00  0.00000000000E+00  0.45593999997E+02  0.45594000000E+02  0.51100000000E-03 0.  1.
         11   -1    0    0    0    0 -0.00000000000E+00 -0.00000000000E+00 -0.45593999997E+02  0.45594000000E+02  0.51100000000E-03 0. -1.
    9900012    2    1    2    0    0 -0.34420598474E+00 -0.72830638588E+00 -0.86268656817E+00  0.90007688149E+02  0.89999948832E+02 0.  0.
        -12    1    1    2    0    0  0.34420598474E+00  0.72830638588E+00  0.86268656817E+00  0.11803118514E+01  0.00000000000E+00 0.  1.
         11    1    3    3    0    0 -0.40363800380E+01  0.17251968439E+00  0.91254037469E+01  0.99797355004E+01  0.51100000000E-03 0. -1.
        -11    1    3    3    0    0  0.29999455981E+02 -0.27498648528E+02  0.19974982466E+01  0.40744730083E+02  0.51100000000E-03 0.  1.
         12    1    3    3    0    0 -0.26307281928E+02  0.26597822458E+02 -0.11985588562E+02  0.39283222565E+02  0.00000000000E+00 0. -1.
</event>
<event>
 7    1  0.2232484E-015  0.9000772E+02  0.7816164E-02  0.1186339E+00
        -11   -1    0    0    0    0  0.00000000000E+00  0.00000000000E+00  0.45593999997E+02  0.45594000000E+02  0.51100000000E-03 0.  1.
         11   -1    0    0    0    0 -0.00000000000E+00 -0.00000000000E+00 -0.45593999997E+02  0.45594000000E+02  0.51100000000E-03 0. -1.
    9900012    2    1    2    0    0 -0.88655789910E+00  0.77419288023E+00 -0.87814461479E-01  0.90007715753E+02  0.89999976801E+02 0.  0.
        -12    1    1    2    0    0  0.88655789910E+00 -0.77419288023E+00  0.87814461479E-01  0.11802842471E+01  0.00000000000E+00 0.  1.
         11    1    3    3    0    0  0.39066476065E+02 -0.14781055217E+00  0.97893204841E+01  0.40274584987E+02  0.51100000000E-03 0. -1.
        -11    1    3    3    0    0 -0.20734404252E+01  0.95849515953E+01 -0.31307068465E+01  0.10294259463E+02  0.51100000000E-03 0.  1.
        -12    1    3    3    0    0 -0.37879593539E+02 -0.86629481629E+01 -0.67464280991E+01  0.39438871302E+02  0.00000000000E+00 0.  1.
</event>
<event>
 7    1  0.2232484E-015  0.9000771E+02  0.7816164E-02  0.1186339E+00
        -11   -1    0    0    0    0  0.00000000000E+00  0.00000000000E+00  0.45593999997E+02  0.45594000000E+02  0.51100000000E-03 0.  1.
         11   -1    0    0    0    0 -0.00000000000E+00 -0.00000000000E+00 -0.45593999997E+02  0.45594000000E+02  0.51100000000E-03 0. -1.
    9900012    2    1    2    0    0 -0.53518655276E+00  0.85820351852E+00 -0.60839343918E+00  0.90007711687E+02  0.89999972681E+02 0.  0.
        -12    1    1    2    0    0  0.53518655276E+00 -0.85820351852E+00  0.60839343918E+00  0.11802883132E+01  0.00000000000E+00 0.  1.
         11    1    3    3    0    0  0.54233574479E+01 -0.27977045702E+02 -0.26953947483E+02  0.39225542410E+02  0.51100000000E-03 0. -1.
        -11    1    3    3    0    0  0.85987031738E+01  0.51307804368E+01 -0.28952355703E+01  0.10423290912E+02  0.51100000000E-03 0.  1.
        -12    1    3    3    0    0 -0.14557247174E+02  0.23704468784E+02  0.29240789614E+02  0.40358878365E+02  0.00000000000E+00 0.  1.
</event>
<event>
 7    1  0.2232484E-015  0.9000740E+02  0.7816164E-02  0.1186340E+00
        -11   -1    0    0    0    0  0.00000000000E+00  0.00000000000E+00  0.45593999997E+02  0.45594000000E+02  0.51100000000E-03 0.  1.
         11   -1    0    0    0    0 -0.00000000000E+00 -0.00000000000E+00 -0.45593999997E+02  0.45594000000E+02  0.51100000000E-03 0. -1.
    9900012    2    1    2    0    0  0.11073324947E+00  0.60837945718E+00 -0.10056999540E+01  0.90007398537E+02  0.89999655397E+02 0.  0.
        -12    1    1    2    0    0 -0.11073324947E+00 -0.60837945718E+00  0.10056999540E+01  0.11806014628E+01  0.00000000000E+00 0.  1.
         11    1    3    3    0    0  0.27402358660E+02 -0.22114953842E+02 -0.13945011246E+02  0.37873787538E+02  0.51100000000E-03 0. -1.
        -11    1    3    3    0    0  0.52639018580E+00 -0.10198651116E+01 -0.92730279673E+01  0.93437818584E+01  0.51100000000E-03 0.  1.
        -12    1    3    3    0    0 -0.27818015597E+02  0.23743198411E+02  0.22212339259E+02  0.42789829141E+02  0.00000000000E+00 0.  1.
</event>
<event>
 7    1  0.2232484E-015  0.9000749E+02  0.7816164E-02  0.1186340E+00
        -11   -1    0    0    0    0  0.00000000000E+00  0.00000000000E+00  0.45593999997E+02  0.45594000000E+02  0.51100000000E-03 0.  1.
         11   -1    0    0    0    0 -0.00000000000E+00 -0.00000000000E+00 -0.45593999997E+02  0.45594000000E+02  0.51100000000E-03 0. -1.
    9900012    2    1    2    0    0  0.89297138041E+00  0.19579486016E+00 -0.74690665409E+00  0.90007490337E+02  0.89999748410E+02 0.  0.
        -12    1    1    2    0    0 -0.89297138041E+00 -0.19579486016E+00  0.74690665409E+00  0.11805096626E+01  0.00000000000E+00 0.  1.
         11    1    3    3    0    0 -0.31241107257E+01 -0.33673099183E+01  0.70819415610E+01  0.84411338365E+01  0.51100000000E-03 0. -1.
        -11    1    3    3    0    0 -0.21726305106E+02  0.74411314229E+01  0.28670221036E+02  0.36733967182E+02  0.51100000000E-03 0.  1.
         12    1    3    3    0    0  0.25743387212E+02 -0.38780266445E+01 -0.36499069251E+02  0.44832389319E+02  0.00000000000E+00 0. -1.
</event>
<event>
 7    1  0.2232484E-015  0.9000780E+02  0.7816164E-02  0.1186339E+00
        -11   -1    0    0    0    0  0.00000000000E+00  0.00000000000E+00  0.45593999997E+02  0.45594000000E+02  0.51100000000E-03 0.  1.
         11   -1    0    0    0    0 -0.00000000000E+00 -0.00000000000E+00 -0.45593999997E+02  0.45594000000E+02  0.51100000000E-03 0. -1.
    9900012    2    1    2    0    0 -0.42373245425E-01  0.59326873939E+00 -0.10193663625E+01  0.90007800411E+02  0.90000062576E+02 0.  0.
        -12    1    1    2    0    0  0.42373245425E-01 -0.59326873939E+00  0.10193663625E+01  0.11801995891E+01  0.00000000000E+00 0.  1.
         11    1    3    3    0    0 -0.16621580294E+02 -0.30760696818E+02 -0.84767120030E+01  0.35977104481E+02  0.51100000000E-03 0. -1.
        -11    1    3    3    0    0  0.17768050032E+01 -0.82486533776E+01 -0.51834897478E+01  0.99028220619E+01  0.51100000000E-03 0.  1.
        -12    1    3    3    0    0  0.14802402045E+02  0.39602618935E+02  0.12640835388E+02  0.44127873868E+02  0.00000000000E+00 0.  1.
</event>
<event>
 7    1  0.2567334E-015  0.9000780E+02  0.7816164E-02  0.1186339E+00
        -11   -1    0    0    0    0  0.00000000000E+00  0.00000000000E+00  0.45593999997E+02  0.45594000000E+02  0.51100000000E-03 0. -1.
         11   -1    0    0    0    0 -0.00000000000E+00 -0.00000000000E+00 -0.45593999997E+02  0.45594000000E+02  0.51100000000E-03 0.  1.
    9900012    2    1    2    0    0  0.66029534908E+00 -0.96205202994E-01  0.97346092872E+00  0.90007800200E+02  0.90000062362E+02 0.  0.
        -12    1    1    2    0    0 -0.66029534908E+00  0.96205202994E-01 -0.97346092872E+00  0.11801998004E+01  0.00000000000E+00 0.  1.
         11    1    3    3    0    0 -0.23546061788E+00 -0.15182434224E+01 -0.96934742314E+01  0.98144764368E+01  0.51100000000E-03 0. -1.
        -11    1    3    3    0    0 -0.31383153008E+01  0.31241635427E+02 -0.20001084859E+02  0.37228110386E+02  0.51100000000E-03 0.  1.
         12    1    3    3    0    0  0.40340712677E+01 -0.29819597208E+02  0.30668020019E+02  0.42965213377E+02  0.00000000000E+00 0. -1.
</event>
<event>
 7    1  0.2232484E-015  0.9000757E+02  0.7816164E-02  0.1186339E+00
        -11   -1    0    0    0    0  0.00000000000E+00  0.00000000000E+00  0.45593999997E+02  0.45594000000E+02  0.51100000000E-03 0. -1.
         11   -1    0    0    0    0 -0.00000000000E+00 -0.00000000000E+00 -0.45593999997E+02  0.45594000000E+02  0.51100000000E-03 0.  1.
    9900012    2    1    2    0    0  0.10844428264E+01 -0.44396179901E+00  0.14242952691E+00  0.90007574444E+02  0.89999833627E+02 0.  0.
        -12    1    1    2    0    0 -0.10844428264E+01  0.44396179901E+00 -0.14242952691E+00  0.11804255559E+01  0.00000000000E+00 0.  1.
         11    1    3    3    0    0 -0.29348160319E+00  0.94001211336E+01  0.76017583739E+00  0.94353736727E+01  0.51100000000E-03 0. -1.
        -11    1    3    3    0    0  0.65232109446E+01  0.80971786832E+01 -0.37673098812E+02  0.39081695946E+02  0.51100000000E-03 0.  1.
         12    1    3    3    0    0 -0.51452865150E+01 -0.17941261616E+02  0.37055352501E+02  0.41490504826E+02  0.00000000000E+00 0. -1.
</event>
<event>
 7    1  0.2232484E-015  0.9000767E+02  0.7816164E-02  0.1186339E+00
        -11   -1    0    0    0    0  0.00000000000E+00  0.00000000000E+00  0.45593999997E+02  0.45594000000E+02  0.51100000000E-03 0. -1.
         11   -1    0    0    0    0 -0.00000000000E+00 -0.00000000000E+00 -0.45593999997E+02  0.45594000000E+02  0.51100000000E-03 0.  1.
    9900012    2    1    2    0    0  0.19436426629E+00  0.11574817946E+01 -0.12502455071E+00  0.90007672625E+02  0.89999933104E+02 0.  0.
        -12    1    1    2    0    0 -0.19436426629E+00 -0.11574817946E+01  0.12502455071E+00  0.11803273745E+01  0.00000000000E+00 0.  1.
         11    1    3    3    0    0 -0.14648080790E+02 -0.22197013005E+01  0.41242207516E+02  0.43822517337E+02  0.51100000000E-03 0. -1.
        -11    1    3    3    0    0 -0.14715087016E+00 -0.38785167503E+01 -0.81641160193E+01  0.90397641672E+01  0.51100000000E-03 0.  1.
        -12    1    3    3    0    0  0.14989595926E+02  0.72556998454E+01 -0.33203116048E+02  0.37145391121E+02  0.00000000000E+00 0.  1.
</event>
<event>
 7    1  0.2232484E-015  0.9000779E+02  0.7816164E-02  0.1186339E+00
        -11   -1    0    0    0    0  0.00000000000E+00  0.00000000000E+00  0.45593999997E+02  0.45594000000E+02  0.51100000000E-03 0.  1.
         11   -1    0    0    0    0 -0.00000000000E+00 -0.00000000000E+00 -0.45593999997E+02  0.45594000000E+02  0.51100000000E-03 0. -1.
    9900012    2    1    2    0    0 -0.92018853095E+00 -0.70305714902E+00  0.22772155454E+00  0.90007790953E+02  0.90000052994E+02 0.  0.
        -12    1    1    2    0    0  0.92018853095E+00  0.70305714902E+00 -0.22772155454E+00  0.11802090466E+01  0.00000000000E+00 0.  1.
         11    1    3    3    0    0 -0.51924901950E+01 -0.77340763543E+01  0.44045492578E+01  0.10304268334E+02  0.51100000000E-03 0. -1.
        -11    1    3    3    0    0 -0.79756547348E+01  0.23406906246E+02  0.30610424964E+02  0.39350888747E+02  0.51100000000E-03 0.  1.
         12    1    3    3    0    0  0.12247956399E+02 -0.16375887041E+02 -0.34787252667E+02  0.40352633872E+02  0.00000000000E+00 0. -1.
</event>
<event>
 7    1  0.2232484E-015  0.9000778E+02  0.7816164E-02  0.1186339E+00
        -11   -1    0    0    0    0  0.00000000000E+00  0.00000000000E+00  0.45593999997E+02  0.45594000000E+02  0.51100000000E-03 0. -1.
         11   -1    0    0    0    0 -0.00000000000E+00 -0.00000000000E+00 -0.45593999997E+02  0.45594000000E+02  0.51100000000E-03 0.  1.
    9900012    2    1    2    0    0 -0.81846318000E+00  0.81511383161E-01  0.84639964590E+00  0.90007780341E+02  0.90000042242E+02 0.  0.
        -12    1    1    2    0    0  0.81846318000E+00 -0.81511383161E-01 -0.84639964590E+00  0.11802196589E+01  0.00000000000E+00 0.  1.
         11    1    3    3    0    0  0.50049454830E+01 -0.52461773009E+01 -0.37001391830E+01  0.81402018276E+01  0.51100000000E-03 0. -1.
        -11    1    3    3    0    0  0.37860970790E+02  0.16430578719E+01  0.16505724464E+01  0.37932534031E+02  0.51100000000E-03 0.  1.
         12    1    3    3    0    0 -0.43684379453E+02  0.36846308122E+01  0.28959663826E+01  0.43935044483E+02  0.00000000000E+00 0. -1.
</event>
<event>
 7    1  0.2232484E-015  0.9000775E+02  0.7816164E-02  0.1186339E+00
        -11   -1    0    0    0    0  0.00000000000E+00  0.00000000000E+00  0.45593999997E+02  0.45594000000E+02  0.51100000000E-03 0.  1.
         11   -1    0    0    0    0 -0.00000000000E+00 -0.00000000000E+00 -0.45593999997E+02  0.45594000000E+02  0.51100000000E-03 0. -1.
    9900012    2    1    2    0    0  0.46464234267E+00 -0.89658246621E+00 -0.61093470493E+00  0.90007748400E+02  0.90000009879E+02 0.  0.
        -12    1    1    2    0    0 -0.46464234267E+00  0.89658246621E+00  0.61093470493E+00  0.11802515999E+01  0.00000000000E+00 0.  1.
         11    1    3    3    0    0  0.26908235603E+02  0.10245650599E+02 -0.30532007089E+02  0.41967010337E+02  0.51100000000E-03 0. -1.
        -11    1    3    3    0    0  0.39818734373E+01 -0.49654383935E+01  0.69238774039E+01  0.94048377485E+01  0.51100000000E-03 0.  1.
        -12    1    3    3    0    0 -0.30425466698E+02 -0.61767946719E+01  0.22997194980E+02  0.38635900315E+02  0.00000000000E+00 0.  1.
</event>
<event>
 7    1  0.2232484E-015  0.9000774E+02  0.7816164E-02  0.1186339E+00
        -11   -1    0    0    0    0  0.00000000000E+00  0.00000000000E+00  0.45593999997E+02  0.45594000000E+02  0.51100000000E-03 0. -1.
         11   -1    0    0    0    0 -0.00000000000E+00 -0.00000000000E+00 -0.45593999997E+02  0.45594000000E+02  0.51100000000E-03 0.  1.
    9900012    2    1    2    0    0  0.56138815515E+00 -0.10069002510E+01  0.25300213623E+00  0.90007739496E+02  0.90000000857E+02 0.  0.
        -12    1    1    2    0    0 -0.56138815515E+00  0.10069002510E+01 -0.25300213623E+00  0.11802605040E+01  0.00000000000E+00 0.  1.
         11    1    3    3    0    0 -0.76954933537E+01 -0.31027422523E+02 -0.19789537256E+02  0.37597172120E+02  0.51100000000E-03 0. -1.
        -11    1    3    3    0    0  0.11876552573E+01 -0.46974617477E+01 -0.65239142225E+01  0.81263847389E+01  0.51100000000E-03 0.  1.
        -12    1    3    3    0    0  0.70692262515E+01  0.34717984019E+02  0.26566453615E+02  0.44284182637E+02  0.00000000000E+00 0.  1.
</event>
<event>
 7    1  0.2232484E-015  0.9000827E+02  0.7816164E-02  0.1186338E+00
        -11   -1    0    0    0    0  0.00000000000E+00  0.00000000000E+00  0.45593999997E+02  0.45594000000E+02  0.51100000000E-03 0.  1.
         11   -1    0    0    0    0 -0.00000000000E+00 -0.00000000000E+00 -0.45593999997E+02  0.45594000000E+02  0.51100000000E-03 0. -1.
    9900012    2    1    2    0    0 -0.34904982071E-01 -0.33857358181E+00 -0.11295595219E+01  0.90008273277E+02  0.90000541682E+02 0.  0.
        -12    1    1    2    0    0  0.34904982070E-01  0.33857358181E+00  0.11295595219E+01  0.11797267233E+01  0.00000000000E+00 0.  1.
         11    1    3    3    0    0 -0.19900550145E+02  0.12274433796E+02 -0.32839792695E+02  0.40313094716E+02  0.51100000000E-03 0. -1.
        -11    1    3    3    0    0  0.54501859901E+01 -0.31600471607E+01 -0.57053071157E+01  0.84994679204E+01  0.51100000000E-03 0.  1.
        -12    1    3    3    0    0  0.14415459173E+02 -0.94529602170E+01  0.37415540289E+02  0.41195710640E+02  0.00000000000E+00 0.  1.
</event>
<event>
 7    1  0.2232484E-015  0.9000745E+02  0.7816164E-02  0.1186340E+00
        -11   -1    0    0    0    0  0.00000000000E+00  0.00000000000E+00  0.45593999997E+02  0.45594000000E+02  0.51100000000E-03 0. -1.
         11   -1    0    0    0    0 -0.00000000000E+00 -0.00000000000E+00 -0.45593999997E+02  0.45594000000E+02  0.51100000000E-03 0.  1.
    9900012    2    1    2    0    0 -0.56222462266E+00 -0.10152886326E+01 -0.21630340126E+00  0.90007451528E+02  0.89999709087E+02 0.  0.
        -12    1    1    2    0    0  0.56222462266E+00  0.10152886326E+01  0.21630340126E+00  0.11805484722E+01  0.00000000000E+00 0.  1.
         11    1    3    3    0    0 -0.15721750220E+02 -0.27974349126E+02  0.27032510302E+02  0.41958244155E+02  0.51100000000E-03 0. -1.
        -11    1    3    3    0    0  0.69042339295E+01 -0.36849060620E+01 -0.49030319968E+01  0.92350799597E+01  0.51100000000E-03 0.  1.
        -12    1    3    3    0    0  0.82552916679E+01  0.30643966556E+02 -0.22345781707E+02  0.38814127414E+02  0.00000000000E+00 0.  1.
</event>
<event>
 7    1  0.2232484E-015  0.9000764E+02  0.7816164E-02  0.1186339E+00
        -11   -1    0    0    0    0  0.00000000000E+00  0.00000000000E+00  0.45593999997E+02  0.45594000000E+02  0.51100000000E-03 0.  1.
         11   -1    0    0    0    0 -0.00000000000E+00 -0.00000000000E+00 -0.45593999997E+02  0.45594000000E+02  0.51100000000E-03 0. -1.
    9900012    2    1    2    0    0 -0.44864822687E+00  0.30048357590E+00  0.10496011408E+01  0.90007644898E+02  0.89999905011E+02 0.  0.
        -12    1    1    2    0    0  0.44864822687E+00 -0.30048357590E+00 -0.10496011408E+01  0.11803551015E+01  0.00000000000E+00 0.  1.
         11    1    3    3    0    0  0.59158372568E+01  0.29217157787E+01  0.16677045149E+02  0.17934809414E+02  0.51100000000E-03 0. -1.
        -11    1    3    3    0    0  0.24710762873E+02  0.19581974927E+02 -0.22642745979E+01  0.31610164244E+02  0.51100000000E-03 0.  1.
         12    1    3    3    0    0 -0.31075248357E+02 -0.22203207130E+02 -0.13363169410E+02  0.40462671241E+02  0.00000000000E+00 0. -1.
</event>
<event>
 7    1  0.2232484E-015  0.9000866E+02  0.7816164E-02  0.1186337E+00
        -11   -1    0    0    0    0  0.00000000000E+00  0.00000000000E+00  0.45593999997E+02  0.45594000000E+02  0.51100000000E-03 0.  1.
         11   -1    0    0    0    0 -0.00000000000E+00 -0.00000000000E+00 -0.45593999997E+02  0.45594000000E+02  0.51100000000E-03 0. -1.
    9900012    2    1    2    0    0  0.16480222689E+00  0.92002520494E+00  0.71918936566E+00  0.90008661416E+02  0.90000934942E+02 0.  0.
        -12    1    1    2    0    0 -0.16480222689E+00 -0.92002520494E+00 -0.71918936566E+00  0.11793385839E+01  0.00000000000E+00 0.  1.
         11    1    3    3    0    0  0.30668437744E+01  0.76681364280E+01  0.13013522157E+02  0.15412903886E+02  0.51100000000E-03 0. -1.
        -11    1    3    3    0    0  0.18214839726E+02 -0.34178854270E+02 -0.94235106897E+01  0.39859465870E+02  0.51100000000E-03 0.  1.
         12    1    3    3    0    0 -0.21116881273E+02  0.27430743047E+02 -0.28708221012E+01  0.34736291661E+02  0.00000000000E+00 0. -1.
</event>
<event>
 7    1  0.2232484E-015  0.9000771E+02  0.7816164E-02  0.1186339E+00
        -11   -1    0    0    0    0  0.00000000000E+00  0.00000000000E+00  0.45593999997E+02  0.45594000000E+02  0.51100000000E-03 0. -1.
         11   -1    0    0    0    0 -0.00000000000E+00 -0.00000000000E+00 -0.45593999997E+02  0.45594000000E+02  0.51100000000E-03 0.  1.
    9900012    2    1    2    0    0 -0.48552324668E+00 -0.10172952327E+00  0.10709865330E+01  0.90007706023E+02  0.89999966942E+02 0.  0.
        -12    1    1    2    0    0  0.48552324668E+00  0.10172952327E+00 -0.10709865330E+01  0.11802939773E+01  0.00000000000E+00 0.  1.
         11    1    3    3    0    0 -0.21503783063E+02  0.56603234776E+01 -0.11957651062E+01  0.22268403678E+02  0.51100000000E-03 0. -1.
        -11    1    3    3    0    0 -0.16670997539E+02  0.15339273619E+02  0.82975932305E+01  0.24126034233E+02  0.51100000000E-03 0.  1.
         12    1    3    3    0    0  0.37689257356E+02 -0.21101326620E+02 -0.60308415913E+01  0.43613268112E+02  0.00000000000E+00 0. -1.
</event>
<event>
 7    1  0.2232484E-015  0.9000776E+02  0.7816164E-02  0.1186339E+00
        -11   -1    0    0    0    0  0.00000000000E+00  0.00000000000E+00  0.45593999997E+02  0.45594000000E+02  0.51100000000E-03 0.  1.
         11   -1    0    0    0    0 -0.00000000000E+00 -0.00000000000E+00 -0.45593999997E+02  0.45594000000E+02  0.51100000000E-03 0. -1.
    9900012    2    1    2    0    0  0.11513281113E+01 -0.11513750083E+00  0.23269181210E+00  0.90007763353E+02  0.90000025029E+02 0.  0.
        -12    1    1    2    0    0 -0.11513281113E+01  0.11513750083E+00 -0.23269181210E+00  0.11802366472E+01  0.00000000000E+00 0.  1.
         11    1    3    3    0    0 -0.39999894639E+01 -0.17862745855E+00  0.83257414034E+01  0.92384952052E+01  0.51100000000E-03 0. -1.
        -11    1    3    3    0    0  0.31886943505E+02 -0.15753315343E+01  0.23283542973E+02  0.39514329162E+02  0.51100000000E-03 0.  1.
         12    1    3    3    0    0 -0.26735625930E+02  0.16388214920E+01 -0.31376592564E+02  0.41254938985E+02  0.00000000000E+00 0. -1.
</event>
<event>
 7    1  0.2232484E-015  0.9000775E+02  0.7816164E-02  0.1186339E+00
        -11   -1    0    0    0    0  0.00000000000E+00  0.00000000000E+00  0.45593999997E+02  0.45594000000E+02  0.51100000000E-03 0.  1.
         11   -1    0    0    0    0 -0.00000000000E+00 -0.00000000000E+00 -0.45593999997E+02  0.45594000000E+02  0.51100000000E-03 0. -1.
    9900012    2    1    2    0    0  0.60937572288E+00  0.64483838253E+00 -0.77835687988E+00  0.90007748017E+02  0.90000009491E+02 0.  0.
        -12    1    1    2    0    0 -0.60937572288E+00 -0.64483838253E+00  0.77835687988E+00  0.11802519831E+01  0.00000000000E+00 0.  1.
         11    1    3    3    0    0  0.61735849357E+01  0.13538712168E+02 -0.32554671542E+02  0.35794084952E+02  0.51100000000E-03 0. -1.
        -11    1    3    3    0    0  0.34741534929E+01  0.54643399401E+00 -0.93625162600E+01  0.10001252101E+02  0.51100000000E-03 0.  1.
        -12    1    3    3    0    0 -0.90383627058E+01 -0.13440307780E+02  0.41138830922E+02  0.44212410964E+02  0.00000000000E+00 0.  1.
</event>
<event>
 7    1  0.2232484E-015  0.9000773E+02  0.7816164E-02  0.1186339E+00
        -11   -1    0    0    0    0  0.00000000000E+00  0.00000000000E+00  0.45593999997E+02  0.45594000000E+02  0.51100000000E-03 0.  1.
         11   -1    0    0    0    0 -0.00000000000E+00 -0.00000000000E+00 -0.45593999997E+02  0.45594000000E+02  0.51100000000E-03 0. -1.
    9900012    2    1    2    0    0 -0.18128640396E+00 -0.68285169710E+00 -0.94546077734E+00  0.90007725760E+02  0.89999986940E+02 0.  0.
        -12    1    1    2    0    0  0.18128640396E+00  0.68285169710E+00  0.94546077734E+00  0.11802742402E+01  0.00000000000E+00 0.  1.
         11    1    3    3    0    0 -0.32946826968E+01 -0.69197600127E+01 -0.33117889833E+01  0.83490094764E+01  0.51100000000E-03 0. -1.
        -11    1    3    3    0    0 -0.29380272983E+02 -0.11901861627E+02  0.22946875746E+02  0.39133283245E+02  0.51100000000E-03 0.  1.
         12    1    3    3    0    0  0.32493669276E+02  0.18138769942E+02 -0.20580547540E+02  0.42525433038E+02  0.00000000000E+00 0. -1.
</event>
<event>
 7    1  0.2232484E-015  0.9000781E+02  0.7816164E-02  0.1186339E+00
        -11   -1    0    0    0    0  0.00000000000E+00  0.00000000000E+00  0.45593999997E+02  0.45594000000E+02  0.51100000000E-03 0.  1.
         11   -1    0    0    0    0 -0.00000000000E+00 -0.00000000000E+00 -0.45593999997E+02  0.45594000000E+02  0.51100000000E-03 0. -1.
    9900012    2    1    2    0    0  0.98802006611E+00 -0.20355598415E+00 -0.61255673636E+00  0.90007811691E+02  0.90000074005E+02 0.  0.
        -12    1    1    2    0    0 -0.98802006611E+00  0.20355598415E+00  0.61255673636E+00  0.11801883091E+01  0.00000000000E+00 0.  1.
         11    1    3    3    0    0 -0.13058280345E+02  0.83909193076E+01 -0.34928117997E+02  0.38221716856E+02  0.51100000000E-03 0. -1.
        -11    1    3    3    0    0 -0.80354138297E+00  0.90755682130E+01 -0.14436487078E+01  0.92247351721E+01  0.51100000000E-03 0.  1.
        -12    1    3    3    0    0  0.14849841794E+02 -0.17670043505E+02  0.35759209968E+02  0.42561359662E+02  0.00000000000E+00 0.  1.
</event>
<event>
 7    1  0.2232484E-015  0.9000774E+02  0.7816164E-02  0.1186339E+00
        -11   -1    0    0    0    0  0.00000000000E+00  0.00000000000E+00  0.45593999997E+02  0.45594000000E+02  0.51100000000E-03 0.  1.
         11   -1    0    0    0    0 -0.00000000000E+00 -0.00000000000E+00 -0.45593999997E+02  0.45594000000E+02  0.51100000000E-03 0. -1.
    9900012    2    1    2    0    0  0.75384447965E+00  0.39906135308E+00 -0.81577370099E+00  0.90007738082E+02  0.89999999425E+02 0.  0.
        -12    1    1    2    0    0 -0.75384447965E+00 -0.39906135308E+00  0.81577370099E+00  0.11802619176E+01  0.00000000000E+00 0.  1.
         11    1    3    3    0    0 -0.14989077717E+02 -0.34815130741E+02 -0.14446457007E+02  0.40564342712E+02  0.51100000000E-03 0. -1.
        -11    1    3    3    0    0  0.58689573820E+01  0.43267149425E+01 -0.77194881327E+01  0.10618644934E+02  0.51100000000E-03 0.  1.
        -12    1    3    3    0    0  0.98739648149E+01  0.30887477152E+02  0.21350171438E+02  0.38824750436E+02  0.00000000000E+00 0.  1.
</event>
<event>
 7    1  0.2232484E-015  0.9000775E+02  0.7816164E-02  0.1186339E+00
        -11   -1    0    0    0    0  0.00000000000E+00  0.00000000000E+00  0.45593999997E+02  0.45594000000E+02  0.51100000000E-03 0. -1.
         11   -1    0    0    0    0 -0.00000000000E+00 -0.00000000000E+00 -0.45593999997E+02  0.45594000000E+02  0.51100000000E-03 0.  1.
    9900012    2    1    2    0    0 -0.32998156436E-01 -0.11282698466E+01  0.34483416549E+00  0.90007749041E+02  0.90000010528E+02 0.  0.
        -12    1    1    2    0    0  0.32998156436E-01  0.11282698466E+01 -0.34483416549E+00  0.11802509592E+01  0.00000000000E+00 0.  1.
         11    1    3    3    0    0 -0.33869280619E+00 -0.13214211732E+02 -0.20792795943E+01  0.13381087714E+02  0.51100000000E-03 0. -1.
        -11    1    3    3    0    0 -0.10656662868E+02 -0.22114799691E-01 -0.34576428404E+02  0.36181408955E+02  0.51100000000E-03 0.  1.
         12    1    3    3    0    0  0.10962357517E+02  0.12108056685E+02  0.37000542164E+02  0.40445252372E+02  0.00000000000E+00 0. -1.
</event>
<event>
 7    1  0.2232484E-015  0.9000775E+02  0.7816164E-02  0.1186339E+00
        -11   -1    0    0    0    0  0.00000000000E+00  0.00000000000E+00  0.45593999997E+02  0.45594000000E+02  0.51100000000E-03 0.  1.
         11   -1    0    0    0    0 -0.00000000000E+00 -0.00000000000E+00 -0.45593999997E+02  0.45594000000E+02  0.51100000000E-03 0. -1.
    9900012    2    1    2    0    0 -0.54929683691E+00  0.99597878834E+00 -0.31511582279E+00  0.90007746322E+02  0.90000007774E+02 0.  0.
        -12    1    1    2    0    0  0.54929683691E+00 -0.99597878834E+00  0.31511582279E+00  0.11802536777E+01  0.00000000000E+00 0.  1.
         11    1    3    3    0    0  0.32209364686E+01  0.61273287559E+00 -0.77468889600E+01  0.84121437298E+01  0.51100000000E-03 0. -1.
        -11    1    3    3    0    0 -0.18683922733E+02 -0.21003904476E+00 -0.33317264657E+02  0.38199125770E+02  0.51100000000E-03 0.  1.
         12    1    3    3    0    0  0.14913689428E+02  0.59328495751E+00  0.40749037795E+02  0.43396476822E+02  0.00000000000E+00 0. -1.
</event>
<event>
 7    1  0.2232484E-015  0.9000770E+02  0.7816164E-02  0.1186339E+00
        -11   -1    0    0    0    0  0.00000000000E+00  0.00000000000E+00  0.45593999997E+02  0.45594000000E+02  0.51100000000E-03 0.  1.
         11   -1    0    0    0    0 -0.00000000000E+00 -0.00000000000E+00 -0.45593999997E+02  0.45594000000E+02  0.51100000000E-03 0. -1.
    9900012    2    1    2    0    0 -0.75126053029E+00  0.27198487149E+00 -0.86875878436E+00  0.90007699199E+02  0.89999960029E+02 0.  0.
        -12    1    1    2    0    0  0.75126053029E+00 -0.27198487149E+00  0.86875878436E+00  0.11803008007E+01  0.00000000000E+00 0.  1.
         11    1    3    3    0    0  0.61583898333E+01  0.33121544094E+01  0.20985595123E+01  0.73006906837E+01  0.51100000000E-03 0. -1.
        -11    1    3    3    0    0  0.37594733096E+02 -0.44558642103E+01  0.19583827560E+01  0.37908494373E+02  0.51100000000E-03 0.  1.
         12    1    3    3    0    0 -0.44504383459E+02  0.14156946723E+01 -0.49257010527E+01  0.44798514142E+02  0.00000000000E+00 0. -1.
</event>
<event>
 7    1  0.2232484E-015  0.9000776E+02  0.7816164E-02  0.1186339E+00
        -11   -1    0    0    0    0  0.00000000000E+00  0.00000000000E+00  0.45593999997E+02  0.45594000000E+02  0.51100000000E-03 0.  1.
         11   -1    0    0    0    0 -0.00000000000E+00 -0.00000000000E+00 -0.45593999997E+02  0.45594000000E+02  0.51100000000E-03 0. -1.
    9900012    2    1    2    0    0  0.71493985186E+00 -0.85934903795E-01 -0.93511169579E+00  0.90007763717E+02  0.90000025398E+02 0.  0.
        -12    1    1    2    0    0 -0.71493985186E+00  0.85934903795E-01  0.93511169579E+00  0.11802362827E+01  0.00000000000E+00 0.  1.
         11    1    3    3    0    0  0.66560760163E+01  0.20675040058E+02  0.44838495472E+01  0.22178041761E+02  0.51100000000E-03 0. -1.
        -11    1    3    3    0    0  0.16560150956E+02  0.11232669616E+02  0.13742101545E+02  0.24274612696E+02  0.51100000000E-03 0.  1.
        -12    1    3    3    0    0 -0.22501287121E+02 -0.31993644578E+02 -0.19161062788E+02  0.43555109260E+02  0.00000000000E+00 0.  1.
</event>
<event>
 7    1  0.2232484E-015  0.9000791E+02  0.7816164E-02  0.1186339E+00
        -11   -1    0    0    0    0  0.00000000000E+00  0.00000000000E+00  0.45593999997E+02  0.45594000000E+02  0.51100000000E-03 0.  1.
         11   -1    0    0    0    0 -0.00000000000E+00 -0.00000000000E+00 -0.45593999997E+02  0.45594000000E+02  0.51100000000E-03 0. -1.
    9900012    2    1    2    0    0 -0.45680600626E+00 -0.55181916962E+00 -0.93778539749E+00  0.90007907811E+02  0.90000171394E+02 0.  0.
        -12    1    1    2    0    0  0.45680600626E+00  0.55181916962E+00  0.93778539749E+00  0.11800921892E+01  0.00000000000E+00 0.  1.
         11    1    3    3    0    0 -0.35976382103E+01  0.58551871198E+01 -0.73993878095E+01  0.10098373984E+02  0.51100000000E-03 0. -1.
        -11    1    3    3    0    0 -0.17955788368E+02  0.31336816210E+02 -0.45968595314E+00  0.36119491933E+02  0.51100000000E-03 0.  1.
         12    1    3    3    0    0  0.21096620572E+02 -0.37743822499E+02  0.69212883652E+01  0.43790041894E+02  0.00000000000E+00 0. -1.
</event>
<event>
 7    1  0.2232484E-015  0.9000767E+02  0.7816164E-02  0.1186339E+00
        -11   -1    0    0    0    0  0.00000000000E+00  0.00000000000E+00  0.45593999997E+02  0.45594000000E+02  0.51100000000E-03 0.  1.
         11   -1    0    0    0    0 -0.00000000000E+00 -0.00000000000E+00 -0.45593999997E+02  0.45594000000E+02  0.51100000000E-03 0. -1.
    9900012    2    1    2    0    0  0.28409615574E+00  0.10073325781E+01 -0.54566663562E+00  0.90007668849E+02  0.89999929278E+02 0.  0.
        -12    1    1    2    0    0 -0.28409615574E+00 -0.10073325781E+01  0.54566663562E+00  0.11803311509E+01  0.00000000000E+00 0.  1.
         11    1    3    3    0    0 -0.37602345576E+01 -0.79224213100E+01 -0.45499064999E+01  0.98795633892E+01  0.51100000000E-03 0. -1.
        -11    1    3    3    0    0  0.38128941437E+02  0.11653970079E+02  0.17272451385E+02  0.43450762604E+02  0.51100000000E-03 0.  1.
         12    1    3    3    0    0 -0.34084610724E+02 -0.27242161913E+01 -0.13268211521E+02  0.36677342856E+02  0.00000000000E+00 0. -1.
</event>
<event>
 7    1  0.2232484E-015  0.9000776E+02  0.7816164E-02  0.1186339E+00
        -11   -1    0    0    0    0  0.00000000000E+00  0.00000000000E+00  0.45593999997E+02  0.45594000000E+02  0.51100000000E-03 0.  1.
         11   -1    0    0    0    0 -0.00000000000E+00 -0.00000000000E+00 -0.45593999997E+02  0.45594000000E+02  0.51100000000E-03 0. -1.
    9900012    2    1    2    0    0  0.48778021241E-01  0.10971034095E+01  0.43239090019E+00  0.90007755501E+02  0.90000017074E+02 0.  0.
        -12    1    1    2    0    0 -0.48778021241E-01 -0.10971034095E+01 -0.43239090019E+00  0.11802444988E+01  0.00000000000E+00 0.  1.
         11    1    3    3    0    0 -0.44048307503E+01  0.65035700017E+01  0.43555941147E+01  0.89816566991E+01  0.51100000000E-03 0. -1.
        -11    1    3    3    0    0 -0.14607710054E+01  0.80379728573E+01  0.36820426053E+02  0.37715867146E+02  0.51100000000E-03 0.  1.
         12    1    3    3    0    0  0.59143797770E+01 -0.13444439449E+02 -0.40743629267E+02  0.43310231656E+02  0.00000000000E+00 0. -1.
</event>
<event>
 7    1  0.2232484E-015  0.9000778E+02  0.7816164E-02  0.1186339E+00
        -11   -1    0    0    0    0  0.00000000000E+00  0.00000000000E+00  0.45593999997E+02  0.45594000000E+02  0.51100000000E-03 0.  1.
         11   -1    0    0    0    0 -0.00000000000E+00 -0.00000000000E+00 -0.45593999997E+02  0.45594000000E+02  0.51100000000E-03 0. -1.
    9900012    2    1    2    0    0  0.58822593131E+00 -0.36537197135E+00 -0.95572512368E+00  0.90007780980E+02  0.90000042889E+02 0.  0.
        -12    1    1    2    0    0 -0.58822593131E+00  0.36537197135E+00  0.95572512368E+00  0.11802190202E+01  0.00000000000E+00 0.  1.
         11    1    3    3    0    0  0.38842528257E+01 -0.88501595024E+01  0.64597397783E+01  0.11625015333E+02  0.51100000000E-03 0. -1.
        -11    1    3    3    0    0  0.92728461920E+01  0.13607163778E+02  0.32385475122E+02  0.36331248006E+02  0.51100000000E-03 0.  1.
         12    1    3    3    0    0 -0.12568873086E+02 -0.51223762465E+01 -0.39800940024E+02  0.42051517640E+02  0.00000000000E+00 0. -1.
</event>
<event>
 7    1  0.2232484E-015  0.9000777E+02  0.7816164E-02  0.1186339E+00
        -11   -1    0    0    0    0  0.00000000000E+00  0.00000000000E+00  0.45593999997E+02  0.45594000000E+02  0.51100000000E-03 0. -1.
         11   -1    0    0    0    0 -0.00000000000E+00 -0.00000000000E+00 -0.45593999997E+02  0.45594000000E+02  0.51100000000E-03 0.  1.
    9900012    2    1    2    0    0 -0.63013465840E+00  0.91677797058E+00  0.39418332881E+00  0.90007774584E+02  0.90000036409E+02 0.  0.
        -12    1    1    2    0    0  0.63013465840E+00 -0.91677797058E+00 -0.39418332881E+00  0.11802254157E+01  0.00000000000E+00 0.  1.
         11    1    3    3    0    0 -0.23007444421E+02  0.86379155962E+01 -0.12274336054E+02  0.27470264114E+02  0.51100000000E-03 0. -1.
        -11    1    3    3    0    0 -0.11117557975E+02 -0.17198859121E+02 -0.80770475330E+01  0.22014530371E+02  0.51100000000E-03 0.  1.
        -12    1    3    3    0    0  0.33494867737E+02  0.94777214950E+01  0.20745566916E+02  0.40522980099E+02  0.00000000000E+00 0.  1.
</event>
<event>
 7    1  0.2232484E-015  0.9000764E+02  0.7816164E-02  0.1186339E+00
        -11   -1    0    0    0    0  0.00000000000E+00  0.00000000000E+00  0.45593999997E+02  0.45594000000E+02  0.51100000000E-03 0. -1.
         11   -1    0    0    0    0 -0.00000000000E+00 -0.00000000000E+00 -0.45593999997E+02  0.45594000000E+02  0.51100000000E-03 0.  1.
    9900012    2    1    2    0    0 -0.53287148332E+00  0.99910381559E+00 -0.33330246058E+00  0.90007639469E+02  0.89999899510E+02 0.  0.
        -12    1    1    2    0    0  0.53287148332E+00 -0.99910381559E+00  0.33330246058E+00  0.11803605306E+01  0.00000000000E+00 0.  1.
         11    1    3    3    0    0  0.59214801981E+01 -0.81806625897E+01 -0.68702476807E+01  0.12214232338E+02  0.51100000000E-03 0. -1.
        -11    1    3    3    0    0  0.17621027410E+02  0.32929393106E+02 -0.11999905223E+02  0.39228092778E+02  0.51100000000E-03 0.  1.
         12    1    3    3    0    0 -0.24075379092E+02 -0.23749626701E+02  0.18536850444E+02  0.38565314354E+02  0.00000000000E+00 0. -1.
</event>
<event>
 7    1  0.2232484E-015  0.9000754E+02  0.7816164E-02  0.1186339E+00
        -11   -1    0    0    0    0  0.00000000000E+00  0.00000000000E+00  0.45593999997E+02  0.45594000000E+02  0.51100000000E-03 0.  1.
         11   -1    0    0    0    0 -0.00000000000E+00 -0.00000000000E+00 -0.45593999997E+02  0.45594000000E+02  0.51100000000E-03 0. -1.
    9900012    2    1    2    0    0 -0.11557867664E+01  0.23803785429E+00  0.31440314289E-01  0.90007536717E+02  0.89999795401E+02 0.  0.
        -12    1    1    2    0    0  0.11557867664E+01 -0.23803785429E+00 -0.31440314289E-01  0.11804632831E+01  0.00000000000E+00 0.  1.
         11    1    3    3    0    0  0.24859327021E+02 -0.69894202980E+01 -0.26542815412E+02  0.37031867173E+02  0.51100000000E-03 0. -1.
        -11    1    3    3    0    0  0.60494859519E+00  0.48697074529E+01 -0.79342379930E+01  0.93291021149E+01  0.51100000000E-03 0.  1.
        -12    1    3    3    0    0 -0.26620062383E+02  0.23577506993E+01  0.34508493719E+02  0.43646567429E+02  0.00000000000E+00 0.  1.
</event>
<event>
 7    1  0.2232484E-015  0.9000769E+02  0.7816164E-02  0.1186339E+00
        -11   -1    0    0    0    0  0.00000000000E+00  0.00000000000E+00  0.45593999997E+02  0.45594000000E+02  0.51100000000E-03 0. -1.
         11   -1    0    0    0    0 -0.00000000000E+00 -0.00000000000E+00 -0.45593999997E+02  0.45594000000E+02  0.51100000000E-03 0.  1.
    9900012    2    1    2    0    0  0.20953587870E+00 -0.11053954538E+01 -0.35683429088E+00  0.90007688556E+02  0.89999949245E+02 0.  0.
        -12    1    1    2    0    0 -0.20953587870E+00  0.11053954538E+01  0.35683429088E+00  0.11803114440E+01  0.00000000000E+00 0.  1.
         11    1    3    3    0    0 -0.90209533850E+01 -0.35375863486E+02  0.14753487977E+02  0.39376321883E+02  0.51100000000E-03 0. -1.
        -11    1    3    3    0    0  0.19600195639E+02  0.11228784545E+02 -0.36322282596E+01  0.22878950016E+02  0.51100000000E-03 0.  1.
        -12    1    3    3    0    0 -0.10369706376E+02  0.23041683487E+02 -0.11478094008E+02  0.27752416656E+02  0.00000000000E+00 0.  1.
</event>
<event>
 7    1  0.2232484E-015  0.9000778E+02  0.7816164E-02  0.1186339E+00
        -11   -1    0    0    0    0  0.00000000000E+00  0.00000000000E+00  0.45593999997E+02  0.45594000000E+02  0.51100000000E-03 0.  1.
         11   -1    0    0    0    0 -0.00000000000E+00 -0.00000000000E+00 -0.45593999997E+02  0.45594000000E+02  0.51100000000E-03 0. -1.
    9900012    2    1    2    0    0  0.66851815684E+00 -0.86653013732E+00 -0.44172954920E+00  0.90007781376E+02  0.90000043291E+02 0.  0.
        -12    1    1    2    0    0 -0.66851815684E+00  0.86653013732E+00  0.44172954920E+00  0.11802186236E+01  0.00000000000E+00 0.  1.
         11    1    3    3    0    0 -0.77452208020E+01  0.32113078848E+02 -0.13782543893E+02  0.35793809448E+02  0.51100000000E-03 0. -1.
        -11    1    3    3    0    0  0.78485356041E+01  0.81309566417E+01  0.44733867545E+01  0.12154141531E+02  0.51100000000E-03 0.  1.
        -12    1    3    3    0    0  0.56520335479E+00 -0.41110565627E+02  0.88674275890E+01  0.42059830397E+02  0.00000000000E+00 0.  1.
</event>
<event>
 7    1  0.2232484E-015  0.9000773E+02  0.7816164E-02  0.1186339E+00
        -11   -1    0    0    0    0  0.00000000000E+00  0.00000000000E+00  0.45593999997E+02  0.45594000000E+02  0.51100000000E-03 0.  1.
         11   -1    0    0    0    0 -0.00000000000E+00 -0.00000000000E+00 -0.45593999997E+02  0.45594000000E+02  0.51100000000E-03 0. -1.
    9900012    2    1    2    0    0  0.52238130454E+00 -0.65600186611E+00 -0.83055226739E+00  0.90007729800E+02  0.89999991034E+02 0.  0.
        -12    1    1    2    0    0 -0.52238130454E+00  0.65600186611E+00  0.83055226739E+00  0.11802701998E+01  0.00000000000E+00 0.  1.
         11    1    3    3    0    0  0.27410686154E+01  0.17401454740E+00 -0.99941823965E+01  0.10364719979E+02  0.51100000000E-03 0. -1.
        -11    1    3    3    0    0 -0.21631327492E+02  0.16062543118E+02  0.34336036295E+02  0.43644965450E+02  0.51100000000E-03 0.  1.
         12    1    3    3    0    0  0.19412640181E+02 -0.16892559531E+02 -0.25172406165E+02  0.35998044370E+02  0.00000000000E+00 0. -1.
</event>
<event>
 7    1  0.2232484E-015  0.9000771E+02  0.7816164E-02  0.1186339E+00
        -11   -1    0    0    0    0  0.00000000000E+00  0.00000000000E+00  0.45593999997E+02  0.45594000000E+02  0.51100000000E-03 0.  1.
         11   -1    0    0    0    0 -0.00000000000E+00 -0.00000000000E+00 -0.45593999997E+02  0.45594000000E+02  0.51100000000E-03 0. -1.
    9900012    2    1    2    0    0  0.92678291544E+00 -0.73084242862E+00 -0.41339191212E-02  0.90007714307E+02  0.89999975336E+02 0.  0.
        -12    1    1    2    0    0 -0.92678291544E+00  0.73084242862E+00  0.41339191212E-02  0.11802856930E+01  0.00000000000E+00 0.  1.
         11    1    3    3    0    0 -0.23069665588E+02  0.23923003867E+02 -0.13299932244E+02  0.35796756589E+02  0.51100000000E-03 0. -1.
        -11    1    3    3    0    0 -0.91168199772E+01 -0.82652658363E+01 -0.46263604884E+01  0.13146643582E+02  0.51100000000E-03 0.  1.
        -12    1    3    3    0    0  0.33113268480E+02 -0.16388580459E+02  0.17922158814E+02  0.41064314136E+02  0.00000000000E+00 0.  1.
</event>
<event>
 7    1  0.2232484E-015  0.9000769E+02  0.7816164E-02  0.1186339E+00
        -11   -1    0    0    0    0  0.00000000000E+00  0.00000000000E+00  0.45593999997E+02  0.45594000000E+02  0.51100000000E-03 0. -1.
         11   -1    0    0    0    0 -0.00000000000E+00 -0.00000000000E+00 -0.45593999997E+02  0.45594000000E+02  0.51100000000E-03 0.  1.
    9900012    2    1    2    0    0  0.59416622489E+00 -0.69327690869E+00  0.74797544184E+00  0.90007689178E+02  0.89999949875E+02 0.  0.
        -12    1    1    2    0    0 -0.59416622489E+00  0.69327690869E+00 -0.74797544184E+00  0.11803108220E+01  0.00000000000E+00 0.  1.
         11    1    3    3    0    0  0.19369542534E+02  0.22286165367E+02  0.10604247017E+01  0.29546181574E+02  0.51100000000E-03 0. -1.
        -11    1    3    3    0    0  0.14162279699E+02 -0.27633828618E+01 -0.13367011985E+02  0.19669353340E+02  0.51100000000E-03 0.  1.
        -12    1    3    3    0    0 -0.32937656009E+02 -0.20216059414E+02  0.13054562726E+02  0.40792154265E+02  0.00000000000E+00 0.  1.
</event>
<event>
 7    1  0.2232484E-015  0.9000789E+02  0.7816164E-02  0.1186339E+00
        -11   -1    0    0    0    0  0.00000000000E+00  0.00000000000E+00  0.45593999997E+02  0.45594000000E+02  0.51100000000E-03 0.  1.
         11   -1    0    0    0    0 -0.00000000000E+00 -0.00000000000E+00 -0.45593999997E+02  0.45594000000E+02  0.51100000000E-03 0. -1.
    9900012    2    1    2    0    0  0.65697009444E+00 -0.34483786341E-01 -0.97972087630E+00  0.90007893296E+02  0.90000156688E+02 0.  0.
        -12    1    1    2    0    0 -0.65697009444E+00  0.34483786341E-01  0.97972087630E+00  0.11801067036E+01  0.00000000000E+00 0.  1.
         11    1    3    3    0    0 -0.13713296371E+02  0.30784526965E+02 -0.26132139203E+02  0.42645401832E+02  0.51100000000E-03 0. -1.
        -11    1    3    3    0    0  0.60927426464E+00 -0.93312673910E+01 -0.25567716030E+01  0.96943719519E+01  0.51100000000E-03 0.  1.
        -12    1    3    3    0    0  0.13760992200E+02 -0.21487743360E+02  0.27709189930E+02  0.37668119513E+02  0.00000000000E+00 0.  1.
</event>
<event>
 7    1  0.2232484E-015  0.9000779E+02  0.7816164E-02  0.1186339E+00
        -11   -1    0    0    0    0  0.00000000000E+00  0.00000000000E+00  0.45593999997E+02  0.45594000000E+02  0.51100000000E-03 0. -1.
         11   -1    0    0    0    0 -0.00000000000E+00 -0.00000000000E+00 -0.45593999997E+02  0.45594000000E+02  0.51100000000E-03 0.  1.
    9900012    2    1    2    0    0  0.62091373604E+00  0.67585040373E+00  0.74201755114E+00  0.90007789137E+02  0.90000051153E+02 0.  0.
        -12    1    1    2    0    0 -0.62091373604E+00 -0.67585040373E+00 -0.74201755114E+00  0.11802108634E+01  0.00000000000E+00 0.  1.
         11    1    3    3    0    0  0.12473182703E+02 -0.18516691459E+02  0.29568583352E+02  0.37050631183E+02  0.51100000000E-03 0. -1.
        -11    1    3    3    0    0  0.99128047967E+01 -0.23995792234E+01  0.91874277429E+00  0.10240398817E+02  0.51100000000E-03 0.  1.
        -12    1    3    3    0    0 -0.21765073764E+02  0.21592121086E+02 -0.29745308575E+02  0.42716759137E+02  0.00000000000E+00 0.  1.
</event>
<event>
 7    1  0.3565495E-015  0.9000761E+02  0.7816164E-02  0.1186339E+00
        -11   -1    0    0    0    0  0.00000000000E+00  0.00000000000E+00  0.45593999997E+02  0.45594000000E+02  0.51100000000E-03 0. -1.
         11   -1    0    0    0    0 -0.00000000000E+00 -0.00000000000E+00 -0.45593999997E+02  0.45594000000E+02  0.51100000000E-03 0.  1.
    9900012    2    1    2    0    0 -0.17621557737E+00 -0.20603992317E+00  0.11488357347E+01  0.90007606877E+02  0.89999866488E+02 0.  0.
        -12    1    1    2    0    0  0.17621557737E+00  0.20603992317E+00 -0.11488357347E+01  0.11803931231E+01  0.00000000000E+00 0.  1.
         11    1    3    3    0    0  0.76046604934E+01 -0.56824127180E+01  0.23343973323E+01  0.97759954319E+01  0.51100000000E-03 0. -1.
        -11    1    3    3    0    0 -0.54973621806E+00 -0.27295780814E+02 -0.26613003939E+02  0.38126288032E+02  0.51100000000E-03 0.  1.
         12    1    3    3    0    0 -0.72311398527E+01  0.32772153609E+02  0.25427442342E+02  0.42105323413E+02  0.00000000000E+00 0. -1.
</event>
<event>
 7    1  0.2232484E-015  0.9000772E+02  0.7816164E-02  0.1186339E+00
        -11   -1    0    0    0    0  0.00000000000E+00  0.00000000000E+00  0.45593999997E+02  0.45594000000E+02  0.51100000000E-03 0.  1.
         11   -1    0    0    0    0 -0.00000000000E+00 -0.00000000000E+00 -0.45593999997E+02  0.45594000000E+02  0.51100000000E-03 0. -1.
    9900012    2    1    2    0    0  0.57570984437E+00  0.52301688655E+00 -0.88773726517E+00  0.90007717856E+02  0.89999978931E+02 0.  0.
        -12    1    1    2    0    0 -0.57570984437E+00 -0.52301688655E+00  0.88773726517E+00  0.11802821444E+01  0.00000000000E+00 0.  1.
         11    1    3    3    0    0 -0.24804050967E+02  0.78028549530E+01 -0.25800522615E+02  0.36630485353E+02  0.51100000000E-03 0. -1.
        -11    1    3    3    0    0 -0.79036333021E+01  0.46360242202E+01 -0.14509378068E+01  0.92771418403E+01  0.51100000000E-03 0.  1.
        -12    1    3    3    0    0  0.33283394113E+02 -0.11915862287E+02  0.26363723156E+02  0.44100090662E+02  0.00000000000E+00 0.  1.
</event>
<event>
 7    1  0.2232484E-015  0.9000870E+02  0.7816164E-02  0.1186337E+00
        -11   -1    0    0    0    0  0.00000000000E+00  0.00000000000E+00  0.45593999997E+02  0.45594000000E+02  0.51100000000E-03 0.  1.
         11   -1    0    0    0    0 -0.00000000000E+00 -0.00000000000E+00 -0.45593999997E+02  0.45594000000E+02  0.51100000000E-03 0. -1.
    9900012    2    1    2    0    0 -0.72983520917E+00  0.77977081469E+00 -0.50004947295E+00  0.90008698753E+02  0.90000972771E+02 0.  0.
        -12    1    1    2    0    0  0.72983520917E+00 -0.77977081469E+00  0.50004947295E+00  0.11793012471E+01  0.00000000000E+00 0.  1.
         11    1    3    3    0    0 -0.40221040205E+01  0.17659153242E+01 -0.94929876914E+01  0.10460047479E+02  0.51100000000E-03 0. -1.
        -11    1    3    3    0    0 -0.27444226667E+02 -0.24710009956E+02  0.15732616374E+02  0.40140819468E+02  0.51100000000E-03 0.  1.
         12    1    3    3    0    0  0.30736495478E+02  0.23723865447E+02 -0.67396781556E+01  0.39407831806E+02  0.00000000000E+00 0. -1.
</event>
<event>
 7    1  0.2232484E-015  0.9000772E+02  0.7816164E-02  0.1186339E+00
        -11   -1    0    0    0    0  0.00000000000E+00  0.00000000000E+00  0.45593999997E+02  0.45594000000E+02  0.51100000000E-03 0. -1.
         11   -1    0    0    0    0 -0.00000000000E+00 -0.00000000000E+00 -0.45593999997E+02  0.45594000000E+02  0.51100000000E-03 0.  1.
    9900012    2    1    2    0    0 -0.65407400326E+00  0.94619353501E+00  0.26450216978E+00  0.90007721895E+02  0.89999983024E+02 0.  0.
        -12    1    1    2    0    0  0.65407400326E+00 -0.94619353501E+00 -0.26450216978E+00  0.11802781050E+01  0.00000000000E+00 0.  1.
         11    1    3    3    0    0  0.28783645207E+02  0.21832550772E+02 -0.68099182310E+01  0.36763208391E+02  0.51100000000E-03 0. -1.
        -11    1    3    3    0    0  0.50763120679E+01  0.63850327635E+01  0.41688660616E+01  0.91606240018E+01  0.51100000000E-03 0.  1.
        -12    1    3    3    0    0 -0.34514031278E+02 -0.27271390001E+02  0.29055543392E+01  0.44083889502E+02  0.00000000000E+00 0.  1.
</event>
<event>
 7    1  0.2232484E-015  0.9000784E+02  0.7816164E-02  0.1186339E+00
        -11   -1    0    0    0    0  0.00000000000E+00  0.00000000000E+00  0.45593999997E+02  0.45594000000E+02  0.51100000000E-03 0.  1.
         11   -1    0    0    0    0 -0.00000000000E+00 -0.00000000000E+00 -0.45593999997E+02  0.45594000000E+02  0.51100000000E-03 0. -1.
    9900012    2    1    2    0    0 -0.15744709742E+00  0.11149113002E+01  0.35349036262E+00  0.90007842285E+02  0.90000105003E+02 0.  0.
        -12    1    1    2    0    0  0.15744709742E+00 -0.11149113002E+01 -0.35349036262E+00  0.11801577150E+01  0.00000000000E+00 0.  1.
         11    1    3    3    0    0 -0.24805324052E+02 -0.25124405576E+02  0.20966772766E+02  0.41062701048E+02  0.51100000000E-03 0. -1.
        -11    1    3    3    0    0 -0.36783216550E+01  0.63319357828E+01 -0.10638157735E+02  0.12914869772E+02  0.51100000000E-03 0.  1.
        -12    1    3    3    0    0  0.28326198610E+02  0.19907381093E+02 -0.99751246682E+01  0.36030271465E+02  0.00000000000E+00 0.  1.
</event>
<event>
 7    1  0.2232484E-015  0.9000744E+02  0.7816164E-02  0.1186340E+00
        -11   -1    0    0    0    0  0.00000000000E+00  0.00000000000E+00  0.45593999997E+02  0.45594000000E+02  0.51100000000E-03 0. -1.
         11   -1    0    0    0    0 -0.00000000000E+00 -0.00000000000E+00 -0.45593999997E+02  0.45594000000E+02  0.51100000000E-03 0.  1.
    9900012    2    1    2    0    0  0.26410023357E+00 -0.26047612582E+00  0.11207687978E+01  0.90007441046E+02  0.89999698467E+02 0.  0.
        -12    1    1    2    0    0 -0.26410023357E+00  0.26047612582E+00 -0.11207687978E+01  0.11805589539E+01  0.00000000000E+00 0.  1.
         11    1    3    3    0    0 -0.23429126930E+01  0.86973979216E+01  0.20777909036E+01  0.92439810577E+01  0.51100000000E-03 0. -1.
        -11    1    3    3    0    0 -0.29241295656E+02 -0.18313441381E+02 -0.22500588022E+02  0.41191163718E+02  0.51100000000E-03 0.  1.
         12    1    3    3    0    0  0.31848308583E+02  0.93555673335E+01  0.21543565916E+02  0.39572296270E+02  0.00000000000E+00 0. -1.
</event>
<event>
 7    1  0.2232484E-015  0.9000776E+02  0.7816164E-02  0.1186339E+00
        -11   -1    0    0    0    0  0.00000000000E+00  0.00000000000E+00  0.45593999997E+02  0.45594000000E+02  0.51100000000E-03 0.  1.
         11   -1    0    0    0    0 -0.00000000000E+00 -0.00000000000E+00 -0.45593999997E+02  0.45594000000E+02  0.51100000000E-03 0. -1.
    9900012    2    1    2    0    0  0.11724146925E+01 -0.46360923014E-01 -0.12752441126E+00  0.90007759337E+02  0.90000020961E+02 0.  0.
        -12    1    1    2    0    0 -0.11724146925E+01  0.46360923014E-01  0.12752441126E+00  0.11802406627E+01  0.00000000000E+00 0.  1.
         11    1    3    3    0    0  0.41127308497E+02 -0.41424308220E+01 -0.81861264235E+00  0.41343504499E+02  0.51100000000E-03 0. -1.
        -11    1    3    3    0    0 -0.16677127933E+01  0.91231912681E+01  0.35781571545E+01  0.99406787373E+01  0.51100000000E-03 0.  1.
        -12    1    3    3    0    0 -0.38287181012E+02 -0.50271213691E+01 -0.28870689234E+01  0.38723576101E+02  0.00000000000E+00 0.  1.
</event>
<event>
 7    1  0.2232484E-015  0.9000769E+02  0.7816164E-02  0.1186339E+00
        -11   -1    0    0    0    0  0.00000000000E+00  0.00000000000E+00  0.45593999997E+02  0.45594000000E+02  0.51100000000E-03 0.  1.
         11   -1    0    0    0    0 -0.00000000000E+00 -0.00000000000E+00 -0.45593999997E+02  0.45594000000E+02  0.51100000000E-03 0. -1.
    9900012    2    1    2    0    0 -0.55213818961E+00 -0.88428176723E+00  0.55346077557E+00  0.90007690865E+02  0.89999951584E+02 0.  0.
        -12    1    1    2    0    0  0.55213818961E+00  0.88428176723E+00 -0.55346077557E+00  0.11803091351E+01  0.00000000000E+00 0.  1.
         11    1    3    3    0    0 -0.28392982227E+01  0.64711347982E+01  0.51961627954E+01  0.87713914536E+01  0.51100000000E-03 0. -1.
        -11    1    3    3    0    0 -0.27878488181E+02  0.14316933885E+02  0.19523011363E+02  0.36923335061E+02  0.51100000000E-03 0.  1.
         12    1    3    3    0    0  0.30165648214E+02 -0.21672350451E+02 -0.24165713382E+02  0.44312964350E+02  0.00000000000E+00 0. -1.
</event>
<event>
 7    1  0.2232484E-015  0.9000769E+02  0.7816164E-02  0.1186339E+00
        -11   -1    0    0    0    0  0.00000000000E+00  0.00000000000E+00  0.45593999997E+02  0.45594000000E+02  0.51100000000E-03 0. -1.
         11   -1    0    0    0    0 -0.00000000000E+00 -0.00000000000E+00 -0.45593999997E+02  0.45594000000E+02  0.51100000000E-03 0.  1.
    9900012    2    1    2    0    0 -0.11591604113E+01  0.85907324475E-01 -0.20517583737E+00  0.90007690697E+02  0.89999951414E+02 0.  0.
        -12    1    1    2    0    0  0.11591604113E+01 -0.85907324475E-01  0.20517583737E+00  0.11803093034E+01  0.00000000000E+00 0.  1.
         11    1    3    3    0    0 -0.41388527837E+02  0.54919316065E+00 -0.79746853458E+01  0.42153380129E+02  0.51100000000E-03 0. -1.
        -11    1    3    3    0    0  0.29747771457E+01 -0.83758288618E+01 -0.41939266959E+00  0.88982975147E+01  0.51100000000E-03 0.  1.
        -12    1    3    3    0    0  0.37254590280E+02  0.79125430256E+01  0.81889021780E+01  0.38956013053E+02  0.00000000000E+00 0.  1.
</event>
<event>
 7    1  0.2232484E-015  0.9000766E+02  0.7816164E-02  0.1186339E+00
        -11   -1    0    0    0    0  0.00000000000E+00  0.00000000000E+00  0.45593999997E+02  0.45594000000E+02  0.51100000000E-03 0. -1.
         11   -1    0    0    0    0 -0.00000000000E+00 -0.00000000000E+00 -0.45593999997E+02  0.45594000000E+02  0.51100000000E-03 0.  1.
    9900012    2    1    2    0    0  0.11388926041E+01 -0.26550196753E+00  0.16009630532E+00  0.90007661707E+02  0.89999922042E+02 0.  0.
        -12    1    1    2    0    0 -0.11388926041E+01  0.26550196753E+00 -0.16009630532E+00  0.11803382928E+01  0.00000000000E+00 0.  1.
         11    1    3    3    0    0 -0.33277307029E+02  0.46782405056E+01  0.22142756508E+02  0.40243841309E+02  0.51100000000E-03 0. -1.
        -11    1    3    3    0    0 -0.70769973942E-01 -0.94736664589E+01 -0.21175892265E+01  0.97077056485E+01  0.51100000000E-03 0.  1.
        -12    1    3    3    0    0  0.34486969607E+02  0.45299239858E+01 -0.19865070976E+02  0.40056114750E+02  0.00000000000E+00 0.  1.
</event>
<event>
 7    1  0.2976136E-015  0.9000775E+02  0.7816164E-02  0.1186339E+00
        -11   -1    0    0    0    0  0.00000000000E+00  0.00000000000E+00  0.45593999997E+02  0.45594000000E+02  0.51100000000E-03 0. -1.
         11   -1    0    0    0    0 -0.00000000000E+00 -0.00000000000E+00 -0.45593999997E+02  0.45594000000E+02  0.51100000000E-03 0.  1.
    9900012    2    1    2    0    0  0.71153025337E+00 -0.11039712289E+00  0.93515969704E+00  0.90007751515E+02  0.90000013036E+02 0.  0.
        -12    1    1    2    0    0 -0.71153025337E+00  0.11039712289E+00 -0.93515969704E+00  0.11802484845E+01  0.00000000000E+00 0.  1.
         11    1    3    3    0    0 -0.17853263136E+01 -0.48690876201E+01  0.91935151859E+01  0.10555383746E+02  0.51100000000E-03 0. -1.
        -11    1    3    3    0    0  0.22058545865E+02 -0.13940614133E+02 -0.33487995284E+02  0.42454281250E+02  0.51100000000E-03 0.  1.
         12    1    3    3    0    0 -0.19561689298E+02  0.18699304630E+02  0.25229639795E+02  0.36998086519E+02  0.00000000000E+00 0. -1.
</event>
<event>
 7    1  0.2232484E-015  0.9000777E+02  0.7816164E-02  0.1186339E+00
        -11   -1    0    0    0    0  0.00000000000E+00  0.00000000000E+00  0.45593999997E+02  0.45594000000E+02  0.51100000000E-03 0. -1.
         11   -1    0    0    0    0 -0.00000000000E+00 -0.00000000000E+00 -0.45593999997E+02  0.45594000000E+02  0.51100000000E-03 0.  1.
    9900012    2    1    2    0    0 -0.83350587378E+00 -0.47209248279E+00 -0.68945486684E+00  0.90007766393E+02  0.90000028109E+02 0.  0.
        -12    1    1    2    0    0  0.83350587378E+00  0.47209248279E+00  0.68945486684E+00  0.11802336071E+01  0.00000000000E+00 0.  1.
         11    1    3    3    0    0 -0.39963589017E+01 -0.85486200433E+01 -0.85258170525E+01  0.12717678475E+02  0.51100000000E-03 0. -1.
        -11    1    3    3    0    0 -0.21058362871E+01 -0.22507626959E+02 -0.23902859517E+02  0.32899460652E+02  0.51100000000E-03 0.  1.
         12    1    3    3    0    0  0.52686893150E+01  0.30584154520E+02  0.31739221703E+02  0.44390627266E+02  0.00000000000E+00 0. -1.
</event>
<event>
 7    1  0.2232484E-015  0.9000777E+02  0.7816164E-02  0.1186339E+00
        -11   -1    0    0    0    0  0.00000000000E+00  0.00000000000E+00  0.45593999997E+02  0.45594000000E+02  0.51100000000E-03 0.  1.
         11   -1    0    0    0    0 -0.00000000000E+00 -0.00000000000E+00 -0.45593999997E+02  0.45594000000E+02  0.51100000000E-03 0. -1.
    9900012    2    1    2    0    0 -0.81628503468E+00 -0.60035616669E+00 -0.60513804907E+00  0.90007770851E+02  0.90000032627E+02 0.  0.
        -12    1    1    2    0    0  0.81628503468E+00  0.60035616669E+00  0.60513804907E+00  0.11802291486E+01  0.00000000000E+00 0.  1.
         11    1    3    3    0    0 -0.85380050162E+01  0.27026473156E+00 -0.48265760985E+01  0.98115447192E+01  0.51100000000E-03 0. -1.
        -11    1    3    3    0    0  0.31754045241E+02  0.27521243806E+02 -0.36368093567E+01  0.42177774151E+02  0.51100000000E-03 0.  1.
         12    1    3    3    0    0 -0.24032325260E+02 -0.28391864704E+02  0.78582474061E+01  0.38018451981E+02  0.00000000000E+00 0. -1.
</event>
<event>
 7    1  0.2232484E-015  0.9000706E+02  0.7816164E-02  0.1186340E+00
        -11   -1    0    0    0    0  0.00000000000E+00  0.00000000000E+00  0.45593999997E+02  0.45594000000E+02  0.51100000000E-03 0.  1.
         11   -1    0    0    0    0 -0.00000000000E+00 -0.00000000000E+00 -0.45593999997E+02  0.45594000000E+02  0.51100000000E-03 0. -1.
    9900012    2    1    2    0    0 -0.10972738966E+01  0.39474408088E+00  0.18649218095E+00  0.90007062988E+02  0.89999315416E+02 0.  0.
        -12    1    1    2    0    0  0.10972738966E+01 -0.39474408088E+00 -0.18649218095E+00  0.11809370123E+01  0.00000000000E+00 0.  1.
         11    1    3    3    0    0  0.26146545449E+00 -0.87098233207E+01 -0.65255478576E+01  0.10886329113E+02  0.51100000000E-03 0. -1.
        -11    1    3    3    0    0  0.97794703072E+01 -0.11329297347E+02  0.37587105496E+02  0.40457156570E+02  0.51100000000E-03 0.  1.
         12    1    3    3    0    0 -0.11138209658E+02  0.20433864749E+02 -0.30875065458E+02  0.38663577304E+02  0.00000000000E+00 0. -1.
</event>
<event>
 7    1  0.2232484E-015  0.9000785E+02  0.7816164E-02  0.1186339E+00
        -11   -1    0    0    0    0  0.00000000000E+00  0.00000000000E+00  0.45593999997E+02  0.45594000000E+02  0.51100000000E-03 0.  1.
         11   -1    0    0    0    0 -0.00000000000E+00 -0.00000000000E+00 -0.45593999997E+02  0.45594000000E+02  0.51100000000E-03 0. -1.
    9900012    2    1    2    0    0 -0.17820710649E-01 -0.11772755298E+01 -0.80339209372E-01  0.90007851857E+02  0.90000114701E+02 0.  0.
        -12    1    1    2    0    0  0.17820710649E-01  0.11772755298E+01  0.80339209372E-01  0.11801481430E+01  0.00000000000E+00 0.  1.
         11    1    3    3    0    0 -0.33422395168E+02 -0.15079288632E+02 -0.42811493077E+00  0.36669124984E+02  0.51100000000E-03 0. -1.
        -11    1    3    3    0    0 -0.86619066243E+01  0.81283517171E+00  0.30011995857E+01  0.92030715850E+01  0.51100000000E-03 0.  1.
        -12    1    3    3    0    0  0.42066481082E+02  0.13089177931E+02 -0.26534238643E+01  0.44135655288E+02  0.00000000000E+00 0.  1.
</event>
<event>
 7    1  0.2232484E-015  0.9000713E+02  0.7816164E-02  0.1186340E+00
        -11   -1    0    0    0    0  0.00000000000E+00  0.00000000000E+00  0.45593999997E+02  0.45594000000E+02  0.51100000000E-03 0.  1.
         11   -1    0    0    0    0 -0.00000000000E+00 -0.00000000000E+00 -0.45593999997E+02  0.45594000000E+02  0.51100000000E-03 0. -1.
    9900012    2    1    2    0    0 -0.25999747318E+00 -0.11438669700E+01 -0.13570203028E+00  0.90007133635E+02  0.89999386997E+02 0.  0.
        -12    1    1    2    0    0  0.25999747318E+00  0.11438669700E+01  0.13570203028E+00  0.11808663651E+01  0.00000000000E+00 0.  1.
         11    1    3    3    0    0 -0.26165678284E+02  0.21833915018E+02 -0.23971743555E+02  0.41665417968E+02  0.51100000000E-03 0. -1.
        -11    1    3    3    0    0 -0.94554934521E+00 -0.29043438213E+01  0.12628884105E+02  0.12992997752E+02  0.51100000000E-03 0.  1.
        -12    1    3    3    0    0  0.26851230156E+02 -0.20073438167E+02  0.11207157420E+02  0.35348717915E+02  0.00000000000E+00 0.  1.
</event>
<event>
 7    1  0.2232484E-015  0.9000779E+02  0.7816164E-02  0.1186339E+00
        -11   -1    0    0    0    0  0.00000000000E+00  0.00000000000E+00  0.45593999997E+02  0.45594000000E+02  0.51100000000E-03 0.  1.
         11   -1    0    0    0    0 -0.00000000000E+00 -0.00000000000E+00 -0.45593999997E+02  0.45594000000E+02  0.51100000000E-03 0. -1.
    9900012    2    1    2    0    0 -0.12621116358E+00  0.11718366756E+01 -0.61359938704E-01  0.90007790064E+02  0.90000052092E+02 0.  0.
        -12    1    1    2    0    0  0.12621116358E+00 -0.11718366756E+01  0.61359938704E-01  0.11802099364E+01  0.00000000000E+00 0.  1.
         11    1    3    3    0    0  0.26401172306E+02  0.37736857463E+01 -0.33816251722E+02  0.43067406284E+02  0.51100000000E-03 0. -1.
        -11    1    3    3    0    0 -0.45747510353E+01 -0.77838611850E+01  0.47643578531E+01  0.10208621258E+02  0.51100000000E-03 0.  1.
        -12    1    3    3    0    0 -0.21952632434E+02  0.51820121142E+01  0.28990533931E+02  0.36731762521E+02  0.00000000000E+00 0.  1.
</event>
<event>
 7    1  0.2232484E-015  0.9000785E+02  0.7816164E-02  0.1186339E+00
        -11   -1    0    0    0    0  0.00000000000E+00  0.00000000000E+00  0.45593999997E+02  0.45594000000E+02  0.51100000000E-03 0.  1.
         11   -1    0    0    0    0 -0.00000000000E+00 -0.00000000000E+00 -0.45593999997E+02  0.45594000000E+02  0.51100000000E-03 0. -1.
    9900012    2    1    2    0    0 -0.18301660789E+00  0.81901691791E+00 -0.82974123495E+00  0.90007849879E+02  0.90000112698E+02 0.  0.
        -12    1    1    2    0    0  0.18301660789E+00 -0.81901691791E+00  0.82974123495E+00  0.11801501208E+01  0.00000000000E+00 0.  1.
         11    1    3    3    0    0  0.57724612660E-01 -0.82936721674E+01 -0.21700669882E+01  0.85730695288E+01  0.51100000000E-03 0. -1.
        -11    1    3    3    0    0 -0.20265868006E+01 -0.33821366433E+02  0.13965465974E+02  0.36647320797E+02  0.51100000000E-03 0.  1.
         12    1    3    3    0    0  0.17858455800E+01  0.42934055518E+02 -0.12625140221E+02  0.44787459554E+02  0.00000000000E+00 0. -1.
</event>
<event>
 7    1  0.2232484E-015  0.9000777E+02  0.7816164E-02  0.1186339E+00
        -11   -1    0    0    0    0  0.00000000000E+00  0.00000000000E+00  0.45593999997E+02  0.45594000000E+02  0.51100000000E-03 0.  1.
         11   -1    0    0    0    0 -0.00000000000E+00 -0.00000000000E+00 -0.45593999997E+02  0.45594000000E+02  0.51100000000E-03 0. -1.
    9900012    2    1    2    0    0 -0.60018904743E-02 -0.11757980436E+01  0.10200074635E+00  0.90007770694E+02  0.90000032467E+02 0.  0.
        -12    1    1    2    0    0  0.60018904743E-02  0.11757980436E+01 -0.10200074635E+00  0.11802293058E+01  0.00000000000E+00 0.  1.
         11    1    3    3    0    0  0.36290569452E+02  0.48645630287E+01  0.34623208068E+01  0.36778486514E+02  0.51100000000E-03 0. -1.
        -11    1    3    3    0    0  0.74439299325E+01  0.16676214021E+01 -0.43927940422E+01  0.88028230551E+01  0.51100000000E-03 0.  1.
        -12    1    3    3    0    0 -0.43740501275E+02 -0.77079824744E+01  0.10324739818E+01  0.44426461125E+02  0.00000000000E+00 0.  1.
</event>
<event>
 7    1  0.2232484E-015  0.9000781E+02  0.7816164E-02  0.1186339E+00
        -11   -1    0    0    0    0  0.00000000000E+00  0.00000000000E+00  0.45593999997E+02  0.45594000000E+02  0.51100000000E-03 0. -1.
         11   -1    0    0    0    0 -0.00000000000E+00 -0.00000000000E+00 -0.45593999997E+02  0.45594000000E+02  0.51100000000E-03 0.  1.
    9900012    2    1    2    0    0  0.32378351966E+00  0.94884342098E+00 -0.62266253150E+00  0.90007810086E+02  0.90000072379E+02 0.  0.
        -12    1    1    2    0    0 -0.32378351966E+00 -0.94884342098E+00  0.62266253150E+00  0.11801899141E+01  0.00000000000E+00 0.  1.
         11    1    3    3    0    0  0.43544632475E+01 -0.35644053660E+02  0.13732104010E+02  0.38445163445E+02  0.51100000000E-03 0. -1.
        -11    1    3    3    0    0  0.13055746989E+02  0.16961966299E+02  0.84940913850E+00  0.21421538841E+02  0.51100000000E-03 0.  1.
        -12    1    3    3    0    0 -0.17086426717E+02  0.19630930783E+02 -0.15204175680E+02  0.30141107800E+02  0.00000000000E+00 0.  1.
</event>
<event>
 7    1  0.2232484E-015  0.9000866E+02  0.7816164E-02  0.1186337E+00
        -11   -1    0    0    0    0  0.00000000000E+00  0.00000000000E+00  0.45593999997E+02  0.45594000000E+02  0.51100000000E-03 0. -1.
         11   -1    0    0    0    0 -0.00000000000E+00 -0.00000000000E+00 -0.45593999997E+02  0.45594000000E+02  0.51100000000E-03 0.  1.
    9900012    2    1    2    0    0 -0.56076388881E+00 -0.33868068957E+00  0.98064960843E+00  0.90008663575E+02  0.90000937129E+02 0.  0.
        -12    1    1    2    0    0  0.56076388881E+00  0.33868068957E+00 -0.98064960843E+00  0.11793364249E+01  0.00000000000E+00 0.  1.
         11    1    3    3    0    0 -0.83855797665E+00 -0.25323232358E+01 -0.75132731695E+01  0.79727733212E+01  0.51100000000E-03 0. -1.
        -11    1    3    3    0    0 -0.77604162321E+01  0.23096126653E+02 -0.29298869627E+02  0.38106152891E+02  0.51100000000E-03 0.  1.
         12    1    3    3    0    0  0.80382103199E+01 -0.20902484107E+02  0.37792792405E+02  0.43929737363E+02  0.00000000000E+00 0. -1.
</event>
<event>
 7    1  0.2232484E-015  0.9000782E+02  0.7816164E-02  0.1186339E+00
        -11   -1    0    0    0    0  0.00000000000E+00  0.00000000000E+00  0.45593999997E+02  0.45594000000E+02  0.51100000000E-03 0.  1.
         11   -1    0    0    0    0 -0.00000000000E+00 -0.00000000000E+00 -0.45593999997E+02  0.45594000000E+02  0.51100000000E-03 0. -1.
    9900012    2    1    2    0    0 -0.20361185717E+00  0.42331042729E+00 -0.10826744656E+01  0.90007816326E+02  0.90000078701E+02 0.  0.
        -12    1    1    2    0    0  0.20361185717E+00 -0.42331042729E+00  0.10826744656E+01  0.11801836742E+01  0.00000000000E+00 0.  1.
         11    1    3    3    0    0 -0.30647120922E+02 -0.18693302791E+01  0.59321953102E+01  0.31271894058E+02  0.51100000000E-03 0. -1.
        -11    1    3    3    0    0 -0.10035362839E+02 -0.11192102612E+02  0.18899077766E+01  0.15150690408E+02  0.51100000000E-03 0.  1.
        -12    1    3    3    0    0  0.40478871904E+02  0.13484743318E+02 -0.89047775524E+01  0.43585231860E+02  0.00000000000E+00 0.  1.
</event>
<event>
 7    1  0.2232484E-015  0.9000774E+02  0.7816164E-02  0.1186339E+00
        -11   -1    0    0    0    0  0.00000000000E+00  0.00000000000E+00  0.45593999997E+02  0.45594000000E+02  0.51100000000E-03 0. -1.
         11   -1    0    0    0    0 -0.00000000000E+00 -0.00000000000E+00 -0.45593999997E+02  0.45594000000E+02  0.51100000000E-03 0.  1.
    9900012    2    1    2    0    0 -0.52245571615E+00  0.61342687767E+00  0.86242024947E+00  0.90007736811E+02  0.89999998136E+02 0.  0.
        -12    1    1    2    0    0  0.52245571615E+00 -0.61342687767E+00 -0.86242024947E+00  0.11802631894E+01  0.00000000000E+00 0.  1.
         11    1    3    3    0    0  0.60965417156E+01 -0.61555391210E+01 -0.43357286450E+01  0.96879835829E+01  0.51100000000E-03 0. -1.
        -11    1    3    3    0    0  0.15224025879E+02  0.36062101514E+02 -0.10533959407E+02  0.40536532050E+02  0.51100000000E-03 0.  1.
         12    1    3    3    0    0 -0.21843023311E+02 -0.29293135515E+02  0.15732108302E+02  0.39783221178E+02  0.00000000000E+00 0. -1.
</event>
<event>
 7    1  0.2232484E-015  0.9000768E+02  0.7816164E-02  0.1186339E+00
        -11   -1    0    0    0    0  0.00000000000E+00  0.00000000000E+00  0.45593999997E+02  0.45594000000E+02  0.51100000000E-03 0. -1.
         11   -1    0    0    0    0 -0.00000000000E+00 -0.00000000000E+00 -0.45593999997E+02  0.45594000000E+02  0.51100000000E-03 0.  1.
    9900012    2    1    2    0    0 -0.11028789857E+01 -0.21085180370E+00  0.36381634296E+00  0.90007676794E+02  0.89999937327E+02 0.  0.
        -12    1    1    2    0    0  0.11028789857E+01  0.21085180370E+00 -0.36381634296E+00  0.11803232064E+01  0.00000000000E+00 0.  1.
         11    1    3    3    0    0  0.60992854839E+01  0.43010611047E+01  0.35630417887E+02  0.36403668621E+02  0.51100000000E-03 0. -1.
        -11    1    3    3    0    0  0.53387163282E+01 -0.23493542348E+01  0.72031455490E+01  0.92685847579E+01  0.51100000000E-03 0.  1.
        -12    1    3    3    0    0 -0.12540880798E+02 -0.21625586736E+01 -0.42469747093E+02  0.44335423414E+02  0.00000000000E+00 0.  1.
</event>
<event>
 7    1  0.2232484E-015  0.9000778E+02  0.7816164E-02  0.1186339E+00
        -11   -1    0    0    0    0  0.00000000000E+00  0.00000000000E+00  0.45593999997E+02  0.45594000000E+02  0.51100000000E-03 0.  1.
         11   -1    0    0    0    0 -0.00000000000E+00 -0.00000000000E+00 -0.45593999997E+02  0.45594000000E+02  0.51100000000E-03 0. -1.
    9900012    2    1    2    0    0  0.94470133631E+00 -0.66795889433E+00  0.23298898987E+00  0.90007782406E+02  0.90000044334E+02 0.  0.
        -12    1    1    2    0    0 -0.94470133631E+00  0.66795889433E+00 -0.23298898987E+00  0.11802175938E+01  0.00000000000E+00 0.  1.
         11    1    3    3    0    0 -0.15944258074E+01  0.68753910211E+01  0.68763898285E+01  0.98538283262E+01  0.51100000000E-03 0. -1.
        -11    1    3    3    0    0  0.11185836328E+02  0.34456041853E+02  0.24902870179E+01  0.36311751324E+02  0.51100000000E-03 0.  1.
         12    1    3    3    0    0 -0.86467091838E+01 -0.41999391768E+02 -0.91336878565E+01  0.43842202756E+02  0.00000000000E+00 0. -1.
</event>
<event>
 7    1  0.2232484E-015  0.9000778E+02  0.7816164E-02  0.1186339E+00
        -11   -1    0    0    0    0  0.00000000000E+00  0.00000000000E+00  0.45593999997E+02  0.45594000000E+02  0.51100000000E-03 0.  1.
         11   -1    0    0    0    0 -0.00000000000E+00 -0.00000000000E+00 -0.45593999997E+02  0.45594000000E+02  0.51100000000E-03 0. -1.
    9900012    2    1    2    0    0  0.13301789022E+00  0.87871236883E+00 -0.77658730459E+00  0.90007780941E+02  0.90000042849E+02 0.  0.
        -12    1    1    2    0    0 -0.13301789022E+00 -0.87871236883E+00  0.77658730459E+00  0.11802190593E+01  0.00000000000E+00 0.  1.
         11    1    3    3    0    0  0.21128441761E+02  0.18850374752E+01 -0.34149602778E+02  0.40201489869E+02  0.51100000000E-03 0. -1.
        -11    1    3    3    0    0 -0.21461989297E+01 -0.84007333147E+01 -0.21363130327E+01  0.89298557494E+01  0.51100000000E-03 0.  1.
        -12    1    3    3    0    0 -0.18849224941E+02  0.73944082083E+01  0.35509328506E+02  0.40876435322E+02  0.00000000000E+00 0.  1.
</event>
<event>
 7    1  0.2232484E-015  0.9000771E+02  0.7816164E-02  0.1186339E+00
        -11   -1    0    0    0    0  0.00000000000E+00  0.00000000000E+00  0.45593999997E+02  0.45594000000E+02  0.51100000000E-03 0.  1.
         11   -1    0    0    0    0 -0.00000000000E+00 -0.00000000000E+00 -0.45593999997E+02  0.45594000000E+02  0.51100000000E-03 0. -1.
    9900012    2    1    2    0    0 -0.32851215397E+00 -0.10492900321E+01 -0.42914544015E+00  0.90007705284E+02  0.89999966194E+02 0.  0.
        -12    1    1    2    0    0  0.32851215397E+00  0.10492900321E+01  0.42914544015E+00  0.11802947155E+01  0.00000000000E+00 0.  1.
         11    1    3    3    0    0  0.29189119794E+02  0.20121975667E+02  0.56421772387E+01  0.35898924543E+02  0.51100000000E-03 0. -1.
        -11    1    3    3    0    0  0.49838801428E+01  0.35872663976E+01  0.73453422343E+01  0.95740061774E+01  0.51100000000E-03 0.  1.
        -12    1    3    3    0    0 -0.34501512090E+02 -0.24758532097E+02 -0.13416664913E+02  0.44534774564E+02  0.00000000000E+00 0.  1.
</event>
<event>
 7    1  0.2232484E-015  0.9000773E+02  0.7816164E-02  0.1186339E+00
        -11   -1    0    0    0    0  0.00000000000E+00  0.00000000000E+00  0.45593999997E+02  0.45594000000E+02  0.51100000000E-03 0.  1.
         11   -1    0    0    0    0 -0.00000000000E+00 -0.00000000000E+00 -0.45593999997E+02  0.45594000000E+02  0.51100000000E-03 0. -1.
    9900012    2    1    2    0    0 -0.21324574745E+00  0.10675100672E+01 -0.45605254215E+00  0.90007730788E+02  0.89999992034E+02 0.  0.
        -12    1    1    2    0    0  0.21324574745E+00 -0.10675100672E+01  0.45605254215E+00  0.11802692123E+01  0.00000000000E+00 0.  1.
         11    1    3    3    0    0 -0.69387383824E+01 -0.14517031307E+02 -0.35363721559E+02  0.38852066754E+02  0.51100000000E-03 0. -1.
        -11    1    3    3    0    0 -0.88997235871E+01  0.43298443377E+00 -0.12048382447E+01  0.89913397724E+01  0.51100000000E-03 0.  1.
        -12    1    3    3    0    0  0.15625216222E+02  0.15151556940E+02  0.36112507262E+02  0.42164324261E+02  0.00000000000E+00 0.  1.
</event>
<event>
 7    1  0.2232484E-015  0.9000776E+02  0.7816164E-02  0.1186339E+00
        -11   -1    0    0    0    0  0.00000000000E+00  0.00000000000E+00  0.45593999997E+02  0.45594000000E+02  0.51100000000E-03 0.  1.
         11   -1    0    0    0    0 -0.00000000000E+00 -0.00000000000E+00 -0.45593999997E+02  0.45594000000E+02  0.51100000000E-03 0. -1.
    9900012    2    1    2    0    0 -0.39293695201E+00  0.11009827653E+01  0.16245853335E+00  0.90007764738E+02  0.90000026433E+02 0.  0.
        -12    1    1    2    0    0  0.39293695201E+00 -0.11009827653E+01 -0.16245853335E+00  0.11802352616E+01  0.00000000000E+00 0.  1.
         11    1    3    3    0    0  0.14401875888E+01  0.10550797960E+02  0.39023915492E+01  0.11341170043E+02  0.51100000000E-03 0. -1.
        -11    1    3    3    0    0  0.24406738036E+02  0.37817380603E+01  0.26689327528E+02  0.36363589048E+02  0.51100000000E-03 0.  1.
         12    1    3    3    0    0 -0.26239862577E+02 -0.13231553255E+02 -0.30429260543E+02  0.42303005647E+02  0.00000000000E+00 0. -1.
</event>
<event>
 7    1  0.2232484E-015  0.9000768E+02  0.7816164E-02  0.1186339E+00
        -11   -1    0    0    0    0  0.00000000000E+00  0.00000000000E+00  0.45593999997E+02  0.45594000000E+02  0.51100000000E-03 0. -1.
         11   -1    0    0    0    0 -0.00000000000E+00 -0.00000000000E+00 -0.45593999997E+02  0.45594000000E+02  0.51100000000E-03 0.  1.
    9900012    2    1    2    0    0  0.77262781669E+00  0.63590553471E+00  0.62596806955E+00  0.90007675631E+02  0.89999936149E+02 0.  0.
        -12    1    1    2    0    0 -0.77262781669E+00 -0.63590553471E+00 -0.62596806955E+00  0.11803243691E+01  0.00000000000E+00 0.  1.
         11    1    3    3    0    0  0.17428279311E+02  0.29078707280E+02  0.23798456255E+02  0.41420799814E+02  0.51100000000E-03 0. -1.
        -11    1    3    3    0    0  0.49684914187E+01  0.36370879346E+00 -0.81671584754E+01  0.95666435539E+01  0.51100000000E-03 0.  1.
        -12    1    3    3    0    0 -0.21624142913E+02 -0.28806510539E+02 -0.15005329710E+02  0.39020232263E+02  0.00000000000E+00 0.  1.
</event>
<event>
 7    1  0.2232484E-015  0.9000785E+02  0.7816164E-02  0.1186339E+00
        -11   -1    0    0    0    0  0.00000000000E+00  0.00000000000E+00  0.45593999997E+02  0.45594000000E+02  0.51100000000E-03 0.  1.
         11   -1    0    0    0    0 -0.00000000000E+00 -0.00000000000E+00 -0.45593999997E+02  0.45594000000E+02  0.51100000000E-03 0. -1.
    9900012    2    1    2    0    0  0.10929294155E+00 -0.11667220362E+01 -0.13984677919E+00  0.90007854933E+02  0.90000117818E+02 0.  0.
        -12    1    1    2    0    0 -0.10929294155E+00  0.11667220362E+01  0.13984677919E+00  0.11801450667E+01  0.00000000000E+00 0.  1.
         11    1    3    3    0    0 -0.74136363389E+01 -0.23180436790E+01  0.53995797569E+01  0.94599572977E+01  0.51100000000E-03 0. -1.
        -11    1    3    3    0    0  0.17124643347E+02 -0.26816058140E+02  0.23149705175E+02  0.39347976236E+02  0.51100000000E-03 0.  1.
         12    1    3    3    0    0 -0.96017140669E+01  0.27967379783E+02 -0.28689131711E+02  0.41199921399E+02  0.00000000000E+00 0. -1.
</event>
<event>
 7    1  0.2232484E-015  0.9000786E+02  0.7816164E-02  0.1186339E+00
        -11   -1    0    0    0    0  0.00000000000E+00  0.00000000000E+00  0.45593999997E+02  0.45594000000E+02  0.51100000000E-03 0.  1.
         11   -1    0    0    0    0 -0.00000000000E+00 -0.00000000000E+00 -0.45593999997E+02  0.45594000000E+02  0.51100000000E-03 0. -1.
    9900012    2    1    2    0    0  0.99638109063E+00  0.51614304521E+00 -0.36545763280E+00  0.90007856703E+02  0.90000119611E+02 0.  0.
        -12    1    1    2    0    0 -0.99638109063E+00 -0.51614304521E+00  0.36545763280E+00  0.11801432973E+01  0.00000000000E+00 0.  1.
         11    1    3    3    0    0  0.35711971401E+01 -0.41507554813E+02 -0.33194965584E+01  0.41792937361E+02  0.51100000000E-03 0. -1.
        -11    1    3    3    0    0 -0.24102661996E+01 -0.24628076183E+01  0.13445552028E+01  0.36990043893E+01  0.51100000000E-03 0.  1.
        -12    1    3    3    0    0 -0.16454984986E+00  0.44486505477E+02  0.16094837229E+01  0.44515914952E+02  0.00000000000E+00 0.  1.
</event>
<event>
 7    1  0.2232484E-015  0.9000792E+02  0.7816164E-02  0.1186339E+00
        -11   -1    0    0    0    0  0.00000000000E+00  0.00000000000E+00  0.45593999997E+02  0.45594000000E+02  0.51100000000E-03 0.  1.
         11   -1    0    0    0    0 -0.00000000000E+00 -0.00000000000E+00 -0.45593999997E+02  0.45594000000E+02  0.51100000000E-03 0. -1.
    9900012    2    1    2    0    0 -0.79082261184E+00 -0.85751040154E+00 -0.17851813403E+00  0.90007918132E+02  0.90000181851E+02 0.  0.
        -12    1    1    2    0    0  0.79082261184E+00  0.85751040154E+00  0.17851813403E+00  0.11800818685E+01  0.00000000000E+00 0.  1.
         11    1    3    3    0    0  0.12138082762E+02 -0.96530015014E+01  0.23095751798E+01  0.15679528975E+02  0.51100000000E-03 0. -1.
        -11    1    3    3    0    0  0.23640330865E+02  0.55633303670E+00  0.19691621705E+02  0.30772304358E+02  0.51100000000E-03 0.  1.
         12    1    3    3    0    0 -0.36569236238E+02  0.82391580632E+01 -0.22179715019E+02  0.43556084798E+02  0.00000000000E+00 0. -1.
</event>
<event>
 7    1  0.2232484E-015  0.9000757E+02  0.7816164E-02  0.1186339E+00
        -11   -1    0    0    0    0  0.00000000000E+00  0.00000000000E+00  0.45593999997E+02  0.45594000000E+02  0.51100000000E-03 0. -1.
         11   -1    0    0    0    0 -0.00000000000E+00 -0.00000000000E+00 -0.45593999997E+02  0.45594000000E+02  0.51100000000E-03 0.  1.
    9900012    2    1    2    0    0 -0.36714982652E+00  0.10063478948E+01  0.49585207428E+00  0.90007574500E+02  0.89999833684E+02 0.  0.
        -12    1    1    2    0    0  0.36714982652E+00 -0.10063478948E+01 -0.49585207428E+00  0.11804254996E+01  0.00000000000E+00 0.  1.
         11    1    3    3    0    0 -0.86974128551E+01 -0.24817792052E+01  0.13381056022E+02  0.16151064327E+02  0.51100000000E-03 0. -1.
        -11    1    3    3    0    0 -0.26172927373E+02  0.13643185134E+02  0.10073265042E+02  0.31187005255E+02  0.51100000000E-03 0.  1.
         12    1    3    3    0    0  0.34503190402E+02 -0.10155058034E+02 -0.22958468989E+02  0.42669504918E+02  0.00000000000E+00 0. -1.
</event>
<event>
 7    1  0.2232484E-015  0.9000773E+02  0.7816164E-02  0.1186339E+00
        -11   -1    0    0    0    0  0.00000000000E+00  0.00000000000E+00  0.45593999997E+02  0.45594000000E+02  0.51100000000E-03 0. -1.
         11   -1    0    0    0    0 -0.00000000000E+00 -0.00000000000E+00 -0.45593999997E+02  0.45594000000E+02  0.51100000000E-03 0.  1.
    9900012    2    1    2    0    0  0.32993328160E+00 -0.20321959901E+00  0.11148470571E+01  0.90007729634E+02  0.89999990865E+02 0.  0.
        -12    1    1    2    0    0 -0.32993328160E+00  0.20321959901E+00 -0.11148470571E+01  0.11802703659E+01  0.00000000000E+00 0.  1.
         11    1    3    3    0    0 -0.10254544247E+02 -0.82593796336E+01  0.27215196178E+01  0.13445434130E+02  0.51100000000E-03 0. -1.
        -11    1    3    3    0    0  0.67254424962E+01  0.37162847345E+02  0.17404026532E+02  0.41583758120E+02  0.51100000000E-03 0.  1.
         12    1    3    3    0    0  0.38590350326E+01 -0.29106687311E+02 -0.19010699092E+02  0.34978537385E+02  0.00000000000E+00 0. -1.
</event>
<event>
 7    1  0.2232484E-015  0.9000771E+02  0.7816164E-02  0.1186339E+00
        -11   -1    0    0    0    0  0.00000000000E+00  0.00000000000E+00  0.45593999997E+02  0.45594000000E+02  0.51100000000E-03 0. -1.
         11   -1    0    0    0    0 -0.00000000000E+00 -0.00000000000E+00 -0.45593999997E+02  0.45594000000E+02  0.51100000000E-03 0.  1.
    9900012    2    1    2    0    0  0.11269686814E+01 -0.31916369972E+00  0.14542824840E+00  0.90007714758E+02  0.89999975793E+02 0.  0.
        -12    1    1    2    0    0 -0.11269686814E+01  0.31916369972E+00 -0.14542824840E+00  0.11802852416E+01  0.00000000000E+00 0.  1.
         11    1    3    3    0    0  0.40197053191E+00  0.77379419840E+01  0.92671033771E+01  0.12079591538E+02  0.51100000000E-03 0. -1.
        -11    1    3    3    0    0 -0.16624880185E+02  0.27219308043E+02  0.11034849350E+02  0.33749744768E+02  0.51100000000E-03 0.  1.
         12    1    3    3    0    0  0.17349878334E+02 -0.35276413727E+02 -0.20156524479E+02  0.44178378452E+02  0.00000000000E+00 0. -1.
</event>
<event>
 7    1  0.2232484E-015  0.9000773E+02  0.7816164E-02  0.1186339E+00
        -11   -1    0    0    0    0  0.00000000000E+00  0.00000000000E+00  0.45593999997E+02  0.45594000000E+02  0.51100000000E-03 0.  1.
         11   -1    0    0    0    0 -0.00000000000E+00 -0.00000000000E+00 -0.45593999997E+02  0.45594000000E+02  0.51100000000E-03 0. -1.
    9900012    2    1    2    0    0 -0.23841609942E+00 -0.85794665642E-01 -0.11527543329E+01  0.90007726509E+02  0.89999987699E+02 0.  0.
        -12    1    1    2    0    0  0.23841609942E+00  0.85794665642E-01  0.11527543329E+01  0.11802734908E+01  0.00000000000E+00 0.  1.
         11    1    3    3    0    0 -0.28342601115E+01 -0.37134988348E+01 -0.91112210577E+01  0.10239016232E+02  0.51100000000E-03 0. -1.
        -11    1    3    3    0    0  0.25669606468E+02 -0.18092929640E+02 -0.20229903571E+02  0.37356817289E+02  0.51100000000E-03 0.  1.
         12    1    3    3    0    0 -0.23073762456E+02  0.21720633809E+02  0.28188370295E+02  0.42411892989E+02  0.00000000000E+00 0. -1.
</event>
<event>
 7    1  0.2232484E-015  0.9000774E+02  0.7816164E-02  0.1186339E+00
        -11   -1    0    0    0    0  0.00000000000E+00  0.00000000000E+00  0.45593999997E+02  0.45594000000E+02  0.51100000000E-03 0. -1.
         11   -1    0    0    0    0 -0.00000000000E+00 -0.00000000000E+00 -0.45593999997E+02  0.45594000000E+02  0.51100000000E-03 0.  1.
    9900012    2    1    2    0    0 -0.67968040122E+00 -0.86632204639E+00  0.42488528330E+00  0.90007742892E+02  0.90000004299E+02 0.  0.
        -12    1    1    2    0    0  0.67968040122E+00  0.86632204639E+00 -0.42488528330E+00  0.11802571075E+01  0.00000000000E+00 0.  1.
         11    1    3    3    0    0  0.10246429142E+02 -0.29976154616E+02  0.29777347765E+02  0.43477000770E+02  0.51100000000E-03 0. -1.
        -11    1    3    3    0    0 -0.81382865723E+01  0.14755750844E+01 -0.56412785384E+01  0.10011645917E+02  0.51100000000E-03 0.  1.
        -12    1    3    3    0    0 -0.27878229713E+01  0.27634257485E+02 -0.23711183943E+02  0.36519096206E+02  0.00000000000E+00 0.  1.
</event>
<event>
 7    1  0.2232484E-015  0.9000788E+02  0.7816164E-02  0.1186339E+00
        -11   -1    0    0    0    0  0.00000000000E+00  0.00000000000E+00  0.45593999997E+02  0.45594000000E+02  0.51100000000E-03 0. -1.
         11   -1    0    0    0    0 -0.00000000000E+00 -0.00000000000E+00 -0.45593999997E+02  0.45594000000E+02  0.51100000000E-03 0.  1.
    9900012    2    1    2    0    0 -0.82822316568E-01  0.66251182660E+00  0.97309023970E+00  0.90007878790E+02  0.90000141990E+02 0.  0.
        -12    1    1    2    0    0  0.82822316568E-01 -0.66251182660E+00 -0.97309023970E+00  0.11801212103E+01  0.00000000000E+00 0.  1.
         11    1    3    3    0    0  0.69564435839E+01  0.14968046028E+01  0.85576130959E+01  0.11129477684E+02  0.51100000000E-03 0. -1.
        -11    1    3    3    0    0  0.12068042685E+02  0.30631917688E+02 -0.21722333248E+02  0.39443780213E+02  0.51100000000E-03 0.  1.
         12    1    3    3    0    0 -0.19107308586E+02 -0.31466210464E+02  0.14137810392E+02  0.39434620893E+02  0.00000000000E+00 0. -1.
</event>
<event>
 7    1  0.2232484E-015  0.9000760E+02  0.7816164E-02  0.1186339E+00
        -11   -1    0    0    0    0  0.00000000000E+00  0.00000000000E+00  0.45593999997E+02  0.45594000000E+02  0.51100000000E-03 0. -1.
         11   -1    0    0    0    0 -0.00000000000E+00 -0.00000000000E+00 -0.45593999997E+02  0.45594000000E+02  0.51100000000E-03 0.  1.
    9900012    2    1    2    0    0  0.14167682515E+00  0.80486914887E-01  0.11690976370E+01  0.90007601868E+02  0.89999861412E+02 0.  0.
        -12    1    1    2    0    0 -0.14167682515E+00 -0.80486914887E-01 -0.11690976370E+01  0.11803981325E+01  0.00000000000E+00 0.  1.
         11    1    3    3    0    0 -0.40538320700E+02  0.13316814417E+02 -0.12177914485E+02  0.44373354537E+02  0.51100000000E-03 0. -1.
        -11    1    3    3    0    0  0.91831441719E+01 -0.67840472648E+01  0.23665593918E+01  0.11659933010E+02  0.51100000000E-03 0.  1.
        -12    1    3    3    0    0  0.31496853353E+02 -0.64522802371E+01  0.10980452731E+02  0.33974314321E+02  0.00000000000E+00 0.  1.
</event>
<event>
 7    1  0.2232484E-015  0.9000777E+02  0.7816164E-02  0.1186339E+00
        -11   -1    0    0    0    0  0.00000000000E+00  0.00000000000E+00  0.45593999997E+02  0.45594000000E+02  0.51100000000E-03 0. -1.
         11   -1    0    0    0    0 -0.00000000000E+00 -0.00000000000E+00 -0.45593999997E+02  0.45594000000E+02  0.51100000000E-03 0.  1.
    9900012    2    1    2    0    0 -0.14248299578E+00  0.59689754055E+00  0.10081407404E+01  0.90007772975E+02  0.90000034778E+02 0.  0.
        -12    1    1    2    0    0  0.14248299578E+00 -0.59689754055E+00 -0.10081407404E+01  0.11802270250E+01  0.00000000000E+00 0.  1.
         11    1    3    3    0    0 -0.10871676108E+02 -0.21151070383E+01  0.24316167905E+00  0.11078183382E+02  0.51100000000E-03 0. -1.
        -11    1    3    3    0    0  0.23611959529E+02 -0.26501730686E+02 -0.20097781946E+02  0.40789547700E+02  0.51100000000E-03 0.  1.
         12    1    3    3    0    0 -0.12882766417E+02  0.29213735265E+02  0.20862761008E+02  0.38140041893E+02  0.00000000000E+00 0. -1.
</event>
<event>
 7    1  0.2232484E-015  0.9000771E+02  0.7816164E-02  0.1186339E+00
        -11   -1    0    0    0    0  0.00000000000E+00  0.00000000000E+00  0.45593999997E+02  0.45594000000E+02  0.51100000000E-03 0.  1.
         11   -1    0    0    0    0 -0.00000000000E+00 -0.00000000000E+00 -0.45593999997E+02  0.45594000000E+02  0.51100000000E-03 0. -1.
    9900012    2    1    2    0    0  0.28199965827E+00 -0.34606288008E-01 -0.11455826818E+01  0.90007711441E+02  0.89999972432E+02 0.  0.
        -12    1    1    2    0    0 -0.28199965827E+00  0.34606288008E-01  0.11455826818E+01  0.11802885593E+01  0.00000000000E+00 0.  1.
         11    1    3    3    0    0  0.70912155117E+00 -0.83671547447E+01 -0.38030824681E+02  0.38946832453E+02  0.51100000000E-03 0. -1.
        -11    1    3    3    0    0 -0.11362369515E+02  0.54143820398E+01  0.11370320057E+00  0.12586973527E+02  0.51100000000E-03 0.  1.
        -12    1    3    3    0    0  0.10935247623E+02  0.29181664170E+01  0.36771538799E+02  0.38473905461E+02  0.00000000000E+00 0.  1.
</event>
<event>
 7    1  0.2232484E-015  0.9000773E+02  0.7816164E-02  0.1186339E+00
        -11   -1    0    0    0    0  0.00000000000E+00  0.00000000000E+00  0.45593999997E+02  0.45594000000E+02  0.51100000000E-03 0. -1.
         11   -1    0    0    0    0 -0.00000000000E+00 -0.00000000000E+00 -0.45593999997E+02  0.45594000000E+02  0.51100000000E-03 0.  1.
    9900012    2    1    2    0    0  0.24179369768E+00  0.12532917583E+00  0.11484185192E+01  0.90007730247E+02  0.89999991486E+02 0.  0.
        -12    1    1    2    0    0 -0.24179369768E+00 -0.12532917583E+00 -0.11484185192E+01  0.11802697530E+01  0.00000000000E+00 0.  1.
         11    1    3    3    0    0  0.12368495217E+01 -0.18469933176E+02  0.10433299844E+02  0.21249046430E+02  0.51100000000E-03 0. -1.
        -11    1    3    3    0    0  0.73266187616E+01 -0.19333789215E+02 -0.19696716187E+02  0.28555829119E+02  0.51100000000E-03 0.  1.
         12    1    3    3    0    0 -0.83216745856E+01  0.37929051567E+02  0.10411834863E+02  0.40202854698E+02  0.00000000000E+00 0. -1.
</event>
<event>
 7    1  0.2232484E-015  0.9000765E+02  0.7816164E-02  0.1186339E+00
        -11   -1    0    0    0    0  0.00000000000E+00  0.00000000000E+00  0.45593999997E+02  0.45594000000E+02  0.51100000000E-03 0.  1.
         11   -1    0    0    0    0 -0.00000000000E+00 -0.00000000000E+00 -0.45593999997E+02  0.45594000000E+02  0.51100000000E-03 0. -1.
    9900012    2    1    2    0    0  0.43178155734E+00  0.61128983971E+00 -0.91274777587E+00  0.90007652982E+02  0.89999913201E+02 0.  0.
        -12    1    1    2    0    0 -0.43178155734E+00 -0.61128983971E+00  0.91274777587E+00  0.11803470184E+01  0.00000000000E+00 0.  1.
         11    1    3    3    0    0  0.11253227501E+02  0.44534363083E+00 -0.15988140264E+02  0.19556433456E+02  0.51100000000E-03 0. -1.
        -11    1    3    3    0    0  0.67160051893E+01  0.20955302998E+02  0.31688980889E+02  0.38580059091E+02  0.51100000000E-03 0.  1.
         12    1    3    3    0    0 -0.17537451133E+02 -0.20789356789E+02 -0.16613588401E+02  0.31871160435E+02  0.00000000000E+00 0. -1.
</event>
<event>
 7    1  0.2232484E-015  0.9000763E+02  0.7816164E-02  0.1186339E+00
        -11   -1    0    0    0    0  0.00000000000E+00  0.00000000000E+00  0.45593999997E+02  0.45594000000E+02  0.51100000000E-03 0.  1.
         11   -1    0    0    0    0 -0.00000000000E+00 -0.00000000000E+00 -0.45593999997E+02  0.45594000000E+02  0.51100000000E-03 0. -1.
    9900012    2    1    2    0    0 -0.92180272123E+00 -0.40217140839E+00 -0.61791020335E+00  0.90007629246E+02  0.89999889152E+02 0.  0.
        -12    1    1    2    0    0  0.92180272123E+00  0.40217140839E+00  0.61791020335E+00  0.11803707545E+01  0.00000000000E+00 0.  1.
         11    1    3    3    0    0 -0.18061847809E+02 -0.43402205864E+01  0.25921997257E+02  0.31890716565E+02  0.51100000000E-03 0. -1.
        -11    1    3    3    0    0 -0.60533952435E+01  0.12495262233E+02  0.77065270708E+01  0.15879727076E+02  0.51100000000E-03 0.  1.
        -12    1    3    3    0    0  0.23193440331E+02 -0.85572130553E+01 -0.34246434531E+02  0.42237185604E+02  0.00000000000E+00 0.  1.
</event>
<event>
 7    1  0.2232484E-015  0.9000759E+02  0.7816164E-02  0.1186339E+00
        -11   -1    0    0    0    0  0.00000000000E+00  0.00000000000E+00  0.45593999997E+02  0.45594000000E+02  0.51100000000E-03 0.  1.
         11   -1    0    0    0    0 -0.00000000000E+00 -0.00000000000E+00 -0.45593999997E+02  0.45594000000E+02  0.51100000000E-03 0. -1.
    9900012    2    1    2    0    0 -0.50402964771E-01  0.59346158413E-01 -0.11778384279E+01  0.90007590839E+02  0.89999850238E+02 0.  0.
        -12    1    1    2    0    0  0.50402964771E-01 -0.59346158413E-01  0.11778384279E+01  0.11804091611E+01  0.00000000000E+00 0.  1.
         11    1    3    3    0    0  0.44063923792E+01 -0.84837643508E+01  0.12925385116E+01  0.96468236962E+01  0.51100000000E-03 0. -1.
        -11    1    3    3    0    0 -0.30005042869E+02 -0.24337084658E+02 -0.25982428085E+01  0.38721404329E+02  0.51100000000E-03 0.  1.
         12    1    3    3    0    0  0.25548247525E+02  0.32880195167E+02  0.12786586896E+00  0.41639362814E+02  0.00000000000E+00 0. -1.
</event>
<event>
 7    1  0.2232484E-015  0.9000762E+02  0.7816164E-02  0.1186339E+00
        -11   -1    0    0    0    0  0.00000000000E+00  0.00000000000E+00  0.45593999997E+02  0.45594000000E+02  0.51100000000E-03 0. -1.
         11   -1    0    0    0    0 -0.00000000000E+00 -0.00000000000E+00 -0.45593999997E+02  0.45594000000E+02  0.51100000000E-03 0.  1.
    9900012    2    1    2    0    0 -0.96201813508E+00  0.93727497720E-01  0.67751327550E+00  0.90007623800E+02  0.89999883634E+02 0.  0.
        -12    1    1    2    0    0  0.96201813508E+00 -0.93727497720E-01 -0.67751327550E+00  0.11803762004E+01  0.00000000000E+00 0.  1.
         11    1    3    3    0    0  0.76006095194E+01  0.49689790805E+00 -0.40507064950E+01  0.86269575151E+01  0.51100000000E-03 0. -1.
        -11    1    3    3    0    0 -0.30243442244E+01  0.10761412897E+02 -0.36571386036E+02  0.38241612707E+02  0.51100000000E-03 0.  1.
         12    1    3    3    0    0 -0.55382834301E+01 -0.11164583307E+02  0.41299605807E+02  0.43139053578E+02  0.00000000000E+00 0. -1.
</event>
<event>
 7    1  0.2232484E-015  0.9000774E+02  0.7816164E-02  0.1186339E+00
        -11   -1    0    0    0    0  0.00000000000E+00  0.00000000000E+00  0.45593999997E+02  0.45594000000E+02  0.51100000000E-03 0.  1.
         11   -1    0    0    0    0 -0.00000000000E+00 -0.00000000000E+00 -0.45593999997E+02  0.45594000000E+02  0.51100000000E-03 0. -1.
    9900012    2    1    2    0    0  0.68711574752E+00  0.71999067699E+00 -0.63443728386E+00  0.90007735075E+02  0.89999996378E+02 0.  0.
        -12    1    1    2    0    0 -0.68711574752E+00 -0.71999067699E+00  0.63443728386E+00  0.11802649247E+01  0.00000000000E+00 0.  1.
         11    1    3    3    0    0 -0.24459779314E+02 -0.35771900557E+00 -0.17056540101E+02  0.29821708996E+02  0.51100000000E-03 0. -1.
        -11    1    3    3    0    0 -0.98538148916E+01  0.16799790596E+02  0.42818942620E+01  0.19941545846E+02  0.51100000000E-03 0.  1.
         12    1    3    3    0    0  0.35000709953E+02 -0.15722080914E+02  0.12140208555E+02  0.40244480233E+02  0.00000000000E+00 0. -1.
</event>
<event>
 7    1  0.2232484E-015  0.9000773E+02  0.7816164E-02  0.1186339E+00
        -11   -1    0    0    0    0  0.00000000000E+00  0.00000000000E+00  0.45593999997E+02  0.45594000000E+02  0.51100000000E-03 0. -1.
         11   -1    0    0    0    0 -0.00000000000E+00 -0.00000000000E+00 -0.45593999997E+02  0.45594000000E+02  0.51100000000E-03 0.  1.
    9900012    2    1    2    0    0  0.36021185027E+00 -0.11024046241E+01 -0.21904305940E+00  0.90007733761E+02  0.89999995047E+02 0.  0.
        -12    1    1    2    0    0 -0.36021185027E+00  0.11024046241E+01  0.21904305940E+00  0.11802662386E+01  0.00000000000E+00 0.  1.
         11    1    3    3    0    0  0.25334644542E+02  0.31452036705E+02  0.16514541539E+02  0.43632612911E+02  0.51100000000E-03 0. -1.
        -11    1    3    3    0    0 -0.39620409725E+01 -0.76393305255E+01  0.19266226183E+01  0.88186741929E+01  0.51100000000E-03 0.  1.
        -12    1    3    3    0    0 -0.21012391719E+02 -0.24915110804E+02 -0.18660207217E+02  0.37556446657E+02  0.00000000000E+00 0.  1.
</event>
<event>
 7    1  0.2232484E-015  0.9000792E+02  0.7816164E-02  0.1186339E+00
        -11   -1    0    0    0    0  0.00000000000E+00  0.00000000000E+00  0.45593999997E+02  0.45594000000E+02  0.51100000000E-03 0. -1.
         11   -1    0    0    0    0 -0.00000000000E+00 -0.00000000000E+00 -0.45593999997E+02  0.45594000000E+02  0.51100000000E-03 0.  1.
    9900012    2    1    2    0    0  0.20950148433E+00  0.63303430642E+00  0.97364049523E+00  0.90007915631E+02  0.90000179317E+02 0.  0.
        -12    1    1    2    0    0 -0.20950148433E+00 -0.63303430642E+00 -0.97364049523E+00  0.11800843694E+01  0.00000000000E+00 0.  1.
         11    1    3    3    0    0  0.33557967317E+01 -0.90498231768E+00  0.95080714855E+01  0.10123427697E+02  0.51100000000E-03 0. -1.
        -11    1    3    3    0    0 -0.37486038956E+02  0.17722964717E+02 -0.44277488071E+01  0.41700258449E+02  0.51100000000E-03 0.  1.
         12    1    3    3    0    0  0.34339743709E+02 -0.16184948093E+02 -0.41066821832E+01  0.38184229484E+02  0.00000000000E+00 0. -1.
</event>
<event>
 7    1  0.2232484E-015  0.9000782E+02  0.7816164E-02  0.1186339E+00
        -11   -1    0    0    0    0  0.00000000000E+00  0.00000000000E+00  0.45593999997E+02  0.45594000000E+02  0.51100000000E-03 0. -1.
         11   -1    0    0    0    0 -0.00000000000E+00 -0.00000000000E+00 -0.45593999997E+02  0.45594000000E+02  0.51100000000E-03 0.  1.
    9900012    2    1    2    0    0  0.25291249586E+00 -0.11518416995E+01 -0.46150615116E-01  0.90007816154E+02  0.90000078527E+02 0.  0.
        -12    1    1    2    0    0 -0.25291249586E+00  0.11518416995E+01  0.46150615116E-01  0.11801838460E+01  0.00000000000E+00 0.  1.
         11    1    3    3    0    0  0.31691654094E+02 -0.19597042118E+02 -0.76313983073E+00  0.37269121021E+02  0.51100000000E-03 0. -1.
        -11    1    3    3    0    0 -0.16393980797E+02  0.11966268435E+02 -0.18517349146E+02  0.27474468262E+02  0.51100000000E-03 0.  1.
        -12    1    3    3    0    0 -0.15044760802E+02  0.64789319830E+01  0.19234338361E+02  0.25264226871E+02  0.00000000000E+00 0.  1.
</event>
<event>
 7    1  0.2232484E-015  0.9000754E+02  0.7816164E-02  0.1186339E+00
        -11   -1    0    0    0    0  0.00000000000E+00  0.00000000000E+00  0.45593999997E+02  0.45594000000E+02  0.51100000000E-03 0.  1.
         11   -1    0    0    0    0 -0.00000000000E+00 -0.00000000000E+00 -0.45593999997E+02  0.45594000000E+02  0.51100000000E-03 0. -1.
    9900012    2    1    2    0    0  0.18110533609E+00 -0.10546541112E+01  0.49838009107E+00  0.90007543668E+02  0.89999802444E+02 0.  0.
        -12    1    1    2    0    0 -0.18110533609E+00  0.10546541112E+01 -0.49838009107E+00  0.11804563322E+01  0.00000000000E+00 0.  1.
         11    1    3    3    0    0 -0.18481351159E+02 -0.11838322884E+02  0.24757960841E+01  0.22087005136E+02  0.51100000000E-03 0. -1.
        -11    1    3    3    0    0 -0.15703550197E+02  0.21708830541E+02  0.11853751576E+02  0.29298229280E+02  0.51100000000E-03 0.  1.
         12    1    3    3    0    0  0.34366006692E+02 -0.10925161768E+02 -0.13831167569E+02  0.38622309252E+02  0.00000000000E+00 0. -1.
</event>
<event>
 7    1  0.2232484E-015  0.9000804E+02  0.7816164E-02  0.1186338E+00
        -11   -1    0    0    0    0  0.00000000000E+00  0.00000000000E+00  0.45593999997E+02  0.45594000000E+02  0.51100000000E-03 0.  1.
         11   -1    0    0    0    0 -0.00000000000E+00 -0.00000000000E+00 -0.45593999997E+02  0.45594000000E+02  0.51100000000E-03 0. -1.
    9900012    2    1    2    0    0 -0.98269880654E+00  0.38254976683E+00 -0.52941031968E+00  0.90008035359E+02  0.90000300625E+02 0.  0.
        -12    1    1    2    0    0  0.98269880654E+00 -0.38254976683E+00  0.52941031968E+00  0.11799646414E+01  0.00000000000E+00 0.  1.
         11    1    3    3    0    0 -0.38738393389E+02  0.23510961126E+01 -0.21662879567E+02  0.44446272360E+02  0.51100000000E-03 0. -1.
        -11    1    3    3    0    0  0.93908802646E+01  0.42903060163E+01  0.13383005056E+01  0.10410879231E+02  0.51100000000E-03 0.  1.
        -12    1    3    3    0    0  0.28364814318E+02 -0.62588523621E+01  0.19795168742E+02  0.35150883768E+02  0.00000000000E+00 0.  1.
</event>
<event>
 7    1  0.2232484E-015  0.9000771E+02  0.7816164E-02  0.1186339E+00
        -11   -1    0    0    0    0  0.00000000000E+00  0.00000000000E+00  0.45593999997E+02  0.45594000000E+02  0.51100000000E-03 0.  1.
         11   -1    0    0    0    0 -0.00000000000E+00 -0.00000000000E+00 -0.45593999997E+02  0.45594000000E+02  0.51100000000E-03 0. -1.
    9900012    2    1    2    0    0 -0.38192911854E+00  0.51490284923E+00 -0.99100106368E+00  0.90007712788E+02  0.89999973796E+02 0.  0.
        -12    1    1    2    0    0  0.38192911854E+00 -0.51490284923E+00  0.99100106368E+00  0.11802872125E+01  0.00000000000E+00 0.  1.
         11    1    3    3    0    0  0.41208472415E+01 -0.19612720300E+01 -0.11239825294E+02  0.12131019861E+02  0.51100000000E-03 0. -1.
        -11    1    3    3    0    0 -0.13943248907E+02  0.10288264075E+02 -0.30634963219E+02  0.35196072785E+02  0.51100000000E-03 0.  1.
         12    1    3    3    0    0  0.94404725469E+01 -0.78120891957E+01  0.40883787449E+02  0.42680620142E+02  0.00000000000E+00 0. -1.
</event>
<event>
 7    1  0.2232484E-015  0.9000771E+02  0.7816164E-02  0.1186339E+00
        -11   -1    0    0    0    0  0.00000000000E+00  0.00000000000E+00  0.45593999997E+02  0.45594000000E+02  0.51100000000E-03 0. -1.
         11   -1    0    0    0    0 -0.00000000000E+00 -0.00000000000E+00 -0.45593999997E+02  0.45594000000E+02  0.51100000000E-03 0.  1.
    9900012    2    1    2    0    0 -0.32487512634E-02  0.72406839154E+00 -0.93208973062E+00  0.90007713231E+02  0.89999974246E+02 0.  0.
        -12    1    1    2    0    0  0.32487512634E-02 -0.72406839154E+00  0.93208973062E+00  0.11802867685E+01  0.00000000000E+00 0.  1.
         11    1    3    3    0    0  0.41460842597E+01 -0.57815056309E+01 -0.57440992813E+01  0.91438776710E+01  0.51100000000E-03 0. -1.
        -11    1    3    3    0    0  0.29528015156E+02  0.46412896580E+01 -0.22541453686E+02  0.37437446271E+02  0.51100000000E-03 0.  1.
         12    1    3    3    0    0 -0.33677348167E+02  0.18642843644E+01  0.27353463236E+02  0.43426389290E+02  0.00000000000E+00 0. -1.
</event>
<event>
 7    1  0.2232484E-015  0.9000771E+02  0.7816164E-02  0.1186339E+00
        -11   -1    0    0    0    0  0.00000000000E+00  0.00000000000E+00  0.45593999997E+02  0.45594000000E+02  0.51100000000E-03 0.  1.
         11   -1    0    0    0    0 -0.00000000000E+00 -0.00000000000E+00 -0.45593999997E+02  0.45594000000E+02  0.51100000000E-03 0. -1.
    9900012    2    1    2    0    0  0.83837105276E+00 -0.82813464183E+00 -0.66434838489E-01  0.90007709106E+02  0.89999970066E+02 0.  0.
        -12    1    1    2    0    0 -0.83837105276E+00  0.82813464183E+00  0.66434838489E-01  0.11802908942E+01  0.00000000000E+00 0.  1.
         11    1    3    3    0    0 -0.10232688386E+02  0.83796614061E+00  0.69664312632E+01  0.12407306866E+02  0.51100000000E-03 0. -1.
        -11    1    3    3    0    0 -0.31796104625E+02  0.32757975232E+00 -0.12846722424E+02  0.34294866308E+02  0.51100000000E-03 0.  1.
         12    1    3    3    0    0  0.42867164064E+02 -0.19936805348E+01  0.58138563221E+01  0.43305535931E+02  0.00000000000E+00 0. -1.
</event>
<event>
 7    1  0.2232484E-015  0.9000771E+02  0.7816164E-02  0.1186339E+00
        -11   -1    0    0    0    0  0.00000000000E+00  0.00000000000E+00  0.45593999997E+02  0.45594000000E+02  0.51100000000E-03 0.  1.
         11   -1    0    0    0    0 -0.00000000000E+00 -0.00000000000E+00 -0.45593999997E+02  0.45594000000E+02  0.51100000000E-03 0. -1.
    9900012    2    1    2    0    0  0.31666843766E+00  0.99441357094E+00  0.55130416488E+00  0.90007714640E+02  0.89999975673E+02 0.  0.
        -12    1    1    2    0    0 -0.31666843766E+00 -0.99441357094E+00 -0.55130416488E+00  0.11802853603E+01  0.00000000000E+00 0.  1.
         11    1    3    3    0    0  0.36186665171E+02  0.28404179983E+01 -0.15978541811E+02  0.39659255027E+02  0.51100000000E-03 0. -1.
        -11    1    3    3    0    0  0.18917507956E+01 -0.87973105285E+01  0.48105673107E+01  0.10203575438E+02  0.51100000000E-03 0.  1.
        -12    1    3    3    0    0 -0.37761747529E+02  0.69513061012E+01  0.11719278665E+02  0.40144884175E+02  0.00000000000E+00 0.  1.
</event>
<event>
 7    1  0.2232484E-015  0.9000763E+02  0.7816164E-02  0.1186339E+00
        -11   -1    0    0    0    0  0.00000000000E+00  0.00000000000E+00  0.45593999997E+02  0.45594000000E+02  0.51100000000E-03 0.  1.
         11   -1    0    0    0    0 -0.00000000000E+00 -0.00000000000E+00 -0.45593999997E+02  0.45594000000E+02  0.51100000000E-03 0. -1.
    9900012    2    1    2    0    0 -0.94739897688E+00 -0.36282083304E+00 -0.60337962764E+00  0.90007631094E+02  0.89999891025E+02 0.  0.
        -12    1    1    2    0    0  0.94739897688E+00  0.36282083304E+00  0.60337962764E+00  0.11803689056E+01  0.00000000000E+00 0.  1.
         11    1    3    3    0    0  0.31123152201E+02 -0.25378134734E+02 -0.19167164905E+00  0.40158897691E+02  0.51100000000E-03 0. -1.
        -11    1    3    3    0    0 -0.26195201837E+00  0.22268354292E+00  0.85324868699E+01  0.85394109438E+01  0.51100000000E-03 0.  1.
        -12    1    3    3    0    0 -0.31808599160E+02  0.24792630358E+02 -0.89441948485E+01  0.41309322459E+02  0.00000000000E+00 0.  1.
</event>
<event>
 7    1  0.2232484E-015  0.9000810E+02  0.7816164E-02  0.1186338E+00
        -11   -1    0    0    0    0  0.00000000000E+00  0.00000000000E+00  0.45593999997E+02  0.45594000000E+02  0.51100000000E-03 0.  1.
         11   -1    0    0    0    0 -0.00000000000E+00 -0.00000000000E+00 -0.45593999997E+02  0.45594000000E+02  0.51100000000E-03 0. -1.
    9900012    2    1    2    0    0 -0.68566533798E+00  0.19265062746E+00 -0.94069821507E+00  0.90008099855E+02  0.90000365972E+02 0.  0.
        -12    1    1    2    0    0  0.68566533798E+00 -0.19265062746E+00  0.94069821507E+00  0.11799001448E+01  0.00000000000E+00 0.  1.
         11    1    3    3    0    0  0.23901419501E+01  0.38289517218E+02 -0.11694224312E+02  0.40106792316E+02  0.51100000000E-03 0. -1.
        -11    1    3    3    0    0 -0.70073515565E+01 -0.95645843725E+00 -0.57061522274E+01  0.90872417202E+01  0.51100000000E-03 0.  1.
        -12    1    3    3    0    0  0.39315442684E+01 -0.37140408154E+02  0.16459678324E+02  0.40814065819E+02  0.00000000000E+00 0.  1.
</event>
<event>
 7    1  0.2232484E-015  0.9000683E+02  0.7816164E-02  0.1186341E+00
        -11   -1    0    0    0    0  0.00000000000E+00  0.00000000000E+00  0.45593999997E+02  0.45594000000E+02  0.51100000000E-03 0.  1.
         11   -1    0    0    0    0 -0.00000000000E+00 -0.00000000000E+00 -0.45593999997E+02  0.45594000000E+02  0.51100000000E-03 0. -1.
    9900012    2    1    2    0    0 -0.59075373030E+00 -0.10206975288E+01  0.65898315566E-01  0.90006832779E+02  0.89999082167E+02 0.  0.
        -12    1    1    2    0    0  0.59075373030E+00  0.10206975288E+01 -0.65898315566E-01  0.11811672206E+01  0.00000000000E+00 0.  1.
         11    1    3    3    0    0 -0.19113976184E+02 -0.22953444716E+02 -0.28503437401E+02  0.41287415199E+02  0.51100000000E-03 0. -1.
        -11    1    3    3    0    0  0.10949396304E+02  0.10634416345E+01 -0.17516121301E+01  0.11139494282E+02  0.51100000000E-03 0.  1.
        -12    1    3    3    0    0  0.75738261494E+01  0.20869305553E+02  0.30320947847E+02  0.37579923299E+02  0.00000000000E+00 0.  1.
</event>
<event>
 7    1  0.2232484E-015  0.9000777E+02  0.7816164E-02  0.1186339E+00
        -11   -1    0    0    0    0  0.00000000000E+00  0.00000000000E+00  0.45593999997E+02  0.45594000000E+02  0.51100000000E-03 0.  1.
         11   -1    0    0    0    0 -0.00000000000E+00 -0.00000000000E+00 -0.45593999997E+02  0.45594000000E+02  0.51100000000E-03 0. -1.
    9900012    2    1    2    0    0  0.11425865937E+01  0.28272860255E+00 -0.86648801329E-01  0.90007767988E+02  0.90000029726E+02 0.  0.
        -12    1    1    2    0    0 -0.11425865937E+01 -0.28272860255E+00  0.86648801329E-01  0.11802320118E+01  0.00000000000E+00 0.  1.
         11    1    3    3    0    0 -0.24050992761E+02  0.27816934842E+02  0.69648016371E+01  0.37426468961E+02  0.51100000000E-03 0. -1.
        -11    1    3    3    0    0 -0.32344286060E+01  0.53557065995E+01 -0.66164284730E+01  0.91061653613E+01  0.51100000000E-03 0.  1.
        -12    1    3    3    0    0  0.28428007960E+02 -0.32889912839E+02 -0.43502196534E+00  0.43475133666E+02  0.00000000000E+00 0.  1.
</event>
<event>
 7    1  0.2232484E-015  0.9000771E+02  0.7816164E-02  0.1186339E+00
        -11   -1    0    0    0    0  0.00000000000E+00  0.00000000000E+00  0.45593999997E+02  0.45594000000E+02  0.51100000000E-03 0.  1.
         11   -1    0    0    0    0 -0.00000000000E+00 -0.00000000000E+00 -0.45593999997E+02  0.45594000000E+02  0.51100000000E-03 0. -1.
    9900012    2    1    2    0    0 -0.98754724443E+00  0.35204730041E+00 -0.54211982791E+00  0.90007711574E+02  0.89999972566E+02 0.  0.
        -12    1    1    2    0    0  0.98754724443E+00 -0.35204730041E+00  0.54211982791E+00  0.11802884264E+01  0.00000000000E+00 0.  1.
         11    1    3    3    0    0  0.22028844492E+02  0.26506265572E+02  0.25663560155E+02  0.42970576263E+02  0.51100000000E-03 0. -1.
        -11    1    3    3    0    0 -0.25794540438E+01 -0.10178453520E+02 -0.49162341185E+00  0.10511716941E+02  0.51100000000E-03 0.  1.
        -12    1    3    3    0    0 -0.20436937693E+02 -0.15975764752E+02 -0.25714056571E+02  0.36525418369E+02  0.00000000000E+00 0.  1.
</event>
<event>
 7    1  0.2232484E-015  0.9000768E+02  0.7816164E-02  0.1186339E+00
        -11   -1    0    0    0    0  0.00000000000E+00  0.00000000000E+00  0.45593999997E+02  0.45594000000E+02  0.51100000000E-03 0.  1.
         11   -1    0    0    0    0 -0.00000000000E+00 -0.00000000000E+00 -0.45593999997E+02  0.45594000000E+02  0.51100000000E-03 0. -1.
    9900012    2    1    2    0    0  0.61106253798E+00  0.19109332968E+00 -0.99158690404E+00  0.90007678572E+02  0.89999939129E+02 0.  0.
        -12    1    1    2    0    0 -0.61106253798E+00 -0.19109332968E+00  0.99158690404E+00  0.11803214284E+01  0.00000000000E+00 0.  1.
         11    1    3    3    0    0  0.25733018197E+02 -0.31758773869E+01  0.48869076477E+00  0.25932860267E+02  0.51100000000E-03 0. -1.
        -11    1    3    3    0    0 -0.52411710016E+01 -0.18424078167E+02  0.19917418372E+02  0.27633676640E+02  0.51100000000E-03 0.  1.
         12    1    3    3    0    0 -0.19880784657E+02  0.21791048883E+02 -0.21397696041E+02  0.36441141665E+02  0.00000000000E+00 0. -1.
</event>
<event>
 7    1  0.2232484E-015  0.9000768E+02  0.7816164E-02  0.1186339E+00
        -11   -1    0    0    0    0  0.00000000000E+00  0.00000000000E+00  0.45593999997E+02  0.45594000000E+02  0.51100000000E-03 0.  1.
         11   -1    0    0    0    0 -0.00000000000E+00 -0.00000000000E+00 -0.45593999997E+02  0.45594000000E+02  0.51100000000E-03 0. -1.
    9900012    2    1    2    0    0  0.12062254853E+00  0.20401848799E-01 -0.11739664234E+01  0.90007676655E+02  0.89999937187E+02 0.  0.
        -12    1    1    2    0    0 -0.12062254853E+00 -0.20401848799E-01  0.11739664234E+01  0.11803233446E+01  0.00000000000E+00 0.  1.
         11    1    3    3    0    0  0.18132027061E+01  0.78231550456E+01  0.75279505538E+01  0.11007247554E+02  0.51100000000E-03 0. -1.
        -11    1    3    3    0    0 -0.47356338105E+01 -0.93375679571E+01  0.34300684014E+02  0.35862979896E+02  0.51100000000E-03 0.  1.
         12    1    3    3    0    0  0.30430536529E+01  0.15348147602E+01 -0.43002600991E+02  0.43137449205E+02  0.00000000000E+00 0. -1.
</event>
<event>
 7    1  0.2232484E-015  0.9000769E+02  0.7816164E-02  0.1186339E+00
        -11   -1    0    0    0    0  0.00000000000E+00  0.00000000000E+00  0.45593999997E+02  0.45594000000E+02  0.51100000000E-03 0.  1.
         11   -1    0    0    0    0 -0.00000000000E+00 -0.00000000000E+00 -0.45593999997E+02  0.45594000000E+02  0.51100000000E-03 0. -1.
    9900012    2    1    2    0    0  0.79367476498E+00 -0.87242304561E+00  0.45738665698E-01  0.90007689181E+02  0.89999949879E+02 0.  0.
        -12    1    1    2    0    0 -0.79367476498E+00  0.87242304561E+00 -0.45738665698E-01  0.11803108186E+01  0.00000000000E+00 0.  1.
         11    1    3    3    0    0 -0.60557794303E+01 -0.14362124531E+02  0.75495067867E+00  0.15604904240E+02  0.51100000000E-03 0. -1.
        -11    1    3    3    0    0 -0.31348563842E+02  0.17521388711E+02  0.13415707053E+01  0.35937881540E+02  0.51100000000E-03 0.  1.
         12    1    3    3    0    0  0.38198018038E+02 -0.40316872256E+01 -0.20507827183E+01  0.38464903401E+02  0.00000000000E+00 0. -1.
</event>
<event>
 7    1  0.2232484E-015  0.9000755E+02  0.7816164E-02  0.1186339E+00
        -11   -1    0    0    0    0  0.00000000000E+00  0.00000000000E+00  0.45593999997E+02  0.45594000000E+02  0.51100000000E-03 0.  1.
         11   -1    0    0    0    0 -0.00000000000E+00 -0.00000000000E+00 -0.45593999997E+02  0.45594000000E+02  0.51100000000E-03 0. -1.
    9900012    2    1    2    0    0 -0.19098548568E+00  0.49545652207E-01  0.11638449667E+01  0.90007548674E+02  0.89999807516E+02 0.  0.
        -12    1    1    2    0    0  0.19098548568E+00 -0.49545652207E-01 -0.11638449667E+01  0.11804513264E+01  0.00000000000E+00 0.  1.
         11    1    3    3    0    0 -0.70256275338E+01  0.12023232992E+01 -0.78677449253E+01  0.10616328651E+02  0.51100000000E-03 0. -1.
        -11    1    3    3    0    0 -0.24632800814E+02 -0.17680554054E+02 -0.17525574210E+02  0.35021744948E+02  0.51100000000E-03 0.  1.
         12    1    3    3    0    0  0.31467442862E+02  0.16527776407E+02  0.26557164102E+02  0.44369475074E+02  0.00000000000E+00 0. -1.
</event>
<event>
 7    1  0.2232484E-015  0.9000770E+02  0.7816164E-02  0.1186339E+00
        -11   -1    0    0    0    0  0.00000000000E+00  0.00000000000E+00  0.45593999997E+02  0.45594000000E+02  0.51100000000E-03 0.  1.
         11   -1    0    0    0    0 -0.00000000000E+00 -0.00000000000E+00 -0.45593999997E+02  0.45594000000E+02  0.51100000000E-03 0. -1.
    9900012    2    1    2    0    0  0.64976763830E-02 -0.28188432308E+00 -0.11461264540E+01  0.90007700530E+02  0.89999961377E+02 0.  0.
        -12    1    1    2    0    0 -0.64976763830E-02  0.28188432308E+00  0.11461264540E+01  0.11802994705E+01  0.00000000000E+00 0.  1.
         11    1    3    3    0    0 -0.14746444491E+01  0.10030357462E+02 -0.30701455308E+01  0.10592848573E+02  0.51100000000E-03 0. -1.
        -11    1    3    3    0    0 -0.17360981972E+02  0.27744652176E+02  0.13493448740E+02  0.35401166344E+02  0.51100000000E-03 0.  1.
         12    1    3    3    0    0  0.18842124098E+02 -0.38056893960E+02 -0.11569429663E+02  0.44013685612E+02  0.00000000000E+00 0. -1.
</event>
<event>
 7    1  0.2232484E-015  0.9000741E+02  0.7816164E-02  0.1186340E+00
        -11   -1    0    0    0    0  0.00000000000E+00  0.00000000000E+00  0.45593999997E+02  0.45594000000E+02  0.51100000000E-03 0.  1.
         11   -1    0    0    0    0 -0.00000000000E+00 -0.00000000000E+00 -0.45593999997E+02  0.45594000000E+02  0.51100000000E-03 0. -1.
    9900012    2    1    2    0    0  0.91714652248E+00 -0.26968689788E-01 -0.74290580869E+00  0.90007409430E+02  0.89999666434E+02 0.  0.
        -12    1    1    2    0    0 -0.91714652248E+00  0.26968689788E-01  0.74290580869E+00  0.11805905702E+01  0.00000000000E+00 0.  1.
         11    1    3    3    0    0  0.22433476947E+02  0.28780838114E+02  0.71759255181E+01  0.37189937319E+02  0.51100000000E-03 0. -1.
        -11    1    3    3    0    0  0.78457454944E+01  0.56446775502E+00  0.50029801191E+01  0.93222398887E+01  0.51100000000E-03 0.  1.
        -12    1    3    3    0    0 -0.29362075919E+02 -0.29372274559E+02 -0.12921811446E+02  0.43495232222E+02  0.00000000000E+00 0.  1.
</event>
<event>
 7    1  0.2232484E-015  0.9000773E+02  0.7816164E-02  0.1186339E+00
        -11   -1    0    0    0    0  0.00000000000E+00  0.00000000000E+00  0.45593999997E+02  0.45594000000E+02  0.51100000000E-03 0.  1.
         11   -1    0    0    0    0 -0.00000000000E+00 -0.00000000000E+00 -0.45593999997E+02  0.45594000000E+02  0.51100000000E-03 0. -1.
    9900012    2    1    2    0    0 -0.87896108107E+00  0.14815925776E+00 -0.77362946606E+00  0.90007734649E+02  0.89999995947E+02 0.  0.
        -12    1    1    2    0    0  0.87896108107E+00 -0.14815925776E+00  0.77362946606E+00  0.11802653509E+01  0.00000000000E+00 0.  1.
         11    1    3    3    0    0  0.27153875002E+02 -0.76196947205E+01  0.30054622388E+02  0.41214960905E+02  0.51100000000E-03 0. -1.
        -11    1    3    3    0    0 -0.64820933171E+01 -0.50435695794E+01  0.10025271060E+01  0.82740672425E+01  0.51100000000E-03 0.  1.
        -12    1    3    3    0    0 -0.21550742766E+02  0.12811423558E+02 -0.31830778960E+02  0.40518706501E+02  0.00000000000E+00 0.  1.
</event>
<event>
 7    1  0.2232484E-015  0.9000772E+02  0.7816164E-02  0.1186339E+00
        -11   -1    0    0    0    0  0.00000000000E+00  0.00000000000E+00  0.45593999997E+02  0.45594000000E+02  0.51100000000E-03 0.  1.
         11   -1    0    0    0    0 -0.00000000000E+00 -0.00000000000E+00 -0.45593999997E+02  0.45594000000E+02  0.51100000000E-03 0. -1.
    9900012    2    1    2    0    0  0.87939758424E+00  0.10996334701E+00 -0.77950162991E+00  0.90007722558E+02  0.89999983696E+02 0.  0.
        -12    1    1    2    0    0 -0.87939758424E+00 -0.10996334701E+00  0.77950162991E+00  0.11802774419E+01  0.00000000000E+00 0.  1.
         11    1    3    3    0    0 -0.10986280543E+01  0.26413389984E+01 -0.67530567032E+01  0.73339914374E+01  0.51100000000E-03 0. -1.
        -11    1    3    3    0    0  0.16050265029E+02 -0.38638461416E+02 -0.56414638401E+01  0.42218098283E+02  0.51100000000E-03 0.  1.
         12    1    3    3    0    0 -0.14072239391E+02  0.36107085765E+02  0.11615018913E+02  0.40455632837E+02  0.00000000000E+00 0. -1.
</event>
<event>
 7    1  0.2232484E-015  0.9000782E+02  0.7816164E-02  0.1186339E+00
        -11   -1    0    0    0    0  0.00000000000E+00  0.00000000000E+00  0.45593999997E+02  0.45594000000E+02  0.51100000000E-03 0.  1.
         11   -1    0    0    0    0 -0.00000000000E+00 -0.00000000000E+00 -0.45593999997E+02  0.45594000000E+02  0.51100000000E-03 0. -1.
    9900012    2    1    2    0    0 -0.11396786509E+01 -0.18643618109E+00  0.24331269344E+00  0.90007819106E+02  0.90000081518E+02 0.  0.
        -12    1    1    2    0    0  0.11396786509E+01  0.18643618109E+00 -0.24331269344E+00  0.11801808945E+01  0.00000000000E+00 0.  1.
         11    1    3    3    0    0 -0.23215798021E+01 -0.23300334844E+00 -0.88187260294E+01  0.91221681842E+01  0.51100000000E-03 0. -1.
        -11    1    3    3    0    0  0.35674936410E+02 -0.58007706029E-02 -0.15134007012E+02  0.38752281094E+02  0.51100000000E-03 0.  1.
         12    1    3    3    0    0 -0.34493035259E+02  0.52367937950E-01  0.24196045735E+02  0.42133369827E+02  0.00000000000E+00 0. -1.
</event>
<event>
 7    1  0.2232484E-015  0.9000776E+02  0.7816164E-02  0.1186339E+00
        -11   -1    0    0    0    0  0.00000000000E+00  0.00000000000E+00  0.45593999997E+02  0.45594000000E+02  0.51100000000E-03 0.  1.
         11   -1    0    0    0    0 -0.00000000000E+00 -0.00000000000E+00 -0.45593999997E+02  0.45594000000E+02  0.51100000000E-03 0. -1.
    9900012    2    1    2    0    0 -0.17416844203E+00 -0.36503893096E+00 -0.11087727216E+01  0.90007760611E+02  0.90000022251E+02 0.  0.
        -12    1    1    2    0    0  0.17416844203E+00  0.36503893096E+00  0.11087727216E+01  0.11802393891E+01  0.00000000000E+00 0.  1.
         11    1    3    3    0    0  0.22381552247E+02  0.21837212792E+02 -0.20040853830E+02  0.37140726515E+02  0.51100000000E-03 0. -1.
        -11    1    3    3    0    0  0.65286524375E+01 -0.24688647145E+01 -0.64574586352E+01  0.95088047574E+01  0.51100000000E-03 0.  1.
        -12    1    3    3    0    0 -0.29084373127E+02 -0.19733387008E+02  0.25389539744E+02  0.43358229339E+02  0.00000000000E+00 0.  1.
</event>
<event>
 7    1  0.2232484E-015  0.9000777E+02  0.7816164E-02  0.1186339E+00
        -11   -1    0    0    0    0  0.00000000000E+00  0.00000000000E+00  0.45593999997E+02  0.45594000000E+02  0.51100000000E-03 0.  1.
         11   -1    0    0    0    0 -0.00000000000E+00 -0.00000000000E+00 -0.45593999997E+02  0.45594000000E+02  0.51100000000E-03 0. -1.
    9900012    2    1    2    0    0 -0.25502991593E+00  0.10866197690E+01  0.38362264197E+00  0.90007767348E+02  0.90000029077E+02 0.  0.
        -12    1    1    2    0    0  0.25502991593E+00 -0.10866197690E+01 -0.38362264197E+00  0.11802326516E+01  0.00000000000E+00 0.  1.
         11    1    3    3    0    0 -0.83013993715E+01 -0.68660731690E+01  0.41733679943E+01  0.11553059896E+02  0.51100000000E-03 0. -1.
        -11    1    3    3    0    0 -0.85790021131E+01 -0.26450503735E+02  0.19264923187E+02  0.33828474555E+02  0.51100000000E-03 0.  1.
         12    1    3    3    0    0  0.16625371569E+02  0.34403196673E+02 -0.23054668540E+02  0.44626232897E+02  0.00000000000E+00 0. -1.
</event>
<event>
 7    1  0.2232484E-015  0.9000786E+02  0.7816164E-02  0.1186339E+00
        -11   -1    0    0    0    0  0.00000000000E+00  0.00000000000E+00  0.45593999997E+02  0.45594000000E+02  0.51100000000E-03 0.  1.
         11   -1    0    0    0    0 -0.00000000000E+00 -0.00000000000E+00 -0.45593999997E+02  0.45594000000E+02  0.51100000000E-03 0. -1.
    9900012    2    1    2    0    0  0.16120070928E+00  0.81551794818E+00  0.83766269346E+00  0.90007858491E+02  0.90000121423E+02 0.  0.
        -12    1    1    2    0    0 -0.16120070928E+00 -0.81551794818E+00 -0.83766269346E+00  0.11801415087E+01  0.00000000000E+00 0.  1.
         11    1    3    3    0    0 -0.26842878359E+02  0.18901806430E+02 -0.12953541125E+02  0.35293237778E+02  0.51100000000E-03 0. -1.
        -11    1    3    3    0    0 -0.55213510041E+01  0.89612990505E+01  0.12933866564E+01  0.10604859588E+02  0.51100000000E-03 0.  1.
        -12    1    3    3    0    0  0.32525430072E+02 -0.27047587532E+02  0.12497817162E+02  0.44109761125E+02  0.00000000000E+00 0.  1.
</event>
<event>
 7    1  0.2232484E-015  0.9000768E+02  0.7816164E-02  0.1186339E+00
        -11   -1    0    0    0    0  0.00000000000E+00  0.00000000000E+00  0.45593999997E+02  0.45594000000E+02  0.51100000000E-03 0. -1.
         11   -1    0    0    0    0 -0.00000000000E+00 -0.00000000000E+00 -0.45593999997E+02  0.45594000000E+02  0.51100000000E-03 0.  1.
    9900012    2    1    2    0    0  0.92395442774E+00 -0.59071056742E+00  0.43650323286E+00  0.90007675540E+02  0.89999936057E+02 0.  0.
        -12    1    1    2    0    0 -0.92395442774E+00  0.59071056742E+00 -0.43650323286E+00  0.11803244602E+01  0.00000000000E+00 0.  1.
         11    1    3    3    0    0  0.33754358184E+02  0.94932702579E+01  0.14122684566E+02  0.37801178503E+02  0.51100000000E-03 0. -1.
        -11    1    3    3    0    0  0.39955039474E+01 -0.48324064068E+01  0.71983458196E+01  0.95463284185E+01  0.51100000000E-03 0.  1.
        -12    1    3    3    0    0 -0.36825907704E+02 -0.52515744185E+01 -0.20884527153E+02  0.42660168618E+02  0.00000000000E+00 0.  1.
</event>
<event>
 7    1  0.2232484E-015  0.9000773E+02  0.7816164E-02  0.1186339E+00
        -11   -1    0    0    0    0  0.00000000000E+00  0.00000000000E+00  0.45593999997E+02  0.45594000000E+02  0.51100000000E-03 0.  1.
         11   -1    0    0    0    0 -0.00000000000E+00 -0.00000000000E+00 -0.45593999997E+02  0.45594000000E+02  0.51100000000E-03 0. -1.
    9900012    2    1    2    0    0 -0.11126895206E+01  0.38254548615E+00 -0.92881651891E-01  0.90007726295E+02  0.89999987482E+02 0.  0.
        -12    1    1    2    0    0  0.11126895206E+01 -0.38254548615E+00  0.92881651891E-01  0.11802737053E+01  0.00000000000E+00 0.  1.
         11    1    3    3    0    0 -0.24102763433E+02 -0.15743263926E+02 -0.22583385106E+02  0.36589654921E+02  0.51100000000E-03 0. -1.
        -11    1    3    3    0    0 -0.90554833280E+01 -0.28150298852E+01 -0.78545340961E+00  0.95154142778E+01  0.51100000000E-03 0.  1.
        -12    1    3    3    0    0  0.32045557241E+02  0.18940839297E+02  0.23275956864E+02  0.43902657096E+02  0.00000000000E+00 0.  1.
</event>
<event>
 7    1  0.2232484E-015  0.9000768E+02  0.7816164E-02  0.1186339E+00
        -11   -1    0    0    0    0  0.00000000000E+00  0.00000000000E+00  0.45593999997E+02  0.45594000000E+02  0.51100000000E-03 0.  1.
         11   -1    0    0    0    0 -0.00000000000E+00 -0.00000000000E+00 -0.45593999997E+02  0.45594000000E+02  0.51100000000E-03 0. -1.
    9900012    2    1    2    0    0 -0.31874701070E+00  0.90953242634E+00 -0.68139733463E+00  0.90007681730E+02  0.89999942329E+02 0.  0.
        -12    1    1    2    0    0  0.31874701070E+00 -0.90953242634E+00  0.68139733463E+00  0.11803182702E+01  0.00000000000E+00 0.  1.
         11    1    3    3    0    0  0.76211063143E+01  0.69958676503E+00 -0.74495218200E+01  0.10680171286E+02  0.51100000000E-03 0. -1.
        -11    1    3    3    0    0  0.27761096539E+02 -0.16862400855E+02  0.19343303509E+02  0.37804529286E+02  0.51100000000E-03 0.  1.
         12    1    3    3    0    0 -0.35700949864E+02  0.17072346516E+02 -0.12575179023E+02  0.41522981158E+02  0.00000000000E+00 0. -1.
</event>
<event>
 7    1  0.2232484E-015  0.9000781E+02  0.7816164E-02  0.1186339E+00
        -11   -1    0    0    0    0  0.00000000000E+00  0.00000000000E+00  0.45593999997E+02  0.45594000000E+02  0.51100000000E-03 0. -1.
         11   -1    0    0    0    0 -0.00000000000E+00 -0.00000000000E+00 -0.45593999997E+02  0.45594000000E+02  0.51100000000E-03 0.  1.
    9900012    2    1    2    0    0  0.25781947099E+00 -0.11516860846E+01 -0.49891072823E-03  0.90007808505E+02  0.90000070777E+02 0.  0.
        -12    1    1    2    0    0 -0.25781947099E+00  0.11516860846E+01  0.49891072823E-03  0.11801914955E+01  0.00000000000E+00 0.  1.
         11    1    3    3    0    0 -0.21648733189E+02 -0.18344801040E+02  0.22934217263E+02  0.36485307942E+02  0.51100000000E-03 0. -1.
        -11    1    3    3    0    0 -0.20659372605E+01 -0.96576937089E+01  0.15390168187E+01  0.99953848134E+01  0.51100000000E-03 0.  1.
        -12    1    3    3    0    0  0.23972489920E+02  0.26850808664E+02 -0.24473732992E+02  0.43527115750E+02  0.00000000000E+00 0.  1.
</event>
<event>
 7    1  0.2232484E-015  0.9000776E+02  0.7816164E-02  0.1186339E+00
        -11   -1    0    0    0    0  0.00000000000E+00  0.00000000000E+00  0.45593999997E+02  0.45594000000E+02  0.51100000000E-03 0.  1.
         11   -1    0    0    0    0 -0.00000000000E+00 -0.00000000000E+00 -0.45593999997E+02  0.45594000000E+02  0.51100000000E-03 0. -1.
    9900012    2    1    2    0    0 -0.66800705345E+00 -0.88525637301E+00 -0.40380935681E+00  0.90007756692E+02  0.90000018280E+02 0.  0.
        -12    1    1    2    0    0  0.66800705345E+00  0.88525637301E+00  0.40380935681E+00  0.11802433080E+01  0.00000000000E+00 0.  1.
         11    1    3    3    0    0  0.97922683779E+01  0.11204280744E+02 -0.33628993025E+02  0.36774088692E+02  0.51100000000E-03 0. -1.
        -11    1    3    3    0    0  0.51864079303E+01  0.61687535776E+01 -0.39379089860E+01  0.89699205885E+01  0.51100000000E-03 0.  1.
        -12    1    3    3    0    0 -0.15646683362E+02 -0.18258290694E+02  0.37163092654E+02  0.44263747412E+02  0.00000000000E+00 0.  1.
</event>
<event>
 7    1  0.2232484E-015  0.9000774E+02  0.7816164E-02  0.1186339E+00
        -11   -1    0    0    0    0  0.00000000000E+00  0.00000000000E+00  0.45593999997E+02  0.45594000000E+02  0.51100000000E-03 0.  1.
         11   -1    0    0    0    0 -0.00000000000E+00 -0.00000000000E+00 -0.45593999997E+02  0.45594000000E+02  0.51100000000E-03 0. -1.
    9900012    2    1    2    0    0 -0.94059111101E+00 -0.21652433847E+00 -0.67928253815E+00  0.90007737659E+02  0.89999998996E+02 0.  0.
        -12    1    1    2    0    0  0.94059111101E+00  0.21652433847E+00  0.67928253815E+00  0.11802623411E+01  0.00000000000E+00 0.  1.
         11    1    3    3    0    0  0.63937750409E+00 -0.17385412104E+01 -0.98371936831E+01  0.10010080367E+02  0.51100000000E-03 0. -1.
        -11    1    3    3    0    0  0.26297106933E+02 -0.27803086017E+02  0.99023219929E+01  0.39529804025E+02  0.51100000000E-03 0.  1.
         12    1    3    3    0    0 -0.27877075548E+02  0.29325102889E+02 -0.74441084793E+00  0.40467853267E+02  0.00000000000E+00 0. -1.
</event>
<event>
 7    1  0.2232484E-015  0.9000772E+02  0.7816164E-02  0.1186339E+00
        -11   -1    0    0    0    0  0.00000000000E+00  0.00000000000E+00  0.45593999997E+02  0.45594000000E+02  0.51100000000E-03 0.  1.
         11   -1    0    0    0    0 -0.00000000000E+00 -0.00000000000E+00 -0.45593999997E+02  0.45594000000E+02  0.51100000000E-03 0. -1.
    9900012    2    1    2    0    0 -0.48018583896E+00  0.96228339348E-01 -0.10738781944E+01  0.90007723460E+02  0.89999984610E+02 0.  0.
        -12    1    1    2    0    0  0.48018583896E+00 -0.96228339348E-01  0.10738781944E+01  0.11802765395E+01  0.00000000000E+00 0.  1.
         11    1    3    3    0    0  0.93644878032E+01 -0.12330855819E+02 -0.85504368039E+01  0.17687668214E+02  0.51100000000E-03 0. -1.
        -11    1    3    3    0    0 -0.10092274120E+02 -0.20750099749E+02  0.25641289664E+02  0.34494874582E+02  0.51100000000E-03 0.  1.
        -12    1    3    3    0    0  0.24760047762E+00  0.33177183908E+02 -0.18164731055E+02  0.37825180665E+02  0.00000000000E+00 0.  1.
</event>
<event>
 7    1  0.2232484E-015  0.9000772E+02  0.7816164E-02  0.1186339E+00
        -11   -1    0    0    0    0  0.00000000000E+00  0.00000000000E+00  0.45593999997E+02  0.45594000000E+02  0.51100000000E-03 0.  1.
         11   -1    0    0    0    0 -0.00000000000E+00 -0.00000000000E+00 -0.45593999997E+02  0.45594000000E+02  0.51100000000E-03 0. -1.
    9900012    2    1    2    0    0  0.24725075436E+00 -0.11503658723E+01  0.92666931451E-01  0.90007719637E+02  0.89999980736E+02 0.  0.
        -12    1    1    2    0    0 -0.24725075436E+00  0.11503658723E+01 -0.92666931451E-01  0.11802803633E+01  0.00000000000E+00 0.  1.
         11    1    3    3    0    0  0.19713768233E+01 -0.79986398085E+01 -0.40248395573E+02  0.41082817720E+02  0.51100000000E-03 0. -1.
        -11    1    3    3    0    0 -0.98735470534E+01  0.58707580207E+00  0.32114531140E+01  0.10399279820E+02  0.51100000000E-03 0.  1.
        -12    1    3    3    0    0  0.81494209845E+01  0.62611981341E+01  0.37129609390E+02  0.38525622097E+02  0.00000000000E+00 0.  1.
</event>
<event>
 7    1  0.2232484E-015  0.9000760E+02  0.7816164E-02  0.1186339E+00
        -11   -1    0    0    0    0  0.00000000000E+00  0.00000000000E+00  0.45593999997E+02  0.45594000000E+02  0.51100000000E-03 0.  1.
         11   -1    0    0    0    0 -0.00000000000E+00 -0.00000000000E+00 -0.45593999997E+02  0.45594000000E+02  0.51100000000E-03 0. -1.
    9900012    2    1    2    0    0 -0.78618603228E+00  0.86292143532E+00  0.17499148300E+00  0.90007600110E+02  0.89999859631E+02 0.  0.
        -12    1    1    2    0    0  0.78618603228E+00 -0.86292143532E+00 -0.17499148300E+00  0.11803998899E+01  0.00000000000E+00 0.  1.
         11    1    3    3    0    0 -0.39245023213E+01  0.76186617073E+01 -0.17982982854E+01  0.87566889670E+01  0.51100000000E-03 0. -1.
        -11    1    3    3    0    0 -0.27872176542E+02  0.22470447678E+02  0.11467398503E+02  0.37593622767E+02  0.51100000000E-03 0.  1.
         12    1    3    3    0    0  0.31010492831E+02 -0.29226187950E+02 -0.94941087345E+01  0.43657288376E+02  0.00000000000E+00 0. -1.
</event>
<event>
 7    1  0.2232484E-015  0.9000781E+02  0.7816164E-02  0.1186339E+00
        -11   -1    0    0    0    0  0.00000000000E+00  0.00000000000E+00  0.45593999997E+02  0.45594000000E+02  0.51100000000E-03 0.  1.
         11   -1    0    0    0    0 -0.00000000000E+00 -0.00000000000E+00 -0.45593999997E+02  0.45594000000E+02  0.51100000000E-03 0. -1.
    9900012    2    1    2    0    0 -0.10225024112E+01 -0.32544639822E+00 -0.49134961553E+00  0.90007808921E+02  0.90000071198E+02 0.  0.
        -12    1    1    2    0    0  0.10225024112E+01  0.32544639822E+00  0.49134961553E+00  0.11801910793E+01  0.00000000000E+00 0.  1.
         11    1    3    3    0    0  0.23078198405E+02 -0.30051293944E+02  0.73029468006E+01  0.38587777101E+02  0.51100000000E-03 0. -1.
        -11    1    3    3    0    0 -0.73809768025E+01 -0.71613652209E+01 -0.74069514833E+00  0.10310800161E+02  0.51100000000E-03 0.  1.
        -12    1    3    3    0    0 -0.16719724014E+02  0.36887212767E+02 -0.70536012678E+01  0.41109231660E+02  0.00000000000E+00 0.  1.
</event>
<event>
 7    1  0.2232484E-015  0.9000775E+02  0.7816164E-02  0.1186339E+00
        -11   -1    0    0    0    0  0.00000000000E+00  0.00000000000E+00  0.45593999997E+02  0.45594000000E+02  0.51100000000E-03 0.  1.
         11   -1    0    0    0    0 -0.00000000000E+00 -0.00000000000E+00 -0.45593999997E+02  0.45594000000E+02  0.51100000000E-03 0. -1.
    9900012    2    1    2    0    0 -0.51217887471E+00  0.18309405639E+00 -0.10474466982E+01  0.90007747816E+02  0.90000009287E+02 0.  0.
        -12    1    1    2    0    0  0.51217887471E+00 -0.18309405639E+00  0.10474466982E+01  0.11802521844E+01  0.00000000000E+00 0.  1.
         11    1    3    3    0    0  0.15757912678E+01 -0.87794740261E+01 -0.49603547582E+01  0.10206243280E+02  0.51100000000E-03 0. -1.
        -11    1    3    3    0    0  0.20767587207E+02 -0.44048743163E+01  0.33774091995E+02  0.39892165728E+02  0.51100000000E-03 0.  1.
         12    1    3    3    0    0 -0.22855557349E+02  0.13367442399E+02 -0.29861183935E+02  0.39909338808E+02  0.00000000000E+00 0. -1.
</event>
<event>
 7    1  0.2232484E-015  0.9000793E+02  0.7816164E-02  0.1186339E+00
        -11   -1    0    0    0    0  0.00000000000E+00  0.00000000000E+00  0.45593999997E+02  0.45594000000E+02  0.51100000000E-03 0. -1.
         11   -1    0    0    0    0 -0.00000000000E+00 -0.00000000000E+00 -0.45593999997E+02  0.45594000000E+02  0.51100000000E-03 0.  1.
    9900012    2    1    2    0    0 -0.93448071632E+00 -0.68928850198E-01  0.71733170785E+00  0.90007927894E+02  0.90000191742E+02 0.  0.
        -12    1    1    2    0    0  0.93448071632E+00  0.68928850198E-01 -0.71733170785E+00  0.11800721057E+01  0.00000000000E+00 0.  1.
         11    1    3    3    0    0 -0.64703698904E+01 -0.40230588641E+02 -0.27559992535E+01  0.40840684141E+02  0.51100000000E-03 0. -1.
        -11    1    3    3    0    0 -0.57866926527E+01  0.42828853485E+01 -0.70747415463E+01  0.10093606242E+02  0.51100000000E-03 0.  1.
        -12    1    3    3    0    0  0.11322581827E+02  0.35878774443E+02  0.10548072508E+02  0.39073637511E+02  0.00000000000E+00 0.  1.
</event>
<event>
 7    1  0.2232484E-015  0.9000777E+02  0.7816164E-02  0.1186339E+00
        -11   -1    0    0    0    0  0.00000000000E+00  0.00000000000E+00  0.45593999997E+02  0.45594000000E+02  0.51100000000E-03 0.  1.
         11   -1    0    0    0    0 -0.00000000000E+00 -0.00000000000E+00 -0.45593999997E+02  0.45594000000E+02  0.51100000000E-03 0. -1.
    9900012    2    1    2    0    0  0.93774308284E+00 -0.71659440879E+00 -0.83736684593E-02  0.90007771313E+02  0.90000033094E+02 0.  0.
        -12    1    1    2    0    0 -0.93774308284E+00  0.71659440879E+00  0.83736684593E-02  0.11802286874E+01  0.00000000000E+00 0.  1.
         11    1    3    3    0    0  0.91466273868E+01 -0.40482029943E+01 -0.23780399724E+01  0.10281236035E+02  0.51100000000E-03 0. -1.
        -11    1    3    3    0    0  0.24617099569E+02  0.28303658315E+02  0.72118434363E+01  0.38198289899E+02  0.51100000000E-03 0.  1.
         12    1    3    3    0    0 -0.32825983873E+02 -0.24972049729E+02 -0.48421771323E+01  0.41528245379E+02  0.00000000000E+00 0. -1.
</event>
<event>
 7    1  0.2232484E-015  0.9000894E+02  0.7816164E-02  0.1186337E+00
        -11   -1    0    0    0    0  0.00000000000E+00  0.00000000000E+00  0.45593999997E+02  0.45594000000E+02  0.51100000000E-03 0. -1.
         11   -1    0    0    0    0 -0.00000000000E+00 -0.00000000000E+00 -0.45593999997E+02  0.45594000000E+02  0.51100000000E-03 0.  1.
    9900012    2    1    2    0    0 -0.85163916155E+00  0.81294202573E+00 -0.63312175416E-01  0.90008944263E+02  0.90001221519E+02 0.  0.
        -12    1    1    2    0    0  0.85163916155E+00 -0.81294202573E+00  0.63312175416E-01  0.11790557367E+01  0.00000000000E+00 0.  1.
         11    1    3    3    0    0 -0.90912723466E+01 -0.21636418381E+01  0.29528926579E+01  0.98006200923E+01  0.51100000000E-03 0. -1.
        -11    1    3    3    0    0 -0.42624138607E+01 -0.22878549452E+02 -0.31893371711E+02  0.39481430525E+02  0.51100000000E-03 0.  1.
         12    1    3    3    0    0  0.12502047046E+02  0.25855133316E+02  0.28877166878E+02  0.40726893646E+02  0.00000000000E+00 0. -1.
</event>
<event>
 7    1  0.2232484E-015  0.9000758E+02  0.7816164E-02  0.1186339E+00
        -11   -1    0    0    0    0  0.00000000000E+00  0.00000000000E+00  0.45593999997E+02  0.45594000000E+02  0.51100000000E-03 0.  1.
         11   -1    0    0    0    0 -0.00000000000E+00 -0.00000000000E+00 -0.45593999997E+02  0.45594000000E+02  0.51100000000E-03 0. -1.
    9900012    2    1    2    0    0 -0.56638487885E+00  0.91387740022E+00  0.48725904190E+00  0.90007582655E+02  0.89999841946E+02 0.  0.
        -12    1    1    2    0    0  0.56638487885E+00 -0.91387740022E+00 -0.48725904190E+00  0.11804173447E+01  0.00000000000E+00 0.  1.
         11    1    3    3    0    0  0.30523538552E+02 -0.17437542091E+02 -0.21112092445E+02  0.41005788952E+02  0.51100000000E-03 0. -1.
        -11    1    3    3    0    0  0.20415779176E+01 -0.16904256063E+01  0.72288217663E+01  0.76994443639E+01  0.51100000000E-03 0.  1.
        -12    1    3    3    0    0 -0.33131501349E+02  0.20041845097E+02  0.14370529720E+02  0.41302349340E+02  0.00000000000E+00 0.  1.
</event>
<event>
 7    1  0.2232484E-015  0.9000773E+02  0.7816164E-02  0.1186339E+00
        -11   -1    0    0    0    0  0.00000000000E+00  0.00000000000E+00  0.45593999997E+02  0.45594000000E+02  0.51100000000E-03 0.  1.
         11   -1    0    0    0    0 -0.00000000000E+00 -0.00000000000E+00 -0.45593999997E+02  0.45594000000E+02  0.51100000000E-03 0. -1.
    9900012    2    1    2    0    0  0.20912798174E+00  0.11427759183E+01 -0.20825201977E+00  0.90007728753E+02  0.89999989973E+02 0.  0.
        -12    1    1    2    0    0 -0.20912798174E+00 -0.11427759183E+01  0.20825201977E+00  0.11802712468E+01  0.00000000000E+00 0.  1.
         11    1    3    3    0    0  0.36173669279E+02 -0.13676623348E+02 -0.48200868433E+01  0.38972010633E+02  0.51100000000E-03 0. -1.
        -11    1    3    3    0    0  0.24469624680E+01  0.44982393691E+01 -0.78347301684E+01  0.93597425079E+01  0.51100000000E-03 0.  1.
        -12    1    3    3    0    0 -0.38411503765E+02  0.10321159897E+02  0.12446564992E+02  0.41675975612E+02  0.00000000000E+00 0.  1.
</event>
<event>
 7    1  0.2232484E-015  0.9000778E+02  0.7816164E-02  0.1186339E+00
        -11   -1    0    0    0    0  0.00000000000E+00  0.00000000000E+00  0.45593999997E+02  0.45594000000E+02  0.51100000000E-03 0. -1.
         11   -1    0    0    0    0 -0.00000000000E+00 -0.00000000000E+00 -0.45593999997E+02  0.45594000000E+02  0.51100000000E-03 0.  1.
    9900012    2    1    2    0    0  0.96290830205E+00  0.51098410677E+00 -0.45236330873E+00  0.90007775564E+02  0.90000037402E+02 0.  0.
        -12    1    1    2    0    0 -0.96290830205E+00 -0.51098410677E+00  0.45236330873E+00  0.11802244357E+01  0.00000000000E+00 0.  1.
         11    1    3    3    0    0 -0.13823852130E+02  0.99358458626E+01  0.34324452750E+02  0.38314331230E+02  0.51100000000E-03 0. -1.
        -11    1    3    3    0    0 -0.41864028832E+01  0.85964197803E+01 -0.20283921058E+01  0.97743939421E+01  0.51100000000E-03 0.  1.
        -12    1    3    3    0    0  0.18973163315E+02 -0.18021281536E+02 -0.32748423953E+02  0.41919050392E+02  0.00000000000E+00 0.  1.
</event>
<event>
 7    1  0.2232484E-015  0.9000770E+02  0.7816164E-02  0.1186339E+00
        -11   -1    0    0    0    0  0.00000000000E+00  0.00000000000E+00  0.45593999997E+02  0.45594000000E+02  0.51100000000E-03 0.  1.
         11   -1    0    0    0    0 -0.00000000000E+00 -0.00000000000E+00 -0.45593999997E+02  0.45594000000E+02  0.51100000000E-03 0. -1.
    9900012    2    1    2    0    0 -0.24993844316E-01  0.11731476460E+01 -0.12726768087E+00  0.90007704633E+02  0.89999965534E+02 0.  0.
        -12    1    1    2    0    0  0.24993844316E-01 -0.11731476460E+01  0.12726768087E+00  0.11802953674E+01  0.00000000000E+00 0.  1.
         11    1    3    3    0    0  0.13479501734E+02 -0.10101511774E+02 -0.12107258152E+02  0.20744233111E+02  0.51100000000E-03 0. -1.
        -11    1    3    3    0    0  0.24981934539E+02  0.15404424742E+02  0.75380091827E+01  0.30302061607E+02  0.51100000000E-03 0.  1.
         12    1    3    3    0    0 -0.38486430117E+02 -0.41297653214E+01  0.44419812889E+01  0.38961409915E+02  0.00000000000E+00 0. -1.
</event>
<event>
 7    1  0.2232484E-015  0.9000764E+02  0.7816164E-02  0.1186339E+00
        -11   -1    0    0    0    0  0.00000000000E+00  0.00000000000E+00  0.45593999997E+02  0.45594000000E+02  0.51100000000E-03 0.  1.
         11   -1    0    0    0    0 -0.00000000000E+00 -0.00000000000E+00 -0.45593999997E+02  0.45594000000E+02  0.51100000000E-03 0. -1.
    9900012    2    1    2    0    0 -0.27960654379E+00  0.87721714863E+00 -0.73862359153E+00  0.90007637956E+02  0.89999897977E+02 0.  0.
        -12    1    1    2    0    0  0.27960654379E+00 -0.87721714863E+00  0.73862359153E+00  0.11803620441E+01  0.00000000000E+00 0.  1.
         11    1    3    3    0    0 -0.24247416636E+02 -0.30046515536E+02 -0.66646236359E+01  0.39180958613E+02  0.51100000000E-03 0. -1.
        -11    1    3    3    0    0 -0.24391096835E+01  0.25167285517E+01 -0.86969251766E+01  0.93765498154E+01  0.51100000000E-03 0.  1.
        -12    1    3    3    0    0  0.26406919776E+02  0.28407004133E+02  0.14622925221E+02  0.41450129528E+02  0.00000000000E+00 0.  1.
</event>
<event>
 7    1  0.2232484E-015  0.9000773E+02  0.7816164E-02  0.1186339E+00
        -11   -1    0    0    0    0  0.00000000000E+00  0.00000000000E+00  0.45593999997E+02  0.45594000000E+02  0.51100000000E-03 0. -1.
         11   -1    0    0    0    0 -0.00000000000E+00 -0.00000000000E+00 -0.45593999997E+02  0.45594000000E+02  0.51100000000E-03 0.  1.
    9900012    2    1    2    0    0  0.64239137720E+00 -0.89367538228E+00 -0.42627661337E+00  0.90007731335E+02  0.89999992589E+02 0.  0.
        -12    1    1    2    0    0 -0.64239137720E+00  0.89367538228E+00  0.42627661337E+00  0.11802686650E+01  0.00000000000E+00 0.  1.
         11    1    3    3    0    0  0.15383741148E+02 -0.62652242377E+01  0.19155776968E+01  0.16720704669E+02  0.51100000000E-03 0. -1.
        -11    1    3    3    0    0  0.23861140861E+01 -0.27658348752E+02 -0.17821174055E+02  0.32988968476E+02  0.51100000000E-03 0.  1.
        -12    1    3    3    0    0 -0.17127463857E+02  0.33029897608E+02  0.15479319745E+02  0.40298058190E+02  0.00000000000E+00 0.  1.
</event>
<event>
 7    1  0.2557600E-015  0.9000766E+02  0.7816164E-02  0.1186339E+00
        -11   -1    0    0    0    0  0.00000000000E+00  0.00000000000E+00  0.45593999997E+02  0.45594000000E+02  0.51100000000E-03 0. -1.
         11   -1    0    0    0    0 -0.00000000000E+00 -0.00000000000E+00 -0.45593999997E+02  0.45594000000E+02  0.51100000000E-03 0.  1.
    9900012    2    1    2    0    0  0.44180513013E+00  0.42016349124E+00  0.10106812067E+01  0.90007658679E+02  0.89999918974E+02 0.  0.
        -12    1    1    2    0    0 -0.44180513013E+00 -0.42016349124E+00 -0.10106812067E+01  0.11803413210E+01  0.00000000000E+00 0.  1.
         11    1    3    3    0    0  0.25712137316E+01 -0.97267806054E+01  0.51235779793E+00  0.10073922363E+02  0.51100000000E-03 0. -1.
        -11    1    3    3    0    0  0.25422930446E+02 -0.23874732340E+02 -0.68500422111E+01  0.35542246909E+02  0.51100000000E-03 0.  1.
         12    1    3    3    0    0 -0.27552339047E+02  0.34021676437E+02  0.73483656199E+01  0.44391489408E+02  0.00000000000E+00 0. -1.
</event>
<event>
 7    1  0.2232484E-015  0.9000775E+02  0.7816164E-02  0.1186339E+00
        -11   -1    0    0    0    0  0.00000000000E+00  0.00000000000E+00  0.45593999997E+02  0.45594000000E+02  0.51100000000E-03 0.  1.
         11   -1    0    0    0    0 -0.00000000000E+00 -0.00000000000E+00 -0.45593999997E+02  0.45594000000E+02  0.51100000000E-03 0. -1.
    9900012    2    1    2    0    0  0.20669597578E+00  0.69662615935E+00 -0.93004368851E+00  0.90007748970E+02  0.90000010456E+02 0.  0.
        -12    1    1    2    0    0 -0.20669597578E+00 -0.69662615935E+00  0.93004368851E+00  0.11802510304E+01  0.00000000000E+00 0.  1.
         11    1    3    3    0    0 -0.15682371049E+01 -0.10671615850E+02  0.43490609067E+01  0.11630007889E+02  0.51100000000E-03 0. -1.
        -11    1    3    3    0    0 -0.74108732773E+00  0.25725105255E+02  0.30403230246E+02  0.39833235626E+02  0.51100000000E-03 0.  1.
         12    1    3    3    0    0  0.25160204084E+01 -0.14356863245E+02 -0.35682334842E+02  0.38544505454E+02  0.00000000000E+00 0. -1.
</event>
<event>
 7    1  0.2232484E-015  0.9000781E+02  0.7816164E-02  0.1186339E+00
        -11   -1    0    0    0    0  0.00000000000E+00  0.00000000000E+00  0.45593999997E+02  0.45594000000E+02  0.51100000000E-03 0. -1.
         11   -1    0    0    0    0 -0.00000000000E+00 -0.00000000000E+00 -0.45593999997E+02  0.45594000000E+02  0.51100000000E-03 0.  1.
    9900012    2    1    2    0    0  0.27263380584E-01  0.66127030216E-01  0.11780209920E+01  0.90007809535E+02  0.90000071821E+02 0.  0.
        -12    1    1    2    0    0 -0.27263380584E-01 -0.66127030216E-01 -0.11780209920E+01  0.11801904650E+01  0.00000000000E+00 0.  1.
         11    1    3    3    0    0  0.30405818100E+01 -0.60695666629E+01 -0.86392713236E+01  0.10987346653E+02  0.51100000000E-03 0. -1.
        -11    1    3    3    0    0  0.22025250028E+02 -0.22135931072E+02 -0.14159217714E+02  0.34286944012E+02  0.51100000000E-03 0.  1.
         12    1    3    3    0    0 -0.25038568457E+02  0.28271624765E+02  0.23976510029E+02  0.44733518869E+02  0.00000000000E+00 0. -1.
</event>
<event>
 7    1  0.2232484E-015  0.9000769E+02  0.7816164E-02  0.1186339E+00
        -11   -1    0    0    0    0  0.00000000000E+00  0.00000000000E+00  0.45593999997E+02  0.45594000000E+02  0.51100000000E-03 0.  1.
         11   -1    0    0    0    0 -0.00000000000E+00 -0.00000000000E+00 -0.45593999997E+02  0.45594000000E+02  0.51100000000E-03 0. -1.
    9900012    2    1    2    0    0  0.42366409515E+00 -0.10817598366E+01 -0.20843091844E+00  0.90007686882E+02  0.89999947548E+02 0.  0.
        -12    1    1    2    0    0 -0.42366409515E+00  0.10817598366E+01  0.20843091844E+00  0.11803131184E+01  0.00000000000E+00 0.  1.
         11    1    3    3    0    0 -0.11619781097E+02  0.33457427469E+02  0.15865019802E+02  0.38808731223E+02  0.51100000000E-03 0. -1.
        -11    1    3    3    0    0 -0.52641202806E+01 -0.17994121431E+01  0.59229700072E+01  0.81259104325E+01  0.51100000000E-03 0.  1.
        -12    1    3    3    0    0  0.17307565473E+02 -0.32739775162E+02 -0.21996420727E+02  0.43073045226E+02  0.00000000000E+00 0.  1.
</event>
<event>
 7    1  0.2232484E-015  0.9000748E+02  0.7816164E-02  0.1186340E+00
        -11   -1    0    0    0    0  0.00000000000E+00  0.00000000000E+00  0.45593999997E+02  0.45594000000E+02  0.51100000000E-03 0. -1.
         11   -1    0    0    0    0 -0.00000000000E+00 -0.00000000000E+00 -0.45593999997E+02  0.45594000000E+02  0.51100000000E-03 0.  1.
    9900012    2    1    2    0    0  0.10653997854E+01 -0.50129362053E+00  0.85197981651E-01  0.90007478635E+02  0.89999736553E+02 0.  0.
        -12    1    1    2    0    0 -0.10653997854E+01  0.50129362053E+00 -0.85197981651E-01  0.11805213648E+01  0.00000000000E+00 0.  1.
         11    1    3    3    0    0 -0.19136712836E+02  0.38561782254E+00 -0.14421927532E+02  0.23965693674E+02  0.51100000000E-03 0. -1.
        -11    1    3    3    0    0 -0.19021752050E+02 -0.11661720398E+02 -0.14219183523E+01  0.22357205231E+02  0.51100000000E-03 0.  1.
        -12    1    3    3    0    0  0.39223864671E+02  0.10774808955E+02  0.15929043866E+02  0.43684579730E+02  0.00000000000E+00 0.  1.
</event>
<event>
 7    1  0.2232484E-015  0.9000794E+02  0.7816164E-02  0.1186339E+00
        -11   -1    0    0    0    0  0.00000000000E+00  0.00000000000E+00  0.45593999997E+02  0.45594000000E+02  0.51100000000E-03 0.  1.
         11   -1    0    0    0    0 -0.00000000000E+00 -0.00000000000E+00 -0.45593999997E+02  0.45594000000E+02  0.51100000000E-03 0. -1.
    9900012    2    1    2    0    0  0.56724409778E+00  0.32091726011E+00 -0.98375669622E+00  0.90007944496E+02  0.90000208563E+02 0.  0.
        -12    1    1    2    0    0 -0.56724409778E+00 -0.32091726011E+00  0.98375669622E+00  0.11800555036E+01  0.00000000000E+00 0.  1.
         11    1    3    3    0    0 -0.13174628052E+02  0.19929641246E+02 -0.13362698127E+02  0.27373767114E+02  0.51100000000E-03 0. -1.
        -11    1    3    3    0    0 -0.10139769262E+02 -0.15325288425E+01 -0.17528310622E+02  0.20307763020E+02  0.51100000000E-03 0.  1.
        -12    1    3    3    0    0  0.23881641412E+02 -0.18076195143E+02  0.29907252053E+02  0.42326414362E+02  0.00000000000E+00 0.  1.
</event>
<event>
 7    1  0.2232484E-015  0.9000764E+02  0.7816164E-02  0.1186339E+00
        -11   -1    0    0    0    0  0.00000000000E+00  0.00000000000E+00  0.45593999997E+02  0.45594000000E+02  0.51100000000E-03 0.  1.
         11   -1    0    0    0    0 -0.00000000000E+00 -0.00000000000E+00 -0.45593999997E+02  0.45594000000E+02  0.51100000000E-03 0. -1.
    9900012    2    1    2    0    0  0.26389430858E+00 -0.89669046334E+00 -0.72080979231E+00  0.90007635332E+02  0.89999895318E+02 0.  0.
        -12    1    1    2    0    0 -0.26389430858E+00  0.89669046334E+00  0.72080979231E+00  0.11803646682E+01  0.00000000000E+00 0.  1.
         11    1    3    3    0    0 -0.22000548569E+02  0.28266154701E+02 -0.12649368388E+02  0.37986920904E+02  0.51100000000E-03 0. -1.
        -11    1    3    3    0    0  0.34257318196E+01  0.80001929638E+01  0.78555813488E-01  0.87031544417E+01  0.51100000000E-03 0.  1.
        -12    1    3    3    0    0  0.18838711058E+02 -0.37163038128E+02  0.11850002782E+02  0.43317559986E+02  0.00000000000E+00 0.  1.
</event>
<event>
 7    1  0.2232484E-015  0.9000775E+02  0.7816164E-02  0.1186339E+00
        -11   -1    0    0    0    0  0.00000000000E+00  0.00000000000E+00  0.45593999997E+02  0.45594000000E+02  0.51100000000E-03 0. -1.
         11   -1    0    0    0    0 -0.00000000000E+00 -0.00000000000E+00 -0.45593999997E+02  0.45594000000E+02  0.51100000000E-03 0.  1.
    9900012    2    1    2    0    0 -0.53100930573E+00 -0.10539845646E+01 -0.11268838670E-01  0.90007753699E+02  0.90000015247E+02 0.  0.
        -12    1    1    2    0    0  0.53100930573E+00  0.10539845646E+01  0.11268838670E-01  0.11802463014E+01  0.00000000000E+00 0.  1.
         11    1    3    3    0    0 -0.88923236579E+01 -0.17107024179E+01  0.15683736226E+01  0.91901968902E+01  0.51100000000E-03 0. -1.
        -11    1    3    3    0    0  0.33659363308E+02 -0.13111479695E+02 -0.24803662234E+02  0.43818777922E+02  0.51100000000E-03 0.  1.
         12    1    3    3    0    0 -0.25298048956E+02  0.13768197548E+02  0.23224019772E+02  0.36998778887E+02  0.00000000000E+00 0. -1.
</event>
<event>
 7    1  0.2232484E-015  0.9000778E+02  0.7816164E-02  0.1186339E+00
        -11   -1    0    0    0    0  0.00000000000E+00  0.00000000000E+00  0.45593999997E+02  0.45594000000E+02  0.51100000000E-03 0.  1.
         11   -1    0    0    0    0 -0.00000000000E+00 -0.00000000000E+00 -0.45593999997E+02  0.45594000000E+02  0.51100000000E-03 0. -1.
    9900012    2    1    2    0    0 -0.42086332681E+00 -0.83371502344E+00 -0.72160550314E+00  0.90007779181E+02  0.90000041066E+02 0.  0.
        -12    1    1    2    0    0  0.42086332681E+00  0.83371502344E+00  0.72160550314E+00  0.11802208193E+01  0.00000000000E+00 0.  1.
         11    1    3    3    0    0 -0.11307758647E+02  0.35229351915E+02  0.60977497251E+01  0.37498735898E+02  0.51100000000E-03 0. -1.
        -11    1    3    3    0    0  0.76139939309E+00  0.47046496741E+01 -0.92783617463E+01  0.10430793572E+02  0.51100000000E-03 0.  1.
        -12    1    3    3    0    0  0.10125495927E+02 -0.40767716613E+02  0.24590065181E+01  0.42078249710E+02  0.00000000000E+00 0.  1.
</event>
<event>
 7    1  0.2232484E-015  0.9000785E+02  0.7816164E-02  0.1186339E+00
        -11   -1    0    0    0    0  0.00000000000E+00  0.00000000000E+00  0.45593999997E+02  0.45594000000E+02  0.51100000000E-03 0.  1.
         11   -1    0    0    0    0 -0.00000000000E+00 -0.00000000000E+00 -0.45593999997E+02  0.45594000000E+02  0.51100000000E-03 0. -1.
    9900012    2    1    2    0    0 -0.25532356034E+00 -0.10035650962E+01 -0.56606750672E+00  0.90007845161E+02  0.90000107917E+02 0.  0.
        -12    1    1    2    0    0  0.25532356034E+00  0.10035650962E+01  0.56606750672E+00  0.11801548394E+01  0.00000000000E+00 0.  1.
         11    1    3    3    0    0  0.36641807411E+01 -0.42301210257E+01 -0.11824793866E+02  0.13082274062E+02  0.51100000000E-03 0. -1.
        -11    1    3    3    0    0 -0.19347619856E+02 -0.29302437958E+02 -0.81185041623E+01  0.36039885883E+02  0.51100000000E-03 0.  1.
         12    1    3    3    0    0  0.15428115555E+02  0.32528993887E+02  0.19377230522E+02  0.40885685216E+02  0.00000000000E+00 0. -1.
</event>
<event>
 7    1  0.2232484E-015  0.9000778E+02  0.7816164E-02  0.1186339E+00
        -11   -1    0    0    0    0  0.00000000000E+00  0.00000000000E+00  0.45593999997E+02  0.45594000000E+02  0.51100000000E-03 0.  1.
         11   -1    0    0    0    0 -0.00000000000E+00 -0.00000000000E+00 -0.45593999997E+02  0.45594000000E+02  0.51100000000E-03 0. -1.
    9900012    2    1    2    0    0 -0.50786010000E+00 -0.10559929361E+01 -0.14097810864E+00  0.90007780618E+02  0.90000042522E+02 0.  0.
        -12    1    1    2    0    0  0.50786010000E+00  0.10559929361E+01  0.14097810864E+00  0.11802193819E+01  0.00000000000E+00 0.  1.
         11    1    3    3    0    0  0.85441777901E+01 -0.22282658362E+01  0.76661910874E+01  0.11693529356E+02  0.51100000000E-03 0. -1.
        -11    1    3    3    0    0 -0.85689033314E+01  0.40442456541E+01  0.34565966590E+02  0.35841150565E+02  0.51100000000E-03 0.  1.
         12    1    3    3    0    0 -0.48313455871E+00 -0.28719727540E+01 -0.42373135786E+02  0.42473100698E+02  0.00000000000E+00 0. -1.
</event>
<event>
 7    1  0.2232484E-015  0.9000779E+02  0.7816164E-02  0.1186339E+00
        -11   -1    0    0    0    0  0.00000000000E+00  0.00000000000E+00  0.45593999997E+02  0.45594000000E+02  0.51100000000E-03 0.  1.
         11   -1    0    0    0    0 -0.00000000000E+00 -0.00000000000E+00 -0.45593999997E+02  0.45594000000E+02  0.51100000000E-03 0. -1.
    9900012    2    1    2    0    0 -0.49713199116E+00  0.96532003221E+00  0.46251154023E+00  0.90007788194E+02  0.90000050199E+02 0.  0.
        -12    1    1    2    0    0  0.49713199116E+00 -0.96532003221E+00 -0.46251154023E+00  0.11802118056E+01  0.00000000000E+00 0.  1.
         11    1    3    3    0    0  0.26826783435E+02 -0.81031865200E+00 -0.22657809789E+02  0.35124197791E+02  0.51100000000E-03 0. -1.
        -11    1    3    3    0    0  0.48808720999E+01 -0.69852163959E+01 -0.61359948618E+01  0.10500790149E+02  0.51100000000E-03 0.  1.
        -12    1    3    3    0    0 -0.32204787526E+02  0.87608550801E+01  0.29256316191E+02  0.44382800254E+02  0.00000000000E+00 0.  1.
</event>
<event>
 7    1  0.2232484E-015  0.9000762E+02  0.7816164E-02  0.1186339E+00
        -11   -1    0    0    0    0  0.00000000000E+00  0.00000000000E+00  0.45593999997E+02  0.45594000000E+02  0.51100000000E-03 0. -1.
         11   -1    0    0    0    0 -0.00000000000E+00 -0.00000000000E+00 -0.45593999997E+02  0.45594000000E+02  0.51100000000E-03 0.  1.
    9900012    2    1    2    0    0 -0.44591830502E+00 -0.96228637129E+00 -0.51812469682E+00  0.90007622350E+02  0.89999882165E+02 0.  0.
        -12    1    1    2    0    0  0.44591830502E+00  0.96228637129E+00  0.51812469682E+00  0.11803776500E+01  0.00000000000E+00 0.  1.
         11    1    3    3    0    0  0.37049083973E+00  0.18451145557E+02  0.32426878646E+02  0.37310648545E+02  0.51100000000E-03 0. -1.
        -11    1    3    3    0    0 -0.28982508217E+01  0.89037604845E+01 -0.21314535936E+00  0.93660151504E+01  0.51100000000E-03 0.  1.
        -12    1    3    3    0    0  0.20818416770E+01 -0.28317192412E+02 -0.32731857984E+02  0.43330958655E+02  0.00000000000E+00 0.  1.
</event>
<event>
 7    1  0.2232484E-015  0.9000781E+02  0.7816164E-02  0.1186339E+00
        -11   -1    0    0    0    0  0.00000000000E+00  0.00000000000E+00  0.45593999997E+02  0.45594000000E+02  0.51100000000E-03 0.  1.
         11   -1    0    0    0    0 -0.00000000000E+00 -0.00000000000E+00 -0.45593999997E+02  0.45594000000E+02  0.51100000000E-03 0. -1.
    9900012    2    1    2    0    0 -0.98854496388E+00  0.40103195132E+00  0.50477945090E+00  0.90007809310E+02  0.90000071592E+02 0.  0.
        -12    1    1    2    0    0  0.98854496388E+00 -0.40103195132E+00 -0.50477945090E+00  0.11801906904E+01  0.00000000000E+00 0.  1.
         11    1    3    3    0    0  0.71839130751E+01  0.73852268217E+00  0.53394217416E+01  0.89812831833E+01  0.51100000000E-03 0. -1.
        -11    1    3    3    0    0 -0.11671947806E+01  0.32990517618E+02  0.20251700052E+02  0.38728128687E+02  0.51100000000E-03 0.  1.
         12    1    3    3    0    0 -0.70052632584E+01 -0.33328008349E+02 -0.25086342343E+02  0.42298397439E+02  0.00000000000E+00 0. -1.
</event>
<event>
 7    1  0.2232484E-015  0.9000783E+02  0.7816164E-02  0.1186339E+00
        -11   -1    0    0    0    0  0.00000000000E+00  0.00000000000E+00  0.45593999997E+02  0.45594000000E+02  0.51100000000E-03 0.  1.
         11   -1    0    0    0    0 -0.00000000000E+00 -0.00000000000E+00 -0.45593999997E+02  0.45594000000E+02  0.51100000000E-03 0. -1.
    9900012    2    1    2    0    0  0.43841913136E+00 -0.10056912540E+01 -0.43493254555E+00  0.90007833676E+02  0.90000096281E+02 0.  0.
        -12    1    1    2    0    0 -0.43841913136E+00  0.10056912540E+01  0.43493254555E+00  0.11801663240E+01  0.00000000000E+00 0.  1.
         11    1    3    3    0    0 -0.72923953943E+01 -0.11159407729E+01  0.77365708960E+01  0.10690130209E+02  0.51100000000E-03 0. -1.
        -11    1    3    3    0    0 -0.20654656750E+02 -0.21618852573E+02  0.18102934637E+02  0.34952909389E+02  0.51100000000E-03 0.  1.
         12    1    3    3    0    0  0.28385471276E+02  0.21729102092E+02 -0.26274438078E+02  0.44364794078E+02  0.00000000000E+00 0. -1.
</event>
<event>
 7    1  0.2232484E-015  0.9000780E+02  0.7816164E-02  0.1186339E+00
        -11   -1    0    0    0    0  0.00000000000E+00  0.00000000000E+00  0.45593999997E+02  0.45594000000E+02  0.51100000000E-03 0.  1.
         11   -1    0    0    0    0 -0.00000000000E+00 -0.00000000000E+00 -0.45593999997E+02  0.45594000000E+02  0.51100000000E-03 0. -1.
    9900012    2    1    2    0    0 -0.41310339913E+00 -0.42120819983E+00 -0.10221593118E+01  0.90007796448E+02  0.90000058561E+02 0.  0.
        -12    1    1    2    0    0  0.41310339913E+00  0.42120819983E+00  0.10221593118E+01  0.11802035522E+01  0.00000000000E+00 0.  1.
         11    1    3    3    0    0 -0.11411545479E+02 -0.36106787002E+00  0.55028860804E+01  0.12674205920E+02  0.51100000000E-03 0. -1.
        -11    1    3    3    0    0  0.17837475546E+02 -0.26814326976E+02  0.20917546563E+02  0.38402179880E+02  0.51100000000E-03 0.  1.
         12    1    3    3    0    0 -0.68390334668E+01  0.26754186646E+02 -0.27442591955E+02  0.38931410648E+02  0.00000000000E+00 0. -1.
</event>
<event>
 7    1  0.2232484E-015  0.9000774E+02  0.7816164E-02  0.1186339E+00
        -11   -1    0    0    0    0  0.00000000000E+00  0.00000000000E+00  0.45593999997E+02  0.45594000000E+02  0.51100000000E-03 0.  1.
         11   -1    0    0    0    0 -0.00000000000E+00 -0.00000000000E+00 -0.45593999997E+02  0.45594000000E+02  0.51100000000E-03 0. -1.
    9900012    2    1    2    0    0 -0.16784346946E-01 -0.33445490069E+00 -0.11317543953E+01  0.90007741636E+02  0.90000003025E+02 0.  0.
        -12    1    1    2    0    0  0.16784346946E-01  0.33445490069E+00  0.11317543953E+01  0.11802583642E+01  0.00000000000E+00 0.  1.
         11    1    3    3    0    0 -0.19483849351E+02 -0.55192703102E+01 -0.33365181535E+02  0.39029707524E+02  0.51100000000E-03 0. -1.
        -11    1    3    3    0    0 -0.57473360809E+01 -0.81315885695E+01  0.36556292753E+01  0.10607461070E+02  0.51100000000E-03 0.  1.
        -12    1    3    3    0    0  0.25214401085E+02  0.13316403979E+02  0.28577797864E+02  0.40370573042E+02  0.00000000000E+00 0.  1.
</event>
<event>
 7    1  0.2232484E-015  0.9000772E+02  0.7816164E-02  0.1186339E+00
        -11   -1    0    0    0    0  0.00000000000E+00  0.00000000000E+00  0.45593999997E+02  0.45594000000E+02  0.51100000000E-03 0. -1.
         11   -1    0    0    0    0 -0.00000000000E+00 -0.00000000000E+00 -0.45593999997E+02  0.45594000000E+02  0.51100000000E-03 0.  1.
    9900012    2    1    2    0    0  0.16102858011E+00 -0.92681124530E+00  0.71285298603E+00  0.90007716700E+02  0.89999977761E+02 0.  0.
        -12    1    1    2    0    0 -0.16102858011E+00  0.92681124530E+00 -0.71285298603E+00  0.11802832998E+01  0.00000000000E+00 0.  1.
         11    1    3    3    0    0  0.76987133709E+01  0.19875676908E+02  0.20807082159E+02  0.29786698178E+02  0.51100000000E-03 0. -1.
        -11    1    3    3    0    0  0.70244709717E+01  0.69516158072E+01  0.11875904347E+02  0.15450089290E+02  0.51100000000E-03 0.  1.
        -12    1    3    3    0    0 -0.14562155762E+02 -0.27754103960E+02 -0.31970133519E+02  0.44770929232E+02  0.00000000000E+00 0.  1.
</event>
<event>
 7    1  0.2232484E-015  0.9000777E+02  0.7816164E-02  0.1186339E+00
        -11   -1    0    0    0    0  0.00000000000E+00  0.00000000000E+00  0.45593999997E+02  0.45594000000E+02  0.51100000000E-03 0. -1.
         11   -1    0    0    0    0 -0.00000000000E+00 -0.00000000000E+00 -0.45593999997E+02  0.45594000000E+02  0.51100000000E-03 0.  1.
    9900012    2    1    2    0    0 -0.89301211963E+00  0.31024306018E+00 -0.70655370228E+00  0.90007771405E+02  0.90000033188E+02 0.  0.
        -12    1    1    2    0    0  0.89301211963E+00 -0.31024306018E+00  0.70655370228E+00  0.11802285950E+01  0.00000000000E+00 0.  1.
         11    1    3    3    0    0 -0.19686736686E+02 -0.26262485852E+02  0.25543435724E+02  0.41590297827E+02  0.51100000000E-03 0. -1.
        -11    1    3    3    0    0 -0.54165024609E+01  0.78886726056E+01 -0.30896033934E+01  0.10055610562E+02  0.51100000000E-03 0.  1.
        -12    1    3    3    0    0  0.24210227028E+02  0.18684056307E+02 -0.23160386033E+02  0.38361863016E+02  0.00000000000E+00 0.  1.
</event>
<event>
 7    1  0.2232484E-015  0.9000775E+02  0.7816164E-02  0.1186339E+00
        -11   -1    0    0    0    0  0.00000000000E+00  0.00000000000E+00  0.45593999997E+02  0.45594000000E+02  0.51100000000E-03 0. -1.
         11   -1    0    0    0    0 -0.00000000000E+00 -0.00000000000E+00 -0.45593999997E+02  0.45594000000E+02  0.51100000000E-03 0.  1.
    9900012    2    1    2    0    0  0.44207339814E+00  0.14167373654E+00  0.10851246052E+01  0.90007747592E+02  0.90000009061E+02 0.  0.
        -12    1    1    2    0    0 -0.44207339814E+00 -0.14167373654E+00 -0.10851246052E+01  0.11802524077E+01  0.00000000000E+00 0.  1.
         11    1    3    3    0    0 -0.12172959010E+01  0.23083959272E+02  0.30364720417E+02  0.38162379790E+02  0.51100000000E-03 0. -1.
        -11    1    3    3    0    0  0.58210609266E+01  0.40942267278E+01  0.44684056865E+01  0.84032191718E+01  0.51100000000E-03 0.  1.
        -12    1    3    3    0    0 -0.41616916275E+01 -0.27036512263E+02 -0.33748001498E+02  0.43442148631E+02  0.00000000000E+00 0.  1.
</event>
<event>
 7    1  0.2232484E-015  0.9000777E+02  0.7816164E-02  0.1186339E+00
        -11   -1    0    0    0    0  0.00000000000E+00  0.00000000000E+00  0.45593999997E+02  0.45594000000E+02  0.51100000000E-03 0. -1.
         11   -1    0    0    0    0 -0.00000000000E+00 -0.00000000000E+00 -0.45593999997E+02  0.45594000000E+02  0.51100000000E-03 0.  1.
    9900012    2    1    2    0    0 -0.94795731832E+00 -0.46630247351E+00 -0.52620676219E+00  0.90007765010E+02  0.90000026709E+02 0.  0.
        -12    1    1    2    0    0  0.94795731832E+00  0.46630247351E+00  0.52620676219E+00  0.11802349896E+01  0.00000000000E+00 0.  1.
         11    1    3    3    0    0 -0.44219183561E+00 -0.34056859423E+02 -0.80888424052E+01  0.35007064703E+02  0.51100000000E-03 0. -1.
        -11    1    3    3    0    0  0.46199924497E+01 -0.70838989585E+01 -0.75209953784E+01  0.11317743876E+02  0.51100000000E-03 0.  1.
        -12    1    3    3    0    0 -0.51257579324E+01  0.40674455908E+02  0.15083631021E+02  0.43682956432E+02  0.00000000000E+00 0.  1.
</event>
<event>
 7    1  0.2232484E-015  0.9000773E+02  0.7816164E-02  0.1186339E+00
        -11   -1    0    0    0    0  0.00000000000E+00  0.00000000000E+00  0.45593999997E+02  0.45594000000E+02  0.51100000000E-03 0.  1.
         11   -1    0    0    0    0 -0.00000000000E+00 -0.00000000000E+00 -0.45593999997E+02  0.45594000000E+02  0.51100000000E-03 0. -1.
    9900012    2    1    2    0    0  0.82471000553E+00  0.34674848463E+00  0.76984358653E+00  0.90007728738E+02  0.89999989957E+02 0.  0.
        -12    1    1    2    0    0 -0.82471000553E+00 -0.34674848463E+00 -0.76984358653E+00  0.11802712623E+01  0.00000000000E+00 0.  1.
         11    1    3    3    0    0 -0.62253414996E+01 -0.76895693833E+01  0.27209247339E+00  0.98973930236E+01  0.51100000000E-03 0. -1.
        -11    1    3    3    0    0  0.43369321819E+00 -0.30627105550E+02  0.19718960636E+02  0.36428630128E+02  0.51100000000E-03 0.  1.
         12    1    3    3    0    0  0.66163582869E+01  0.38663423418E+02 -0.19221209523E+02  0.43681705586E+02  0.00000000000E+00 0. -1.
</event>
<event>
 7    1  0.2232484E-015  0.9000774E+02  0.7816164E-02  0.1186339E+00
        -11   -1    0    0    0    0  0.00000000000E+00  0.00000000000E+00  0.45593999997E+02  0.45594000000E+02  0.51100000000E-03 0. -1.
         11   -1    0    0    0    0 -0.00000000000E+00 -0.00000000000E+00 -0.45593999997E+02  0.45594000000E+02  0.51100000000E-03 0.  1.
    9900012    2    1    2    0    0  0.10387663342E+01  0.28481645194E+00  0.48254471337E+00  0.90007743541E+02  0.90000004956E+02 0.  0.
        -12    1    1    2    0    0 -0.10387663342E+01 -0.28481645194E+00 -0.48254471337E+00  0.11802564589E+01  0.00000000000E+00 0.  1.
         11    1    3    3    0    0  0.19645331880E+01  0.40038986846E+02 -0.49838477044E+01  0.40395774488E+02  0.51100000000E-03 0. -1.
        -11    1    3    3    0    0 -0.88710687233E+01 -0.65939783568E+00  0.38283959987E+01  0.96843834075E+01  0.51100000000E-03 0.  1.
        -12    1    3    3    0    0  0.79453018695E+01 -0.39094772558E+02  0.16379964191E+01  0.39927585645E+02  0.00000000000E+00 0.  1.
</event>
<event>
 7    1  0.2232484E-015  0.9000781E+02  0.7816164E-02  0.1186339E+00
        -11   -1    0    0    0    0  0.00000000000E+00  0.00000000000E+00  0.45593999997E+02  0.45594000000E+02  0.51100000000E-03 0.  1.
         11   -1    0    0    0    0 -0.00000000000E+00 -0.00000000000E+00 -0.45593999997E+02  0.45594000000E+02  0.51100000000E-03 0. -1.
    9900012    2    1    2    0    0 -0.10078602185E+01 -0.27868216761E+00 -0.54718543997E+00  0.90007806001E+02  0.90000068240E+02 0.  0.
        -12    1    1    2    0    0  0.10078602185E+01  0.27868216761E+00  0.54718543997E+00  0.11801939995E+01  0.00000000000E+00 0.  1.
         11    1    3    3    0    0  0.88278021763E+01 -0.17200587628E+01 -0.35474047380E+01  0.96681318799E+01  0.51100000000E-03 0. -1.
        -11    1    3    3    0    0  0.13102356027E+02 -0.33081014705E+02 -0.98956932166E+01  0.36931693866E+02  0.51100000000E-03 0.  1.
         12    1    3    3    0    0 -0.22938018422E+02  0.34522391300E+02  0.12895912515E+02  0.43407980254E+02  0.00000000000E+00 0. -1.
</event>
<event>
 7    1  0.2232484E-015  0.9000770E+02  0.7816164E-02  0.1186339E+00
        -11   -1    0    0    0    0  0.00000000000E+00  0.00000000000E+00  0.45593999997E+02  0.45594000000E+02  0.51100000000E-03 0.  1.
         11   -1    0    0    0    0 -0.00000000000E+00 -0.00000000000E+00 -0.45593999997E+02  0.45594000000E+02  0.51100000000E-03 0. -1.
    9900012    2    1    2    0    0  0.94519994424E+00 -0.51431490769E+00  0.48497056534E+00  0.90007695290E+02  0.89999956068E+02 0.  0.
        -12    1    1    2    0    0 -0.94519994424E+00  0.51431490769E+00 -0.48497056534E+00  0.11803047099E+01  0.00000000000E+00 0.  1.
         11    1    3    3    0    0  0.37696867246E+00 -0.34333470099E+01 -0.34705958163E+02  0.34877406861E+02  0.51100000000E-03 0. -1.
        -11    1    3    3    0    0 -0.11899127529E+02  0.37206239891E+01 -0.47038702776E+01  0.13325114434E+02  0.51100000000E-03 0.  1.
        -12    1    3    3    0    0  0.12467358801E+02 -0.80159188690E+00  0.39894799006E+02  0.41805173995E+02  0.00000000000E+00 0.  1.
</event>
<event>
 7    1  0.2232484E-015  0.9000773E+02  0.7816164E-02  0.1186339E+00
        -11   -1    0    0    0    0  0.00000000000E+00  0.00000000000E+00  0.45593999997E+02  0.45594000000E+02  0.51100000000E-03 0.  1.
         11   -1    0    0    0    0 -0.00000000000E+00 -0.00000000000E+00 -0.45593999997E+02  0.45594000000E+02  0.51100000000E-03 0. -1.
    9900012    2    1    2    0    0 -0.47076097306E+00  0.10765477078E+01  0.11166184437E+00  0.90007729172E+02  0.89999990397E+02 0.  0.
        -12    1    1    2    0    0  0.47076097306E+00 -0.10765477078E+01 -0.11166184437E+00  0.11802708284E+01  0.00000000000E+00 0.  1.
         11    1    3    3    0    0  0.23022076347E+02 -0.26131890888E+02  0.17301456321E+02  0.38887428712E+02  0.51100000000E-03 0. -1.
        -11    1    3    3    0    0 -0.48480416301E+01 -0.73725161506E+01 -0.38902652306E+01  0.96432186464E+01  0.51100000000E-03 0.  1.
        -12    1    3    3    0    0 -0.18644795690E+02  0.34580954747E+02 -0.13299529247E+02  0.41477081813E+02  0.00000000000E+00 0.  1.
</event>
<event>
 7    1  0.2232484E-015  0.9000778E+02  0.7816164E-02  0.1186339E+00
        -11   -1    0    0    0    0  0.00000000000E+00  0.00000000000E+00  0.45593999997E+02  0.45594000000E+02  0.51100000000E-03 0. -1.
         11   -1    0    0    0    0 -0.00000000000E+00 -0.00000000000E+00 -0.45593999997E+02  0.45594000000E+02  0.51100000000E-03 0.  1.
    9900012    2    1    2    0    0  0.56435974929E+00 -0.24446166102E+00  0.10073048932E+01  0.90007776895E+02  0.90000038750E+02 0.  0.
        -12    1    1    2    0    0 -0.56435974929E+00  0.24446166102E+00 -0.10073048932E+01  0.11802231052E+01  0.00000000000E+00 0.  1.
         11    1    3    3    0    0 -0.82438466099E+00 -0.43074432141E+01 -0.75287210275E+01  0.87129396694E+01  0.51100000000E-03 0.  1.
        -11    1    3    3    0    0  0.15855029483E+02 -0.33899388477E+02 -0.64846886143E+01  0.37981596672E+02  0.51100000000E-03 0. -1.
         12    1    3    3    0    0 -0.14466285072E+02  0.37962370030E+02  0.15020714535E+02  0.43313240554E+02  0.00000000000E+00 0. -1.
</event>
<event>
 7    1  0.2232484E-015  0.9000778E+02  0.7816164E-02  0.1186339E+00
        -11   -1    0    0    0    0  0.00000000000E+00  0.00000000000E+00  0.45593999997E+02  0.45594000000E+02  0.51100000000E-03 0.  1.
         11   -1    0    0    0    0 -0.00000000000E+00 -0.00000000000E+00 -0.45593999997E+02  0.45594000000E+02  0.51100000000E-03 0. -1.
    9900012    2    1    2    0    0 -0.64920911434E+00 -0.94997333556E+00  0.26266394496E+00  0.90007782156E+02  0.90000044080E+02 0.  0.
        -12    1    1    2    0    0  0.64920911434E+00  0.94997333556E+00 -0.26266394496E+00  0.11802178445E+01  0.00000000000E+00 0.  1.
         11    1    3    3    0    0 -0.86232253246E+01 -0.63994858297E+01 -0.15036445826E+00  0.10739461980E+02  0.51100000000E-03 0. -1.
        -11    1    3    3    0    0 -0.13707722583E+02  0.37549453642E+02 -0.44826376425E+01  0.40223838302E+02  0.51100000000E-03 0.  1.
         12    1    3    3    0    0  0.21681738793E+02 -0.32099941148E+02  0.48956660458E+01  0.39044481874E+02  0.00000000000E+00 0. -1.
</event>
<event>
 7    1  0.2232484E-015  0.9000756E+02  0.7816164E-02  0.1186339E+00
        -11   -1    0    0    0    0  0.00000000000E+00  0.00000000000E+00  0.45593999997E+02  0.45594000000E+02  0.51100000000E-03 0.  1.
         11   -1    0    0    0    0 -0.00000000000E+00 -0.00000000000E+00 -0.45593999997E+02  0.45594000000E+02  0.51100000000E-03 0. -1.
    9900012    2    1    2    0    0  0.86251453689E+00 -0.58640667602E+00 -0.55283822003E+00  0.90007561855E+02  0.89999820872E+02 0.  0.
        -12    1    1    2    0    0 -0.86251453689E+00  0.58640667602E+00  0.55283822003E+00  0.11804381447E+01  0.00000000000E+00 0.  1.
         11    1    3    3    0    0  0.28517707412E+02 -0.80282608477E+01 -0.30069198943E+02  0.42212194134E+02  0.51100000000E-03 0. -1.
        -11    1    3    3    0    0 -0.13117898963E+01 -0.72914295656E+01  0.57407940707E+01  0.93724305634E+01  0.51100000000E-03 0.  1.
        -12    1    3    3    0    0 -0.26343402979E+02  0.14733283737E+02  0.23775566652E+02  0.38422937158E+02  0.00000000000E+00 0.  1.
</event>
<event>
 7    1  0.2232484E-015  0.9000780E+02  0.7816164E-02  0.1186339E+00
        -11   -1    0    0    0    0  0.00000000000E+00  0.00000000000E+00  0.45593999997E+02  0.45594000000E+02  0.51100000000E-03 0.  1.
         11   -1    0    0    0    0 -0.00000000000E+00 -0.00000000000E+00 -0.45593999997E+02  0.45594000000E+02  0.51100000000E-03 0. -1.
    9900012    2    1    2    0    0 -0.84457471952E+00  0.63639226040E+00 -0.52399396881E+00  0.90007800337E+02  0.90000062501E+02 0.  0.
        -12    1    1    2    0    0  0.84457471952E+00 -0.63639226040E+00  0.52399396881E+00  0.11801996633E+01  0.00000000000E+00 0.  1.
         11    1    3    3    0    0 -0.13810152395E+02  0.89859950805E+01 -0.37162142157E+02  0.40650869938E+02  0.51100000000E-03 0. -1.
        -11    1    3    3    0    0  0.10303537085E+01  0.92473109616E+01  0.34132606878E+01  0.99108393978E+01  0.51100000000E-03 0.  1.
        -12    1    3    3    0    0  0.11935223967E+02 -0.17596913782E+02  0.33224887501E+02  0.39446091000E+02  0.00000000000E+00 0.  1.
</event>
<event>
 7    1  0.2232484E-015  0.9000744E+02  0.7816164E-02  0.1186340E+00
        -11   -1    0    0    0    0  0.00000000000E+00  0.00000000000E+00  0.45593999997E+02  0.45594000000E+02  0.51100000000E-03 0. -1.
         11   -1    0    0    0    0 -0.00000000000E+00 -0.00000000000E+00 -0.45593999997E+02  0.45594000000E+02  0.51100000000E-03 0.  1.
    9900012    2    1    2    0    0 -0.57317610755E+00 -0.10200127416E+01 -0.15739793943E+00  0.90007436171E+02  0.89999693528E+02 0.  0.
        -12    1    1    2    0    0  0.57317610755E+00  0.10200127416E+01  0.15739793943E+00  0.11805638292E+01  0.00000000000E+00 0.  1.
         11    1    3    3    0    0  0.31398034676E+02 -0.23263922586E+02  0.29692973886E+01  0.39190093172E+02  0.51100000000E-03 0. -1.
        -11    1    3    3    0    0  0.40636188651E+01 -0.30118122407E+01 -0.45311689903E+01  0.67908397075E+01  0.51100000000E-03 0.  1.
        -12    1    3    3    0    0 -0.36034829648E+02  0.25255722085E+02  0.14044736622E+01  0.44026503291E+02  0.00000000000E+00 0.  1.
</event>
<event>
 7    1  0.2232484E-015  0.9000770E+02  0.7816164E-02  0.1186339E+00
        -11   -1    0    0    0    0  0.00000000000E+00  0.00000000000E+00  0.45593999997E+02  0.45594000000E+02  0.51100000000E-03 0.  1.
         11   -1    0    0    0    0 -0.00000000000E+00 -0.00000000000E+00 -0.45593999997E+02  0.45594000000E+02  0.51100000000E-03 0. -1.
    9900012    2    1    2    0    0 -0.67665180965E-01  0.56842592923E+00 -0.10321918471E+01  0.90007700621E+02  0.89999961470E+02 0.  0.
        -12    1    1    2    0    0  0.67665180965E-01 -0.56842592923E+00  0.10321918471E+01  0.11802993785E+01  0.00000000000E+00 0.  1.
         11    1    3    3    0    0 -0.92479480194E+01  0.32470657974E+01 -0.54617153123E+01  0.11220441759E+02  0.51100000000E-03 0. -1.
        -11    1    3    3    0    0 -0.29957618698E+02  0.17428516140E+02  0.23103712085E+01  0.34735427280E+02  0.51100000000E-03 0.  1.
         12    1    3    3    0    0  0.39137901537E+02 -0.20107156009E+02  0.21191522567E+01  0.44051831582E+02  0.00000000000E+00 0. -1.
</event>
<event>
 7    1  0.2232484E-015  0.9000776E+02  0.7816164E-02  0.1186339E+00
        -11   -1    0    0    0    0  0.00000000000E+00  0.00000000000E+00  0.45593999997E+02  0.45594000000E+02  0.51100000000E-03 0. -1.
         11   -1    0    0    0    0 -0.00000000000E+00 -0.00000000000E+00 -0.45593999997E+02  0.45594000000E+02  0.51100000000E-03 0.  1.
    9900012    2    1    2    0    0 -0.84631323105E+00  0.12874099769E+00 -0.81248670811E+00  0.90007764862E+02  0.90000026558E+02 0.  0.
        -12    1    1    2    0    0  0.84631323105E+00 -0.12874099769E+00  0.81248670811E+00  0.11802351378E+01  0.00000000000E+00 0.  1.
         11    1    3    3    0    0 -0.88099617172E+01 -0.10891626428E+01  0.20183975059E+01  0.91036053009E+01  0.51100000000E-03 0. -1.
        -11    1    3    3    0    0 -0.34654323235E+01  0.29779712758E+02 -0.28101693317E+02  0.41091917462E+02  0.51100000000E-03 0.  1.
         12    1    3    3    0    0  0.11429080810E+02 -0.28561809118E+02  0.25270809103E+02  0.39812242099E+02  0.00000000000E+00 0. -1.
</event>
<event>
 7    1  0.2232484E-015  0.9000776E+02  0.7816164E-02  0.1186339E+00
        -11   -1    0    0    0    0  0.00000000000E+00  0.00000000000E+00  0.45593999997E+02  0.45594000000E+02  0.51100000000E-03 0.  1.
         11   -1    0    0    0    0 -0.00000000000E+00 -0.00000000000E+00 -0.45593999997E+02  0.45594000000E+02  0.51100000000E-03 0. -1.
    9900012    2    1    2    0    0  0.63247505816E+00 -0.94911197835E+00 -0.30352828868E+00  0.90007759487E+02  0.90000021112E+02 0.  0.
        -12    1    1    2    0    0 -0.63247505816E+00  0.94911197835E+00  0.30352828868E+00  0.11802405131E+01  0.00000000000E+00 0.  1.
         11    1    3    3    0    0  0.35685067285E+01 -0.59642903305E+01  0.17240933071E+01  0.71609704238E+01  0.51100000000E-03 0. -1.
        -11    1    3    3    0    0 -0.37693260498E+02 -0.14506587914E+02 -0.11257380220E+02  0.41927933285E+02  0.51100000000E-03 0.  1.
         12    1    3    3    0    0  0.34757228828E+02  0.19521766267E+02  0.92297586238E+01  0.40918855778E+02  0.00000000000E+00 0. -1.
</event>
<event>
 7    1  0.2232484E-015  0.9000774E+02  0.7816164E-02  0.1186339E+00
        -11   -1    0    0    0    0  0.00000000000E+00  0.00000000000E+00  0.45593999997E+02  0.45594000000E+02  0.51100000000E-03 0. -1.
         11   -1    0    0    0    0 -0.00000000000E+00 -0.00000000000E+00 -0.45593999997E+02  0.45594000000E+02  0.51100000000E-03 0.  1.
    9900012    2    1    2    0    0 -0.84145397565E+00 -0.63030478763E+00  0.53635894366E+00  0.90007741624E+02  0.90000003013E+02 0.  0.
        -12    1    1    2    0    0  0.84145397565E+00  0.63030478763E+00 -0.53635894366E+00  0.11802583763E+01  0.00000000000E+00 0.  1.
         11    1    3    3    0    0 -0.13480706970E+02  0.67426114843E+01 -0.30326796732E+01  0.15374960693E+02  0.51100000000E-03 0. -1.
        -11    1    3    3    0    0 -0.23151027134E+02  0.25517052402E+01 -0.19953601150E+02  0.30669650407E+02  0.51100000000E-03 0.  1.
         12    1    3    3    0    0  0.35790280128E+02 -0.99246215122E+01  0.23522639767E+02  0.43963130524E+02  0.00000000000E+00 0. -1.
</event>
<event>
 7    1  0.2232484E-015  0.9000771E+02  0.7816164E-02  0.1186339E+00
        -11   -1    0    0    0    0  0.00000000000E+00  0.00000000000E+00  0.45593999997E+02  0.45594000000E+02  0.51100000000E-03 0.  1.
         11   -1    0    0    0    0 -0.00000000000E+00 -0.00000000000E+00 -0.45593999997E+02  0.45594000000E+02  0.51100000000E-03 0. -1.
    9900012    2    1    2    0    0 -0.72149415645E+00  0.92137539536E+00 -0.15364822154E+00  0.90007705879E+02  0.89999966796E+02 0.  0.
        -12    1    1    2    0    0  0.72149415645E+00 -0.92137539536E+00  0.15364822154E+00  0.11802941214E+01  0.00000000000E+00 0.  1.
         11    1    3    3    0    0 -0.62172190913E+00 -0.46419134729E+01  0.58287141581E+01  0.74771523871E+01  0.51100000000E-03 0. -1.
        -11    1    3    3    0    0 -0.25814724617E+01  0.99953767369E+00  0.38071223170E+02  0.38171731813E+02  0.51100000000E-03 0.  1.
         12    1    3    3    0    0  0.24817002144E+01  0.45637511946E+01 -0.44053585550E+02  0.44358821679E+02  0.00000000000E+00 0. -1.
</event>
<event>
 7    1  0.2232484E-015  0.9000783E+02  0.7816164E-02  0.1186339E+00
        -11   -1    0    0    0    0  0.00000000000E+00  0.00000000000E+00  0.45593999997E+02  0.45594000000E+02  0.51100000000E-03 0.  1.
         11   -1    0    0    0    0 -0.00000000000E+00 -0.00000000000E+00 -0.45593999997E+02  0.45594000000E+02  0.51100000000E-03 0. -1.
    9900012    2    1    2    0    0  0.87140315271E+00 -0.46828020795E+00  0.64356858377E+00  0.90007826144E+02  0.90000088649E+02 0.  0.
        -12    1    1    2    0    0 -0.87140315271E+00  0.46828020795E+00 -0.64356858377E+00  0.11801738557E+01  0.00000000000E+00 0.  1.
         11    1    3    3    0    0  0.86328761890E+01  0.20496808249E+01  0.13884948391E+01  0.89808496791E+01  0.51100000000E-03 0. -1.
        -11    1    3    3    0    0  0.27357291708E+02 -0.10191966753E+02  0.23660096894E+02  0.37577889526E+02  0.51100000000E-03 0.  1.
         12    1    3    3    0    0 -0.35118764745E+02  0.76740057197E+01 -0.24405023149E+02  0.43449086940E+02  0.00000000000E+00 0. -1.
</event>
<event>
 7    1  0.2232484E-015  0.9000765E+02  0.7816164E-02  0.1186339E+00
        -11   -1    0    0    0    0  0.00000000000E+00  0.00000000000E+00  0.45593999997E+02  0.45594000000E+02  0.51100000000E-03 0. -1.
         11   -1    0    0    0    0 -0.00000000000E+00 -0.00000000000E+00 -0.45593999997E+02  0.45594000000E+02  0.51100000000E-03 0.  1.
    9900012    2    1    2    0    0  0.80673109415E+00 -0.40924326436E+00  0.75824302554E+00  0.90007649377E+02  0.89999909549E+02 0.  0.
        -12    1    1    2    0    0 -0.80673109415E+00  0.40924326436E+00 -0.75824302554E+00  0.11803506231E+01  0.00000000000E+00 0.  1.
         11    1    3    3    0    0  0.13946409720E+02 -0.99492519117E+01  0.36697534212E+02  0.40499370059E+02  0.51100000000E-03 0. -1.
        -11    1    3    3    0    0  0.68023087971E+01 -0.85436588137E+00  0.29561924098E+00  0.68621233614E+01  0.51100000000E-03 0.  1.
        -12    1    3    3    0    0 -0.19941987423E+02  0.10394374529E+02 -0.36234910427E+02  0.42646155957E+02  0.00000000000E+00 0.  1.
</event>
<event>
 7    1  0.2232484E-015  0.9000802E+02  0.7816164E-02  0.1186338E+00
        -11   -1    0    0    0    0  0.00000000000E+00  0.00000000000E+00  0.45593999997E+02  0.45594000000E+02  0.51100000000E-03 0.  1.
         11   -1    0    0    0    0 -0.00000000000E+00 -0.00000000000E+00 -0.45593999997E+02  0.45594000000E+02  0.51100000000E-03 0. -1.
    9900012    2    1    2    0    0  0.19383770084E+00 -0.11068479193E+01 -0.36010256785E+00  0.90008017276E+02  0.90000282303E+02 0.  0.
        -12    1    1    2    0    0 -0.19383770084E+00  0.11068479193E+01  0.36010256785E+00  0.11799827245E+01  0.00000000000E+00 0.  1.
         11    1    3    3    0    0  0.23246435918E+02  0.35074597674E+02 -0.22114960529E+01  0.42136859160E+02  0.51100000000E-03 0. -1.
        -11    1    3    3    0    0  0.37856347724E+01 -0.63407111897E+01  0.22989299471E+01  0.77343860897E+01  0.51100000000E-03 0.  1.
        -12    1    3    3    0    0 -0.26838232990E+02 -0.29840734403E+02 -0.44753646207E+00  0.40136772025E+02  0.00000000000E+00 0.  1.
</event>
<event>
 7    1  0.2232484E-015  0.9000775E+02  0.7816164E-02  0.1186339E+00
        -11   -1    0    0    0    0  0.00000000000E+00  0.00000000000E+00  0.45593999997E+02  0.45594000000E+02  0.51100000000E-03 0.  1.
         11   -1    0    0    0    0 -0.00000000000E+00 -0.00000000000E+00 -0.45593999997E+02  0.45594000000E+02  0.51100000000E-03 0. -1.
    9900012    2    1    2    0    0 -0.14788378457E+00  0.10868698046E+00 -0.11658897548E+01  0.90007753672E+02  0.90000015221E+02 0.  0.
        -12    1    1    2    0    0  0.14788378457E+00 -0.10868698046E+00  0.11658897548E+01  0.11802463276E+01  0.00000000000E+00 0.  1.
         11    1    3    3    0    0  0.61880367820E+01 -0.25359382362E+00  0.65193151817E+01  0.89920842825E+01  0.51100000000E-03 0. -1.
        -11    1    3    3    0    0 -0.24004828686E+02  0.32681145414E+02  0.73880851930E+01  0.41217385518E+02  0.51100000000E-03 0.  1.
         12    1    3    3    0    0  0.17668908120E+02 -0.32318864610E+02 -0.15073290130E+02  0.39798283872E+02  0.00000000000E+00 0. -1.
</event>
<event>
 7    1  0.2232484E-015  0.9000792E+02  0.7816164E-02  0.1186339E+00
        -11   -1    0    0    0    0  0.00000000000E+00  0.00000000000E+00  0.45593999997E+02  0.45594000000E+02  0.51100000000E-03 0.  1.
         11   -1    0    0    0    0 -0.00000000000E+00 -0.00000000000E+00 -0.45593999997E+02  0.45594000000E+02  0.51100000000E-03 0. -1.
    9900012    2    1    2    0    0 -0.16124964853E+00  0.93509713412E+00 -0.70155271002E+00  0.90007921908E+02  0.90000185677E+02 0.  0.
        -12    1    1    2    0    0  0.16124964853E+00 -0.93509713412E+00  0.70155271002E+00  0.11800780925E+01  0.00000000000E+00 0.  1.
         11    1    3    3    0    0 -0.19802785917E+02 -0.14320994808E+02 -0.30062640645E+02  0.38742787525E+02  0.51100000000E-03 0. -1.
        -11    1    3    3    0    0 -0.58644530751E+01 -0.58994576581E+01  0.27377787643E+01  0.87573308349E+01  0.51100000000E-03 0.  1.
        -12    1    3    3    0    0  0.25505989344E+02  0.21155549600E+02  0.26623309170E+02  0.42507803548E+02  0.00000000000E+00 0.  1.
</event>
<event>
 7    1  0.2232484E-015  0.9000771E+02  0.7816164E-02  0.1186339E+00
        -11   -1    0    0    0    0  0.00000000000E+00  0.00000000000E+00  0.45593999997E+02  0.45594000000E+02  0.51100000000E-03 0. -1.
         11   -1    0    0    0    0 -0.00000000000E+00 -0.00000000000E+00 -0.45593999997E+02  0.45594000000E+02  0.51100000000E-03 0.  1.
    9900012    2    1    2    0    0  0.10438755192E+01  0.76340147396E-01 -0.54549992246E+00  0.90007714406E+02  0.89999975436E+02 0.  0.
        -12    1    1    2    0    0 -0.10438755192E+01 -0.76340147396E-01  0.54549992246E+00  0.11802855939E+01  0.00000000000E+00 0.  1.
         11    1    3    3    0    0 -0.11621156330E+02 -0.71098125781E+00  0.77460831489E+01  0.13984225871E+02  0.51100000000E-03 0. -1.
        -11    1    3    3    0    0  0.47075959417E+01 -0.13950684220E+01 -0.41508088639E+02  0.41797477174E+02  0.51100000000E-03 0.  1.
         12    1    3    3    0    0  0.79574359075E+01  0.21823898272E+01  0.33216505567E+02  0.34226011361E+02  0.00000000000E+00 0. -1.
</event>
<event>
 7    1  0.2232484E-015  0.9000806E+02  0.7816164E-02  0.1186338E+00
        -11   -1    0    0    0    0  0.00000000000E+00  0.00000000000E+00  0.45593999997E+02  0.45594000000E+02  0.51100000000E-03 0.  1.
         11   -1    0    0    0    0 -0.00000000000E+00 -0.00000000000E+00 -0.45593999997E+02  0.45594000000E+02  0.51100000000E-03 0. -1.
    9900012    2    1    2    0    0 -0.10552429846E+01 -0.23446300017E+00 -0.47301429446E+00  0.90008062214E+02  0.90000327835E+02 0.  0.
        -12    1    1    2    0    0  0.10552429846E+01  0.23446300017E+00  0.47301429446E+00  0.11799377856E+01  0.00000000000E+00 0.  1.
         11    1    3    3    0    0  0.18818021665E+02 -0.35983164824E+00 -0.31299298881E+02  0.36522507156E+02  0.51100000000E-03 0. -1.
        -11    1    3    3    0    0  0.88095666393E+01  0.20793270795E+01 -0.25795921455E+01  0.94120327972E+01  0.51100000000E-03 0.  1.
        -12    1    3    3    0    0 -0.28682831289E+02 -0.19539584314E+01  0.33405876732E+02  0.44073522262E+02  0.00000000000E+00 0.  1.
</event>
<event>
 7    1  0.2232484E-015  0.9000775E+02  0.7816164E-02  0.1186339E+00
        -11   -1    0    0    0    0  0.00000000000E+00  0.00000000000E+00  0.45593999997E+02  0.45594000000E+02  0.51100000000E-03 0.  1.
         11   -1    0    0    0    0 -0.00000000000E+00 -0.00000000000E+00 -0.45593999997E+02  0.45594000000E+02  0.51100000000E-03 0. -1.
    9900012    2    1    2    0    0  0.45327117685E-01  0.77270287523E+00 -0.89098763452E+00  0.90007752888E+02  0.90000014426E+02 0.  0.
        -12    1    1    2    0    0 -0.45327117685E-01 -0.77270287523E+00  0.89098763452E+00  0.11802471122E+01  0.00000000000E+00 0.  1.
         11    1    3    3    0    0 -0.99783681322E+01  0.23212889166E+02 -0.32623842228E+02  0.41264041683E+02  0.51100000000E-03 0. -1.
        -11    1    3    3    0    0  0.88030895338E+01  0.38108309442E+01  0.35991658339E+01  0.10245526477E+02  0.51100000000E-03 0.  1.
        -12    1    3    3    0    0  0.12206057162E+01 -0.26251017235E+02  0.28133688759E+02  0.38498184729E+02  0.00000000000E+00 0.  1.
</event>
<event>
 7    1  0.2232484E-015  0.9000766E+02  0.7816164E-02  0.1186339E+00
        -11   -1    0    0    0    0  0.00000000000E+00  0.00000000000E+00  0.45593999997E+02  0.45594000000E+02  0.51100000000E-03 0.  1.
         11   -1    0    0    0    0 -0.00000000000E+00 -0.00000000000E+00 -0.45593999997E+02  0.45594000000E+02  0.51100000000E-03 0. -1.
    9900012    2    1    2    0    0  0.16631317605E+00 -0.10723753073E+01 -0.46427248174E+00  0.90007661994E+02  0.89999922332E+02 0.  0.
        -12    1    1    2    0    0 -0.16631317605E+00  0.10723753073E+01  0.46427248174E+00  0.11803380064E+01  0.00000000000E+00 0.  1.
         11    1    3    3    0    0  0.25531675559E+02  0.14102023132E+02 -0.17839683798E+02  0.34190464043E+02  0.51100000000E-03 0. -1.
        -11    1    3    3    0    0  0.11207626427E+02  0.22051877171E+01 -0.76284131036E+00  0.11447954845E+02  0.51100000000E-03 0.  1.
        -12    1    3    3    0    0 -0.36572988810E+02 -0.17379586156E+02  0.18138252626E+02  0.44369243106E+02  0.00000000000E+00 0.  1.
</event>
<event>
 7    1  0.2232484E-015  0.9000769E+02  0.7816164E-02  0.1186339E+00
        -11   -1    0    0    0    0  0.00000000000E+00  0.00000000000E+00  0.45593999997E+02  0.45594000000E+02  0.51100000000E-03 0.  1.
         11   -1    0    0    0    0 -0.00000000000E+00 -0.00000000000E+00 -0.45593999997E+02  0.45594000000E+02  0.51100000000E-03 0. -1.
    9900012    2    1    2    0    0 -0.26366500129E-02  0.11571045908E+01 -0.23286294360E+00  0.90007693626E+02  0.89999954382E+02 0.  0.
        -12    1    1    2    0    0  0.26366500129E-02 -0.11571045908E+01  0.23286294360E+00  0.11803063740E+01  0.00000000000E+00 0.  1.
         11    1    3    3    0    0  0.28982507553E+02 -0.82918480798E+01 -0.14011433739E+02  0.33242454246E+02  0.51100000000E-03 0. -1.
        -11    1    3    3    0    0  0.19289145824E+01 -0.85108105889E+01 -0.10421413904E+02  0.13592662593E+02  0.51100000000E-03 0.  1.
        -12    1    3    3    0    0 -0.30914058786E+02  0.17959763259E+02  0.24199984699E+02  0.43172576787E+02  0.00000000000E+00 0.  1.
</event>
<event>
 7    1  0.2232484E-015  0.9000775E+02  0.7816164E-02  0.1186339E+00
        -11   -1    0    0    0    0  0.00000000000E+00  0.00000000000E+00  0.45593999997E+02  0.45594000000E+02  0.51100000000E-03 0.  1.
         11   -1    0    0    0    0 -0.00000000000E+00 -0.00000000000E+00 -0.45593999997E+02  0.45594000000E+02  0.51100000000E-03 0. -1.
    9900012    2    1    2    0    0 -0.66282759440E+00  0.84860582057E+00  0.48324793460E+00  0.90007745441E+02  0.90000006880E+02 0.  0.
        -12    1    1    2    0    0  0.66282759440E+00 -0.84860582057E+00 -0.48324793460E+00  0.11802545594E+01  0.00000000000E+00 0.  1.
         11    1    3    3    0    0  0.20517380082E+02 -0.28120676471E+02  0.73954502349E+01  0.35586907916E+02  0.51100000000E-03 0. -1.
        -11    1    3    3    0    0  0.24230210370E+01 -0.88358403109E+01 -0.31728224638E+01  0.96958706465E+01  0.51100000000E-03 0.  1.
        -12    1    3    3    0    0 -0.23603228714E+02  0.37805122602E+02 -0.37393798365E+01  0.44724966878E+02  0.00000000000E+00 0.  1.
</event>
<event>
 7    1  0.2232484E-015  0.9000770E+02  0.7816164E-02  0.1186339E+00
        -11   -1    0    0    0    0  0.00000000000E+00  0.00000000000E+00  0.45593999997E+02  0.45594000000E+02  0.51100000000E-03 0.  1.
         11   -1    0    0    0    0 -0.00000000000E+00 -0.00000000000E+00 -0.45593999997E+02  0.45594000000E+02  0.51100000000E-03 0. -1.
    9900012    2    1    2    0    0 -0.94861614269E+00 -0.61928817520E+00 -0.33123235669E+00  0.90007701180E+02  0.89999962036E+02 0.  0.
        -12    1    1    2    0    0  0.94861614269E+00  0.61928817520E+00  0.33123235669E+00  0.11802988199E+01  0.00000000000E+00 0.  1.
         11    1    3    3    0    0 -0.14161463887E+01 -0.35778915378E+01  0.79279812890E+01  0.88124721861E+01  0.51100000000E-03 0. -1.
        -11    1    3    3    0    0 -0.92067913198E+01  0.12534286002E+02  0.33682661137E+02  0.37099797756E+02  0.51100000000E-03 0.  1.
         12    1    3    3    0    0  0.96743215658E+01 -0.95756826393E+01 -0.41941874783E+02  0.44095431238E+02  0.00000000000E+00 0. -1.
</event>
<event>
 7    1  0.2232484E-015  0.9000763E+02  0.7816164E-02  0.1186339E+00
        -11   -1    0    0    0    0  0.00000000000E+00  0.00000000000E+00  0.45593999997E+02  0.45594000000E+02  0.51100000000E-03 0.  1.
         11   -1    0    0    0    0 -0.00000000000E+00 -0.00000000000E+00 -0.45593999997E+02  0.45594000000E+02  0.51100000000E-03 0. -1.
    9900012    2    1    2    0    0  0.99160462351E+00  0.30406676308E+00 -0.56350718579E+00  0.90007628586E+02  0.89999888484E+02 0.  0.
        -12    1    1    2    0    0 -0.99160462351E+00 -0.30406676308E+00  0.56350718579E+00  0.11803714137E+01  0.00000000000E+00 0.  1.
         11    1    3    3    0    0 -0.20450062495E+01  0.79894278703E+01 -0.51910213013E+01  0.97447273264E+01  0.51100000000E-03 0. -1.
        -11    1    3    3    0    0 -0.34756607154E+02  0.13559570642E+01  0.18002789996E+02  0.39165811728E+02  0.51100000000E-03 0.  1.
         12    1    3    3    0    0  0.37793218027E+02 -0.90413181713E+01 -0.13375275880E+02  0.41097089532E+02  0.00000000000E+00 0. -1.
</event>
<event>
 7    1  0.2232484E-015  0.9000770E+02  0.7816164E-02  0.1186339E+00
        -11   -1    0    0    0    0  0.00000000000E+00  0.00000000000E+00  0.45593999997E+02  0.45594000000E+02  0.51100000000E-03 0.  1.
         11   -1    0    0    0    0 -0.00000000000E+00 -0.00000000000E+00 -0.45593999997E+02  0.45594000000E+02  0.51100000000E-03 0. -1.
    9900012    2    1    2    0    0  0.62765381809E+00 -0.65853310737E+00 -0.75198966626E+00  0.90007701891E+02  0.89999962756E+02 0.  0.
        -12    1    1    2    0    0 -0.62765381809E+00  0.65853310737E+00  0.75198966626E+00  0.11802981094E+01  0.00000000000E+00 0.  1.
         11    1    3    3    0    0 -0.28362677617E+02  0.15530261986E+02 -0.12185427843E+02  0.34555971567E+02  0.51100000000E-03 0. -1.
        -11    1    3    3    0    0 -0.71222757973E+01  0.45365161409E+01 -0.59514522824E+01  0.10330855519E+02  0.51100000000E-03 0.  1.
        -12    1    3    3    0    0  0.36112607232E+02 -0.20725311235E+02  0.17384890459E+02  0.45120874805E+02  0.00000000000E+00 0.  1.
</event>
<event>
 7    1  0.2232484E-015  0.9000775E+02  0.7816164E-02  0.1186339E+00
        -11   -1    0    0    0    0  0.00000000000E+00  0.00000000000E+00  0.45593999997E+02  0.45594000000E+02  0.51100000000E-03 0. -1.
         11   -1    0    0    0    0 -0.00000000000E+00 -0.00000000000E+00 -0.45593999997E+02  0.45594000000E+02  0.51100000000E-03 0.  1.
    9900012    2    1    2    0    0 -0.10057250339E+01 -0.51179795573E+00 -0.34577243678E+00  0.90007754869E+02  0.90000016433E+02 0.  0.
        -12    1    1    2    0    0  0.10057250339E+01  0.51179795573E+00  0.34577243678E+00  0.11802451310E+01  0.00000000000E+00 0.  1.
         11    1    3    3    0    0 -0.11139760376E+00 -0.23589181603E+02  0.27598970267E+02  0.36306542912E+02  0.51100000000E-03 0. -1.
        -11    1    3    3    0    0  0.53064055769E+01 -0.52679492485E+01  0.56049934583E+01  0.93447943456E+01  0.51100000000E-03 0.  1.
        -12    1    3    3    0    0 -0.62007330070E+01  0.28345332896E+02 -0.33549736162E+02  0.44356417612E+02  0.00000000000E+00 0.  1.
</event>
<event>
 7    1  0.2329762E-015  0.9000770E+02  0.7816164E-02  0.1186339E+00
        -11   -1    0    0    0    0  0.00000000000E+00  0.00000000000E+00  0.45593999997E+02  0.45594000000E+02  0.51100000000E-03 0. -1.
         11   -1    0    0    0    0 -0.00000000000E+00 -0.00000000000E+00 -0.45593999997E+02  0.45594000000E+02  0.51100000000E-03 0.  1.
    9900012    2    1    2    0    0  0.42394218427E+00  0.38278147283E+00  0.10328896877E+01  0.90007699302E+02  0.89999960132E+02 0.  0.
        -12    1    1    2    0    0 -0.42394218427E+00 -0.38278147283E+00 -0.10328896877E+01  0.11803006983E+01  0.00000000000E+00 0.  1.
         11    1    3    3    0    0 -0.61029945962E+01 -0.53808138505E+01  0.60379135689E+01  0.10131934725E+02  0.51100000000E-03 0. -1.
        -11    1    3    3    0    0 -0.31329961742E+02  0.20397561549E+02 -0.10712790068E+02  0.38889470184E+02  0.51100000000E-03 0.  1.
         12    1    3    3    0    0  0.37856898522E+02 -0.14633966226E+02  0.57077661868E+01  0.40986294393E+02  0.00000000000E+00 0. -1.
</event>
<event>
 7    1  0.2232484E-015  0.9000778E+02  0.7816164E-02  0.1186339E+00
        -11   -1    0    0    0    0  0.00000000000E+00  0.00000000000E+00  0.45593999997E+02  0.45594000000E+02  0.51100000000E-03 0. -1.
         11   -1    0    0    0    0 -0.00000000000E+00 -0.00000000000E+00 -0.45593999997E+02  0.45594000000E+02  0.51100000000E-03 0.  1.
    9900012    2    1    2    0    0  0.82653848647E+00  0.82579742626E+00  0.16680458162E+00  0.90007775010E+02  0.90000036840E+02 0.  0.
        -12    1    1    2    0    0 -0.82653848647E+00 -0.82579742626E+00 -0.16680458162E+00  0.11802249901E+01  0.00000000000E+00 0.  1.
         11    1    3    3    0    0  0.78692867078E+01  0.15080960166E+02 -0.25177128279E+01  0.17195927162E+02  0.51100000000E-03 0. -1.
        -11    1    3    3    0    0 -0.18847507851E+02  0.24277660338E+02 -0.66462071791E+01  0.31445276494E+02  0.51100000000E-03 0.  1.
         12    1    3    3    0    0  0.11804759630E+02 -0.38532823077E+02  0.93307245886E+01  0.41366571354E+02  0.00000000000E+00 0. -1.
</event>
<event>
 7    1  0.2232484E-015  0.9000772E+02  0.7816164E-02  0.1186339E+00
        -11   -1    0    0    0    0  0.00000000000E+00  0.00000000000E+00  0.45593999997E+02  0.45594000000E+02  0.51100000000E-03 0. -1.
         11   -1    0    0    0    0 -0.00000000000E+00 -0.00000000000E+00 -0.45593999997E+02  0.45594000000E+02  0.51100000000E-03 0.  1.
    9900012    2    1    2    0    0 -0.10678819459E+00  0.10368229686E+01  0.55375665269E+00  0.90007723754E+02  0.89999984907E+02 0.  0.
        -12    1    1    2    0    0  0.10678819459E+00 -0.10368229686E+01 -0.55375665269E+00  0.11802762461E+01  0.00000000000E+00 0.  1.
         11    1    3    3    0    0 -0.23081488583E+02  0.11259956321E+02  0.28435719789E+02  0.38316209255E+02  0.51100000000E-03 0. -1.
        -11    1    3    3    0    0 -0.39063264031E+01 -0.12440377238E+02 -0.19850231972E+00  0.13040773567E+02  0.51100000000E-03 0.  1.
        -12    1    3    3    0    0  0.26881026791E+02  0.22172438859E+01 -0.27683460816E+02  0.38650740932E+02  0.00000000000E+00 0.  1.
</event>
<event>
 7    1  0.2232484E-015  0.9000775E+02  0.7816164E-02  0.1186339E+00
        -11   -1    0    0    0    0  0.00000000000E+00  0.00000000000E+00  0.45593999997E+02  0.45594000000E+02  0.51100000000E-03 0. -1.
         11   -1    0    0    0    0 -0.00000000000E+00 -0.00000000000E+00 -0.45593999997E+02  0.45594000000E+02  0.51100000000E-03 0.  1.
    9900012    2    1    2    0    0  0.79653663464E+00 -0.74669534872E+00  0.44830442182E+00  0.90007745193E+02  0.90000006630E+02 0.  0.
        -12    1    1    2    0    0 -0.79653663464E+00  0.74669534872E+00 -0.44830442182E+00  0.11802548067E+01  0.00000000000E+00 0.  1.
         11    1    3    3    0    0 -0.86348425215E+01 -0.12804153761E+02  0.38178807389E+02  0.41184076933E+02  0.51100000000E-03 0. -1.
        -11    1    3    3    0    0  0.15886954065E+02  0.59491055382E+00 -0.11977097074E+02  0.19904775372E+02  0.51100000000E-03 0.  1.
        -12    1    3    3    0    0 -0.64555749088E+01  0.11462547858E+02 -0.25753405893E+02  0.28918892888E+02  0.00000000000E+00 0.  1.
</event>
<event>
 7    1  0.2232484E-015  0.9000772E+02  0.7816164E-02  0.1186339E+00
        -11   -1    0    0    0    0  0.00000000000E+00  0.00000000000E+00  0.45593999997E+02  0.45594000000E+02  0.51100000000E-03 0.  1.
         11   -1    0    0    0    0 -0.00000000000E+00 -0.00000000000E+00 -0.45593999997E+02  0.45594000000E+02  0.51100000000E-03 0. -1.
    9900012    2    1    2    0    0  0.10086429694E+01 -0.49267283139E+00 -0.36465563613E+00  0.90007719994E+02  0.89999981098E+02 0.  0.
        -12    1    1    2    0    0 -0.10086429694E+01  0.49267283139E+00  0.36465563613E+00  0.11802800056E+01  0.00000000000E+00 0.  1.
         11    1    3    3    0    0 -0.72073330727E-01  0.84835288776E+01  0.67817175723E+01  0.10861268355E+02  0.51100000000E-03 0. -1.
        -11    1    3    3    0    0  0.12167632291E+02  0.31555408882E+02  0.75088185197E+01  0.34643577487E+02  0.51100000000E-03 0.  1.
         12    1    3    3    0    0 -0.11086915991E+02 -0.40531610591E+02 -0.14655191728E+02  0.44502874153E+02  0.00000000000E+00 0. -1.
</event>
<event>
 7    1  0.2232484E-015  0.9000726E+02  0.7816164E-02  0.1186340E+00
        -11   -1    0    0    0    0  0.00000000000E+00  0.00000000000E+00  0.45593999997E+02  0.45594000000E+02  0.51100000000E-03 0.  1.
         11   -1    0    0    0    0 -0.00000000000E+00 -0.00000000000E+00 -0.45593999997E+02  0.45594000000E+02  0.51100000000E-03 0. -1.
    9900012    2    1    2    0    0  0.94450198379E+00  0.38947962679E+00  0.59192439169E+00  0.90007257495E+02  0.89999512493E+02 0.  0.
        -12    1    1    2    0    0 -0.94450198379E+00 -0.38947962679E+00 -0.59192439169E+00  0.11807425048E+01  0.00000000000E+00 0.  1.
         11    1    3    3    0    0  0.11573219580E+02 -0.33384461657E+01  0.44767585885E+00  0.12053424750E+02  0.51100000000E-03 0. -1.
        -11    1    3    3    0    0 -0.38539047096E+02 -0.15213135788E+02  0.10362991474E+02  0.42709357805E+02  0.51100000000E-03 0.  1.
         12    1    3    3    0    0  0.27910329499E+02  0.18941061580E+02 -0.10218742941E+02  0.35244474941E+02  0.00000000000E+00 0. -1.
</event>
<event>
 7    1  0.2232484E-015  0.9000768E+02  0.7816164E-02  0.1186339E+00
        -11   -1    0    0    0    0  0.00000000000E+00  0.00000000000E+00  0.45593999997E+02  0.45594000000E+02  0.51100000000E-03 0.  1.
         11   -1    0    0    0    0 -0.00000000000E+00 -0.00000000000E+00 -0.45593999997E+02  0.45594000000E+02  0.51100000000E-03 0. -1.
    9900012    2    1    2    0    0  0.46652572027E+00 -0.10485293658E+01  0.27585544109E+00  0.90007679576E+02  0.89999940147E+02 0.  0.
        -12    1    1    2    0    0 -0.46652572027E+00  0.10485293658E+01 -0.27585544109E+00  0.11803204238E+01  0.00000000000E+00 0.  1.
         11    1    3    3    0    0  0.25629856943E+02  0.15540982936E+02 -0.22956362292E+02  0.37754553202E+02  0.51100000000E-03 0. -1.
        -11    1    3    3    0    0  0.12840172895E+01  0.94743628068E+01  0.33338799053E+01  0.10125562033E+02  0.51100000000E-03 0.  1.
        -12    1    3    3    0    0 -0.26447348512E+02 -0.26063875108E+02  0.19898337828E+02  0.42127564341E+02  0.00000000000E+00 0.  1.
</event>
<event>
 7    1  0.2232484E-015  0.9000788E+02  0.7816164E-02  0.1186339E+00
        -11   -1    0    0    0    0  0.00000000000E+00  0.00000000000E+00  0.45593999997E+02  0.45594000000E+02  0.51100000000E-03 0.  1.
         11   -1    0    0    0    0 -0.00000000000E+00 -0.00000000000E+00 -0.45593999997E+02  0.45594000000E+02  0.51100000000E-03 0. -1.
    9900012    2    1    2    0    0  0.34873567680E+00  0.10862774160E+01 -0.30178476656E+00  0.90007877446E+02  0.90000140628E+02 0.  0.
        -12    1    1    2    0    0 -0.34873567680E+00 -0.10862774160E+01  0.30178476656E+00  0.11801225539E+01  0.00000000000E+00 0.  1.
         11    1    3    3    0    0  0.17826054321E+02  0.10184889848E+02 -0.31120931213E+02  0.37282872122E+02  0.51100000000E-03 0. -1.
        -11    1    3    3    0    0 -0.36054294880E+01  0.84600849040E+01 -0.50172545684E+01  0.10475924878E+02  0.51100000000E-03 0.  1.
        -12    1    3    3    0    0 -0.13871889156E+02 -0.17558697336E+02  0.35836401015E+02  0.42249080446E+02  0.00000000000E+00 0.  1.
</event>
<event>
 7    1  0.2311722E-015  0.9000777E+02  0.7816164E-02  0.1186339E+00
        -11   -1    0    0    0    0  0.00000000000E+00  0.00000000000E+00  0.45593999997E+02  0.45594000000E+02  0.51100000000E-03 0.  1.
         11   -1    0    0    0    0 -0.00000000000E+00 -0.00000000000E+00 -0.45593999997E+02  0.45594000000E+02  0.51100000000E-03 0. -1.
    9900012    2    1    2    0    0  0.23296777322E+00  0.89708011382E+00 -0.73070131547E+00  0.90007766495E+02  0.90000028213E+02 0.  0.
        -12    1    1    2    0    0 -0.23296777322E+00 -0.89708011382E+00  0.73070131547E+00  0.11802335050E+01  0.00000000000E+00 0.  1.
         11    1    3    3    0    0  0.29787582919E+01 -0.88297647278E+01  0.27489320190E+01  0.97156766937E+01  0.51100000000E-03 0. -1.
        -11    1    3    3    0    0  0.19032915797E+02 -0.23216676873E+00  0.32150118913E+02  0.37362225997E+02  0.51100000000E-03 0.  1.
         12    1    3    3    0    0 -0.21778706315E+02  0.99590116103E+01 -0.35629752247E+02  0.42929863804E+02  0.00000000000E+00 0. -1.
</event>
<event>
 7    1  0.2232484E-015  0.9000794E+02  0.7816164E-02  0.1186339E+00
        -11   -1    0    0    0    0  0.00000000000E+00  0.00000000000E+00  0.45593999997E+02  0.45594000000E+02  0.51100000000E-03 0.  1.
         11   -1    0    0    0    0 -0.00000000000E+00 -0.00000000000E+00 -0.45593999997E+02  0.45594000000E+02  0.51100000000E-03 0. -1.
    9900012    2    1    2    0    0 -0.63256915021E+00  0.99349756343E+00 -0.73241641510E-01  0.90007938359E+02  0.90000202345E+02 0.  0.
        -12    1    1    2    0    0  0.63256915021E+00 -0.99349756343E+00  0.73241641510E-01  0.11800616409E+01  0.00000000000E+00 0.  1.
         11    1    3    3    0    0 -0.39951734414E+02  0.11858889984E+02  0.54188283589E+00  0.41678147651E+02  0.51100000000E-03 0. -1.
        -11    1    3    3    0    0  0.21703369646E+01 -0.48064291149E+01 -0.83763522447E+01  0.98982523995E+01  0.51100000000E-03 0.  1.
        -12    1    3    3    0    0  0.37148828299E+02 -0.60589633055E+01  0.77612277673E+01  0.38431538309E+02  0.00000000000E+00 0.  1.
</event>
<event>
 7    1  0.2232484E-015  0.9000776E+02  0.7816164E-02  0.1186339E+00
        -11   -1    0    0    0    0  0.00000000000E+00  0.00000000000E+00  0.45593999997E+02  0.45594000000E+02  0.51100000000E-03 0. -1.
         11   -1    0    0    0    0 -0.00000000000E+00 -0.00000000000E+00 -0.45593999997E+02  0.45594000000E+02  0.51100000000E-03 0.  1.
    9900012    2    1    2    0    0  0.16386540437E+00  0.64067656141E+00  0.97757091781E+00  0.90007761369E+02  0.90000023019E+02 0.  0.
        -12    1    1    2    0    0 -0.16386540437E+00 -0.64067656141E+00 -0.97757091781E+00  0.11802386311E+01  0.00000000000E+00 0.  1.
         11    1    3    3    0    0 -0.71058235708E+01  0.31536532988E+01  0.18785222440E+01  0.79979437251E+01  0.51100000000E-03 0. -1.
        -11    1    3    3    0    0 -0.26695490947E+02  0.24349967333E+02 -0.10554615390E+02  0.37642662662E+02  0.51100000000E-03 0.  1.
         12    1    3    3    0    0  0.33965179922E+02 -0.26862944071E+02  0.96536640638E+01  0.44367154981E+02  0.00000000000E+00 0. -1.
</event>
<event>
 7    1  0.2232484E-015  0.9000762E+02  0.7816164E-02  0.1186339E+00
        -11   -1    0    0    0    0  0.00000000000E+00  0.00000000000E+00  0.45593999997E+02  0.45594000000E+02  0.51100000000E-03 0. -1.
         11   -1    0    0    0    0 -0.00000000000E+00 -0.00000000000E+00 -0.45593999997E+02  0.45594000000E+02  0.51100000000E-03 0.  1.
    9900012    2    1    2    0    0  0.19554470125E+00 -0.11578723393E+01  0.12001022132E+00  0.90007615089E+02  0.89999874808E+02 0.  0.
        -12    1    1    2    0    0 -0.19554470125E+00  0.11578723393E+01 -0.12001022132E+00  0.11803849107E+01  0.00000000000E+00 0.  1.
         11    1    3    3    0    0  0.60757084215E+01 -0.81761782565E+01 -0.33933710683E+01  0.10736810102E+02  0.51100000000E-03 0. -1.
        -11    1    3    3    0    0 -0.31352151109E+02 -0.23475584471E+02 -0.16618989869E+01  0.39202325874E+02  0.51100000000E-03 0.  1.
         12    1    3    3    0    0  0.25471987389E+02  0.30493890388E+02  0.51752802765E+01  0.40068479113E+02  0.00000000000E+00 0. -1.
</event>
<event>
 7    1  0.2232484E-015  0.9000772E+02  0.7816164E-02  0.1186339E+00
        -11   -1    0    0    0    0  0.00000000000E+00  0.00000000000E+00  0.45593999997E+02  0.45594000000E+02  0.51100000000E-03 0.  1.
         11   -1    0    0    0    0 -0.00000000000E+00 -0.00000000000E+00 -0.45593999997E+02  0.45594000000E+02  0.51100000000E-03 0. -1.
    9900012    2    1    2    0    0 -0.71959170209E-01  0.11714485383E+01 -0.12487430445E+00  0.90007718935E+02  0.89999980025E+02 0.  0.
        -12    1    1    2    0    0  0.71959170209E-01 -0.11714485383E+01  0.12487430445E+00  0.11802810648E+01  0.00000000000E+00 0.  1.
         11    1    3    3    0    0 -0.77139831919E+01 -0.30149477519E+02  0.13366637284E+01  0.31149369200E+02  0.51100000000E-03 0. -1.
        -11    1    3    3    0    0 -0.75073275316E+01 -0.77079491439E+01 -0.11559091474E+02  0.15791929668E+02  0.51100000000E-03 0.  1.
        -12    1    3    3    0    0  0.15149351553E+02  0.39028875201E+02  0.10097553441E+02  0.43066420068E+02  0.00000000000E+00 0.  1.
</event>
<event>
 7    1  0.2232484E-015  0.9000774E+02  0.7816164E-02  0.1186339E+00
        -11   -1    0    0    0    0  0.00000000000E+00  0.00000000000E+00  0.45593999997E+02  0.45594000000E+02  0.51100000000E-03 0.  1.
         11   -1    0    0    0    0 -0.00000000000E+00 -0.00000000000E+00 -0.45593999997E+02  0.45594000000E+02  0.51100000000E-03 0. -1.
    9900012    2    1    2    0    0 -0.11496615247E+01  0.14012720229E+00  0.22727135510E+00  0.90007741756E+02  0.90000003147E+02 0.  0.
        -12    1    1    2    0    0  0.11496615247E+01 -0.14012720229E+00 -0.22727135510E+00  0.11802582442E+01  0.00000000000E+00 0.  1.
         11    1    3    3    0    0  0.38900385305E+01 -0.29236454000E+01 -0.53361741353E+01  0.72218319598E+01  0.51100000000E-03 0. -1.
        -11    1    3    3    0    0  0.25925392021E+02 -0.28081582910E+02 -0.17646471528E+01  0.38259838343E+02  0.51100000000E-03 0.  1.
         12    1    3    3    0    0 -0.30965092077E+02  0.31145355512E+02  0.73280926432E+01  0.44526071453E+02  0.00000000000E+00 0. -1.
</event>
<event>
 7    1  0.2232484E-015  0.9000776E+02  0.7816164E-02  0.1186339E+00
        -11   -1    0    0    0    0  0.00000000000E+00  0.00000000000E+00  0.45593999997E+02  0.45594000000E+02  0.51100000000E-03 0.  1.
         11   -1    0    0    0    0 -0.00000000000E+00 -0.00000000000E+00 -0.45593999997E+02  0.45594000000E+02  0.51100000000E-03 0. -1.
    9900012    2    1    2    0    0 -0.35165256664E+00 -0.52765629532E+00 -0.99543325233E+00  0.90007759324E+02  0.90000020947E+02 0.  0.
        -12    1    1    2    0    0  0.35165256664E+00  0.52765629532E+00  0.99543325233E+00  0.11802406761E+01  0.00000000000E+00 0.  1.
         11    1    3    3    0    0 -0.98070074884E+01 -0.12286212046E+02 -0.81177045552E+01  0.17692527514E+02  0.51100000000E-03 0. -1.
        -11    1    3    3    0    0 -0.29904220777E+02 -0.15234985886E+01 -0.11254657614E+01  0.29964147605E+02  0.51100000000E-03 0.  1.
         12    1    3    3    0    0  0.39359575699E+02  0.13282054339E+02  0.82477370643E+01  0.42351084205E+02  0.00000000000E+00 0. -1.
</event>
<event>
 7    1  0.2232484E-015  0.9000772E+02  0.7816164E-02  0.1186339E+00
        -11   -1    0    0    0    0  0.00000000000E+00  0.00000000000E+00  0.45593999997E+02  0.45594000000E+02  0.51100000000E-03 0.  1.
         11   -1    0    0    0    0 -0.00000000000E+00 -0.00000000000E+00 -0.45593999997E+02  0.45594000000E+02  0.51100000000E-03 0. -1.
    9900012    2    1    2    0    0  0.91476707627E+00 -0.68777402634E+00 -0.28848829955E+00  0.90007721468E+02  0.89999982591E+02 0.  0.
        -12    1    1    2    0    0 -0.91476707627E+00  0.68777402634E+00  0.28848829955E+00  0.11802785324E+01  0.00000000000E+00 0.  1.
         11    1    3    3    0    0 -0.18738029578E+02  0.12114702470E+02 -0.20142775643E+01  0.22403952392E+02  0.51100000000E-03 0. -1.
        -11    1    3    3    0    0 -0.20481717419E+02  0.28318537402E+00  0.12552148913E+02  0.24023683834E+02  0.51100000000E-03 0.  1.
        -12    1    3    3    0    0  0.40134514073E+02 -0.13085661871E+02 -0.10826359648E+02  0.43580085242E+02  0.00000000000E+00 0.  1.
</event>
<event>
 7    1  0.2232484E-015  0.9000769E+02  0.7816164E-02  0.1186339E+00
        -11   -1    0    0    0    0  0.00000000000E+00  0.00000000000E+00  0.45593999997E+02  0.45594000000E+02  0.51100000000E-03 0. -1.
         11   -1    0    0    0    0 -0.00000000000E+00 -0.00000000000E+00 -0.45593999997E+02  0.45594000000E+02  0.51100000000E-03 0.  1.
    9900012    2    1    2    0    0 -0.77678950272E+00 -0.19084550756E+00  0.86793615409E+00  0.90007687708E+02  0.89999948386E+02 0.  0.
        -12    1    1    2    0    0  0.77678950272E+00  0.19084550756E+00 -0.86793615409E+00  0.11803122921E+01  0.00000000000E+00 0.  1.
         11    1    3    3    0    0  0.12464030840E+02  0.31040392368E+02  0.19588154863E+02  0.38762789300E+02  0.51100000000E-03 0. -1.
        -11    1    3    3    0    0 -0.58768571750E+01  0.64579542348E+01 -0.51663321497E+00  0.87469728074E+01  0.51100000000E-03 0.  1.
        -12    1    3    3    0    0 -0.73639631673E+01 -0.37689192111E+02 -0.18203585494E+02  0.42497925600E+02  0.00000000000E+00 0.  1.
</event>
<event>
 7    1  0.2232484E-015  0.9000768E+02  0.7816164E-02  0.1186339E+00
        -11   -1    0    0    0    0  0.00000000000E+00  0.00000000000E+00  0.45593999997E+02  0.45594000000E+02  0.51100000000E-03 0. -1.
         11   -1    0    0    0    0 -0.00000000000E+00 -0.00000000000E+00 -0.45593999997E+02  0.45594000000E+02  0.51100000000E-03 0.  1.
    9900012    2    1    2    0    0  0.26484308372E+00  0.70858455854E+00  0.90605311493E+00  0.90007675391E+02  0.89999935906E+02 0.  0.
        -12    1    1    2    0    0 -0.26484308372E+00 -0.70858455854E+00 -0.90605311493E+00  0.11803246090E+01  0.00000000000E+00 0.  1.
         11    1    3    3    0    0  0.21943531516E+01  0.97570775072E+01  0.70568334283E+01  0.12239879310E+02  0.51100000000E-03 0. -1.
        -11    1    3    3    0    0 -0.24148786875E+02  0.21963197710E+02 -0.18684177686E+02  0.37611759560E+02  0.51100000000E-03 0.  1.
         12    1    3    3    0    0  0.22219276807E+02 -0.31011690659E+02  0.12533397372E+02  0.40156036520E+02  0.00000000000E+00 0. -1.
</event>
<event>
 7    1  0.2232484E-015  0.9000775E+02  0.7816164E-02  0.1186339E+00
        -11   -1    0    0    0    0  0.00000000000E+00  0.00000000000E+00  0.45593999997E+02  0.45594000000E+02  0.51100000000E-03 0. -1.
         11   -1    0    0    0    0 -0.00000000000E+00 -0.00000000000E+00 -0.45593999997E+02  0.45594000000E+02  0.51100000000E-03 0.  1.
    9900012    2    1    2    0    0 -0.69834351830E+00 -0.19674933838E+00  0.93090669113E+00  0.90007753738E+02  0.90000015287E+02 0.  0.
        -12    1    1    2    0    0  0.69834351830E+00  0.19674933838E+00 -0.93090669113E+00  0.11802462621E+01  0.00000000000E+00 0.  1.
         11    1    3    3    0    0  0.25634018656E+02  0.17661437645E+02  0.84343991029E+01  0.32251641519E+02  0.51100000000E-03 0. -1.
        -11    1    3    3    0    0  0.79496092238E+01  0.49888137539E+01  0.93469032692E+01  0.13245721969E+02  0.51100000000E-03 0.  1.
        -12    1    3    3    0    0 -0.34281971398E+02 -0.22847000737E+02 -0.16850395681E+02  0.44510390251E+02  0.00000000000E+00 0.  1.
</event>
<event>
 7    1  0.2232484E-015  0.9000771E+02  0.7816164E-02  0.1186339E+00
        -11   -1    0    0    0    0  0.00000000000E+00  0.00000000000E+00  0.45593999997E+02  0.45594000000E+02  0.51100000000E-03 0. -1.
         11   -1    0    0    0    0 -0.00000000000E+00 -0.00000000000E+00 -0.45593999997E+02  0.45594000000E+02  0.51100000000E-03 0.  1.
    9900012    2    1    2    0    0  0.11312478048E+01  0.28720141596E+00  0.17570584201E+00  0.90007712411E+02  0.89999973415E+02 0.  0.
        -12    1    1    2    0    0 -0.11312478048E+01 -0.28720141596E+00 -0.17570584201E+00  0.11802875887E+01  0.00000000000E+00 0.  1.
         11    1    3    3    0    0  0.89414200207E+01  0.55076895450E+01  0.31760758539E+02  0.33451897096E+02  0.51100000000E-03 0. -1.
        -11    1    3    3    0    0  0.21320787837E+01 -0.43790278421E+01  0.11416411239E+02  0.12411933395E+02  0.51100000000E-03 0.  1.
        -12    1    3    3    0    0 -0.99422509996E+01 -0.84146028697E+00 -0.43001463935E+02  0.44143881920E+02  0.00000000000E+00 0.  1.
</event>
<event>
 7    1  0.2232484E-015  0.9000771E+02  0.7816164E-02  0.1186339E+00
        -11   -1    0    0    0    0  0.00000000000E+00  0.00000000000E+00  0.45593999997E+02  0.45594000000E+02  0.51100000000E-03 0.  1.
         11   -1    0    0    0    0 -0.00000000000E+00 -0.00000000000E+00 -0.45593999997E+02  0.45594000000E+02  0.51100000000E-03 0. -1.
    9900012    2    1    2    0    0 -0.52700794615E+00 -0.95834121216E+00 -0.44377798552E+00  0.90007705903E+02  0.89999966821E+02 0.  0.
        -12    1    1    2    0    0  0.52700794615E+00  0.95834121216E+00  0.44377798552E+00  0.11802940967E+01  0.00000000000E+00 0.  1.
         11    1    3    3    0    0  0.66576351450E+01  0.69491101551E+01 -0.18444101901E+01  0.97987798670E+01  0.51100000000E-03 0. -1.
        -11    1    3    3    0    0  0.25165858115E+02 -0.31341105359E+02 -0.79931645755E+00  0.40202291064E+02  0.51100000000E-03 0.  1.
         12    1    3    3    0    0 -0.32350501206E+02  0.23433653992E+02  0.21999486622E+01  0.40006634972E+02  0.00000000000E+00 0. -1.
</event>
<event>
 7    1  0.2232484E-015  0.9000774E+02  0.7816164E-02  0.1186339E+00
        -11   -1    0    0    0    0  0.00000000000E+00  0.00000000000E+00  0.45593999997E+02  0.45594000000E+02  0.51100000000E-03 0. -1.
         11   -1    0    0    0    0 -0.00000000000E+00 -0.00000000000E+00 -0.45593999997E+02  0.45594000000E+02  0.51100000000E-03 0.  1.
    9900012    2    1    2    0    0  0.46333334502E-01 -0.19206329339E+00  0.11636053815E+01  0.90007740465E+02  0.90000001839E+02 0.  0.
        -12    1    1    2    0    0 -0.46333334502E-01  0.19206329339E+00 -0.11636053815E+01  0.11802595352E+01  0.00000000000E+00 0.  1.
         11    1    3    3    0    0  0.10291663163E+02 -0.44157551555E+01 -0.19155371835E+00  0.11200621293E+02  0.51100000000E-03 0. -1.
        -11    1    3    3    0    0 -0.23110503947E+02 -0.12449017090E+02 -0.30737939529E+02  0.40421458978E+02  0.51100000000E-03 0.  1.
         12    1    3    3    0    0  0.12865174118E+02  0.16672708952E+02  0.32093098629E+02  0.38385660194E+02  0.00000000000E+00 0. -1.
</event>
<event>
 7    1  0.2232484E-015  0.9000760E+02  0.7816164E-02  0.1186339E+00
        -11   -1    0    0    0    0  0.00000000000E+00  0.00000000000E+00  0.45593999997E+02  0.45594000000E+02  0.51100000000E-03 0.  1.
         11   -1    0    0    0    0 -0.00000000000E+00 -0.00000000000E+00 -0.45593999997E+02  0.45594000000E+02  0.51100000000E-03 0. -1.
    9900012    2    1    2    0    0 -0.43730406993E-01 -0.89786603332E+00 -0.76503282653E+00  0.90007597108E+02  0.89999856589E+02 0.  0.
        -12    1    1    2    0    0  0.43730406993E-01  0.89786603332E+00  0.76503282653E+00  0.11804028922E+01  0.00000000000E+00 0.  1.
         11    1    3    3    0    0 -0.35530994611E+00  0.94405320654E+01 -0.43683882491E+01  0.10408299909E+02  0.51100000000E-03 0. -1.
        -11    1    3    3    0    0  0.24999150428E+02  0.22173894210E+02 -0.12551908082E+02  0.35695791115E+02  0.51100000000E-03 0.  1.
         12    1    3    3    0    0 -0.24687570889E+02 -0.32512292309E+02  0.16155263504E+02  0.43903506084E+02  0.00000000000E+00 0. -1.
</event>
<event>
 7    1  0.2232484E-015  0.9000775E+02  0.7816164E-02  0.1186339E+00
        -11   -1    0    0    0    0  0.00000000000E+00  0.00000000000E+00  0.45593999997E+02  0.45594000000E+02  0.51100000000E-03 0.  1.
         11   -1    0    0    0    0 -0.00000000000E+00 -0.00000000000E+00 -0.45593999997E+02  0.45594000000E+02  0.51100000000E-03 0. -1.
    9900012    2    1    2    0    0 -0.78360983326E+00 -0.85784537007E+00 -0.20748995431E+00  0.90007747853E+02  0.90000009324E+02 0.  0.
        -12    1    1    2    0    0  0.78360983326E+00  0.85784537007E+00  0.20748995431E+00  0.11802521472E+01  0.00000000000E+00 0.  1.
         11    1    3    3    0    0  0.32271461027E+02 -0.14127672419E+02 -0.17580025169E+02  0.39371253600E+02  0.51100000000E-03 0. -1.
        -11    1    3    3    0    0  0.34190778340E+01  0.84918129259E+01 -0.15252582691E+01  0.92804845268E+01  0.51100000000E-03 0.  1.
        -12    1    3    3    0    0 -0.36474148694E+02  0.47780141227E+01  0.18897793484E+02  0.41356009726E+02  0.00000000000E+00 0.  1.
</event>
<event>
 7    1  0.2232484E-015  0.9000768E+02  0.7816164E-02  0.1186339E+00
        -11   -1    0    0    0    0  0.00000000000E+00  0.00000000000E+00  0.45593999997E+02  0.45594000000E+02  0.51100000000E-03 0. -1.
         11   -1    0    0    0    0 -0.00000000000E+00 -0.00000000000E+00 -0.45593999997E+02  0.45594000000E+02  0.51100000000E-03 0.  1.
    9900012    2    1    2    0    0 -0.13809893324E+00 -0.38816319133E-01  0.11715688692E+01  0.90007681553E+02  0.89999942149E+02 0.  0.
        -12    1    1    2    0    0  0.13809893324E+00  0.38816319133E-01 -0.11715688692E+01  0.11803184474E+01  0.00000000000E+00 0.  1.
         11    1    3    3    0    0  0.19872271668E+02  0.43271164486E+01  0.34444328923E+02  0.40000536411E+02  0.51100000000E-03 0. -1.
        -11    1    3    3    0    0  0.19440791617E+01  0.90086330611E+01 -0.18354124417E+01  0.93970023150E+01  0.51100000000E-03 0.  1.
        -12    1    3    3    0    0 -0.21954449763E+02 -0.13374565829E+02 -0.31437347612E+02  0.40610142826E+02  0.00000000000E+00 0.  1.
</event>
<event>
 7    1  0.2232484E-015  0.9000777E+02  0.7816164E-02  0.1186339E+00
        -11   -1    0    0    0    0  0.00000000000E+00  0.00000000000E+00  0.45593999997E+02  0.45594000000E+02  0.51100000000E-03 0.  1.
         11   -1    0    0    0    0 -0.00000000000E+00 -0.00000000000E+00 -0.45593999997E+02  0.45594000000E+02  0.51100000000E-03 0. -1.
    9900012    2    1    2    0    0 -0.86509074565E+00 -0.32266325995E+00 -0.73514967194E+00  0.90007771794E+02  0.90000033582E+02 0.  0.
        -12    1    1    2    0    0  0.86509074565E+00  0.32266325995E+00  0.73514967194E+00  0.11802282058E+01  0.00000000000E+00 0.  1.
         11    1    3    3    0    0  0.29650691721E+02  0.21945106798E+02  0.21165812365E+01  0.36949034470E+02  0.51100000000E-03 0. -1.
        -11    1    3    3    0    0  0.83912092482E+01 -0.65861958402E+00  0.46736351950E+00  0.84299822849E+01  0.51100000000E-03 0.  1.
        -12    1    3    3    0    0 -0.38906991715E+02 -0.21609150474E+02 -0.33190944280E+01  0.44628755039E+02  0.00000000000E+00 0.  1.
</event>
<event>
 7    1  0.2232484E-015  0.9000772E+02  0.7816164E-02  0.1186339E+00
        -11   -1    0    0    0    0  0.00000000000E+00  0.00000000000E+00  0.45593999997E+02  0.45594000000E+02  0.51100000000E-03 0. -1.
         11   -1    0    0    0    0 -0.00000000000E+00 -0.00000000000E+00 -0.45593999997E+02  0.45594000000E+02  0.51100000000E-03 0.  1.
    9900012    2    1    2    0    0  0.47933769265E+00  0.10573378693E+01 -0.21293161863E+00  0.90007717039E+02  0.89999978104E+02 0.  0.
        -12    1    1    2    0    0 -0.47933769265E+00 -0.10573378693E+01  0.21293161863E+00  0.11802829609E+01  0.00000000000E+00 0.  1.
         11    1    3    3    0    0 -0.86720943351E+01 -0.11859480528E+01  0.32590614034E+01  0.93398701508E+01  0.51100000000E-03 0. -1.
        -11    1    3    3    0    0 -0.22705071156E+02 -0.36103705225E+01 -0.30699818710E+02  0.38354059767E+02  0.51100000000E-03 0.  1.
         12    1    3    3    0    0  0.31856503184E+02  0.58536564447E+01  0.27227825688E+02  0.42313787122E+02  0.00000000000E+00 0. -1.
</event>
<event>
 7    1  0.2232484E-015  0.9000785E+02  0.7816164E-02  0.1186339E+00
        -11   -1    0    0    0    0  0.00000000000E+00  0.00000000000E+00  0.45593999997E+02  0.45594000000E+02  0.51100000000E-03 0.  1.
         11   -1    0    0    0    0 -0.00000000000E+00 -0.00000000000E+00 -0.45593999997E+02  0.45594000000E+02  0.51100000000E-03 0. -1.
    9900012    2    1    2    0    0  0.10189067819E+01  0.50186949033E-01 -0.59335654319E+00  0.90007846727E+02  0.90000109504E+02 0.  0.
        -12    1    1    2    0    0 -0.10189067819E+01 -0.50186949033E-01  0.59335654319E+00  0.11801532728E+01  0.00000000000E+00 0.  1.
         11    1    3    3    0    0  0.21667364714E+02 -0.15347148135E+01  0.31726783706E+02  0.38450212584E+02  0.51100000000E-03 0. -1.
        -11    1    3    3    0    0  0.34251738987E+01 -0.76764367355E+01  0.19851849689E+01  0.86371555973E+01  0.51100000000E-03 0.  1.
        -12    1    3    3    0    0 -0.24073631830E+02  0.92613384980E+01 -0.34305325218E+02  0.42920478546E+02  0.00000000000E+00 0.  1.
</event>
<event>
 7    1  0.2232484E-015  0.9000784E+02  0.7816164E-02  0.1186339E+00
        -11   -1    0    0    0    0  0.00000000000E+00  0.00000000000E+00  0.45593999997E+02  0.45594000000E+02  0.51100000000E-03 0.  1.
         11   -1    0    0    0    0 -0.00000000000E+00 -0.00000000000E+00 -0.45593999997E+02  0.45594000000E+02  0.51100000000E-03 0. -1.
    9900012    2    1    2    0    0  0.86955148182E+00  0.79525459485E+00  0.64934057526E-01  0.90007844891E+02  0.90000107643E+02 0.  0.
        -12    1    1    2    0    0 -0.86955148182E+00 -0.79525459485E+00 -0.64934057526E-01  0.11801551093E+01  0.00000000000E+00 0.  1.
         11    1    3    3    0    0  0.88390699832E+00  0.14629297402E+02 -0.25329427387E+01  0.14873245552E+02  0.51100000000E-03 0. -1.
        -11    1    3    3    0    0  0.17119649814E+02  0.23559951377E+02 -0.11986040150E+02  0.31493156040E+02  0.51100000000E-03 0.  1.
         12    1    3    3    0    0 -0.17134005330E+02 -0.37393994184E+02  0.14583916946E+02  0.43641443299E+02  0.00000000000E+00 0. -1.
</event>
<event>
 7    1  0.2232484E-015  0.9000774E+02  0.7816164E-02  0.1186339E+00
        -11   -1    0    0    0    0  0.00000000000E+00  0.00000000000E+00  0.45593999997E+02  0.45594000000E+02  0.51100000000E-03 0. -1.
         11   -1    0    0    0    0 -0.00000000000E+00 -0.00000000000E+00 -0.45593999997E+02  0.45594000000E+02  0.51100000000E-03 0.  1.
    9900012    2    1    2    0    0 -0.45179832926E+00 -0.10815949475E+01 -0.13796625264E+00  0.90007744075E+02  0.90000005497E+02 0.  0.
        -12    1    1    2    0    0  0.45179832926E+00  0.10815949475E+01  0.13796625264E+00  0.11802559247E+01  0.00000000000E+00 0.  1.
         11    1    3    3    0    0 -0.44284292697E+01  0.60727725289E+01  0.42984562025E+01  0.86583068767E+01  0.51100000000E-03 0. -1.
        -11    1    3    3    0    0 -0.22106436368E+02  0.14773690874E+02 -0.28999232046E+02  0.39343511923E+02  0.51100000000E-03 0.  1.
         12    1    3    3    0    0  0.26083067309E+02 -0.21928058351E+02  0.24562809591E+02  0.42005925275E+02  0.00000000000E+00 0. -1.
</event>
<event>
 7    1  0.2232484E-015  0.9000758E+02  0.7816164E-02  0.1186339E+00
        -11   -1    0    0    0    0  0.00000000000E+00  0.00000000000E+00  0.45593999997E+02  0.45594000000E+02  0.51100000000E-03 0.  1.
         11   -1    0    0    0    0 -0.00000000000E+00 -0.00000000000E+00 -0.45593999997E+02  0.45594000000E+02  0.51100000000E-03 0. -1.
    9900012    2    1    2    0    0 -0.11200508937E+01 -0.34539148359E+00  0.13990947773E+00  0.90007583148E+02  0.89999842446E+02 0.  0.
        -12    1    1    2    0    0  0.11200508937E+01  0.34539148359E+00 -0.13990947773E+00  0.11804168515E+01  0.00000000000E+00 0.  1.
         11    1    3    3    0    0 -0.96663988570E+01 -0.12227457754E+02  0.89270829526E+01  0.17962260445E+02  0.51100000000E-03 0. -1.
        -11    1    3    3    0    0  0.33333625669E+02  0.18276605319E+02  0.11129718258E+02  0.39611053142E+02  0.51100000000E-03 0.  1.
         12    1    3    3    0    0 -0.24787277706E+02 -0.63945390494E+01 -0.19916891732E+02  0.32434269562E+02  0.00000000000E+00 0. -1.
</event>
<event>
 7    1  0.2232484E-015  0.9000757E+02  0.7816164E-02  0.1186339E+00
        -11   -1    0    0    0    0  0.00000000000E+00  0.00000000000E+00  0.45593999997E+02  0.45594000000E+02  0.51100000000E-03 0.  1.
         11   -1    0    0    0    0 -0.00000000000E+00 -0.00000000000E+00 -0.45593999997E+02  0.45594000000E+02  0.51100000000E-03 0. -1.
    9900012    2    1    2    0    0  0.61435670743E+00  0.78474496665E+00 -0.63257804266E+00  0.90007570499E+02  0.89999829629E+02 0.  0.
        -12    1    1    2    0    0 -0.61435670743E+00 -0.78474496665E+00  0.63257804266E+00  0.11804295009E+01  0.00000000000E+00 0.  1.
         11    1    3    3    0    0  0.47964619414E+01 -0.72776932447E+01 -0.22351393780E+00  0.87189921929E+01  0.51100000000E-03 0. -1.
        -11    1    3    3    0    0 -0.67965190055E+01 -0.36057852005E+02  0.38095247658E+01  0.36890023597E+02  0.51100000000E-03 0.  1.
         12    1    3    3    0    0  0.26144137716E+01  0.44120290217E+02 -0.42185888707E+01  0.44398554709E+02  0.00000000000E+00 0. -1.
</event>
<event>
 7    1  0.2232484E-015  0.9000772E+02  0.7816164E-02  0.1186339E+00
        -11   -1    0    0    0    0  0.00000000000E+00  0.00000000000E+00  0.45593999997E+02  0.45594000000E+02  0.51100000000E-03 0. -1.
         11   -1    0    0    0    0 -0.00000000000E+00 -0.00000000000E+00 -0.45593999997E+02  0.45594000000E+02  0.51100000000E-03 0.  1.
    9900012    2    1    2    0    0 -0.80576726733E+00  0.58473567519E+00  0.63394944155E+00  0.90007716732E+02  0.89999977793E+02 0.  0.
        -12    1    1    2    0    0  0.80576726733E+00 -0.58473567519E+00 -0.63394944155E+00  0.11802832683E+01  0.00000000000E+00 0.  1.
         11    1    3    3    0    0 -0.29328755183E+02 -0.13393425506E+02  0.20485901458E+02  0.38199893799E+02  0.51100000000E-03 0. -1.
        -11    1    3    3    0    0 -0.52246608043E+01 -0.14956587670E+01 -0.12952137939E+02  0.14046065397E+02  0.51100000000E-03 0.  1.
        -12    1    3    3    0    0  0.33747648720E+02  0.15473819949E+02 -0.68998140776E+01  0.37761757537E+02  0.00000000000E+00 0.  1.
</event>
<event>
 7    1  0.2232484E-015  0.9000769E+02  0.7816164E-02  0.1186339E+00
        -11   -1    0    0    0    0  0.00000000000E+00  0.00000000000E+00  0.45593999997E+02  0.45594000000E+02  0.51100000000E-03 0.  1.
         11   -1    0    0    0    0 -0.00000000000E+00 -0.00000000000E+00 -0.45593999997E+02  0.45594000000E+02  0.51100000000E-03 0. -1.
    9900012    2    1    2    0    0 -0.11709010047E+01 -0.10967470836E+00  0.10042174753E+00  0.90007694009E+02  0.89999954770E+02 0.  0.
        -12    1    1    2    0    0  0.11709010047E+01  0.10967470836E+00 -0.10042174753E+00  0.11803059908E+01  0.00000000000E+00 0.  1.
         11    1    3    3    0    0 -0.11117931400E+00  0.10143787609E+02  0.48861120066E+01  0.11259790349E+02  0.51100000000E-03 0. -1.
        -11    1    3    3    0    0 -0.35673671898E+02 -0.13036732895E+02  0.12463892503E+02  0.39973940109E+02  0.51100000000E-03 0.  1.
         12    1    3    3    0    0  0.34613950207E+02  0.27832705773E+01 -0.17249582762E+02  0.38773963552E+02  0.00000000000E+00 0. -1.
</event>
<event>
 7    1  0.2232484E-015  0.9000769E+02  0.7816164E-02  0.1186339E+00
        -11   -1    0    0    0    0  0.00000000000E+00  0.00000000000E+00  0.45593999997E+02  0.45594000000E+02  0.51100000000E-03 0.  1.
         11   -1    0    0    0    0 -0.00000000000E+00 -0.00000000000E+00 -0.45593999997E+02  0.45594000000E+02  0.51100000000E-03 0. -1.
    9900012    2    1    2    0    0 -0.58565094200E+00 -0.87530163089E+00 -0.53290021221E+00  0.90007693850E+02  0.89999954609E+02 0.  0.
        -12    1    1    2    0    0  0.58565094200E+00  0.87530163089E+00  0.53290021221E+00  0.11803061497E+01  0.00000000000E+00 0.  1.
         11    1    3    3    0    0 -0.58457561485E+01 -0.90848270043E+01 -0.34326288614E+02  0.35986122838E+02  0.51100000000E-03 0. -1.
        -11    1    3    3    0    0  0.36980339368E+01 -0.70804299512E+01 -0.68792062354E+01  0.10541888919E+02  0.51100000000E-03 0.  1.
        -12    1    3    3    0    0  0.15620712697E+01  0.15289955325E+02  0.40672594637E+02  0.43479682094E+02  0.00000000000E+00 0.  1.
</event>
<event>
 7    1  0.2232484E-015  0.9000774E+02  0.7816164E-02  0.1186339E+00
        -11   -1    0    0    0    0  0.00000000000E+00  0.00000000000E+00  0.45593999997E+02  0.45594000000E+02  0.51100000000E-03 0.  1.
         11   -1    0    0    0    0 -0.00000000000E+00 -0.00000000000E+00 -0.45593999997E+02  0.45594000000E+02  0.51100000000E-03 0. -1.
    9900012    2    1    2    0    0 -0.61820057958E+00 -0.25927096707E+00 -0.97139616887E+00  0.90007744135E+02  0.90000005557E+02 0.  0.
        -12    1    1    2    0    0  0.61820057958E+00  0.25927096707E+00  0.97139616887E+00  0.11802558654E+01  0.00000000000E+00 0.  1.
         11    1    3    3    0    0 -0.57242992536E+01  0.59442824969E+01 -0.51216433859E+01  0.97125345601E+01  0.51100000000E-03 0. -1.
        -11    1    3    3    0    0 -0.47518818075E+01 -0.40304809096E+02  0.14857331615E+02  0.43218032347E+02  0.51100000000E-03 0.  1.
         12    1    3    3    0    0  0.98579804815E+01  0.34101255632E+02 -0.10707084398E+02  0.37077177227E+02  0.00000000000E+00 0. -1.
</event>
<event>
 7    1  0.2232484E-015  0.9000768E+02  0.7816164E-02  0.1186339E+00
        -11   -1    0    0    0    0  0.00000000000E+00  0.00000000000E+00  0.45593999997E+02  0.45594000000E+02  0.51100000000E-03 0.  1.
         11   -1    0    0    0    0 -0.00000000000E+00 -0.00000000000E+00 -0.45593999997E+02  0.45594000000E+02  0.51100000000E-03 0. -1.
    9900012    2    1    2    0    0 -0.11077238604E+01 -0.39949706018E+00  0.80711389703E-01  0.90007676154E+02  0.89999936680E+02 0.  0.
        -12    1    1    2    0    0  0.11077238604E+01  0.39949706018E+00 -0.80711389703E-01  0.11803238456E+01  0.00000000000E+00 0.  1.
         11    1    3    3    0    0 -0.17956870000E+02 -0.14258832559E+01  0.96232778900E+01  0.20422776522E+02  0.51100000000E-03 0. -1.
        -11    1    3    3    0    0  0.21531368866E+02  0.11094086354E+01  0.25976702281E+02  0.33758253723E+02  0.51100000000E-03 0.  1.
         12    1    3    3    0    0 -0.46822227263E+01 -0.83022439703E-01 -0.35519268781E+02  0.35826645910E+02  0.00000000000E+00 0. -1.
</event>
<event>
 7    1  0.2232484E-015  0.9000767E+02  0.7816164E-02  0.1186339E+00
        -11   -1    0    0    0    0  0.00000000000E+00  0.00000000000E+00  0.45593999997E+02  0.45594000000E+02  0.51100000000E-03 0.  1.
         11   -1    0    0    0    0 -0.00000000000E+00 -0.00000000000E+00 -0.45593999997E+02  0.45594000000E+02  0.51100000000E-03 0. -1.
    9900012    2    1    2    0    0 -0.10022297989E+01 -0.62316114218E+00 -0.19454444206E-01  0.90007672565E+02  0.89999933043E+02 0.  0.
        -12    1    1    2    0    0  0.10022297989E+01  0.62316114218E+00  0.19454444206E-01  0.11803274352E+01  0.00000000000E+00 0.  1.
         11    1    3    3    0    0 -0.91043420712E+01 -0.72777046223E+01 -0.40080068082E+02  0.41740458632E+02  0.51100000000E-03 0. -1.
        -11    1    3    3    0    0  0.84983530540E+01 -0.39109733951E+01  0.31484838867E+01  0.98706974715E+01  0.51100000000E-03 0.  1.
        -12    1    3    3    0    0 -0.39624078173E+00  0.10565516875E+02  0.36912129751E+02  0.38396516461E+02  0.00000000000E+00 0.  1.
</event>
<event>
 7    1  0.2232484E-015  0.9000769E+02  0.7816164E-02  0.1186339E+00
        -11   -1    0    0    0    0  0.00000000000E+00  0.00000000000E+00  0.45593999997E+02  0.45594000000E+02  0.51100000000E-03 0.  1.
         11   -1    0    0    0    0 -0.00000000000E+00 -0.00000000000E+00 -0.45593999997E+02  0.45594000000E+02  0.51100000000E-03 0. -1.
    9900012    2    1    2    0    0 -0.18883322111E+00 -0.16423785471E+00 -0.11534697831E+01  0.90007693007E+02  0.89999953754E+02 0.  0.
        -12    1    1    2    0    0  0.18883322111E+00  0.16423785471E+00  0.11534697831E+01  0.11803069935E+01  0.00000000000E+00 0.  1.
         11    1    3    3    0    0 -0.32185105446E+02  0.54597124224E+00 -0.22495086060E+02  0.39270956116E+02  0.51100000000E-03 0. -1.
        -11    1    3    3    0    0 -0.28903381107E+01 -0.91877104211E+01  0.15953172818E+01  0.97628435748E+01  0.51100000000E-03 0.  1.
        -12    1    3    3    0    0  0.34886610335E+02  0.84775013242E+01  0.19746298996E+02  0.40973893315E+02  0.00000000000E+00 0.  1.
</event>
<event>
 7    1  0.2232484E-015  0.9000779E+02  0.7816164E-02  0.1186339E+00
        -11   -1    0    0    0    0  0.00000000000E+00  0.00000000000E+00  0.45593999997E+02  0.45594000000E+02  0.51100000000E-03 0.  1.
         11   -1    0    0    0    0 -0.00000000000E+00 -0.00000000000E+00 -0.45593999997E+02  0.45594000000E+02  0.51100000000E-03 0. -1.
    9900012    2    1    2    0    0  0.59957091782E+00 -0.15005026604E+00 -0.10054318044E+01  0.90007790916E+02  0.90000052956E+02 0.  0.
        -12    1    1    2    0    0 -0.59957091782E+00  0.15005026604E+00  0.10054318044E+01  0.11802090837E+01  0.00000000000E+00 0.  1.
         11    1    3    3    0    0  0.83350689427E+01  0.74369535873E+01  0.33663909645E+00  0.11175642222E+02  0.51100000000E-03 0. -1.
        -11    1    3    3    0    0  0.78546205812E+01  0.30176400823E+02  0.15280940602E+02  0.34724881239E+02  0.51100000000E-03 0.  1.
         12    1    3    3    0    0 -0.15590118606E+02 -0.37763404677E+02 -0.16623011503E+02  0.44107267455E+02  0.00000000000E+00 0. -1.
</event>
<event>
 7    1  0.2529428E-015  0.9000774E+02  0.7816164E-02  0.1186339E+00
        -11   -1    0    0    0    0  0.00000000000E+00  0.00000000000E+00  0.45593999997E+02  0.45594000000E+02  0.51100000000E-03 0.  1.
         11   -1    0    0    0    0 -0.00000000000E+00 -0.00000000000E+00 -0.45593999997E+02  0.45594000000E+02  0.51100000000E-03 0. -1.
    9900012    2    1    2    0    0 -0.84757931661E-01  0.61785547985E-01 -0.11755920546E+01  0.90007738148E+02  0.89999999491E+02 0.  0.
        -12    1    1    2    0    0  0.84757931661E-01 -0.61785547985E-01  0.11755920546E+01  0.11802618522E+01  0.00000000000E+00 0.  1.
         11    1    3    3    0    0 -0.93090628519E+01 -0.15241999360E+01 -0.84520698750E+00  0.94708083994E+01  0.51100000000E-03 0. -1.
        -11    1    3    3    0    0 -0.32336502501E+02  0.14646122080E+02  0.74789393278E+01  0.36277993601E+02  0.51100000000E-03 0.  1.
         12    1    3    3    0    0  0.41560807421E+02 -0.13060136596E+02 -0.78093243949E+01  0.44258936148E+02  0.00000000000E+00 0. -1.
</event>
<event>
 7    1  0.2232484E-015  0.9000802E+02  0.7816164E-02  0.1186338E+00
        -11   -1    0    0    0    0  0.00000000000E+00  0.00000000000E+00  0.45593999997E+02  0.45594000000E+02  0.51100000000E-03 0.  1.
         11   -1    0    0    0    0 -0.00000000000E+00 -0.00000000000E+00 -0.45593999997E+02  0.45594000000E+02  0.51100000000E-03 0. -1.
    9900012    2    1    2    0    0 -0.76662589270E+00 -0.76450167884E+00 -0.46921723839E+00  0.90008024198E+02  0.90000289317E+02 0.  0.
        -12    1    1    2    0    0  0.76662589270E+00  0.76450167884E+00  0.46921723839E+00  0.11799758019E+01  0.00000000000E+00 0.  1.
         11    1    3    3    0    0 -0.10577021431E+02  0.59439255227E+00 -0.15768257477E+02  0.18996437271E+02  0.51100000000E-03 0. -1.
        -11    1    3    3    0    0 -0.27398252712E+02 -0.12805456596E+02  0.42187257262E+01  0.30535907016E+02  0.51100000000E-03 0.  1.
         12    1    3    3    0    0  0.37208648250E+02  0.11446562365E+02  0.11080314512E+02  0.40475679911E+02  0.00000000000E+00 0. -1.
</event>
<event>
 7    1  0.2232484E-015  0.9000786E+02  0.7816164E-02  0.1186339E+00
        -11   -1    0    0    0    0  0.00000000000E+00  0.00000000000E+00  0.45593999997E+02  0.45594000000E+02  0.51100000000E-03 0. -1.
         11   -1    0    0    0    0 -0.00000000000E+00 -0.00000000000E+00 -0.45593999997E+02  0.45594000000E+02  0.51100000000E-03 0.  1.
    9900012    2    1    2    0    0  0.25106604858E+00  0.11061341635E+01 -0.32582432867E+00  0.90007860838E+02  0.90000123801E+02 0.  0.
        -12    1    1    2    0    0 -0.25106604858E+00 -0.11061341635E+01  0.32582432867E+00  0.11801391620E+01  0.00000000000E+00 0.  1.
         11    1    3    3    0    0  0.18318738100E+01  0.96881971043E+01 -0.30690362195E+00  0.98646396225E+01  0.51100000000E-03 0. -1.
        -11    1    3    3    0    0  0.98147099184E+01  0.23635882448E+02 -0.26552130326E+02  0.36878165559E+02  0.51100000000E-03 0.  1.
         12    1    3    3    0    0 -0.11395517680E+02 -0.32217945389E+02  0.26533209619E+02  0.43265055657E+02  0.00000000000E+00 0. -1.
</event>
<event>
 7    1  0.2232484E-015  0.9000781E+02  0.7816164E-02  0.1186339E+00
        -11   -1    0    0    0    0  0.00000000000E+00  0.00000000000E+00  0.45593999997E+02  0.45594000000E+02  0.51100000000E-03 0.  1.
         11   -1    0    0    0    0 -0.00000000000E+00 -0.00000000000E+00 -0.45593999997E+02  0.45594000000E+02  0.51100000000E-03 0. -1.
    9900012    2    1    2    0    0  0.49731419982E+00 -0.10428536072E+01 -0.24081582964E+00  0.90007806235E+02  0.90000068477E+02 0.  0.
        -12    1    1    2    0    0 -0.49731419982E+00  0.10428536072E+01  0.24081582964E+00  0.11801937651E+01  0.00000000000E+00 0.  1.
         11    1    3    3    0    0  0.19213701613E+01  0.28960005990E+01 -0.47571619833E+01  0.58914406695E+01  0.51100000000E-03 0. -1.
        -11    1    3    3    0    0  0.87862908729E-01  0.27196450736E+02  0.32394107196E+02  0.42296960102E+02  0.51100000000E-03 0.  1.
         12    1    3    3    0    0 -0.15119188702E+01 -0.31135304943E+02 -0.27877761043E+02  0.41819405463E+02  0.00000000000E+00 0. -1.
</event>
<event>
 7    1  0.2232484E-015  0.9000768E+02  0.7816164E-02  0.1186339E+00
        -11   -1    0    0    0    0  0.00000000000E+00  0.00000000000E+00  0.45593999997E+02  0.45594000000E+02  0.51100000000E-03 0.  1.
         11   -1    0    0    0    0 -0.00000000000E+00 -0.00000000000E+00 -0.45593999997E+02  0.45594000000E+02  0.51100000000E-03 0. -1.
    9900012    2    1    2    0    0  0.56997320576E+00 -0.43846828876E+00 -0.93596336333E+00  0.90007681690E+02  0.89999942288E+02 0.  0.
        -12    1    1    2    0    0 -0.56997320576E+00  0.43846828876E+00  0.93596336333E+00  0.11803183100E+01  0.00000000000E+00 0.  1.
         11    1    3    3    0    0 -0.18300557707E+02 -0.20578682308E+02  0.21617732124E+02  0.35010268785E+02  0.51100000000E-03 0. -1.
        -11    1    3    3    0    0 -0.58468610662E+01 -0.88849629823E+01  0.12758787807E+00  0.10636946482E+02  0.51100000000E-03 0.  1.
        -12    1    3    3    0    0  0.24717391979E+02  0.29025177002E+02 -0.22681283366E+02  0.44360466424E+02  0.00000000000E+00 0.  1.
</event>
<event>
 7    1  0.2232484E-015  0.9000781E+02  0.7816164E-02  0.1186339E+00
        -11   -1    0    0    0    0  0.00000000000E+00  0.00000000000E+00  0.45593999997E+02  0.45594000000E+02  0.51100000000E-03 0.  1.
         11   -1    0    0    0    0 -0.00000000000E+00 -0.00000000000E+00 -0.45593999997E+02  0.45594000000E+02  0.51100000000E-03 0. -1.
    9900012    2    1    2    0    0 -0.10780275894E+01 -0.37916975181E+00 -0.29486356444E+00  0.90007806073E+02  0.90000068313E+02 0.  0.
        -12    1    1    2    0    0  0.10780275894E+01  0.37916975181E+00  0.29486356444E+00  0.11801939273E+01  0.00000000000E+00 0.  1.
         11    1    3    3    0    0 -0.66115582385E+01  0.47982740074E+01  0.29639885360E+00  0.81745940776E+01  0.51100000000E-03 0. -1.
        -11    1    3    3    0    0 -0.82678887931E+01  0.19958108727E+02  0.31881788571E+02  0.38511459746E+02  0.51100000000E-03 0.  1.
         12    1    3    3    0    0  0.13801419442E+02 -0.25135552486E+02 -0.32473050989E+02  0.43321752249E+02  0.00000000000E+00 0. -1.
</event>
<event>
 7    1  0.2232484E-015  0.9000698E+02  0.7816164E-02  0.1186341E+00
        -11   -1    0    0    0    0  0.00000000000E+00  0.00000000000E+00  0.45593999997E+02  0.45594000000E+02  0.51100000000E-03 0. -1.
         11   -1    0    0    0    0 -0.00000000000E+00 -0.00000000000E+00 -0.45593999997E+02  0.45594000000E+02  0.51100000000E-03 0.  1.
    9900012    2    1    2    0    0 -0.74847483748E+00 -0.89765831456E-01  0.90914202034E+00  0.90006978535E+02  0.89999229849E+02 0.  0.
        -12    1    1    2    0    0  0.74847483748E+00  0.89765831456E-01 -0.90914202034E+00  0.11810214647E+01  0.00000000000E+00 0.  1.
         11    1    3    3    0    0  0.26434569320E+02  0.20029069126E+02  0.11410273667E+02  0.35073414585E+02  0.51100000000E-03 0. -1.
        -11    1    3    3    0    0  0.75909309260E+01  0.61190667105E+01 -0.51999217861E+01  0.11050085817E+02  0.51100000000E-03 0.  1.
        -12    1    3    3    0    0 -0.34773975084E+02 -0.26237901668E+02 -0.53012098610E+01  0.43883478133E+02  0.00000000000E+00 0.  1.
</event>
<event>
 7    1  0.2232484E-015  0.9000768E+02  0.7816164E-02  0.1186339E+00
        -11   -1    0    0    0    0  0.00000000000E+00  0.00000000000E+00  0.45593999997E+02  0.45594000000E+02  0.51100000000E-03 0.  1.
         11   -1    0    0    0    0 -0.00000000000E+00 -0.00000000000E+00 -0.45593999997E+02  0.45594000000E+02  0.51100000000E-03 0. -1.
    9900012    2    1    2    0    0 -0.25073650240E+00  0.11393171350E+01 -0.17955887831E+00  0.90007680671E+02  0.89999941256E+02 0.  0.
        -12    1    1    2    0    0  0.25073650240E+00 -0.11393171350E+01  0.17955887831E+00  0.11803193291E+01  0.00000000000E+00 0.  1.
         11    1    3    3    0    0  0.19959667751E+01  0.77740371643E+01  0.23181579998E+01  0.83542440695E+01  0.51100000000E-03 0. -1.
        -11    1    3    3    0    0  0.20707861435E+01  0.67498002429E+01  0.38068954501E+02  0.38718125673E+02  0.51100000000E-03 0.  1.
         12    1    3    3    0    0 -0.43174894210E+01 -0.13384520272E+02 -0.40566671379E+02  0.42935310929E+02  0.00000000000E+00 0. -1.
</event>
<event>
 7    1  0.2232484E-015  0.9000773E+02  0.7816164E-02  0.1186339E+00
        -11   -1    0    0    0    0  0.00000000000E+00  0.00000000000E+00  0.45593999997E+02  0.45594000000E+02  0.51100000000E-03 0.  1.
         11   -1    0    0    0    0 -0.00000000000E+00 -0.00000000000E+00 -0.45593999997E+02  0.45594000000E+02  0.51100000000E-03 0. -1.
    9900012    2    1    2    0    0  0.10794316363E+01  0.31217436881E+00  0.36111981549E+00  0.90007731804E+02  0.89999993064E+02 0.  0.
        -12    1    1    2    0    0 -0.10794316363E+01 -0.31217436881E+00 -0.36111981549E+00  0.11802681962E+01  0.00000000000E+00 0.  1.
         11    1    3    3    0    0  0.53746688591E+01  0.11261610011E+02 -0.86674198968E+01  0.15193258154E+02  0.51100000000E-03 0. -1.
        -11    1    3    3    0    0 -0.10340834936E+02 -0.31118995410E+02 -0.20406786526E+02  0.38623330761E+02  0.51100000000E-03 0.  1.
         12    1    3    3    0    0  0.60455977133E+01  0.20169559767E+02  0.29435326238E+02  0.36191142890E+02  0.00000000000E+00 0. -1.
</event>
<event>
 7    1  0.2521674E-015  0.9000780E+02  0.7816164E-02  0.1186339E+00
        -11   -1    0    0    0    0  0.00000000000E+00  0.00000000000E+00  0.45593999997E+02  0.45594000000E+02  0.51100000000E-03 0. -1.
         11   -1    0    0    0    0 -0.00000000000E+00 -0.00000000000E+00 -0.45593999997E+02  0.45594000000E+02  0.51100000000E-03 0.  1.
    9900012    2    1    2    0    0 -0.50382449920E+00  0.61407230684E-01  0.10654824061E+01  0.90007803944E+02  0.90000066156E+02 0.  0.
        -12    1    1    2    0    0  0.50382449920E+00 -0.61407230684E-01 -0.10654824061E+01  0.11801960565E+01  0.00000000000E+00 0.  1.
         11    1    3    3    0    0 -0.14031097922E+00 -0.43794836788E+01 -0.75849221241E+01  0.87596009243E+01  0.51100000000E-03 0. -1.
        -11    1    3    3    0    0 -0.10578470991E+02  0.11849304100E+02 -0.33593686095E+02  0.37159733609E+02  0.51100000000E-03 0.  1.
         12    1    3    3    0    0  0.10214957471E+02 -0.74084131910E+01  0.42244090626E+02  0.44088469410E+02  0.00000000000E+00 0. -1.
</event>
<event>
 7    1  0.2232484E-015  0.9000768E+02  0.7816164E-02  0.1186339E+00
        -11   -1    0    0    0    0  0.00000000000E+00  0.00000000000E+00  0.45593999997E+02  0.45594000000E+02  0.51100000000E-03 0.  1.
         11   -1    0    0    0    0 -0.00000000000E+00 -0.00000000000E+00 -0.45593999997E+02  0.45594000000E+02  0.51100000000E-03 0. -1.
    9900012    2    1    2    0    0  0.62231221069E+00 -0.10005756104E+01 -0.68758928647E-01  0.90007681471E+02  0.89999942066E+02 0.  0.
        -12    1    1    2    0    0 -0.62231221069E+00  0.10005756104E+01  0.68758928647E-01  0.11803185290E+01  0.00000000000E+00 0.  1.
         11    1    3    3    0    0  0.22181171157E+02  0.66069068413E+01 -0.25124065844E+02  0.34159541225E+02  0.51100000000E-03 0. -1.
        -11    1    3    3    0    0  0.10175603988E+02 -0.14216980253E+02  0.81578513229E+01  0.19292899795E+02  0.51100000000E-03 0.  1.
        -12    1    3    3    0    0 -0.31734462935E+02  0.66094978010E+01  0.16897455592E+02  0.36555240451E+02  0.00000000000E+00 0.  1.
</event>
<event>
 7    1  0.2232484E-015  0.9000786E+02  0.7816164E-02  0.1186339E+00
        -11   -1    0    0    0    0  0.00000000000E+00  0.00000000000E+00  0.45593999997E+02  0.45594000000E+02  0.51100000000E-03 0.  1.
         11   -1    0    0    0    0 -0.00000000000E+00 -0.00000000000E+00 -0.45593999997E+02  0.45594000000E+02  0.51100000000E-03 0. -1.
    9900012    2    1    2    0    0 -0.38772427931E+00  0.10437827342E+01 -0.39104838712E+00  0.90007859604E+02  0.90000122551E+02 0.  0.
        -12    1    1    2    0    0  0.38772427931E+00 -0.10437827342E+01  0.39104838712E+00  0.11801403959E+01  0.00000000000E+00 0.  1.
         11    1    3    3    0    0 -0.16644948565E+01  0.65497813547E+01 -0.78144594626E+01  0.10331309495E+02  0.51100000000E-03 0. -1.
        -11    1    3    3    0    0 -0.15192370401E+02  0.13989550479E+02  0.35913034958E+02  0.41427789238E+02  0.51100000000E-03 0.  1.
         12    1    3    3    0    0  0.16469140978E+02 -0.19495549099E+02 -0.28489623883E+02  0.38248760871E+02  0.00000000000E+00 0. -1.
</event>
<event>
 7    1  0.2617476E-015  0.9000774E+02  0.7816164E-02  0.1186339E+00
        -11   -1    0    0    0    0  0.00000000000E+00  0.00000000000E+00  0.45593999997E+02  0.45594000000E+02  0.51100000000E-03 0.  1.
         11   -1    0    0    0    0 -0.00000000000E+00 -0.00000000000E+00 -0.45593999997E+02  0.45594000000E+02  0.51100000000E-03 0. -1.
    9900012    2    1    2    0    0  0.39177352726E+00  0.14434483996E+00 -0.11039440198E+01  0.90007739720E+02  0.90000001084E+02 0.  0.
        -12    1    1    2    0    0 -0.39177352726E+00 -0.14434483996E+00  0.11039440198E+01  0.11802602799E+01  0.00000000000E+00 0.  1.
         11    1    3    3    0    0  0.72792440010E+01 -0.34867698234E+01 -0.53605014489E+01  0.96891657573E+01  0.51100000000E-03 0. -1.
        -11    1    3    3    0    0  0.12782024595E+02  0.13994864671E+02  0.36514844006E+02  0.41140858315E+02  0.51100000000E-03 0.  1.
         12    1    3    3    0    0 -0.19669495069E+02 -0.10363750008E+02 -0.32258286577E+02  0.39177715647E+02  0.00000000000E+00 0. -1.
</event>
<event>
 7    1  0.2232484E-015  0.9000772E+02  0.7816164E-02  0.1186339E+00
        -11   -1    0    0    0    0  0.00000000000E+00  0.00000000000E+00  0.45593999997E+02  0.45594000000E+02  0.51100000000E-03 0. -1.
         11   -1    0    0    0    0 -0.00000000000E+00 -0.00000000000E+00 -0.45593999997E+02  0.45594000000E+02  0.51100000000E-03 0.  1.
    9900012    2    1    2    0    0  0.19591496908E+00  0.11199798842E+01  0.31674937558E+00  0.90007717075E+02  0.89999978140E+02 0.  0.
        -12    1    1    2    0    0 -0.19591496908E+00 -0.11199798842E+01 -0.31674937558E+00  0.11802829250E+01  0.00000000000E+00 0.  1.
         11    1    3    3    0    0  0.57525375278E+01 -0.38942906108E+01 -0.39070440406E+01  0.79700803488E+01  0.51100000000E-03 0. -1.
        -11    1    3    3    0    0  0.36202857755E+02  0.13551464347E+02 -0.31385954124E+01  0.38783242219E+02  0.51100000000E-03 0.  1.
         12    1    3    3    0    0 -0.41759480314E+02 -0.85371938517E+01  0.73623888285E+01  0.43254394507E+02  0.00000000000E+00 0. -1.
</event>
<event>
 7    1  0.2232484E-015  0.9000704E+02  0.7816164E-02  0.1186340E+00
        -11   -1    0    0    0    0  0.00000000000E+00  0.00000000000E+00  0.45593999997E+02  0.45594000000E+02  0.51100000000E-03 0. -1.
         11   -1    0    0    0    0 -0.00000000000E+00 -0.00000000000E+00 -0.45593999997E+02  0.45594000000E+02  0.51100000000E-03 0.  1.
    9900012    2    1    2    0    0  0.55805746961E-01 -0.97645574581E+00  0.66187399450E+00  0.90007043909E+02  0.89999296086E+02 0.  0.
        -12    1    1    2    0    0 -0.55805746961E-01  0.97645574581E+00 -0.66187399450E+00  0.11809560913E+01  0.00000000000E+00 0.  1.
         11    1    3    3    0    0 -0.15227784498E+01  0.25422037746E+02 -0.11855498259E+02  0.28091843952E+02  0.51100000000E-03 0. -1.
        -11    1    3    3    0    0  0.29509246181E+01 -0.27877481447E+02 -0.16698483556E+02  0.32629760668E+02  0.51100000000E-03 0.  1.
        -12    1    3    3    0    0 -0.13723404213E+01  0.14789879551E+01  0.29215855810E+02  0.29285439288E+02  0.00000000000E+00 0.  1.
</event>
<event>
 7    1  0.2232484E-015  0.9000760E+02  0.7816164E-02  0.1186339E+00
        -11   -1    0    0    0    0  0.00000000000E+00  0.00000000000E+00  0.45593999997E+02  0.45594000000E+02  0.51100000000E-03 0.  1.
         11   -1    0    0    0    0 -0.00000000000E+00 -0.00000000000E+00 -0.45593999997E+02  0.45594000000E+02  0.51100000000E-03 0. -1.
    9900012    2    1    2    0    0  0.38115578790E+00  0.36353770605E+00 -0.10563669502E+01  0.90007597301E+02  0.89999856785E+02 0.  0.
        -12    1    1    2    0    0 -0.38115578790E+00 -0.36353770605E+00  0.10563669502E+01  0.11804026990E+01  0.00000000000E+00 0.  1.
         11    1    3    3    0    0  0.75236207236E+01 -0.51268741078E+01 -0.34365284617E+01  0.97313634728E+01  0.51100000000E-03 0. -1.
        -11    1    3    3    0    0  0.34429764472E+02  0.90418421249E+01 -0.95957096737E+01  0.36867888941E+02  0.51100000000E-03 0.  1.
         12    1    3    3    0    0 -0.41572229408E+02 -0.35514303111E+01  0.11975871185E+02  0.43408344887E+02  0.00000000000E+00 0. -1.
</event>
<event>
 7    1  0.2232484E-015  0.9000773E+02  0.7816164E-02  0.1186339E+00
        -11   -1    0    0    0    0  0.00000000000E+00  0.00000000000E+00  0.45593999997E+02  0.45594000000E+02  0.51100000000E-03 0. -1.
         11   -1    0    0    0    0 -0.00000000000E+00 -0.00000000000E+00 -0.45593999997E+02  0.45594000000E+02  0.51100000000E-03 0.  1.
    9900012    2    1    2    0    0 -0.10129403466E+01  0.28816113819E+00  0.53288152764E+00  0.90007725579E+02  0.89999986756E+02 0.  0.
        -12    1    1    2    0    0  0.10129403466E+01 -0.28816113819E+00 -0.53288152764E+00  0.11802744214E+01  0.00000000000E+00 0.  1.
         11    1    3    3    0    0  0.20045731692E+02 -0.24454014081E+02  0.47414984824E+01  0.31973613682E+02  0.51100000000E-03 0. -1.
        -11    1    3    3    0    0  0.26047465793E+01 -0.84807912164E+01  0.11326200857E+02  0.14387193976E+02  0.51100000000E-03 0.  1.
        -12    1    3    3    0    0 -0.23663418618E+02  0.33222966436E+02 -0.15534817812E+02  0.43646917920E+02  0.00000000000E+00 0.  1.
</event>
<event>
 7    1  0.2232484E-015  0.9000770E+02  0.7816164E-02  0.1186339E+00
        -11   -1    0    0    0    0  0.00000000000E+00  0.00000000000E+00  0.45593999997E+02  0.45594000000E+02  0.51100000000E-03 0. -1.
         11   -1    0    0    0    0 -0.00000000000E+00 -0.00000000000E+00 -0.45593999997E+02  0.45594000000E+02  0.51100000000E-03 0.  1.
    9900012    2    1    2    0    0 -0.13170185031E+00 -0.10112447055E+01 -0.59426616116E+00  0.90007697707E+02  0.89999958517E+02 0.  0.
        -12    1    1    2    0    0  0.13170185031E+00  0.10112447055E+01  0.59426616116E+00  0.11803022927E+01  0.00000000000E+00 0.  1.
         11    1    3    3    0    0 -0.33210890887E+02  0.71585013890E+01 -0.24666154142E+02  0.41983646532E+02  0.51100000000E-03 0. -1.
        -11    1    3    3    0    0 -0.27654287873E+01 -0.48165160502E+01  0.32846578753E+01  0.64525499501E+01  0.51100000000E-03 0.  1.
        -12    1    3    3    0    0  0.35844617824E+02 -0.33532300444E+01  0.20787230106E+02  0.41571501226E+02  0.00000000000E+00 0.  1.
</event>
<event>
 7    1  0.2232484E-015  0.9000776E+02  0.7816164E-02  0.1186339E+00
        -11   -1    0    0    0    0  0.00000000000E+00  0.00000000000E+00  0.45593999997E+02  0.45594000000E+02  0.51100000000E-03 0. -1.
         11   -1    0    0    0    0 -0.00000000000E+00 -0.00000000000E+00 -0.45593999997E+02  0.45594000000E+02  0.51100000000E-03 0.  1.
    9900012    2    1    2    0    0  0.55637059424E+00 -0.10065440580E+01  0.26513563781E+00  0.90007755921E+02  0.90000017499E+02 0.  0.
        -12    1    1    2    0    0 -0.55637059424E+00  0.10065440580E+01 -0.26513563781E+00  0.11802440787E+01  0.00000000000E+00 0.  1.
         11    1    3    3    0    0 -0.50834810259E+01  0.28008559910E+02 -0.27088038280E+02  0.39294821869E+02  0.51100000000E-03 0. -1.
        -11    1    3    3    0    0 -0.92393109270E+01 -0.34843743463E+01 -0.78929760445E+00  0.99059942439E+01  0.51100000000E-03 0.  1.
        -12    1    3    3    0    0  0.14879162547E+02 -0.25530729622E+02  0.28142471522E+02  0.40806939808E+02  0.00000000000E+00 0.  1.
</event>
<event>
 7    1  0.2232484E-015  0.9000769E+02  0.7816164E-02  0.1186339E+00
        -11   -1    0    0    0    0  0.00000000000E+00  0.00000000000E+00  0.45593999997E+02  0.45594000000E+02  0.51100000000E-03 0. -1.
         11   -1    0    0    0    0 -0.00000000000E+00 -0.00000000000E+00 -0.45593999997E+02  0.45594000000E+02  0.51100000000E-03 0.  1.
    9900012    2    1    2    0    0 -0.52981224300E+00  0.96534619693E+00 -0.42489290057E+00  0.90007691451E+02  0.89999952179E+02 0.  0.
        -12    1    1    2    0    0  0.52981224300E+00 -0.96534619693E+00  0.42489290057E+00  0.11803085485E+01  0.00000000000E+00 0.  1.
         11    1    3    3    0    0 -0.29825364078E+02 -0.20218704656E+02  0.18089943497E+02  0.40318660895E+02  0.51100000000E-03 0. -1.
        -11    1    3    3    0    0  0.68107079374E+01 -0.37106457134E+01  0.45378835141E+01  0.89859346352E+01  0.51100000000E-03 0.  1.
        -12    1    3    3    0    0  0.22484843897E+02  0.24894696567E+02 -0.23052719912E+02  0.40703095921E+02  0.00000000000E+00 0.  1.
</event>
<event>
 7    1  0.2232484E-015  0.9000802E+02  0.7816164E-02  0.1186338E+00
        -11   -1    0    0    0    0  0.00000000000E+00  0.00000000000E+00  0.45593999997E+02  0.45594000000E+02  0.51100000000E-03 0. -1.
         11   -1    0    0    0    0 -0.00000000000E+00 -0.00000000000E+00 -0.45593999997E+02  0.45594000000E+02  0.51100000000E-03 0.  1.
    9900012    2    1    2    0    0 -0.43100894471E+00  0.89927788945E-01  0.10947561965E+01  0.90008022522E+02  0.90000287619E+02 0.  0.
        -12    1    1    2    0    0  0.43100894471E+00 -0.89927788945E-01 -0.10947561965E+01  0.11799774775E+01  0.00000000000E+00 0.  1.
         11    1    3    3    0    0  0.28835398583E+00  0.37234422423E+01  0.17171552384E+02  0.17572973046E+02  0.51100000000E-03 0. -1.
        -11    1    3    3    0    0 -0.21775993716E+02  0.23195123363E+02  0.51998980330E+01  0.32237347750E+02  0.51100000000E-03 0.  1.
         12    1    3    3    0    0  0.21056630785E+02 -0.26828637816E+02 -0.21276694220E+02  0.40197701726E+02  0.00000000000E+00 0. -1.
</event>
<event>
 7    1  0.2232484E-015  0.9000779E+02  0.7816164E-02  0.1186339E+00
        -11   -1    0    0    0    0  0.00000000000E+00  0.00000000000E+00  0.45593999997E+02  0.45594000000E+02  0.51100000000E-03 0.  1.
         11   -1    0    0    0    0 -0.00000000000E+00 -0.00000000000E+00 -0.45593999997E+02  0.45594000000E+02  0.51100000000E-03 0. -1.
    9900012    2    1    2    0    0  0.10828145208E+01 -0.27543738918E+00 -0.38018326865E+00  0.90007791392E+02  0.90000053438E+02 0.  0.
        -12    1    1    2    0    0 -0.10828145208E+01  0.27543738918E+00  0.38018326865E+00  0.11802086085E+01  0.00000000000E+00 0.  1.
         11    1    3    3    0    0 -0.56207866950E+01  0.32694084659E+02 -0.19489447018E+02  0.38475121313E+02  0.51100000000E-03 0. -1.
        -11    1    3    3    0    0  0.64238359439E+01  0.76047313758E+00 -0.65085095287E+01  0.91763110330E+01  0.51100000000E-03 0.  1.
        -12    1    3    3    0    0  0.27976527187E+00 -0.33729995186E+02  0.25617773278E+02  0.42356359045E+02  0.00000000000E+00 0.  1.
</event>
<event>
 7    1  0.2232484E-015  0.9000760E+02  0.7816164E-02  0.1186339E+00
        -11   -1    0    0    0    0  0.00000000000E+00  0.00000000000E+00  0.45593999997E+02  0.45594000000E+02  0.51100000000E-03 0. -1.
         11   -1    0    0    0    0 -0.00000000000E+00 -0.00000000000E+00 -0.45593999997E+02  0.45594000000E+02  0.51100000000E-03 0.  1.
    9900012    2    1    2    0    0 -0.90142929545E-01  0.91986126505E+00  0.73421855844E+00  0.90007598633E+02  0.89999858135E+02 0.  0.
        -12    1    1    2    0    0  0.90142929545E-01 -0.91986126505E+00 -0.73421855844E+00  0.11804013666E+01  0.00000000000E+00 0.  1.
         11    1    3    3    0    0  0.14113170813E+02 -0.83353661537E+01 -0.33623469301E+01  0.16732163532E+02  0.51100000000E-03 0. -1.
        -11    1    3    3    0    0  0.22192679751E+02 -0.10169818321E+01 -0.18768463834E+02  0.29082718606E+02  0.51100000000E-03 0.  1.
        -12    1    3    3    0    0 -0.36395993494E+02  0.10272209251E+02  0.22865029323E+02  0.44192716495E+02  0.00000000000E+00 0.  1.
</event>
<event>
 7    1  0.2232484E-015  0.9000771E+02  0.7816164E-02  0.1186339E+00
        -11   -1    0    0    0    0  0.00000000000E+00  0.00000000000E+00  0.45593999997E+02  0.45594000000E+02  0.51100000000E-03 0. -1.
         11   -1    0    0    0    0 -0.00000000000E+00 -0.00000000000E+00 -0.45593999997E+02  0.45594000000E+02  0.51100000000E-03 0.  1.
    9900012    2    1    2    0    0 -0.77473099649E+00 -0.88591774603E+00  0.89592612266E-01  0.90007709694E+02  0.89999970662E+02 0.  0.
        -12    1    1    2    0    0  0.77473099649E+00  0.88591774603E+00 -0.89592612266E-01  0.11802903057E+01  0.00000000000E+00 0.  1.
         11    1    3    3    0    0  0.32821527632E+02  0.80273138282E+01  0.20694206431E+02  0.39622476241E+02  0.51100000000E-03 0. -1.
        -11    1    3    3    0    0  0.45300662799E+01 -0.32894410191E+01  0.17081614908E+01  0.58531819259E+01  0.51100000000E-03 0.  1.
        -12    1    3    3    0    0 -0.38126324909E+02 -0.56237905552E+01 -0.22312775309E+02  0.44532051527E+02  0.00000000000E+00 0.  1.
</event>
<event>
 7    1  0.2232484E-015  0.9000776E+02  0.7816164E-02  0.1186339E+00
        -11   -1    0    0    0    0  0.00000000000E+00  0.00000000000E+00  0.45593999997E+02  0.45594000000E+02  0.51100000000E-03 0.  1.
         11   -1    0    0    0    0 -0.00000000000E+00 -0.00000000000E+00 -0.45593999997E+02  0.45594000000E+02  0.51100000000E-03 0. -1.
    9900012    2    1    2    0    0  0.90027741652E+00  0.41973938031E+00 -0.63741423101E+00  0.90007755332E+02  0.90000016903E+02 0.  0.
        -12    1    1    2    0    0 -0.90027741652E+00 -0.41973938031E+00  0.63741423101E+00  0.11802446678E+01  0.00000000000E+00 0.  1.
         11    1    3    3    0    0 -0.13218544050E+02  0.62313912103E+01 -0.33660539576E+02  0.36695940757E+02  0.51100000000E-03 0. -1.
        -11    1    3    3    0    0 -0.97188921466E+00  0.65984005373E+01 -0.64434931176E+01  0.92737296766E+01  0.51100000000E-03 0.  1.
        -12    1    3    3    0    0  0.15090710682E+02 -0.12410052367E+02  0.39466618463E+02  0.44038084898E+02  0.00000000000E+00 0.  1.
</event>
<event>
 7    1  0.2232484E-015  0.9000775E+02  0.7816164E-02  0.1186339E+00
        -11   -1    0    0    0    0  0.00000000000E+00  0.00000000000E+00  0.45593999997E+02  0.45594000000E+02  0.51100000000E-03 0. -1.
         11   -1    0    0    0    0 -0.00000000000E+00 -0.00000000000E+00 -0.45593999997E+02  0.45594000000E+02  0.51100000000E-03 0.  1.
    9900012    2    1    2    0    0 -0.10691513431E+01  0.11594101163E+00 -0.48628098280E+00  0.90007747439E+02  0.90000008906E+02 0.  0.
        -12    1    1    2    0    0  0.10691513431E+01 -0.11594101163E+00  0.48628098280E+00  0.11802525607E+01  0.00000000000E+00 0.  1.
         11    1    3    3    0    0  0.29752951419E+01  0.42791691366E+01 -0.50881742602E+01  0.72837618882E+01  0.51100000000E-03 0. -1.
        -11    1    3    3    0    0 -0.10062850212E+02 -0.12004906782E+02 -0.36886189889E+02  0.40074552350E+02  0.51100000000E-03 0.  1.
         12    1    3    3    0    0  0.60184037269E+01  0.78416786572E+01  0.41488083166E+02  0.42649433201E+02  0.00000000000E+00 0. -1.
</event>
<event>
 7    1  0.2232484E-015  0.9000772E+02  0.7816164E-02  0.1186339E+00
        -11   -1    0    0    0    0  0.00000000000E+00  0.00000000000E+00  0.45593999997E+02  0.45594000000E+02  0.51100000000E-03 0.  1.
         11   -1    0    0    0    0 -0.00000000000E+00 -0.00000000000E+00 -0.45593999997E+02  0.45594000000E+02  0.51100000000E-03 0. -1.
    9900012    2    1    2    0    0  0.82776685657E+00  0.63036123337E-01 -0.83898253431E+00  0.90007719010E+02  0.89999980101E+02 0.  0.
        -12    1    1    2    0    0 -0.82776685657E+00 -0.63036123337E-01  0.83898253431E+00  0.11802809897E+01  0.00000000000E+00 0.  1.
         11    1    3    3    0    0 -0.13222742298E+02 -0.35390616861E+02 -0.18061691972E+01  0.37823259023E+02  0.51100000000E-03 0. -1.
        -11    1    3    3    0    0 -0.74579164608E+01 -0.23949738307E+01  0.34963961977E+01  0.85779487185E+01  0.51100000000E-03 0.  1.
        -12    1    3    3    0    0  0.21508425615E+02  0.37848626815E+02 -0.25292095348E+01  0.43606511269E+02  0.00000000000E+00 0.  1.
</event>
<event>
 7    1  0.2232484E-015  0.9000761E+02  0.7816164E-02  0.1186339E+00
        -11   -1    0    0    0    0  0.00000000000E+00  0.00000000000E+00  0.45593999997E+02  0.45594000000E+02  0.51100000000E-03 0. -1.
         11   -1    0    0    0    0 -0.00000000000E+00 -0.00000000000E+00 -0.45593999997E+02  0.45594000000E+02  0.51100000000E-03 0.  1.
    9900012    2    1    2    0    0 -0.84645603377E+00  0.79032907313E-01  0.81888931955E+00  0.90007612888E+02  0.89999872578E+02 0.  0.
        -12    1    1    2    0    0  0.84645603377E+00 -0.79032907313E-01 -0.81888931955E+00  0.11803871124E+01  0.00000000000E+00 0.  1.
         11    1    3    3    0    0  0.14908598130E+02 -0.19429531734E+02 -0.27385294013E+02  0.36738635386E+02  0.51100000000E-03 0. -1.
        -11    1    3    3    0    0 -0.19081605567E+01  0.19813972082E+01 -0.92552330872E+01  0.96553794004E+01  0.51100000000E-03 0.  1.
        -12    1    3    3    0    0 -0.13846893607E+02  0.17527167433E+02  0.37459416420E+02  0.43613598101E+02  0.00000000000E+00 0.  1.
</event>
<event>
 7    1  0.2232484E-015  0.9000779E+02  0.7816164E-02  0.1186339E+00
        -11   -1    0    0    0    0  0.00000000000E+00  0.00000000000E+00  0.45593999997E+02  0.45594000000E+02  0.51100000000E-03 0.  1.
         11   -1    0    0    0    0 -0.00000000000E+00 -0.00000000000E+00 -0.45593999997E+02  0.45594000000E+02  0.51100000000E-03 0. -1.
    9900012    2    1    2    0    0  0.15103351334E-01  0.24719600482E+00 -0.11539365157E+01  0.90007786690E+02  0.90000048674E+02 0.  0.
        -12    1    1    2    0    0 -0.15103351334E-01 -0.24719600482E+00  0.11539365157E+01  0.11802133105E+01  0.00000000000E+00 0.  1.
         11    1    3    3    0    0  0.74202694928E+01  0.42742602467E+01  0.30421667251E+01  0.90876002689E+01  0.51100000000E-03 0. -1.
        -11    1    3    3    0    0  0.18120387750E+02  0.29668766109E+02 -0.14079737082E+02  0.37507640971E+02  0.51100000000E-03 0.  1.
         12    1    3    3    0    0 -0.25525553891E+02 -0.33695830351E+02  0.98836338414E+01  0.43412545450E+02  0.00000000000E+00 0. -1.
</event>
