<event>
 7    1  0.3986981E-008  0.4614232E+02  0.7816164E-02  0.1320468E+00
        -11   -1    0    0    0    0  0.00000000000E+00  0.00000000000E+00  0.45593999997E+02  0.45594000000E+02  0.51100000000E-03 0. -1.
         11   -1    0    0    0    0 -0.00000000000E+00 -0.00000000000E+00 -0.45593999997E+02  0.45594000000E+02  0.51100000000E-03 0.  1.
    9900012    2    1    2    0    0 -0.24902802306E+02  0.36926190464E+02  0.67394598692E+01  0.46142318473E+02  0.10000006493E+02 0.  0.
        -12    1    1    2    0    0  0.24902802306E+02 -0.36926190464E+02 -0.67394598692E+01  0.45045681527E+02  0.00000000000E+00 0.  1.
         11    1    3    3    0    0 -0.39602234561E+01  0.81835754255E+01  0.12341550773E+01  0.91748250983E+01  0.51100000000E-03 0.  1.
        -11    1    3    3    0    0 -0.43387555762E+01  0.12854147684E+02  0.16814239280E+01  0.13670446201E+02  0.51100000000E-03 0. -1.
        -12    1    3    3    0    0 -0.16603823273E+02  0.15888467355E+02  0.38238808639E+01  0.23297047174E+02  0.00000000000E+00 0.  1.
</event>
<event>
 7    1  0.3986981E-008  0.4614232E+02  0.7816164E-02  0.1320468E+00
        -11   -1    0    0    0    0  0.00000000000E+00  0.00000000000E+00  0.45593999997E+02  0.45594000000E+02  0.51100000000E-03 0.  1.
         11   -1    0    0    0    0 -0.00000000000E+00 -0.00000000000E+00 -0.45593999997E+02  0.45594000000E+02  0.51100000000E-03 0. -1.
    9900012    2    1    2    0    0 -0.21944333306E+02 -0.31647691906E+01 -0.39211529367E+02  0.46142316926E+02  0.99999923888E+01 0.  0.
        -12    1    1    2    0    0  0.21944333306E+02  0.31647691906E+01  0.39211529367E+02  0.45045683074E+02  0.00000000000E+00 0.  1.
         11    1    3    3    0    0 -0.35165340550E-01 -0.62696943985E+00  0.56666548819E-01  0.63050665227E+00  0.51100000000E-03 0. -1.
        -11    1    3    3    0    0 -0.12133231484E+02 -0.46627429286E+01 -0.21732124717E+02  0.25322751091E+02  0.51100000000E-03 0.  1.
         12    1    3    3    0    0 -0.97759364820E+01  0.21249431778E+01 -0.17536071198E+02  0.20189059183E+02  0.00000000000E+00 0. -1.
</event>
<event>
 7    1  0.3986981E-008  0.4614232E+02  0.7816164E-02  0.1320468E+00
        -11   -1    0    0    0    0  0.00000000000E+00  0.00000000000E+00  0.45593999997E+02  0.45594000000E+02  0.51100000000E-03 0.  1.
         11   -1    0    0    0    0 -0.00000000000E+00 -0.00000000000E+00 -0.45593999997E+02  0.45594000000E+02  0.51100000000E-03 0. -1.
    9900012    2    1    2    0    0 -0.33616749285E+02  0.71270903665E+01 -0.29124425662E+02  0.46142318523E+02  0.10000006948E+02 0.  0.
        -12    1    1    2    0    0  0.33616749285E+02 -0.71270903665E+01  0.29124425662E+02  0.45045681477E+02  0.00000000000E+00 0.  1.
         11    1    3    3    0    0 -0.15374040527E+02  0.32670373379E+01 -0.10866875361E+02  0.19108208589E+02  0.51100000000E-03 0. -1.
        -11    1    3    3    0    0 -0.73740674921E+01  0.49413753902E+01 -0.66158192742E+01  0.11070823233E+02  0.51100000000E-03 0.  1.
         12    1    3    3    0    0 -0.10868641266E+02 -0.10813223615E+01 -0.11641731026E+02  0.15963286701E+02  0.00000000000E+00 0. -1.
</event>
<event>
 7    1  0.3986981E-008  0.4614232E+02  0.7816164E-02  0.1320468E+00
        -11   -1    0    0    0    0  0.00000000000E+00  0.00000000000E+00  0.45593999997E+02  0.45594000000E+02  0.51100000000E-03 0. -1.
         11   -1    0    0    0    0 -0.00000000000E+00 -0.00000000000E+00 -0.45593999997E+02  0.45594000000E+02  0.51100000000E-03 0.  1.
    9900012    2    1    2    0    0  0.36879747603E+02  0.25778405685E+02  0.21145862331E+01  0.46142318099E+02  0.10000003083E+02 0.  0.
        -12    1    1    2    0    0 -0.36879747603E+02 -0.25778405685E+02 -0.21145862331E+01  0.45045681901E+02  0.00000000000E+00 0.  1.
         11    1    3    3    0    0  0.22422253706E+02  0.14199065399E+02  0.56815731040E+01  0.27141318919E+02  0.51100000000E-03 0. -1.
        -11    1    3    3    0    0  0.23454877555E+01  0.98537773581E+00 -0.84690957750E+00  0.26813314206E+01  0.51100000000E-03 0.  1.
         12    1    3    3    0    0  0.12112006142E+02  0.10593962551E+02 -0.27200772934E+01  0.16319667760E+02  0.00000000000E+00 0. -1.
</event>
<event>
 7    1  0.3986981E-008  0.4614232E+02  0.7816164E-02  0.1320468E+00
        -11   -1    0    0    0    0  0.00000000000E+00  0.00000000000E+00  0.45593999997E+02  0.45594000000E+02  0.51100000000E-03 0.  1.
         11   -1    0    0    0    0 -0.00000000000E+00 -0.00000000000E+00 -0.45593999997E+02  0.45594000000E+02  0.51100000000E-03 0. -1.
    9900012    2    1    2    0    0 -0.18585365023E+02 -0.82531629306E+01 -0.40194316522E+02  0.46142316832E+02  0.99999915287E+01 0.  0.
        -12    1    1    2    0    0  0.18585365023E+02  0.82531629306E+01  0.40194316522E+02  0.45045683168E+02  0.00000000000E+00 0.  1.
         11    1    3    3    0    0 -0.11526700130E+02 -0.30486159554E+01 -0.22115705477E+02  0.25124953814E+02  0.51100000000E-03 0. -1.
        -11    1    3    3    0    0 -0.44006881049E+01 -0.35131519316E+01 -0.16615401971E+02  0.17543656267E+02  0.51100000000E-03 0.  1.
         12    1    3    3    0    0 -0.26579767885E+01 -0.16913950436E+01 -0.14632090735E+01  0.34737067513E+01  0.00000000000E+00 0. -1.
</event>
<event>
 7    1  0.3986981E-008  0.4614232E+02  0.7816164E-02  0.1320468E+00
        -11   -1    0    0    0    0  0.00000000000E+00  0.00000000000E+00  0.45593999997E+02  0.45594000000E+02  0.51100000000E-03 0.  1.
         11   -1    0    0    0    0 -0.00000000000E+00 -0.00000000000E+00 -0.45593999997E+02  0.45594000000E+02  0.51100000000E-03 0. -1.
    9900012    2    1    2    0    0  0.22800350495E+02  0.25159366896E+02 -0.29601751971E+02  0.46142318242E+02  0.10000004385E+02 0.  0.
        -12    1    1    2    0    0 -0.22800350495E+02 -0.25159366896E+02  0.29601751971E+02  0.45045681758E+02  0.00000000000E+00 0.  1.
         11    1    3    3    0    0  0.38812492482E+01  0.39347380026E+01 -0.14571639905E+01  0.57157314521E+01  0.51100000000E-03 0.  1.
        -11    1    3    3    0    0  0.25178997030E+01  0.13199043132E+01 -0.10805703437E+01  0.30413153140E+01  0.51100000000E-03 0. -1.
        -12    1    3    3    0    0  0.16401201544E+02  0.19904724580E+02 -0.27064017637E+02  0.37385271476E+02  0.00000000000E+00 0.  1.
</event>
<event>
 7    1  0.3986981E-008  0.4614232E+02  0.7816164E-02  0.1320468E+00
        -11   -1    0    0    0    0  0.00000000000E+00  0.00000000000E+00  0.45593999997E+02  0.45594000000E+02  0.51100000000E-03 0.  1.
         11   -1    0    0    0    0 -0.00000000000E+00 -0.00000000000E+00 -0.45593999997E+02  0.45594000000E+02  0.51100000000E-03 0. -1.
    9900012    2    1    2    0    0  0.30392505525E+01 -0.20169872581E+02 -0.40162826360E+02  0.46142318463E+02  0.10000006404E+02 0.  0.
        -12    1    1    2    0    0 -0.30392505525E+01  0.20169872581E+02  0.40162826360E+02  0.45045681537E+02  0.00000000000E+00 0.  1.
         11    1    3    3    0    0 -0.17325295935E+01 -0.77790947374E+01 -0.18435956194E+02  0.20084831460E+02  0.51100000000E-03 0. -1.
        -11    1    3    3    0    0  0.12400591369E+01 -0.59540561340E+00 -0.40182455569E+00  0.14330798101E+01  0.51100000000E-03 0.  1.
        -12    1    3    3    0    0  0.35317210092E+01 -0.11795372230E+02 -0.21325045611E+02  0.24624407193E+02  0.00000000000E+00 0.  1.
</event>
<event>
 7    1  0.3986981E-008  0.4614232E+02  0.7816164E-02  0.1320468E+00
        -11   -1    0    0    0    0  0.00000000000E+00  0.00000000000E+00  0.45593999997E+02  0.45594000000E+02  0.51100000000E-03 0.  1.
         11   -1    0    0    0    0 -0.00000000000E+00 -0.00000000000E+00 -0.45593999997E+02  0.45594000000E+02  0.51100000000E-03 0. -1.
    9900012    2    1    2    0    0  0.28648687272E+02  0.25266442927E+02 -0.23874108771E+02  0.46142317741E+02  0.99999998151E+01 0.  0.
        -12    1    1    2    0    0 -0.28648687272E+02 -0.25266442927E+02  0.23874108771E+02  0.45045682259E+02  0.00000000000E+00 0.  1.
         11    1    3    3    0    0  0.65695647517E+01  0.95858794754E+01 -0.10922406952E+02  0.15948267625E+02  0.51100000000E-03 0. -1.
        -11    1    3    3    0    0  0.40782663969E+01  0.44903272333E+01 -0.24877881982E+01  0.65562478481E+01  0.51100000000E-03 0.  1.
        -12    1    3    3    0    0  0.18000856124E+02  0.11190236218E+02 -0.10463913621E+02  0.23637802268E+02  0.00000000000E+00 0.  1.
</event>
<event>
 7    1  0.3986981E-008  0.4614232E+02  0.7816164E-02  0.1320468E+00
        -11   -1    0    0    0    0  0.00000000000E+00  0.00000000000E+00  0.45593999997E+02  0.45594000000E+02  0.51100000000E-03 0.  1.
         11   -1    0    0    0    0 -0.00000000000E+00 -0.00000000000E+00 -0.45593999997E+02  0.45594000000E+02  0.51100000000E-03 0. -1.
    9900012    2    1    2    0    0  0.88506998764E+01 -0.22809052614E+02 -0.37822293094E+02  0.46142316251E+02  0.99999862330E+01 0.  0.
        -12    1    1    2    0    0 -0.88506998764E+01  0.22809052614E+02  0.37822293094E+02  0.45045683749E+02  0.00000000000E+00 0.  1.
         11    1    3    3    0    0  0.31501956348E+01 -0.52687647076E+01 -0.12041309010E+02  0.13515795833E+02  0.51100000000E-03 0. -1.
        -11    1    3    3    0    0  0.40568216180E+01 -0.27666945623E+01 -0.44484293433E+01  0.66257772619E+01  0.51100000000E-03 0.  1.
        -12    1    3    3    0    0  0.16436826236E+01 -0.14773593344E+02 -0.21332554741E+02  0.26000743156E+02  0.00000000000E+00 0.  1.
</event>
<event>
 7    1  0.3986981E-008  0.4614232E+02  0.7816164E-02  0.1320468E+00
        -11   -1    0    0    0    0  0.00000000000E+00  0.00000000000E+00  0.45593999997E+02  0.45594000000E+02  0.51100000000E-03 0. -1.
         11   -1    0    0    0    0 -0.00000000000E+00 -0.00000000000E+00 -0.45593999997E+02  0.45594000000E+02  0.51100000000E-03 0.  1.
    9900012    2    1    2    0    0  0.26781890997E+02 -0.26017042753E+02  0.25198359662E+02  0.46142317314E+02  0.99999959209E+01 0.  0.
        -12    1    1    2    0    0 -0.26781890997E+02  0.26017042753E+02 -0.25198359662E+02  0.45045682686E+02  0.00000000000E+00 0.  1.
         11    1    3    3    0    0  0.64433719877E+01 -0.25174874810E+01  0.63646904365E+01  0.94002165083E+01  0.51100000000E-03 0. -1.
        -11    1    3    3    0    0  0.90352869125E+01 -0.84548459527E+01  0.48209051782E+01  0.13280133910E+02  0.51100000000E-03 0.  1.
         12    1    3    3    0    0  0.11303232097E+02 -0.15044709319E+02  0.14012764048E+02  0.23461966895E+02  0.00000000000E+00 0. -1.
</event>
<event>
 7    1  0.3986981E-008  0.4614232E+02  0.7816164E-02  0.1320468E+00
        -11   -1    0    0    0    0  0.00000000000E+00  0.00000000000E+00  0.45593999997E+02  0.45594000000E+02  0.51100000000E-03 0. -1.
         11   -1    0    0    0    0 -0.00000000000E+00 -0.00000000000E+00 -0.45593999997E+02  0.45594000000E+02  0.51100000000E-03 0.  1.
    9900012    2    1    2    0    0  0.29154857423E+02  0.20056728506E+02  0.27871764551E+02  0.46142319531E+02  0.10000016140E+02 0.  0.
        -12    1    1    2    0    0 -0.29154857423E+02 -0.20056728506E+02 -0.27871764551E+02  0.45045680469E+02  0.00000000000E+00 0.  1.
         11    1    3    3    0    0  0.72849684678E+00  0.58096344669E+00  0.27235318846E+01  0.28785156539E+01  0.51100000000E-03 0. -1.
        -11    1    3    3    0    0  0.61141200208E+00 -0.39741200566E+00 -0.13923227393E+00  0.74239263584E+00  0.51100000000E-03 0.  1.
        -12    1    3    3    0    0  0.27814948574E+02  0.19873177065E+02  0.25287464940E+02  0.42521411241E+02  0.00000000000E+00 0.  1.
</event>
<event>
 7    1  0.3986981E-008  0.4614232E+02  0.7816164E-02  0.1320468E+00
        -11   -1    0    0    0    0  0.00000000000E+00  0.00000000000E+00  0.45593999997E+02  0.45594000000E+02  0.51100000000E-03 0. -1.
         11   -1    0    0    0    0 -0.00000000000E+00 -0.00000000000E+00 -0.45593999997E+02  0.45594000000E+02  0.51100000000E-03 0.  1.
    9900012    2    1    2    0    0 -0.32379605278E+02  0.24200275560E+02  0.19875142382E+02  0.46142318078E+02  0.10000002890E+02 0.  0.
        -12    1    1    2    0    0  0.32379605278E+02 -0.24200275560E+02 -0.19875142382E+02  0.45045681922E+02  0.00000000000E+00 0.  1.
         11    1    3    3    0    0 -0.88135115712E+01  0.72518473293E+01  0.20979120663E+01  0.11604676264E+02  0.51100000000E-03 0. -1.
        -11    1    3    3    0    0 -0.74402223511E-02  0.71708920321E+00 -0.20605935366E+00  0.74614542860E+00  0.51100000000E-03 0.  1.
        -12    1    3    3    0    0 -0.23558653484E+02  0.16231339027E+02  0.17983289669E+02  0.33791496385E+02  0.00000000000E+00 0.  1.
</event>
<event>
 7    1  0.3986981E-008  0.4614232E+02  0.7816164E-02  0.1320468E+00
        -11   -1    0    0    0    0  0.00000000000E+00  0.00000000000E+00  0.45593999997E+02  0.45594000000E+02  0.51100000000E-03 0.  1.
         11   -1    0    0    0    0 -0.00000000000E+00 -0.00000000000E+00 -0.45593999997E+02  0.45594000000E+02  0.51100000000E-03 0. -1.
    9900012    2    1    2    0    0 -0.20063346303E+02  0.11439938503E+02 -0.38674324050E+02  0.46142318758E+02  0.10000009094E+02 0.  0.
        -12    1    1    2    0    0  0.20063346303E+02 -0.11439938503E+02  0.38674324050E+02  0.45045681242E+02  0.00000000000E+00 0.  1.
         11    1    3    3    0    0 -0.11501894278E+02  0.48317151917E+01 -0.22314655395E+02  0.25565267245E+02  0.51100000000E-03 0. -1.
        -11    1    3    3    0    0 -0.94315702751E+01  0.56012281328E+01 -0.13296847112E+02  0.17237587355E+02  0.51100000000E-03 0.  1.
         12    1    3    3    0    0  0.87011825002E+00  0.10069951781E+01 -0.30628215430E+01  0.33394641579E+01  0.00000000000E+00 0. -1.
</event>
<event>
 7    1  0.3986981E-008  0.4614232E+02  0.7816164E-02  0.1320468E+00
        -11   -1    0    0    0    0  0.00000000000E+00  0.00000000000E+00  0.45593999997E+02  0.45594000000E+02  0.51100000000E-03 0.  1.
         11   -1    0    0    0    0 -0.00000000000E+00 -0.00000000000E+00 -0.45593999997E+02  0.45594000000E+02  0.51100000000E-03 0. -1.
    9900012    2    1    2    0    0 -0.95991528127E+01  0.92427269250E+01 -0.43029545734E+02  0.46142317168E+02  0.99999945941E+01 0.  0.
        -12    1    1    2    0    0  0.95991528127E+01 -0.92427269250E+01  0.43029545734E+02  0.45045682832E+02  0.00000000000E+00 0.  1.
         11    1    3    3    0    0 -0.38038191329E+01  0.58854139555E+01 -0.27620060636E+02  0.28495173051E+02  0.51100000000E-03 0. -1.
        -11    1    3    3    0    0 -0.63927782272E+01  0.27527985501E+01 -0.15275798245E+02  0.16786766383E+02  0.51100000000E-03 0.  1.
         12    1    3    3    0    0  0.59744454741E+00  0.60451441941E+00 -0.13368685276E+00  0.86037773397E+00  0.00000000000E+00 0. -1.
</event>
<event>
 7    1  0.3986981E-008  0.4614232E+02  0.7816164E-02  0.1320468E+00
        -11   -1    0    0    0    0  0.00000000000E+00  0.00000000000E+00  0.45593999997E+02  0.45594000000E+02  0.51100000000E-03 0.  1.
         11   -1    0    0    0    0 -0.00000000000E+00 -0.00000000000E+00 -0.45593999997E+02  0.45594000000E+02  0.51100000000E-03 0. -1.
    9900012    2    1    2    0    0 -0.38932147997E+02 -0.12508395979E+02 -0.18892891629E+02  0.46142317945E+02  0.10000001680E+02 0.  0.
        -12    1    1    2    0    0  0.38932147997E+02  0.12508395979E+02  0.18892891629E+02  0.45045682055E+02  0.00000000000E+00 0.  1.
         11    1    3    3    0    0 -0.82354053591E+01 -0.30788147406E+01 -0.43970118882E+00  0.88030869036E+01  0.51100000000E-03 0. -1.
        -11    1    3    3    0    0 -0.62777449206E+01 -0.27425965189E+01 -0.60794006925E+01  0.91592046595E+01  0.51100000000E-03 0.  1.
         12    1    3    3    0    0 -0.24418997718E+02 -0.66869847194E+01 -0.12373789748E+02  0.28180026382E+02  0.00000000000E+00 0. -1.
</event>
<event>
 7    1  0.3986981E-008  0.4614231E+02  0.7816164E-02  0.1320468E+00
        -11   -1    0    0    0    0  0.00000000000E+00  0.00000000000E+00  0.45593999997E+02  0.45594000000E+02  0.51100000000E-03 0.  1.
         11   -1    0    0    0    0 -0.00000000000E+00 -0.00000000000E+00 -0.45593999997E+02  0.45594000000E+02  0.51100000000E-03 0. -1.
    9900012    2    1    2    0    0  0.39091675569E+02 -0.78709355300E+01 -0.20952414589E+02  0.46142307619E+02  0.99999075194E+01 0.  0.
        -12    1    1    2    0    0 -0.39091675569E+02  0.78709355300E+01  0.20952414589E+02  0.45045692381E+02  0.00000000000E+00 0.  1.
         11    1    3    3    0    0  0.11406029973E+02 -0.46031413312E+01 -0.49798144132E+01  0.13269701644E+02  0.51100000000E-03 0. -1.
        -11    1    3    3    0    0 -0.29467152176E+00  0.34419042972E+00 -0.13847414727E-02  0.45310102215E+00  0.51100000000E-03 0.  1.
         12    1    3    3    0    0  0.27980317118E+02 -0.36119846285E+01 -0.15971215435E+02  0.32419504954E+02  0.00000000000E+00 0. -1.
</event>
<event>
 7    1  0.3986981E-008  0.4614232E+02  0.7816164E-02  0.1320468E+00
        -11   -1    0    0    0    0  0.00000000000E+00  0.00000000000E+00  0.45593999997E+02  0.45594000000E+02  0.51100000000E-03 0.  1.
         11   -1    0    0    0    0 -0.00000000000E+00 -0.00000000000E+00 -0.45593999997E+02  0.45594000000E+02  0.51100000000E-03 0. -1.
    9900012    2    1    2    0    0 -0.12384765725E+01 -0.35348531106E+02 -0.27893742679E+02  0.46142319228E+02  0.10000013380E+02 0.  0.
        -12    1    1    2    0    0  0.12384765725E+01  0.35348531106E+02  0.27893742679E+02  0.45045680772E+02  0.00000000000E+00 0.  1.
         11    1    3    3    0    0 -0.13420714157E+01 -0.20656992882E+01 -0.62237531773E+00  0.25407913199E+01  0.51100000000E-03 0. -1.
        -11    1    3    3    0    0 -0.13338629820E+00 -0.26442747703E+00 -0.19987320281E+01  0.20205553139E+01  0.51100000000E-03 0.  1.
         12    1    3    3    0    0  0.23698114135E+00 -0.33018404340E+02 -0.25272635333E+02  0.41580972595E+02  0.00000000000E+00 0. -1.
</event>
<event>
 7    1  0.3986981E-008  0.4614231E+02  0.7816164E-02  0.1320468E+00
        -11   -1    0    0    0    0  0.00000000000E+00  0.00000000000E+00  0.45593999997E+02  0.45594000000E+02  0.51100000000E-03 0.  1.
         11   -1    0    0    0    0 -0.00000000000E+00 -0.00000000000E+00 -0.45593999997E+02  0.45594000000E+02  0.51100000000E-03 0. -1.
    9900012    2    1    2    0    0  0.32228904841E+02  0.12766490228E+02 -0.28765051980E+02  0.46142314353E+02  0.99999689222E+01 0.  0.
        -12    1    1    2    0    0 -0.32228904841E+02 -0.12766490228E+02  0.28765051980E+02  0.45045685647E+02  0.00000000000E+00 0.  1.
         11    1    3    3    0    0  0.18974909683E+02  0.55598745838E+01 -0.19897527210E+02  0.28051220868E+02  0.51100000000E-03 0. -1.
        -11    1    3    3    0    0 -0.51308452485E-01  0.10043967658E+01 -0.10714190853E+01  0.14694844463E+01  0.51100000000E-03 0.  1.
         12    1    3    3    0    0  0.13305303610E+02  0.62022188788E+01 -0.77961056851E+01  0.16621609038E+02  0.00000000000E+00 0. -1.
</event>
<event>
 7    1  0.3986981E-008  0.4614232E+02  0.7816164E-02  0.1320468E+00
        -11   -1    0    0    0    0  0.00000000000E+00  0.00000000000E+00  0.45593999997E+02  0.45594000000E+02  0.51100000000E-03 0.  1.
         11   -1    0    0    0    0 -0.00000000000E+00 -0.00000000000E+00 -0.45593999997E+02  0.45594000000E+02  0.51100000000E-03 0. -1.
    9900012    2    1    2    0    0 -0.20421309398E+02 -0.66387948361E+01 -0.39598106829E+02  0.46142317201E+02  0.99999948930E+01 0.  0.
        -12    1    1    2    0    0  0.20421309398E+02  0.66387948361E+01  0.39598106829E+02  0.45045682799E+02  0.00000000000E+00 0.  1.
         11    1    3    3    0    0 -0.13526935048E+02 -0.66315732908E+01 -0.23142261823E+02  0.27613765021E+02  0.51100000000E-03 0. -1.
        -11    1    3    3    0    0 -0.25795590264E+00 -0.16286670165E+01 -0.25765892335E+01  0.30590700936E+01  0.51100000000E-03 0.  1.
        -12    1    3    3    0    0 -0.66364184481E+01  0.16214454712E+01 -0.13879255772E+02  0.15469482087E+02  0.00000000000E+00 0.  1.
</event>
<event>
 7    1  0.3986981E-008  0.4614232E+02  0.7816164E-02  0.1320468E+00
        -11   -1    0    0    0    0  0.00000000000E+00  0.00000000000E+00  0.45593999997E+02  0.45594000000E+02  0.51100000000E-03 0.  1.
         11   -1    0    0    0    0 -0.00000000000E+00 -0.00000000000E+00 -0.45593999997E+02  0.45594000000E+02  0.51100000000E-03 0. -1.
    9900012    2    1    2    0    0 -0.32510431746E+02 -0.43582704511E+01 -0.30873787543E+02  0.46142318177E+02  0.10000003796E+02 0.  0.
        -12    1    1    2    0    0  0.32510431746E+02  0.43582704511E+01  0.30873787543E+02  0.45045681823E+02  0.00000000000E+00 0.  1.
         11    1    3    3    0    0 -0.80196782686E+01 -0.48569265002E+00 -0.83623914498E+01  0.11596582596E+02  0.51100000000E-03 0. -1.
        -11    1    3    3    0    0 -0.19825987758E+02 -0.20669850004E+01 -0.12996138627E+02  0.23795836548E+02  0.51100000000E-03 0.  1.
        -12    1    3    3    0    0 -0.46647657195E+01 -0.18055928007E+01 -0.95152574661E+01  0.10749899033E+02  0.00000000000E+00 0.  1.
</event>
<event>
 7    1  0.3986981E-008  0.4614232E+02  0.7816164E-02  0.1320468E+00
        -11   -1    0    0    0    0  0.00000000000E+00  0.00000000000E+00  0.45593999997E+02  0.45594000000E+02  0.51100000000E-03 0.  1.
         11   -1    0    0    0    0 -0.00000000000E+00 -0.00000000000E+00 -0.45593999997E+02  0.45594000000E+02  0.51100000000E-03 0. -1.
    9900012    2    1    2    0    0 -0.25200646191E+02  0.63047786968E+01 -0.36800688421E+02  0.46142317953E+02  0.10000001746E+02 0.  0.
        -12    1    1    2    0    0  0.25200646191E+02 -0.63047786968E+01  0.36800688421E+02  0.45045682047E+02  0.00000000000E+00 0.  1.
         11    1    3    3    0    0 -0.49865449891E+01  0.30172301676E+01 -0.10917627588E+02  0.12375940418E+02  0.51100000000E-03 0.  1.
        -11    1    3    3    0    0 -0.19756055284E+02  0.29995555250E+01 -0.21508110914E+02  0.29358097505E+02  0.51100000000E-03 0. -1.
         12    1    3    3    0    0 -0.45804591801E+00  0.28799300421E+00 -0.43749499188E+01  0.44082800303E+01  0.00000000000E+00 0. -1.
</event>
<event>
 7    1  0.3986981E-008  0.4614232E+02  0.7816164E-02  0.1320468E+00
        -11   -1    0    0    0    0  0.00000000000E+00  0.00000000000E+00  0.45593999997E+02  0.45594000000E+02  0.51100000000E-03 0.  1.
         11   -1    0    0    0    0 -0.00000000000E+00 -0.00000000000E+00 -0.45593999997E+02  0.45594000000E+02  0.51100000000E-03 0. -1.
    9900012    2    1    2    0    0 -0.17076227476E+02 -0.37671664079E+02 -0.17842694673E+02  0.46142316827E+02  0.99999914866E+01 0.  0.
        -12    1    1    2    0    0  0.17076227476E+02  0.37671664079E+02  0.17842694673E+02  0.45045683173E+02  0.00000000000E+00 0.  1.
         11    1    3    3    0    0 -0.36195026025E+01 -0.15943501160E+02 -0.69768752138E+01  0.17775624218E+02  0.51100000000E-03 0. -1.
        -11    1    3    3    0    0 -0.15108148883E+01 -0.18295522019E+01  0.64660718326E+00  0.24592527314E+01  0.51100000000E-03 0.  1.
         12    1    3    3    0    0 -0.11945909985E+02 -0.19898610717E+02 -0.11512426643E+02  0.25907439878E+02  0.00000000000E+00 0. -1.
</event>
<event>
 7    1  0.3986981E-008  0.4614232E+02  0.7816164E-02  0.1320468E+00
        -11   -1    0    0    0    0  0.00000000000E+00  0.00000000000E+00  0.45593999997E+02  0.45594000000E+02  0.51100000000E-03 0.  1.
         11   -1    0    0    0    0 -0.00000000000E+00 -0.00000000000E+00 -0.45593999997E+02  0.45594000000E+02  0.51100000000E-03 0. -1.
    9900012    2    1    2    0    0  0.41117563817E+02  0.18014773856E+02 -0.37319331902E+01  0.46142318113E+02  0.10000003205E+02 0.  0.
        -12    1    1    2    0    0 -0.41117563817E+02 -0.18014773856E+02  0.37319331902E+01  0.45045681887E+02  0.00000000000E+00 0.  1.
         11    1    3    3    0    0  0.46936643716E+01  0.63178440904E+00  0.68690384422E+00  0.47855484456E+01  0.51100000000E-03 0. -1.
        -11    1    3    3    0    0  0.10133959230E+02  0.47963697044E+01  0.22990606635E+01  0.11444997694E+02  0.51100000000E-03 0.  1.
         12    1    3    3    0    0  0.26289940215E+02  0.12586619743E+02 -0.67178976979E+01  0.29911771973E+02  0.00000000000E+00 0. -1.
</event>
<event>
 7    1  0.3986981E-008  0.4614232E+02  0.7816164E-02  0.1320468E+00
        -11   -1    0    0    0    0  0.00000000000E+00  0.00000000000E+00  0.45593999997E+02  0.45594000000E+02  0.51100000000E-03 0.  1.
         11   -1    0    0    0    0 -0.00000000000E+00 -0.00000000000E+00 -0.45593999997E+02  0.45594000000E+02  0.51100000000E-03 0. -1.
    9900012    2    1    2    0    0  0.14349576862E+02  0.31995763673E+02 -0.28274979228E+02  0.46142315418E+02  0.99999786292E+01 0.  0.
        -12    1    1    2    0    0 -0.14349576862E+02 -0.31995763673E+02  0.28274979228E+02  0.45045684582E+02  0.00000000000E+00 0.  1.
         11    1    3    3    0    0  0.24568920840E+00  0.12398521169E+01 -0.27899643643E+01  0.30629230931E+01  0.51100000000E-03 0.  1.
        -11    1    3    3    0    0  0.10686327315E+02  0.28966415925E+02 -0.22674870004E+02  0.38306664864E+02  0.51100000000E-03 0. -1.
         12    1    3    3    0    0  0.34175603381E+01  0.17894956313E+01 -0.28101448596E+01  0.47727274604E+01  0.00000000000E+00 0. -1.
</event>
<event>
 7    1  0.3986981E-008  0.4614232E+02  0.7816164E-02  0.1320468E+00
        -11   -1    0    0    0    0  0.00000000000E+00  0.00000000000E+00  0.45593999997E+02  0.45594000000E+02  0.51100000000E-03 0.  1.
         11   -1    0    0    0    0 -0.00000000000E+00 -0.00000000000E+00 -0.45593999997E+02  0.45594000000E+02  0.51100000000E-03 0. -1.
    9900012    2    1    2    0    0  0.31094375979E+02 -0.29257920521E+02 -0.14360618357E+02  0.46142317739E+02  0.99999998014E+01 0.  0.
        -12    1    1    2    0    0 -0.31094375979E+02  0.29257920521E+02  0.14360618357E+02  0.45045682261E+02  0.00000000000E+00 0.  1.
         11    1    3    3    0    0  0.11465286320E+02 -0.14803654260E+02 -0.71322137436E+01  0.20036702398E+02  0.51100000000E-03 0. -1.
        -11    1    3    3    0    0  0.57223232804E+01 -0.75487267468E+01 -0.37899422565E+01  0.10202544868E+02  0.51100000000E-03 0.  1.
        -12    1    3    3    0    0  0.13906766378E+02 -0.69055395146E+01 -0.34384623573E+01  0.15903070473E+02  0.00000000000E+00 0.  1.
</event>
<event>
 7    1  0.3986981E-008  0.4614232E+02  0.7816164E-02  0.1320468E+00
        -11   -1    0    0    0    0  0.00000000000E+00  0.00000000000E+00  0.45593999997E+02  0.45594000000E+02  0.51100000000E-03 0. -1.
         11   -1    0    0    0    0 -0.00000000000E+00 -0.00000000000E+00 -0.45593999997E+02  0.45594000000E+02  0.51100000000E-03 0.  1.
    9900012    2    1    2    0    0  0.11544377754E+02 -0.24025406239E+02 -0.36312814410E+02  0.46142319929E+02  0.10000019766E+02 0.  0.
        -12    1    1    2    0    0 -0.11544377754E+02  0.24025406239E+02  0.36312814410E+02  0.45045680071E+02  0.00000000000E+00 0.  1.
         11    1    3    3    0    0  0.11252667940E+02 -0.19940635431E+02 -0.27244495024E+02  0.35588115805E+02  0.51100000000E-03 0. -1.
        -11    1    3    3    0    0  0.60662029531E+00 -0.41366193628E+01 -0.51979755680E+01  0.66707239638E+01  0.51100000000E-03 0.  1.
        -12    1    3    3    0    0 -0.31491048147E+00  0.51848554280E-01 -0.38703438182E+01  0.38834801603E+01  0.00000000000E+00 0.  1.
</event>
<event>
 7    1  0.3986981E-008  0.4614232E+02  0.7816164E-02  0.1320468E+00
        -11   -1    0    0    0    0  0.00000000000E+00  0.00000000000E+00  0.45593999997E+02  0.45594000000E+02  0.51100000000E-03 0.  1.
         11   -1    0    0    0    0 -0.00000000000E+00 -0.00000000000E+00 -0.45593999997E+02  0.45594000000E+02  0.51100000000E-03 0. -1.
    9900012    2    1    2    0    0 -0.29963366754E+02 -0.27652793067E+02 -0.19147670204E+02  0.46142316678E+02  0.99999901244E+01 0.  0.
        -12    1    1    2    0    0  0.29963366754E+02  0.27652793067E+02  0.19147670204E+02  0.45045683322E+02  0.00000000000E+00 0.  1.
         11    1    3    3    0    0 -0.51518097395E+01 -0.61714224642E+01 -0.19699769160E+01  0.82769806170E+01  0.51100000000E-03 0. -1.
        -11    1    3    3    0    0 -0.24393581485E+02 -0.19339502597E+02 -0.14308959762E+02  0.34260903492E+02  0.51100000000E-03 0.  1.
        -12    1    3    3    0    0 -0.41797552997E+00 -0.21418680062E+01 -0.28687335265E+01  0.36044325691E+01  0.00000000000E+00 0.  1.
</event>
<event>
 7    1  0.3986981E-008  0.4614232E+02  0.7816164E-02  0.1320468E+00
        -11   -1    0    0    0    0  0.00000000000E+00  0.00000000000E+00  0.45593999997E+02  0.45594000000E+02  0.51100000000E-03 0.  1.
         11   -1    0    0    0    0 -0.00000000000E+00 -0.00000000000E+00 -0.45593999997E+02  0.45594000000E+02  0.51100000000E-03 0. -1.
    9900012    2    1    2    0    0 -0.29550734096E+02  0.12729355107E+02 -0.31525087105E+02  0.46142317809E+02  0.10000000438E+02 0.  0.
        -12    1    1    2    0    0  0.29550734096E+02 -0.12729355107E+02  0.31525087105E+02  0.45045682191E+02  0.00000000000E+00 0.  1.
         11    1    3    3    0    0 -0.87684312329E+01  0.73148420841E+01 -0.72899640880E+01  0.13547541388E+02  0.51100000000E-03 0. -1.
        -11    1    3    3    0    0 -0.47512457691E+01 -0.93476210697E-01 -0.66126000187E+01  0.81430678143E+01  0.51100000000E-03 0.  1.
         12    1    3    3    0    0 -0.16031057094E+02  0.55079892340E+01 -0.17622522998E+02  0.24451708606E+02  0.00000000000E+00 0. -1.
</event>
<event>
 7    1  0.3986981E-008  0.4614232E+02  0.7816164E-02  0.1320468E+00
        -11   -1    0    0    0    0  0.00000000000E+00  0.00000000000E+00  0.45593999997E+02  0.45594000000E+02  0.51100000000E-03 0. -1.
         11   -1    0    0    0    0 -0.00000000000E+00 -0.00000000000E+00 -0.45593999997E+02  0.45594000000E+02  0.51100000000E-03 0.  1.
    9900012    2    1    2    0    0  0.33168141324E+02 -0.15694399596E+02  0.26128024596E+02  0.46142318222E+02  0.10000004202E+02 0.  0.
        -12    1    1    2    0    0 -0.33168141324E+02  0.15694399596E+02 -0.26128024596E+02  0.45045681778E+02  0.00000000000E+00 0.  1.
         11    1    3    3    0    0  0.49748089150E+01 -0.32588914120E+01  0.15687740655E+01  0.61506218633E+01  0.51100000000E-03 0. -1.
        -11    1    3    3    0    0  0.98977596380E+01 -0.19041661295E+01  0.51671974487E+01  0.11326580430E+02  0.51100000000E-03 0.  1.
         12    1    3    3    0    0  0.18295572771E+02 -0.10531342054E+02  0.19392053081E+02  0.28665115929E+02  0.00000000000E+00 0. -1.
</event>
<event>
 7    1  0.3986981E-008  0.4614232E+02  0.7816164E-02  0.1320468E+00
        -11   -1    0    0    0    0  0.00000000000E+00  0.00000000000E+00  0.45593999997E+02  0.45594000000E+02  0.51100000000E-03 0. -1.
         11   -1    0    0    0    0 -0.00000000000E+00 -0.00000000000E+00 -0.45593999997E+02  0.45594000000E+02  0.51100000000E-03 0.  1.
    9900012    2    1    2    0    0  0.78576367656E+01 -0.43899288352E+02 -0.63421857340E+01  0.46142319927E+02  0.10000019746E+02 0.  0.
        -12    1    1    2    0    0 -0.78576367656E+01  0.43899288352E+02  0.63421857340E+01  0.45045680073E+02  0.00000000000E+00 0.  1.
         11    1    3    3    0    0  0.18870492577E+01 -0.74454781649E+01  0.13778861806E+01  0.78035037383E+01  0.51100000000E-03 0. -1.
        -11    1    3    3    0    0  0.44991190574E+01 -0.94987244406E+01 -0.30375210449E+01  0.10940492340E+02  0.51100000000E-03 0.  1.
         12    1    3    3    0    0  0.14714684505E+01 -0.26955085747E+02 -0.46825508696E+01  0.27398323848E+02  0.00000000000E+00 0. -1.
</event>
<event>
 7    1  0.3986981E-008  0.4614232E+02  0.7816164E-02  0.1320468E+00
        -11   -1    0    0    0    0  0.00000000000E+00  0.00000000000E+00  0.45593999997E+02  0.45594000000E+02  0.51100000000E-03 0.  1.
         11   -1    0    0    0    0 -0.00000000000E+00 -0.00000000000E+00 -0.45593999997E+02  0.45594000000E+02  0.51100000000E-03 0. -1.
    9900012    2    1    2    0    0 -0.12935049298E+01  0.21476614315E+02 -0.39575184769E+02  0.46142319109E+02  0.10000012295E+02 0.  0.
        -12    1    1    2    0    0  0.12935049298E+01 -0.21476614315E+02  0.39575184769E+02  0.45045680891E+02  0.00000000000E+00 0.  1.
         11    1    3    3    0    0 -0.39322169637E+01  0.96118821130E+01 -0.20031654133E+02  0.22563638349E+02  0.51100000000E-03 0. -1.
        -11    1    3    3    0    0 -0.82307556250E+00  0.55328148789E+01 -0.58130045778E+01  0.80672496148E+01  0.51100000000E-03 0.  1.
         12    1    3    3    0    0  0.34617875963E+01  0.63319173229E+01 -0.13730526058E+02  0.15511431145E+02  0.00000000000E+00 0. -1.
</event>
<event>
 7    1  0.3986981E-008  0.4614232E+02  0.7816164E-02  0.1320468E+00
        -11   -1    0    0    0    0  0.00000000000E+00  0.00000000000E+00  0.45593999997E+02  0.45594000000E+02  0.51100000000E-03 0.  1.
         11   -1    0    0    0    0 -0.00000000000E+00 -0.00000000000E+00 -0.45593999997E+02  0.45594000000E+02  0.51100000000E-03 0. -1.
    9900012    2    1    2    0    0 -0.11799906875E+02 -0.74627033549E+01 -0.42827371135E+02  0.46142318054E+02  0.10000002675E+02 0.  0.
        -12    1    1    2    0    0  0.11799906875E+02  0.74627033549E+01  0.42827371135E+02  0.45045681946E+02  0.00000000000E+00 0.  1.
         11    1    3    3    0    0 -0.62084060416E+01 -0.88102318282E+00 -0.12731799354E+02  0.14192224015E+02  0.51100000000E-03 0. -1.
        -11    1    3    3    0    0 -0.57111809027E+01 -0.73362724369E+01 -0.29632298393E+02  0.31056586884E+02  0.51100000000E-03 0.  1.
        -12    1    3    3    0    0  0.11968006963E+00  0.75459226477E+00 -0.46327338702E+00  0.89350715511E+00  0.00000000000E+00 0.  1.
</event>
<event>
 7    1  0.3986981E-008  0.4614232E+02  0.7816164E-02  0.1320468E+00
        -11   -1    0    0    0    0  0.00000000000E+00  0.00000000000E+00  0.45593999997E+02  0.45594000000E+02  0.51100000000E-03 0.  1.
         11   -1    0    0    0    0 -0.00000000000E+00 -0.00000000000E+00 -0.45593999997E+02  0.45594000000E+02  0.51100000000E-03 0. -1.
    9900012    2    1    2    0    0  0.92523227730E+01 -0.35437741349E+02 -0.26223548923E+02  0.46142317557E+02  0.99999981413E+01 0.  0.
        -12    1    1    2    0    0 -0.92523227730E+01  0.35437741349E+02  0.26223548923E+02  0.45045682443E+02  0.00000000000E+00 0.  1.
         11    1    3    3    0    0  0.43766862627E+01 -0.77332662207E+01 -0.48686414877E+01  0.10132248481E+02  0.51100000000E-03 0. -1.
        -11    1    3    3    0    0  0.42354222223E+01 -0.74609648644E+01 -0.46638747741E+01  0.97650666295E+01  0.51100000000E-03 0.  1.
         12    1    3    3    0    0  0.64021428803E+00 -0.20243510264E+02 -0.16691032661E+02  0.26245002447E+02  0.00000000000E+00 0. -1.
</event>
<event>
 7    1  0.3986981E-008  0.4614232E+02  0.7816164E-02  0.1320468E+00
        -11   -1    0    0    0    0  0.00000000000E+00  0.00000000000E+00  0.45593999997E+02  0.45594000000E+02  0.51100000000E-03 0.  1.
         11   -1    0    0    0    0 -0.00000000000E+00 -0.00000000000E+00 -0.45593999997E+02  0.45594000000E+02  0.51100000000E-03 0. -1.
    9900012    2    1    2    0    0  0.12796554828E+02 -0.38625444385E+02 -0.19324508693E+02  0.46142318679E+02  0.10000008371E+02 0.  0.
        -12    1    1    2    0    0 -0.12796554828E+02  0.38625444385E+02  0.19324508693E+02  0.45045681321E+02  0.00000000000E+00 0.  1.
         11    1    3    3    0    0  0.46531064346E+01 -0.84494310068E+01 -0.75540512543E+01  0.12251855959E+02  0.51100000000E-03 0. -1.
        -11    1    3    3    0    0  0.36969587692E+01 -0.54757225351E+01 -0.15131358781E+01  0.67779511557E+01  0.51100000000E-03 0.  1.
         12    1    3    3    0    0  0.44464896246E+01 -0.24700290843E+02 -0.10257321561E+02  0.27112511564E+02  0.00000000000E+00 0. -1.
</event>
<event>
 7    1  0.3986981E-008  0.4614232E+02  0.7816164E-02  0.1320468E+00
        -11   -1    0    0    0    0  0.00000000000E+00  0.00000000000E+00  0.45593999997E+02  0.45594000000E+02  0.51100000000E-03 0. -1.
         11   -1    0    0    0    0 -0.00000000000E+00 -0.00000000000E+00 -0.45593999997E+02  0.45594000000E+02  0.51100000000E-03 0.  1.
    9900012    2    1    2    0    0 -0.23961889670E+02 -0.10284604044E+02  0.36731027510E+02  0.46142316314E+02  0.99999868000E+01 0.  0.
        -12    1    1    2    0    0  0.23961889670E+02  0.10284604044E+02 -0.36731027510E+02  0.45045683686E+02  0.00000000000E+00 0.  1.
         11    1    3    3    0    0 -0.15605200770E+02 -0.48589983266E+01  0.23397189256E+02  0.28540508425E+02  0.51100000000E-03 0. -1.
        -11    1    3    3    0    0 -0.75503866884E+01 -0.46518332780E+01  0.73608860871E+01  0.11525213067E+02  0.51100000000E-03 0.  1.
         12    1    3    3    0    0 -0.80630221086E+00 -0.77377243901E+00  0.59729521661E+01  0.60765948212E+01  0.00000000000E+00 0. -1.
</event>
<event>
 7    1  0.3986981E-008  0.4614232E+02  0.7816164E-02  0.1320468E+00
        -11   -1    0    0    0    0  0.00000000000E+00  0.00000000000E+00  0.45593999997E+02  0.45594000000E+02  0.51100000000E-03 0.  1.
         11   -1    0    0    0    0 -0.00000000000E+00 -0.00000000000E+00 -0.45593999997E+02  0.45594000000E+02  0.51100000000E-03 0. -1.
    9900012    2    1    2    0    0  0.68936226057E+01  0.40941302375E+02  0.17475732366E+02  0.46142317693E+02  0.99999993810E+01 0.  0.
        -12    1    1    2    0    0 -0.68936226057E+01 -0.40941302375E+02 -0.17475732366E+02  0.45045682307E+02  0.00000000000E+00 0.  1.
         11    1    3    3    0    0 -0.85636298707E+00  0.94568643478E+01  0.38276434414E+01  0.10237992744E+02  0.51100000000E-03 0. -1.
        -11    1    3    3    0    0 -0.54684179727E+00  0.99307492843E+01  0.57915277320E+01  0.11509153359E+02  0.51100000000E-03 0.  1.
         12    1    3    3    0    0  0.82968273901E+01  0.21553688743E+02  0.78565611922E+01  0.24395171590E+02  0.00000000000E+00 0. -1.
</event>
<event>
 7    1  0.3986981E-008  0.4614232E+02  0.7816164E-02  0.1320468E+00
        -11   -1    0    0    0    0  0.00000000000E+00  0.00000000000E+00  0.45593999997E+02  0.45594000000E+02  0.51100000000E-03 0.  1.
         11   -1    0    0    0    0 -0.00000000000E+00 -0.00000000000E+00 -0.45593999997E+02  0.45594000000E+02  0.51100000000E-03 0. -1.
    9900012    2    1    2    0    0 -0.92412544737E+01 -0.30936708035E+02 -0.31410709239E+02  0.46142319373E+02  0.10000014698E+02 0.  0.
        -12    1    1    2    0    0  0.92412544737E+01  0.30936708035E+02  0.31410709239E+02  0.45045680627E+02  0.00000000000E+00 0.  1.
         11    1    3    3    0    0 -0.48642217377E+00 -0.42420971477E+01 -0.14539082492E+01  0.45106367843E+01  0.51100000000E-03 0. -1.
        -11    1    3    3    0    0  0.44192843978E+00 -0.83802078490E+01 -0.94882219257E+01  0.12666867802E+02  0.51100000000E-03 0.  1.
         12    1    3    3    0    0 -0.91967607397E+01 -0.18314403038E+02 -0.20468579064E+02  0.28964814787E+02  0.00000000000E+00 0. -1.
</event>
<event>
 7    1  0.3986981E-008  0.4614232E+02  0.7816164E-02  0.1320468E+00
        -11   -1    0    0    0    0  0.00000000000E+00  0.00000000000E+00  0.45593999997E+02  0.45594000000E+02  0.51100000000E-03 0. -1.
         11   -1    0    0    0    0 -0.00000000000E+00 -0.00000000000E+00 -0.45593999997E+02  0.45594000000E+02  0.51100000000E-03 0.  1.
    9900012    2    1    2    0    0  0.32454593567E+02  0.30914628990E+02  0.44831416465E+01  0.46142317763E+02  0.10000000014E+02 0.  0.
        -12    1    1    2    0    0 -0.32454593567E+02 -0.30914628990E+02 -0.44831416465E+01  0.45045682237E+02  0.00000000000E+00 0.  1.
         11    1    3    3    0    0  0.24139914914E+02  0.20481304160E+02  0.43158675520E+01  0.31950681137E+02  0.51100000000E-03 0. -1.
        -11    1    3    3    0    0  0.21168092098E+01  0.16679182761E+01  0.19270945039E+01  0.33130840760E+01  0.51100000000E-03 0.  1.
         12    1    3    3    0    0  0.61978694433E+01  0.87654065539E+01 -0.17598204095E+01  0.10878552549E+02  0.00000000000E+00 0. -1.
</event>
<event>
 7    1  0.3986981E-008  0.4614232E+02  0.7816164E-02  0.1320468E+00
        -11   -1    0    0    0    0  0.00000000000E+00  0.00000000000E+00  0.45593999997E+02  0.45594000000E+02  0.51100000000E-03 0. -1.
         11   -1    0    0    0    0 -0.00000000000E+00 -0.00000000000E+00 -0.45593999997E+02  0.45594000000E+02  0.51100000000E-03 0.  1.
    9900012    2    1    2    0    0  0.16874925622E+02  0.32094885329E+02  0.26725805714E+02  0.46142317963E+02  0.10000001845E+02 0.  0.
        -12    1    1    2    0    0 -0.16874925622E+02 -0.32094885329E+02 -0.26725805714E+02  0.45045682037E+02  0.00000000000E+00 0.  1.
         11    1    3    3    0    0  0.46100836747E+00  0.67173006077E+01  0.43103037734E+01  0.79945841073E+01  0.51100000000E-03 0. -1.
        -11    1    3    3    0    0  0.33577533214E+01  0.10727815256E+02  0.79118726992E+01  0.13746208838E+02  0.51100000000E-03 0.  1.
         12    1    3    3    0    0  0.13056163934E+02  0.14649769465E+02  0.14503629241E+02  0.24401525018E+02  0.00000000000E+00 0. -1.
</event>
<event>
 7    1  0.3986981E-008  0.4614232E+02  0.7816164E-02  0.1320468E+00
        -11   -1    0    0    0    0  0.00000000000E+00  0.00000000000E+00  0.45593999997E+02  0.45594000000E+02  0.51100000000E-03 0.  1.
         11   -1    0    0    0    0 -0.00000000000E+00 -0.00000000000E+00 -0.45593999997E+02  0.45594000000E+02  0.51100000000E-03 0. -1.
    9900012    2    1    2    0    0  0.92907315810E+01  0.28797346214E+02 -0.33369276802E+02  0.46142317892E+02  0.10000001198E+02 0.  0.
        -12    1    1    2    0    0 -0.92907315810E+01 -0.28797346214E+02  0.33369276802E+02  0.45045682108E+02  0.00000000000E+00 0.  1.
         11    1    3    3    0    0  0.26539459704E+00 -0.36379979991E+00 -0.12505247766E+00  0.46735743264E+00  0.51100000000E-03 0.  1.
        -11    1    3    3    0    0  0.79936259696E+01  0.13971393819E+02 -0.17054346411E+02  0.23450983629E+02  0.51100000000E-03 0. -1.
         12    1    3    3    0    0  0.10317110144E+01  0.15189752195E+02 -0.16189877913E+02  0.22223976831E+02  0.00000000000E+00 0. -1.
</event>
<event>
 7    1  0.3986981E-008  0.4614232E+02  0.7816164E-02  0.1320468E+00
        -11   -1    0    0    0    0  0.00000000000E+00  0.00000000000E+00  0.45593999997E+02  0.45594000000E+02  0.51100000000E-03 0. -1.
         11   -1    0    0    0    0 -0.00000000000E+00 -0.00000000000E+00 -0.45593999997E+02  0.45594000000E+02  0.51100000000E-03 0.  1.
    9900012    2    1    2    0    0 -0.13725628474E+02 -0.38116476847E+02  0.19694028405E+02  0.46142318308E+02  0.10000004991E+02 0.  0.
        -12    1    1    2    0    0  0.13725628474E+02  0.38116476847E+02 -0.19694028405E+02  0.45045681692E+02  0.00000000000E+00 0.  1.
         11    1    3    3    0    0 -0.10776755988E+02 -0.33684465975E+02  0.18042906760E+02  0.39702999915E+02  0.51100000000E-03 0. -1.
        -11    1    3    3    0    0 -0.14919162602E+01 -0.24571122358E+01  0.25331538768E+01  0.38314597077E+01  0.51100000000E-03 0.  1.
        -12    1    3    3    0    0 -0.14569562253E+01 -0.19748986365E+01 -0.88203223169E+00  0.26078586857E+01  0.00000000000E+00 0.  1.
</event>
<event>
 7    1  0.3986981E-008  0.4614232E+02  0.7816164E-02  0.1320468E+00
        -11   -1    0    0    0    0  0.00000000000E+00  0.00000000000E+00  0.45593999997E+02  0.45594000000E+02  0.51100000000E-03 0.  1.
         11   -1    0    0    0    0 -0.00000000000E+00 -0.00000000000E+00 -0.45593999997E+02  0.45594000000E+02  0.51100000000E-03 0. -1.
    9900012    2    1    2    0    0  0.13718125795E+02 -0.34170708320E+02 -0.25947815647E+02  0.46142318528E+02  0.10000006997E+02 0.  0.
        -12    1    1    2    0    0 -0.13718125795E+02  0.34170708320E+02  0.25947815647E+02  0.45045681472E+02  0.00000000000E+00 0.  1.
         11    1    3    3    0    0  0.17566033291E+01 -0.11581914178E+01 -0.35818481048E+01  0.41541182846E+01  0.51100000000E-03 0. -1.
        -11    1    3    3    0    0  0.77920878814E+01 -0.16003903135E+02 -0.89233895034E+01  0.19911515000E+02  0.51100000000E-03 0.  1.
         12    1    3    3    0    0  0.41694345849E+01 -0.17008613767E+02 -0.13442578038E+02  0.22076685244E+02  0.00000000000E+00 0. -1.
</event>
<event>
 7    1  0.3986981E-008  0.4614232E+02  0.7816164E-02  0.1320468E+00
        -11   -1    0    0    0    0  0.00000000000E+00  0.00000000000E+00  0.45593999997E+02  0.45594000000E+02  0.51100000000E-03 0.  1.
         11   -1    0    0    0    0 -0.00000000000E+00 -0.00000000000E+00 -0.45593999997E+02  0.45594000000E+02  0.51100000000E-03 0. -1.
    9900012    2    1    2    0    0 -0.22706388574E+02 -0.32698222966E+02 -0.21079838052E+02  0.46142318303E+02  0.10000004942E+02 0.  0.
        -12    1    1    2    0    0  0.22706388574E+02  0.32698222966E+02  0.21079838052E+02  0.45045681697E+02  0.00000000000E+00 0.  1.
         11    1    3    3    0    0 -0.13594217410E+02 -0.13391183866E+02 -0.72723501997E+01  0.20420911586E+02  0.51100000000E-03 0. -1.
        -11    1    3    3    0    0 -0.35221491209E+01 -0.41362063183E+01 -0.45795811227E+01  0.71053712541E+01  0.51100000000E-03 0.  1.
        -12    1    3    3    0    0 -0.55900220440E+01 -0.15170832782E+02 -0.92279067298E+01  0.18616035463E+02  0.00000000000E+00 0.  1.
</event>
<event>
 7    1  0.3986981E-008  0.4614232E+02  0.7816164E-02  0.1320468E+00
        -11   -1    0    0    0    0  0.00000000000E+00  0.00000000000E+00  0.45593999997E+02  0.45594000000E+02  0.51100000000E-03 0.  1.
         11   -1    0    0    0    0 -0.00000000000E+00 -0.00000000000E+00 -0.45593999997E+02  0.45594000000E+02  0.51100000000E-03 0. -1.
    9900012    2    1    2    0    0 -0.52583994311E+01  0.19675331214E+02 -0.40178902883E+02  0.46142315858E+02  0.99999826423E+01 0.  0.
        -12    1    1    2    0    0  0.52583994311E+01 -0.19675331214E+02  0.40178902883E+02  0.45045684142E+02  0.00000000000E+00 0.  1.
         11    1    3    3    0    0 -0.10402817270E+01  0.30542997384E+00 -0.23074499075E+01  0.25494703130E+01  0.51100000000E-03 0. -1.
        -11    1    3    3    0    0  0.53745368686E+00  0.63950272587E+01 -0.57171862863E+01  0.85948501673E+01  0.51100000000E-03 0.  1.
         12    1    3    3    0    0 -0.47555713910E+01  0.12974873981E+02 -0.32154266690E+02  0.34997995377E+02  0.00000000000E+00 0. -1.
</event>
<event>
 7    1  0.3986981E-008  0.4614232E+02  0.7816164E-02  0.1320468E+00
        -11   -1    0    0    0    0  0.00000000000E+00  0.00000000000E+00  0.45593999997E+02  0.45594000000E+02  0.51100000000E-03 0.  1.
         11   -1    0    0    0    0 -0.00000000000E+00 -0.00000000000E+00 -0.45593999997E+02  0.45594000000E+02  0.51100000000E-03 0. -1.
    9900012    2    1    2    0    0 -0.30911546912E+01 -0.42357644959E+02 -0.15012933504E+02  0.46142317674E+02  0.99999992099E+01 0.  0.
        -12    1    1    2    0    0  0.30911546912E+01  0.42357644959E+02  0.15012933504E+02  0.45045682326E+02  0.00000000000E+00 0.  1.
         11    1    3    3    0    0 -0.26361041616E+01 -0.30147876788E+02 -0.11102667328E+02  0.32235271707E+02  0.51100000000E-03 0. -1.
        -11    1    3    3    0    0 -0.13681487781E+01 -0.76566377440E+01 -0.48540841023E+01  0.91683185675E+01  0.51100000000E-03 0.  1.
        -12    1    3    3    0    0  0.91309824852E+00 -0.45531304266E+01  0.94381792579E+00  0.47387273998E+01  0.00000000000E+00 0.  1.
</event>
<event>
 7    1  0.3986981E-008  0.4614232E+02  0.7816164E-02  0.1320468E+00
        -11   -1    0    0    0    0  0.00000000000E+00  0.00000000000E+00  0.45593999997E+02  0.45594000000E+02  0.51100000000E-03 0.  1.
         11   -1    0    0    0    0 -0.00000000000E+00 -0.00000000000E+00 -0.45593999997E+02  0.45594000000E+02  0.51100000000E-03 0. -1.
    9900012    2    1    2    0    0  0.21813675316E+02  0.37851202481E+02 -0.10980146282E+02  0.46142316828E+02  0.99999914931E+01 0.  0.
        -12    1    1    2    0    0 -0.21813675316E+02 -0.37851202481E+02  0.10980146282E+02  0.45045683172E+02  0.00000000000E+00 0.  1.
         11    1    3    3    0    0 -0.16432459089E-01  0.53042103494E+01 -0.18015972182E+01  0.56018452544E+01  0.51100000000E-03 0. -1.
        -11    1    3    3    0    0  0.20507311727E+01  0.15339129182E+01 -0.14868257433E+01  0.29612561921E+01  0.51100000000E-03 0.  1.
        -12    1    3    3    0    0  0.19779376602E+02  0.31013079213E+02 -0.76917233208E+01  0.37579215382E+02  0.00000000000E+00 0.  1.
</event>
<event>
 7    1  0.3986981E-008  0.4614232E+02  0.7816164E-02  0.1320468E+00
        -11   -1    0    0    0    0  0.00000000000E+00  0.00000000000E+00  0.45593999997E+02  0.45594000000E+02  0.51100000000E-03 0. -1.
         11   -1    0    0    0    0 -0.00000000000E+00 -0.00000000000E+00 -0.45593999997E+02  0.45594000000E+02  0.51100000000E-03 0.  1.
    9900012    2    1    2    0    0 -0.12047358555E+02 -0.38676702537E+02 -0.19699936865E+02  0.46142315637E+02  0.99999806283E+01 0.  0.
        -12    1    1    2    0    0  0.12047358555E+02  0.38676702537E+02  0.19699936865E+02  0.45045684363E+02  0.00000000000E+00 0.  1.
         11    1    3    3    0    0 -0.43146762538E+01 -0.20145536910E+02 -0.93727488947E+01  0.22634211068E+02  0.51100000000E-03 0. -1.
        -11    1    3    3    0    0 -0.28126538072E+01 -0.17099414956E+01 -0.27291141083E+00  0.33029384277E+01  0.51100000000E-03 0.  1.
        -12    1    3    3    0    0 -0.49200284938E+01 -0.16821224131E+02 -0.10054276560E+02  0.20205166141E+02  0.00000000000E+00 0.  1.
</event>
<event>
 7    1  0.3986981E-008  0.4614232E+02  0.7816164E-02  0.1320468E+00
        -11   -1    0    0    0    0  0.00000000000E+00  0.00000000000E+00  0.45593999997E+02  0.45594000000E+02  0.51100000000E-03 0. -1.
         11   -1    0    0    0    0 -0.00000000000E+00 -0.00000000000E+00 -0.45593999997E+02  0.45594000000E+02  0.51100000000E-03 0.  1.
    9900012    2    1    2    0    0 -0.24993839777E+02 -0.37425859754E+02  0.19304121376E+01  0.46142317675E+02  0.99999992141E+01 0.  0.
        -12    1    1    2    0    0  0.24993839777E+02  0.37425859754E+02 -0.19304121376E+01  0.45045682325E+02  0.00000000000E+00 0.  1.
         11    1    3    3    0    0 -0.13869282396E+02 -0.17481852439E+02  0.52823034604E+00  0.22321540862E+02  0.51100000000E-03 0. -1.
        -11    1    3    3    0    0 -0.38733346755E+01 -0.10741561037E+02  0.34472824400E+01  0.11927598731E+02  0.51100000000E-03 0.  1.
        -12    1    3    3    0    0 -0.72512227055E+01 -0.92024462782E+01 -0.20451006485E+01  0.11893178082E+02  0.00000000000E+00 0.  1.
</event>
<event>
 7    1  0.3986981E-008  0.4614232E+02  0.7816164E-02  0.1320468E+00
        -11   -1    0    0    0    0  0.00000000000E+00  0.00000000000E+00  0.45593999997E+02  0.45594000000E+02  0.51100000000E-03 0.  1.
         11   -1    0    0    0    0 -0.00000000000E+00 -0.00000000000E+00 -0.45593999997E+02  0.45594000000E+02  0.51100000000E-03 0. -1.
    9900012    2    1    2    0    0  0.75069975175E+01  0.39948421036E+02 -0.19413451733E+02  0.46142318041E+02  0.10000002551E+02 0.  0.
        -12    1    1    2    0    0 -0.75069975175E+01 -0.39948421036E+02  0.19413451733E+02  0.45045681959E+02  0.00000000000E+00 0.  1.
         11    1    3    3    0    0 -0.45461943082E+00  0.44090031004E+00  0.65948458281E-01  0.63672707697E+00  0.51100000000E-03 0. -1.
        -11    1    3    3    0    0  0.22193084186E+00 -0.20857869410E+00 -0.95730932190E+00  0.10045893535E+01  0.51100000000E-03 0.  1.
         12    1    3    3    0    0  0.77396861065E+01  0.39716099420E+02 -0.18522090869E+02  0.44501001610E+02  0.00000000000E+00 0. -1.
</event>
<event>
 7    1  0.3986981E-008  0.4614232E+02  0.7816164E-02  0.1320468E+00
        -11   -1    0    0    0    0  0.00000000000E+00  0.00000000000E+00  0.45593999997E+02  0.45594000000E+02  0.51100000000E-03 0. -1.
         11   -1    0    0    0    0 -0.00000000000E+00 -0.00000000000E+00 -0.45593999997E+02  0.45594000000E+02  0.51100000000E-03 0.  1.
    9900012    2    1    2    0    0 -0.27692009321E+02 -0.35454332820E+02  0.22927339518E+01  0.46142315135E+02  0.99999760555E+01 0.  0.
        -12    1    1    2    0    0  0.27692009321E+02  0.35454332820E+02 -0.22927339518E+01  0.45045684865E+02  0.00000000000E+00 0.  1.
         11    1    3    3    0    0 -0.18221029996E+02 -0.20202395457E+02  0.15555577243E+01  0.27249999568E+02  0.51100000000E-03 0. -1.
        -11    1    3    3    0    0 -0.43938009565E+00 -0.36048269591E+01 -0.16022296404E+01  0.39692533750E+01  0.51100000000E-03 0.  1.
        -12    1    3    3    0    0 -0.90315992297E+01 -0.11647110403E+02  0.23394058679E+01  0.14923062193E+02  0.00000000000E+00 0.  1.
</event>
<event>
 7    1  0.3986981E-008  0.4614232E+02  0.7816164E-02  0.1320468E+00
        -11   -1    0    0    0    0  0.00000000000E+00  0.00000000000E+00  0.45593999997E+02  0.45594000000E+02  0.51100000000E-03 0.  1.
         11   -1    0    0    0    0 -0.00000000000E+00 -0.00000000000E+00 -0.45593999997E+02  0.45594000000E+02  0.51100000000E-03 0. -1.
    9900012    2    1    2    0    0  0.41307294234E+02 -0.48597638232E+01 -0.17297502872E+02  0.46142317998E+02  0.10000002164E+02 0.  0.
        -12    1    1    2    0    0 -0.41307294234E+02  0.48597638232E+01  0.17297502872E+02  0.45045682002E+02  0.00000000000E+00 0.  1.
         11    1    3    3    0    0  0.70975370009E+01 -0.21601510418E+01 -0.39544593173E+01  0.84070822974E+01  0.51100000000E-03 0.  1.
        -11    1    3    3    0    0  0.10193482195E+02 -0.19292799464E+01 -0.26429894266E+00  0.10377815501E+02  0.51100000000E-03 0. -1.
         12    1    3    3    0    0  0.24016275038E+02 -0.77033283500E+00 -0.13078744612E+02  0.27357420200E+02  0.00000000000E+00 0. -1.
</event>
<event>
 7    1  0.3986981E-008  0.4614232E+02  0.7816164E-02  0.1320468E+00
        -11   -1    0    0    0    0  0.00000000000E+00  0.00000000000E+00  0.45593999997E+02  0.45594000000E+02  0.51100000000E-03 0.  1.
         11   -1    0    0    0    0 -0.00000000000E+00 -0.00000000000E+00 -0.45593999997E+02  0.45594000000E+02  0.51100000000E-03 0. -1.
    9900012    2    1    2    0    0 -0.43466325622E+02 -0.10429063136E+02  0.55701551754E+01  0.46142318191E+02  0.10000003923E+02 0.  0.
        -12    1    1    2    0    0  0.43466325622E+02  0.10429063136E+02 -0.55701551754E+01  0.45045681809E+02  0.00000000000E+00 0.  1.
         11    1    3    3    0    0 -0.11880039494E+02 -0.17139847288E+01 -0.13057865889E+01  0.12073862717E+02  0.51100000000E-03 0.  1.
        -11    1    3    3    0    0 -0.17843639226E+02 -0.60103899355E+01  0.92798865700E+00  0.18851562567E+02  0.51100000000E-03 0. -1.
         12    1    3    3    0    0 -0.13742646901E+02 -0.27046884719E+01  0.59479531073E+01  0.15216892907E+02  0.00000000000E+00 0. -1.
</event>
<event>
 7    1  0.3986981E-008  0.4614232E+02  0.7816164E-02  0.1320468E+00
        -11   -1    0    0    0    0  0.00000000000E+00  0.00000000000E+00  0.45593999997E+02  0.45594000000E+02  0.51100000000E-03 0.  1.
         11   -1    0    0    0    0 -0.00000000000E+00 -0.00000000000E+00 -0.45593999997E+02  0.45594000000E+02  0.51100000000E-03 0. -1.
    9900012    2    1    2    0    0  0.76215642974E+00  0.27627038943E+02 -0.35570766307E+02  0.46142316757E+02  0.99999908426E+01 0.  0.
        -12    1    1    2    0    0 -0.76215642974E+00 -0.27627038943E+02  0.35570766307E+02  0.45045683243E+02  0.00000000000E+00 0.  1.
         11    1    3    3    0    0 -0.76953219163E+00  0.35291087675E+01 -0.11412028390E+02  0.11970011726E+02  0.51100000000E-03 0. -1.
        -11    1    3    3    0    0  0.91609968721E+00  0.14656057552E+02 -0.15392839606E+02  0.21273898867E+02  0.51100000000E-03 0.  1.
         12    1    3    3    0    0  0.61558893416E+00  0.94418726230E+01 -0.87658983111E+01  0.12898406164E+02  0.00000000000E+00 0. -1.
</event>
<event>
 7    1  0.3986981E-008  0.4614231E+02  0.7816164E-02  0.1320468E+00
        -11   -1    0    0    0    0  0.00000000000E+00  0.00000000000E+00  0.45593999997E+02  0.45594000000E+02  0.51100000000E-03 0. -1.
         11   -1    0    0    0    0 -0.00000000000E+00 -0.00000000000E+00 -0.45593999997E+02  0.45594000000E+02  0.51100000000E-03 0.  1.
    9900012    2    1    2    0    0 -0.31566506386E+02  0.31630969452E+02 -0.56702155189E+01  0.46142313215E+02  0.99999585453E+01 0.  0.
        -12    1    1    2    0    0  0.31566506386E+02 -0.31630969452E+02  0.56702155189E+01  0.45045686785E+02  0.00000000000E+00 0.  1.
         11    1    3    3    0    0 -0.15876662126E+02  0.11090589279E+02 -0.18817239764E+01  0.19457915002E+02  0.51100000000E-03 0. -1.
        -11    1    3    3    0    0 -0.87455921815E+01  0.96825499219E+01  0.62137090802E+00  0.13062283784E+02  0.51100000000E-03 0.  1.
         12    1    3    3    0    0 -0.69442520786E+01  0.10857830251E+02 -0.44098624505E+01  0.13622114429E+02  0.00000000000E+00 0. -1.
</event>
<event>
 7    1  0.3986981E-008  0.4614232E+02  0.7816164E-02  0.1320468E+00
        -11   -1    0    0    0    0  0.00000000000E+00  0.00000000000E+00  0.45593999997E+02  0.45594000000E+02  0.51100000000E-03 0.  1.
         11   -1    0    0    0    0 -0.00000000000E+00 -0.00000000000E+00 -0.45593999997E+02  0.45594000000E+02  0.51100000000E-03 0. -1.
    9900012    2    1    2    0    0 -0.16300416556E+02 -0.42657060252E+00 -0.41990807419E+02  0.46142318186E+02  0.10000003872E+02 0.  0.
        -12    1    1    2    0    0  0.16300416556E+02  0.42657060252E+00  0.41990807419E+02  0.45045681814E+02  0.00000000000E+00 0.  1.
         11    1    3    3    0    0 -0.59069419231E+01 -0.12779241394E+01 -0.13177281177E+02  0.14497096001E+02  0.51100000000E-03 0. -1.
        -11    1    3    3    0    0  0.12417884102E+01  0.24153651088E+00 -0.15802841652E+01  0.20242718803E+01  0.51100000000E-03 0.  1.
         12    1    3    3    0    0 -0.11635263043E+02  0.60981702603E+00 -0.27233242077E+02  0.29620950304E+02  0.00000000000E+00 0. -1.
</event>
<event>
 7    1  0.3986981E-008  0.4614232E+02  0.7816164E-02  0.1320468E+00
        -11   -1    0    0    0    0  0.00000000000E+00  0.00000000000E+00  0.45593999997E+02  0.45594000000E+02  0.51100000000E-03 0. -1.
         11   -1    0    0    0    0 -0.00000000000E+00 -0.00000000000E+00 -0.45593999997E+02  0.45594000000E+02  0.51100000000E-03 0.  1.
    9900012    2    1    2    0    0 -0.16281301409E+02  0.36218915844E+02  0.21265532160E+02  0.46142317648E+02  0.99999989728E+01 0.  0.
        -12    1    1    2    0    0  0.16281301409E+02 -0.36218915844E+02 -0.21265532160E+02  0.45045682352E+02  0.00000000000E+00 0.  1.
         11    1    3    3    0    0 -0.24157800486E+01  0.94941884692E+01  0.45787334962E+01  0.10813898863E+02  0.51100000000E-03 0. -1.
        -11    1    3    3    0    0 -0.11478244703E+01  0.21823084802E-01  0.19995801687E+01  0.23057099501E+01  0.51100000000E-03 0.  1.
        -12    1    3    3    0    0 -0.12717696890E+02  0.26702904290E+02  0.14687218495E+02  0.33022708835E+02  0.00000000000E+00 0.  1.
</event>
<event>
 7    1  0.3986981E-008  0.4614232E+02  0.7816164E-02  0.1320468E+00
        -11   -1    0    0    0    0  0.00000000000E+00  0.00000000000E+00  0.45593999997E+02  0.45594000000E+02  0.51100000000E-03 0. -1.
         11   -1    0    0    0    0 -0.00000000000E+00 -0.00000000000E+00 -0.45593999997E+02  0.45594000000E+02  0.51100000000E-03 0.  1.
    9900012    2    1    2    0    0 -0.19660875750E+02  0.16654443180E+02  0.36948517842E+02  0.46142317814E+02  0.10000000485E+02 0.  0.
        -12    1    1    2    0    0  0.19660875750E+02 -0.16654443180E+02 -0.36948517842E+02  0.45045682186E+02  0.00000000000E+00 0.  1.
         11    1    3    3    0    0 -0.23663259303E+01  0.13874151525E+00  0.11764126623E+01  0.26462604992E+01  0.51100000000E-03 0. -1.
        -11    1    3    3    0    0 -0.13382565060E+02  0.15849026794E+02  0.30812128404E+02  0.37143935642E+02  0.51100000000E-03 0.  1.
        -12    1    3    3    0    0 -0.39119847596E+01  0.66667487044E+00  0.49599767752E+01  0.63521216733E+01  0.00000000000E+00 0.  1.
</event>
<event>
 7    1  0.3986981E-008  0.4614232E+02  0.7816164E-02  0.1320468E+00
        -11   -1    0    0    0    0  0.00000000000E+00  0.00000000000E+00  0.45593999997E+02  0.45594000000E+02  0.51100000000E-03 0.  1.
         11   -1    0    0    0    0 -0.00000000000E+00 -0.00000000000E+00 -0.45593999997E+02  0.45594000000E+02  0.51100000000E-03 0. -1.
    9900012    2    1    2    0    0 -0.95352783972E+01  0.98852631288E+01 -0.42900739139E+02  0.46142318965E+02  0.10000010974E+02 0.  0.
        -12    1    1    2    0    0  0.95352783972E+01 -0.98852631288E+01  0.42900739139E+02  0.45045681035E+02  0.00000000000E+00 0.  1.
         11    1    3    3    0    0  0.24410892845E+00  0.47693468585E+00 -0.44471482414E+01  0.44793061522E+01  0.51100000000E-03 0. -1.
        -11    1    3    3    0    0  0.72648373182E+00  0.83239596842E+00 -0.26263001826E+00  0.11356216132E+01  0.51100000000E-03 0.  1.
        -12    1    3    3    0    0 -0.10505871057E+02  0.85759324746E+01 -0.38190960880E+02  0.40527391199E+02  0.00000000000E+00 0.  1.
</event>
<event>
 7    1  0.3986981E-008  0.4614232E+02  0.7816164E-02  0.1320468E+00
        -11   -1    0    0    0    0  0.00000000000E+00  0.00000000000E+00  0.45593999997E+02  0.45594000000E+02  0.51100000000E-03 0.  1.
         11   -1    0    0    0    0 -0.00000000000E+00 -0.00000000000E+00 -0.45593999997E+02  0.45594000000E+02  0.51100000000E-03 0. -1.
    9900012    2    1    2    0    0 -0.63164675521E+01 -0.35360187464E+02 -0.27182215322E+02  0.46142318191E+02  0.10000003922E+02 0.  0.
        -12    1    1    2    0    0  0.63164675521E+01  0.35360187464E+02  0.27182215322E+02  0.45045681809E+02  0.00000000000E+00 0.  1.
         11    1    3    3    0    0 -0.24529457496E+01 -0.69480973277E+01 -0.29718802785E+01  0.79451288206E+01  0.51100000000E-03 0. -1.
        -11    1    3    3    0    0 -0.50693478932E+00 -0.52071501091E+01 -0.12461198119E+01  0.53781232774E+01  0.51100000000E-03 0.  1.
         12    1    3    3    0    0 -0.33565870131E+01 -0.23204940027E+02 -0.22964215231E+02  0.32819066093E+02  0.00000000000E+00 0. -1.
</event>
<event>
 7    1  0.3986981E-008  0.4614232E+02  0.7816164E-02  0.1320468E+00
        -11   -1    0    0    0    0  0.00000000000E+00  0.00000000000E+00  0.45593999997E+02  0.45594000000E+02  0.51100000000E-03 0.  1.
         11   -1    0    0    0    0 -0.00000000000E+00 -0.00000000000E+00 -0.45593999997E+02  0.45594000000E+02  0.51100000000E-03 0. -1.
    9900012    2    1    2    0    0  0.47848567047E+00 -0.30575519621E+02 -0.33076004893E+02  0.46142318206E+02  0.10000004055E+02 0.  0.
        -12    1    1    2    0    0 -0.47848567047E+00  0.30575519621E+02  0.33076004893E+02  0.45045681794E+02  0.00000000000E+00 0.  1.
         11    1    3    3    0    0  0.33955399574E+01 -0.54009996246E+01 -0.64820095571E+01  0.90948851947E+01  0.51100000000E-03 0. -1.
        -11    1    3    3    0    0  0.63009963151E+00 -0.13524668781E+02 -0.12581380710E+02  0.18482554802E+02  0.51100000000E-03 0.  1.
        -12    1    3    3    0    0 -0.35471539184E+01 -0.11649851216E+02 -0.14012614625E+02  0.18564878209E+02  0.00000000000E+00 0.  1.
</event>
<event>
 7    1  0.3986981E-008  0.4614232E+02  0.7816164E-02  0.1320468E+00
        -11   -1    0    0    0    0  0.00000000000E+00  0.00000000000E+00  0.45593999997E+02  0.45594000000E+02  0.51100000000E-03 0.  1.
         11   -1    0    0    0    0 -0.00000000000E+00 -0.00000000000E+00 -0.45593999997E+02  0.45594000000E+02  0.51100000000E-03 0. -1.
    9900012    2    1    2    0    0  0.22452776817E+02 -0.25704865045E+02 -0.29398065118E+02  0.46142317560E+02  0.99999981680E+01 0.  0.
        -12    1    1    2    0    0 -0.22452776817E+02  0.25704865045E+02  0.29398065118E+02  0.45045682440E+02  0.00000000000E+00 0.  1.
         11    1    3    3    0    0  0.67006741135E+01 -0.11955206434E+02 -0.13057669018E+02  0.18929572497E+02  0.51100000000E-03 0. -1.
        -11    1    3    3    0    0  0.25431737513E+01 -0.73131922501E+00 -0.44658420263E+01  0.51909831249E+01  0.51100000000E-03 0.  1.
         12    1    3    3    0    0  0.13208928952E+02 -0.13018339386E+02 -0.11874554074E+02  0.22021761939E+02  0.00000000000E+00 0. -1.
</event>
<event>
 7    1  0.3986981E-008  0.4614232E+02  0.7816164E-02  0.1320468E+00
        -11   -1    0    0    0    0  0.00000000000E+00  0.00000000000E+00  0.45593999997E+02  0.45594000000E+02  0.51100000000E-03 0.  1.
         11   -1    0    0    0    0 -0.00000000000E+00 -0.00000000000E+00 -0.45593999997E+02  0.45594000000E+02  0.51100000000E-03 0. -1.
    9900012    2    1    2    0    0 -0.31597967789E+02 -0.15728479174E+02 -0.27987437621E+02  0.46142319961E+02  0.10000020064E+02 0.  0.
        -12    1    1    2    0    0  0.31597967789E+02  0.15728479174E+02  0.27987437621E+02  0.45045680039E+02  0.00000000000E+00 0.  1.
         11    1    3    3    0    0 -0.12165413171E+02 -0.67729585604E+01 -0.12380188545E+02  0.18631675017E+02  0.51100000000E-03 0. -1.
        -11    1    3    3    0    0 -0.11624090003E+02 -0.88108407600E+01 -0.12090952233E+02  0.18945751752E+02  0.51100000000E-03 0.  1.
        -12    1    3    3    0    0 -0.78084646141E+01 -0.14467985391E+00 -0.35162968442E+01  0.85648931918E+01  0.00000000000E+00 0.  1.
</event>
<event>
 7    1  0.3986981E-008  0.4614232E+02  0.7816164E-02  0.1320468E+00
        -11   -1    0    0    0    0  0.00000000000E+00  0.00000000000E+00  0.45593999997E+02  0.45594000000E+02  0.51100000000E-03 0. -1.
         11   -1    0    0    0    0 -0.00000000000E+00 -0.00000000000E+00 -0.45593999997E+02  0.45594000000E+02  0.51100000000E-03 0.  1.
    9900012    2    1    2    0    0  0.17330304474E+02  0.39591186725E+02  0.12700863847E+02  0.46142318055E+02  0.10000002679E+02 0.  0.
        -12    1    1    2    0    0 -0.17330304474E+02 -0.39591186725E+02 -0.12700863847E+02  0.45045681945E+02  0.00000000000E+00 0.  1.
         11    1    3    3    0    0  0.10948251102E+02  0.16070483896E+02  0.81400292932E+01  0.21080434816E+02  0.51100000000E-03 0. -1.
        -11    1    3    3    0    0  0.15466498496E+01  0.18825879541E+01  0.56167068539E-01  0.24370921531E+01  0.51100000000E-03 0.  1.
        -12    1    3    3    0    0  0.48354035221E+01  0.21638114874E+02  0.45046674852E+01  0.22624791086E+02  0.00000000000E+00 0.  1.
</event>
<event>
 7    1  0.3986981E-008  0.4614231E+02  0.7816164E-02  0.1320468E+00
        -11   -1    0    0    0    0  0.00000000000E+00  0.00000000000E+00  0.45593999997E+02  0.45594000000E+02  0.51100000000E-03 0.  1.
         11   -1    0    0    0    0 -0.00000000000E+00 -0.00000000000E+00 -0.45593999997E+02  0.45594000000E+02  0.51100000000E-03 0. -1.
    9900012    2    1    2    0    0 -0.22263347424E+01 -0.44622973496E+02  0.57399949561E+01  0.46142313502E+02  0.99999611630E+01 0.  0.
        -12    1    1    2    0    0  0.22263347424E+01  0.44622973496E+02 -0.57399949561E+01  0.45045686498E+02  0.00000000000E+00 0.  1.
         11    1    3    3    0    0 -0.31224427304E+00 -0.13566915368E+02  0.27635962899E+01  0.13849048841E+02  0.51100000000E-03 0. -1.
        -11    1    3    3    0    0 -0.38089650591E+01 -0.24437657042E+02  0.47487240393E+01  0.25184472931E+02  0.51100000000E-03 0.  1.
         12    1    3    3    0    0  0.18948745897E+01 -0.66184010848E+01 -0.17723253730E+01  0.71087917298E+01  0.00000000000E+00 0. -1.
</event>
<event>
 7    1  0.3986981E-008  0.4614232E+02  0.7816164E-02  0.1320468E+00
        -11   -1    0    0    0    0  0.00000000000E+00  0.00000000000E+00  0.45593999997E+02  0.45594000000E+02  0.51100000000E-03 0.  1.
         11   -1    0    0    0    0 -0.00000000000E+00 -0.00000000000E+00 -0.45593999997E+02  0.45594000000E+02  0.51100000000E-03 0. -1.
    9900012    2    1    2    0    0  0.23018182782E+02 -0.22329711122E+02 -0.31633222697E+02  0.46142317459E+02  0.99999972492E+01 0.  0.
        -12    1    1    2    0    0 -0.23018182782E+02  0.22329711122E+02  0.31633222697E+02  0.45045682541E+02  0.00000000000E+00 0.  1.
         11    1    3    3    0    0  0.16498027619E+02 -0.18249139687E+02 -0.28562763840E+02  0.37696783590E+02  0.51100000000E-03 0. -1.
        -11    1    3    3    0    0  0.13220594968E+01 -0.15894310753E+01 -0.11734309086E+01  0.23771985223E+01  0.51100000000E-03 0.  1.
         12    1    3    3    0    0  0.51980956660E+01 -0.24911403592E+01 -0.18970279486E+01  0.60683353467E+01  0.00000000000E+00 0. -1.
</event>
<event>
 7    1  0.3986981E-008  0.4614232E+02  0.7816164E-02  0.1320468E+00
        -11   -1    0    0    0    0  0.00000000000E+00  0.00000000000E+00  0.45593999997E+02  0.45594000000E+02  0.51100000000E-03 0.  1.
         11   -1    0    0    0    0 -0.00000000000E+00 -0.00000000000E+00 -0.45593999997E+02  0.45594000000E+02  0.51100000000E-03 0. -1.
    9900012    2    1    2    0    0  0.17482281816E+02  0.52544259575E+01 -0.41180995089E+02  0.46142317342E+02  0.99999961754E+01 0.  0.
        -12    1    1    2    0    0 -0.17482281816E+02 -0.52544259575E+01  0.41180995089E+02  0.45045682658E+02  0.00000000000E+00 0.  1.
         11    1    3    3    0    0  0.55608106218E+01  0.43675741355E+01 -0.13689643676E+02  0.15407941551E+02  0.51100000000E-03 0. -1.
        -11    1    3    3    0    0  0.43024822000E+01  0.36446616474E+01 -0.11267347530E+02  0.12599525079E+02  0.51100000000E-03 0.  1.
         12    1    3    3    0    0  0.76189889939E+01 -0.27578098254E+01 -0.16224003883E+02  0.18134850712E+02  0.00000000000E+00 0. -1.
</event>
<event>
 7    1  0.3986981E-008  0.4614232E+02  0.7816164E-02  0.1320468E+00
        -11   -1    0    0    0    0  0.00000000000E+00  0.00000000000E+00  0.45593999997E+02  0.45594000000E+02  0.51100000000E-03 0.  1.
         11   -1    0    0    0    0 -0.00000000000E+00 -0.00000000000E+00 -0.45593999997E+02  0.45594000000E+02  0.51100000000E-03 0. -1.
    9900012    2    1    2    0    0  0.23877760355E+01  0.39869312522E+02 -0.20829063333E+02  0.46142318357E+02  0.10000005430E+02 0.  0.
        -12    1    1    2    0    0 -0.23877760355E+01 -0.39869312522E+02  0.20829063333E+02  0.45045681643E+02  0.00000000000E+00 0.  1.
         11    1    3    3    0    0 -0.29656394883E+00  0.21758271099E+02 -0.63486261475E+01  0.22667495795E+02  0.51100000000E-03 0. -1.
        -11    1    3    3    0    0 -0.41696365938E+00  0.10030007276E+01 -0.96144725364E+00  0.14506034039E+01  0.51100000000E-03 0.  1.
        -12    1    3    3    0    0  0.31013036437E+01  0.17108040696E+02 -0.13518989932E+02  0.22024219158E+02  0.00000000000E+00 0.  1.
</event>
<event>
 7    1  0.3986981E-008  0.4614231E+02  0.7816164E-02  0.1320468E+00
        -11   -1    0    0    0    0  0.00000000000E+00  0.00000000000E+00  0.45593999997E+02  0.45594000000E+02  0.51100000000E-03 0.  1.
         11   -1    0    0    0    0 -0.00000000000E+00 -0.00000000000E+00 -0.45593999997E+02  0.45594000000E+02  0.51100000000E-03 0. -1.
    9900012    2    1    2    0    0 -0.29581577586E+02  0.29237420532E+02 -0.17297911440E+02  0.46142309506E+02  0.99999247247E+01 0.  0.
        -12    1    1    2    0    0  0.29581577586E+02 -0.29237420532E+02  0.17297911440E+02  0.45045690494E+02  0.00000000000E+00 0.  1.
         11    1    3    3    0    0 -0.20176232433E+01  0.41355088698E+01 -0.19051026782E+01  0.49802262639E+01  0.51100000000E-03 0. -1.
        -11    1    3    3    0    0 -0.17758818284E+02  0.10926014769E+02 -0.70299311273E+01  0.22003939590E+02  0.51100000000E-03 0.  1.
        -12    1    3    3    0    0 -0.98051360596E+01  0.14175896893E+02 -0.83628776348E+01  0.19158143652E+02  0.00000000000E+00 0.  1.
</event>
<event>
 7    1  0.3986981E-008  0.4614232E+02  0.7816164E-02  0.1320468E+00
        -11   -1    0    0    0    0  0.00000000000E+00  0.00000000000E+00  0.45593999997E+02  0.45594000000E+02  0.51100000000E-03 0. -1.
         11   -1    0    0    0    0 -0.00000000000E+00 -0.00000000000E+00 -0.45593999997E+02  0.45594000000E+02  0.51100000000E-03 0.  1.
    9900012    2    1    2    0    0  0.23062172597E+01  0.10207618193E+02  0.43813232308E+02  0.46142318381E+02  0.10000005655E+02 0.  0.
        -12    1    1    2    0    0 -0.23062172597E+01 -0.10207618193E+02 -0.43813232308E+02  0.45045681619E+02  0.00000000000E+00 0.  1.
         11    1    3    3    0    0  0.41886977596E+01  0.13517589181E+01  0.16646098277E+02  0.17218159867E+02  0.51100000000E-03 0. -1.
        -11    1    3    3    0    0  0.11146109941E+01  0.44076283015E+01  0.13318798499E+02  0.14073376945E+02  0.51100000000E-03 0.  1.
        -12    1    3    3    0    0 -0.29970914940E+01  0.44482309735E+01  0.13848335532E+02  0.14850781570E+02  0.00000000000E+00 0.  1.
</event>
<event>
 7    1  0.3986981E-008  0.4614232E+02  0.7816164E-02  0.1320468E+00
        -11   -1    0    0    0    0  0.00000000000E+00  0.00000000000E+00  0.45593999997E+02  0.45594000000E+02  0.51100000000E-03 0.  1.
         11   -1    0    0    0    0 -0.00000000000E+00 -0.00000000000E+00 -0.45593999997E+02  0.45594000000E+02  0.51100000000E-03 0. -1.
    9900012    2    1    2    0    0  0.10121956443E+02  0.26029514735E+02 -0.35342947239E+02  0.46142316976E+02  0.99999928380E+01 0.  0.
        -12    1    1    2    0    0 -0.10121956443E+02 -0.26029514735E+02  0.35342947239E+02  0.45045683024E+02  0.00000000000E+00 0.  1.
         11    1    3    3    0    0  0.67596827307E+01  0.12094199956E+02 -0.20996424214E+02  0.25155770973E+02  0.51100000000E-03 0. -1.
        -11    1    3    3    0    0 -0.78198935090E+00  0.60887094127E+01 -0.79664751685E+01  0.10057266852E+02  0.51100000000E-03 0.  1.
        -12    1    3    3    0    0  0.41442630636E+01  0.78466053662E+01 -0.63800478568E+01  0.10929279151E+02  0.00000000000E+00 0.  1.
</event>
<event>
 7    1  0.3986981E-008  0.4614231E+02  0.7816164E-02  0.1320468E+00
        -11   -1    0    0    0    0  0.00000000000E+00  0.00000000000E+00  0.45593999997E+02  0.45594000000E+02  0.51100000000E-03 0. -1.
         11   -1    0    0    0    0 -0.00000000000E+00 -0.00000000000E+00 -0.45593999997E+02  0.45594000000E+02  0.51100000000E-03 0.  1.
    9900012    2    1    2    0    0  0.26330321470E+02  0.35009344248E+02  0.10496378468E+02  0.46142312367E+02  0.99999508149E+01 0.  0.
        -12    1    1    2    0    0 -0.26330321470E+02 -0.35009344248E+02 -0.10496378468E+02  0.45045687633E+02  0.00000000000E+00 0.  1.
         11    1    3    3    0    0  0.25014251621E+01  0.20480996479E+01 -0.91898604429E-01  0.32342364824E+01  0.51100000000E-03 0.  1.
        -11    1    3    3    0    0  0.14117475559E+02  0.26023994662E+02  0.66921977681E+01  0.30353532340E+02  0.51100000000E-03 0. -1.
         12    1    3    3    0    0  0.97114207492E+01  0.69372499379E+01  0.38960793039E+01  0.12554543545E+02  0.00000000000E+00 0. -1.
</event>
<event>
 7    1  0.3986981E-008  0.4614232E+02  0.7816164E-02  0.1320468E+00
        -11   -1    0    0    0    0  0.00000000000E+00  0.00000000000E+00  0.45593999997E+02  0.45594000000E+02  0.51100000000E-03 0.  1.
         11   -1    0    0    0    0 -0.00000000000E+00 -0.00000000000E+00 -0.45593999997E+02  0.45594000000E+02  0.51100000000E-03 0. -1.
    9900012    2    1    2    0    0 -0.11563374500E+01  0.19920283460E+02 -0.40385129872E+02  0.46142317363E+02  0.99999963705E+01 0.  0.
        -12    1    1    2    0    0  0.11563374500E+01 -0.19920283460E+02  0.40385129872E+02  0.45045682637E+02  0.00000000000E+00 0.  1.
         11    1    3    3    0    0 -0.33109507726E+00  0.28034118444E+01 -0.11747998515E+02  0.12082392614E+02  0.51100000000E-03 0. -1.
        -11    1    3    3    0    0 -0.23490949679E+01  0.20808413153E+01 -0.69571644454E+01  0.76321874407E+01  0.51100000000E-03 0.  1.
         12    1    3    3    0    0  0.15238525951E+01  0.15036030300E+02 -0.21679966912E+02  0.26427737308E+02  0.00000000000E+00 0. -1.
</event>
<event>
 7    1  0.3986981E-008  0.4614231E+02  0.7816164E-02  0.1320468E+00
        -11   -1    0    0    0    0  0.00000000000E+00  0.00000000000E+00  0.45593999997E+02  0.45594000000E+02  0.51100000000E-03 0. -1.
         11   -1    0    0    0    0 -0.00000000000E+00 -0.00000000000E+00 -0.45593999997E+02  0.45594000000E+02  0.51100000000E-03 0.  1.
    9900012    2    1    2    0    0 -0.16061239161E+02  0.13021127135E+02  0.40020002489E+02  0.46142314808E+02  0.99999730671E+01 0.  0.
        -12    1    1    2    0    0  0.16061239161E+02 -0.13021127135E+02 -0.40020002489E+02  0.45045685192E+02  0.00000000000E+00 0.  1.
         11    1    3    3    0    0 -0.11634893726E+02  0.87684574184E+01  0.31050981269E+02  0.34298980095E+02  0.51100000000E-03 0. -1.
        -11    1    3    3    0    0 -0.34031635238E+00  0.18766345080E+00  0.45859665966E+01  0.46024040106E+01  0.51100000000E-03 0.  1.
         12    1    3    3    0    0 -0.40860290820E+01  0.40650062658E+01  0.43830546230E+01  0.72409307017E+01  0.00000000000E+00 0. -1.
</event>
<event>
 7    1  0.3986981E-008  0.4614232E+02  0.7816164E-02  0.1320468E+00
        -11   -1    0    0    0    0  0.00000000000E+00  0.00000000000E+00  0.45593999997E+02  0.45594000000E+02  0.51100000000E-03 0.  1.
         11   -1    0    0    0    0 -0.00000000000E+00 -0.00000000000E+00 -0.45593999997E+02  0.45594000000E+02  0.51100000000E-03 0. -1.
    9900012    2    1    2    0    0  0.62674096271E+00  0.17387032619E+02 -0.41550111335E+02  0.46142318082E+02  0.10000002925E+02 0.  0.
        -12    1    1    2    0    0 -0.62674096271E+00 -0.17387032619E+02  0.41550111335E+02  0.45045681918E+02  0.00000000000E+00 0.  1.
         11    1    3    3    0    0  0.31569906210E+01  0.65239893914E+01 -0.91575680645E+01  0.11678616377E+02  0.51100000000E-03 0. -1.
        -11    1    3    3    0    0 -0.57405235718E+00 -0.95305979095E-01 -0.10130402918E+01  0.11682766078E+01  0.51100000000E-03 0.  1.
         12    1    3    3    0    0 -0.19561973011E+01  0.10958349207E+02 -0.31379502979E+02  0.33295425097E+02  0.00000000000E+00 0. -1.
</event>
<event>
 7    1  0.3986981E-008  0.4614232E+02  0.7816164E-02  0.1320468E+00
        -11   -1    0    0    0    0  0.00000000000E+00  0.00000000000E+00  0.45593999997E+02  0.45594000000E+02  0.51100000000E-03 0.  1.
         11   -1    0    0    0    0 -0.00000000000E+00 -0.00000000000E+00 -0.45593999997E+02  0.45594000000E+02  0.51100000000E-03 0. -1.
    9900012    2    1    2    0    0  0.59443828791E+01 -0.28839120533E+02 -0.34089333384E+02  0.46142320834E+02  0.10000028023E+02 0.  0.
        -12    1    1    2    0    0 -0.59443828791E+01  0.28839120533E+02  0.34089333384E+02  0.45045679166E+02  0.00000000000E+00 0.  1.
         11    1    3    3    0    0 -0.84614396546E+00 -0.16224472203E+01 -0.15368054128E+01  0.23895743828E+01  0.51100000000E-03 0. -1.
        -11    1    3    3    0    0  0.38564338946E+00 -0.57933728310E+01 -0.25677522382E+01  0.63486409097E+01  0.51100000000E-03 0.  1.
         12    1    3    3    0    0  0.64048834551E+01 -0.21423300482E+02 -0.29984775733E+02  0.37404105542E+02  0.00000000000E+00 0. -1.
</event>
<event>
 7    1  0.3986981E-008  0.4614232E+02  0.7816164E-02  0.1320468E+00
        -11   -1    0    0    0    0  0.00000000000E+00  0.00000000000E+00  0.45593999997E+02  0.45594000000E+02  0.51100000000E-03 0.  1.
         11   -1    0    0    0    0 -0.00000000000E+00 -0.00000000000E+00 -0.45593999997E+02  0.45594000000E+02  0.51100000000E-03 0. -1.
    9900012    2    1    2    0    0 -0.19328243370E+02  0.29832548042E+02 -0.27668602630E+02  0.46142317788E+02  0.10000000245E+02 0.  0.
        -12    1    1    2    0    0  0.19328243370E+02 -0.29832548042E+02  0.27668602630E+02  0.45045682212E+02  0.00000000000E+00 0.  1.
         11    1    3    3    0    0 -0.98103745337E+01  0.21426663513E+02 -0.16459701857E+02  0.28744862902E+02  0.51100000000E-03 0. -1.
        -11    1    3    3    0    0 -0.97478397517E+00  0.24405219458E+01 -0.10050781321E+01  0.28136335011E+01  0.51100000000E-03 0.  1.
        -12    1    3    3    0    0 -0.85430848609E+01  0.59653625837E+01 -0.10203822641E+02  0.14583821385E+02  0.00000000000E+00 0.  1.
</event>
<event>
 7    1  0.3986981E-008  0.4614232E+02  0.7816164E-02  0.1320468E+00
        -11   -1    0    0    0    0  0.00000000000E+00  0.00000000000E+00  0.45593999997E+02  0.45594000000E+02  0.51100000000E-03 0.  1.
         11   -1    0    0    0    0 -0.00000000000E+00 -0.00000000000E+00 -0.45593999997E+02  0.45594000000E+02  0.51100000000E-03 0. -1.
    9900012    2    1    2    0    0  0.87213130268E+01  0.21024183975E+01 -0.44143312657E+02  0.46142317451E+02  0.99999971687E+01 0.  0.
        -12    1    1    2    0    0 -0.87213130268E+01 -0.21024183975E+01  0.44143312657E+02  0.45045682549E+02  0.00000000000E+00 0.  1.
         11    1    3    3    0    0  0.69136136240E+01  0.42398403860E+01 -0.32526650427E+02  0.33522489288E+02  0.51100000000E-03 0. -1.
        -11    1    3    3    0    0  0.30700646692E+01 -0.10137378203E+01 -0.72883525126E+01  0.79732705993E+01  0.51100000000E-03 0.  1.
         12    1    3    3    0    0 -0.12623652665E+01 -0.11236841683E+01 -0.43283097173E+01  0.46465575629E+01  0.00000000000E+00 0. -1.
</event>
<event>
 7    1  0.3986981E-008  0.4614232E+02  0.7816164E-02  0.1320468E+00
        -11   -1    0    0    0    0  0.00000000000E+00  0.00000000000E+00  0.45593999997E+02  0.45594000000E+02  0.51100000000E-03 0. -1.
         11   -1    0    0    0    0 -0.00000000000E+00 -0.00000000000E+00 -0.45593999997E+02  0.45594000000E+02  0.51100000000E-03 0.  1.
    9900012    2    1    2    0    0 -0.13269906406E+02  0.38826650366E+02  0.18588015172E+02  0.46142317602E+02  0.99999985520E+01 0.  0.
        -12    1    1    2    0    0  0.13269906406E+02 -0.38826650366E+02 -0.18588015172E+02  0.45045682398E+02  0.00000000000E+00 0.  1.
         11    1    3    3    0    0 -0.11085572682E+01  0.70010605855E+00  0.26212868503E+00  0.13370712093E+01  0.51100000000E-03 0. -1.
        -11    1    3    3    0    0  0.58493980155E+00  0.16855981367E+00  0.10127367789E+01  0.11816103531E+01  0.51100000000E-03 0.  1.
         12    1    3    3    0    0 -0.12746288939E+02  0.37957984493E+02  0.17313149708E+02  0.43623636040E+02  0.00000000000E+00 0. -1.
</event>
<event>
 7    1  0.3986981E-008  0.4614232E+02  0.7816164E-02  0.1320468E+00
        -11   -1    0    0    0    0  0.00000000000E+00  0.00000000000E+00  0.45593999997E+02  0.45594000000E+02  0.51100000000E-03 0.  1.
         11   -1    0    0    0    0 -0.00000000000E+00 -0.00000000000E+00 -0.45593999997E+02  0.45594000000E+02  0.51100000000E-03 0. -1.
    9900012    2    1    2    0    0 -0.15275251222E+02  0.11192421205E+02 -0.40871871925E+02  0.46142317554E+02  0.99999981124E+01 0.  0.
        -12    1    1    2    0    0  0.15275251222E+02 -0.11192421205E+02  0.40871871925E+02  0.45045682446E+02  0.00000000000E+00 0.  1.
         11    1    3    3    0    0 -0.90982072354E+01  0.90595647661E+01 -0.26959277356E+02  0.29860604891E+02  0.51100000000E-03 0. -1.
        -11    1    3    3    0    0 -0.81906922774E+00 -0.12083389059E+01 -0.59117488782E+01  0.60893129639E+01  0.51100000000E-03 0.  1.
         12    1    3    3    0    0 -0.53579747593E+01  0.33411953449E+01 -0.80008456914E+01  0.10192399699E+02  0.00000000000E+00 0. -1.
</event>
<event>
 7    1  0.3986981E-008  0.4614232E+02  0.7816164E-02  0.1320468E+00
        -11   -1    0    0    0    0  0.00000000000E+00  0.00000000000E+00  0.45593999997E+02  0.45594000000E+02  0.51100000000E-03 0. -1.
         11   -1    0    0    0    0 -0.00000000000E+00 -0.00000000000E+00 -0.45593999997E+02  0.45594000000E+02  0.51100000000E-03 0.  1.
    9900012    2    1    2    0    0  0.42478670978E+02 -0.12562473839E+02  0.81768122313E+01  0.46142317685E+02  0.99999993030E+01 0.  0.
        -12    1    1    2    0    0 -0.42478670978E+02  0.12562473839E+02 -0.81768122313E+01  0.45045682315E+02  0.00000000000E+00 0.  1.
         11    1    3    3    0    0  0.24581140817E+02 -0.34778701392E+01  0.72630198712E+01  0.25866571526E+02  0.51100000000E-03 0.  1.
        -11    1    3    3    0    0  0.17433300988E+02 -0.84283945082E+01  0.12507096360E+01  0.19404177184E+02  0.51100000000E-03 0. -1.
        -12    1    3    3    0    0  0.46422917246E+00 -0.65620919172E+00 -0.33691727592E+00  0.87156897528E+00  0.00000000000E+00 0.  1.
</event>
<event>
 7    1  0.3986981E-008  0.4614232E+02  0.7816164E-02  0.1320468E+00
        -11   -1    0    0    0    0  0.00000000000E+00  0.00000000000E+00  0.45593999997E+02  0.45594000000E+02  0.51100000000E-03 0. -1.
         11   -1    0    0    0    0 -0.00000000000E+00 -0.00000000000E+00 -0.45593999997E+02  0.45594000000E+02  0.51100000000E-03 0.  1.
    9900012    2    1    2    0    0  0.21156762347E+02 -0.22080703998E+02  0.33074874196E+02  0.46142318907E+02  0.10000010452E+02 0.  0.
        -12    1    1    2    0    0 -0.21156762347E+02  0.22080703998E+02 -0.33074874196E+02  0.45045681093E+02  0.00000000000E+00 0.  1.
         11    1    3    3    0    0  0.96708062047E+01 -0.67278768333E+01  0.94015376798E+01  0.15072416208E+02  0.51100000000E-03 0. -1.
        -11    1    3    3    0    0  0.45469997544E+01 -0.10038780575E+02  0.16067951923E+02  0.19484132043E+02  0.51100000000E-03 0.  1.
        -12    1    3    3    0    0  0.69389563875E+01 -0.53140465896E+01  0.76053845933E+01  0.11585770657E+02  0.00000000000E+00 0.  1.
</event>
<event>
 7    1  0.3986981E-008  0.4614232E+02  0.7816164E-02  0.1320468E+00
        -11   -1    0    0    0    0  0.00000000000E+00  0.00000000000E+00  0.45593999997E+02  0.45594000000E+02  0.51100000000E-03 0.  1.
         11   -1    0    0    0    0 -0.00000000000E+00 -0.00000000000E+00 -0.45593999997E+02  0.45594000000E+02  0.51100000000E-03 0. -1.
    9900012    2    1    2    0    0 -0.26533508380E+02  0.35356344069E+02 -0.86611416570E+01  0.46142317547E+02  0.99999980471E+01 0.  0.
        -12    1    1    2    0    0  0.26533508380E+02 -0.35356344069E+02  0.86611416570E+01  0.45045682453E+02  0.00000000000E+00 0.  1.
         11    1    3    3    0    0 -0.18451417411E+02  0.25050232008E+02 -0.37036046405E+01  0.31331862628E+02  0.51100000000E-03 0. -1.
        -11    1    3    3    0    0 -0.34396866216E+01  0.71826064819E+01 -0.11592596069E+01  0.80476805991E+01  0.51100000000E-03 0.  1.
         12    1    3    3    0    0 -0.46424043467E+01  0.31235055791E+01 -0.37982774096E+01  0.67627743199E+01  0.00000000000E+00 0. -1.
</event>
<event>
 7    1  0.3986981E-008  0.4614232E+02  0.7816164E-02  0.1320468E+00
        -11   -1    0    0    0    0  0.00000000000E+00  0.00000000000E+00  0.45593999997E+02  0.45594000000E+02  0.51100000000E-03 0.  1.
         11   -1    0    0    0    0 -0.00000000000E+00 -0.00000000000E+00 -0.45593999997E+02  0.45594000000E+02  0.51100000000E-03 0. -1.
    9900012    2    1    2    0    0 -0.21103007876E+02  0.18812670152E+02 -0.35069359298E+02  0.46142318062E+02  0.10000002745E+02 0.  0.
        -12    1    1    2    0    0  0.21103007876E+02 -0.18812670152E+02  0.35069359298E+02  0.45045681938E+02  0.00000000000E+00 0.  1.
         11    1    3    3    0    0 -0.11144881303E+02  0.15106064883E+02 -0.23020679391E+02  0.29704431578E+02  0.51100000000E-03 0. -1.
        -11    1    3    3    0    0 -0.39165164880E+01  0.43566470380E+00 -0.65243950801E+01  0.76221149661E+01  0.51100000000E-03 0.  1.
         12    1    3    3    0    0 -0.60416100850E+01  0.32709405647E+01 -0.55242848278E+01  0.88157715179E+01  0.00000000000E+00 0. -1.
</event>
<event>
 7    1  0.3986981E-008  0.4614232E+02  0.7816164E-02  0.1320468E+00
        -11   -1    0    0    0    0  0.00000000000E+00  0.00000000000E+00  0.45593999997E+02  0.45594000000E+02  0.51100000000E-03 0. -1.
         11   -1    0    0    0    0 -0.00000000000E+00 -0.00000000000E+00 -0.45593999997E+02  0.45594000000E+02  0.51100000000E-03 0.  1.
    9900012    2    1    2    0    0 -0.27885609194E+02  0.16399584055E+02  0.31345811196E+02  0.46142318333E+02  0.10000005217E+02 0.  0.
        -12    1    1    2    0    0  0.27885609194E+02 -0.16399584055E+02 -0.31345811196E+02  0.45045681667E+02  0.00000000000E+00 0.  1.
         11    1    3    3    0    0 -0.28779143197E+01 -0.81803548405E+00  0.36071736062E+01  0.46864991807E+01  0.51100000000E-03 0. -1.
        -11    1    3    3    0    0 -0.21543461089E+01  0.35942344424E+01  0.41795262000E+01  0.59184599265E+01  0.51100000000E-03 0.  1.
         12    1    3    3    0    0 -0.22853348765E+02  0.13623385097E+02  0.23559111390E+02  0.35537359226E+02  0.00000000000E+00 0. -1.
</event>
<event>
 7    1  0.3986981E-008  0.4614232E+02  0.7816164E-02  0.1320468E+00
        -11   -1    0    0    0    0  0.00000000000E+00  0.00000000000E+00  0.45593999997E+02  0.45594000000E+02  0.51100000000E-03 0.  1.
         11   -1    0    0    0    0 -0.00000000000E+00 -0.00000000000E+00 -0.45593999997E+02  0.45594000000E+02  0.51100000000E-03 0. -1.
    9900012    2    1    2    0    0 -0.53994086231E+01 -0.10812505622E+02 -0.43394119377E+02  0.46142317768E+02  0.10000000059E+02 0.  0.
        -12    1    1    2    0    0  0.53994086231E+01  0.10812505622E+02  0.43394119377E+02  0.45045682232E+02  0.00000000000E+00 0.  1.
         11    1    3    3    0    0 -0.56594947350E-01  0.21907480135E+00  0.13179154807E+00  0.26185115985E+00  0.51100000000E-03 0. -1.
        -11    1    3    3    0    0 -0.37725159696E+01 -0.71856786191E+01 -0.15010211806E+02  0.17063771936E+02  0.51100000000E-03 0.  1.
         12    1    3    3    0    0 -0.15702977061E+01 -0.38459018037E+01 -0.28515699119E+02  0.28816694672E+02  0.00000000000E+00 0. -1.
</event>
<event>
 7    1  0.3986981E-008  0.4614232E+02  0.7816164E-02  0.1320468E+00
        -11   -1    0    0    0    0  0.00000000000E+00  0.00000000000E+00  0.45593999997E+02  0.45594000000E+02  0.51100000000E-03 0. -1.
         11   -1    0    0    0    0 -0.00000000000E+00 -0.00000000000E+00 -0.45593999997E+02  0.45594000000E+02  0.51100000000E-03 0.  1.
    9900012    2    1    2    0    0 -0.42122402900E+02 -0.13568623381E+02 -0.84088729767E+01  0.46142317506E+02  0.99999976783E+01 0.  0.
        -12    1    1    2    0    0  0.42122402900E+02  0.13568623381E+02  0.84088729767E+01  0.45045682494E+02  0.00000000000E+00 0.  1.
         11    1    3    3    0    0 -0.20967399613E+02 -0.73300174521E+01 -0.58826018132E+01  0.22977510891E+02  0.51100000000E-03 0. -1.
        -11    1    3    3    0    0 -0.19888186034E+02 -0.52014537211E+01 -0.50456839268E+00  0.20563308442E+02  0.51100000000E-03 0.  1.
         12    1    3    3    0    0 -0.12668172530E+01 -0.10371522081E+01 -0.20217027708E+01  0.26014981739E+01  0.00000000000E+00 0. -1.
</event>
<event>
 7    1  0.3986981E-008  0.4614232E+02  0.7816164E-02  0.1320468E+00
        -11   -1    0    0    0    0  0.00000000000E+00  0.00000000000E+00  0.45593999997E+02  0.45594000000E+02  0.51100000000E-03 0.  1.
         11   -1    0    0    0    0 -0.00000000000E+00 -0.00000000000E+00 -0.45593999997E+02  0.45594000000E+02  0.51100000000E-03 0. -1.
    9900012    2    1    2    0    0 -0.18744804180E+02 -0.88517540477E+01 -0.39992401788E+02  0.46142318362E+02  0.10000005477E+02 0.  0.
        -12    1    1    2    0    0  0.18744804180E+02  0.88517540477E+01  0.39992401788E+02  0.45045681638E+02  0.00000000000E+00 0.  1.
         11    1    3    3    0    0 -0.17397791660E+02 -0.92338910712E+01 -0.38520515653E+02  0.43264050035E+02  0.51100000000E-03 0. -1.
        -11    1    3    3    0    0 -0.15099128794E+01  0.10120335555E+01 -0.11641585561E+01  0.21585444693E+01  0.51100000000E-03 0.  1.
         12    1    3    3    0    0  0.16290036007E+00 -0.62989653208E+00 -0.30772757938E+00  0.71972385784E+00  0.00000000000E+00 0. -1.
</event>
<event>
 7    1  0.3986981E-008  0.4614232E+02  0.7816164E-02  0.1320468E+00
        -11   -1    0    0    0    0  0.00000000000E+00  0.00000000000E+00  0.45593999997E+02  0.45594000000E+02  0.51100000000E-03 0.  1.
         11   -1    0    0    0    0 -0.00000000000E+00 -0.00000000000E+00 -0.45593999997E+02  0.45594000000E+02  0.51100000000E-03 0. -1.
    9900012    2    1    2    0    0 -0.20627391800E+02  0.12669393787E+02 -0.37988295481E+02  0.46142318465E+02  0.10000006415E+02 0.  0.
        -12    1    1    2    0    0  0.20627391800E+02 -0.12669393787E+02  0.37988295481E+02  0.45045681535E+02  0.00000000000E+00 0.  1.
         11    1    3    3    0    0 -0.14248993555E+01  0.22795304504E+01 -0.73724616629E+01  0.78472790494E+01  0.51100000000E-03 0.  1.
        -11    1    3    3    0    0 -0.51548892209E+00  0.25997819993E+01 -0.48467354118E+01  0.55240781752E+01  0.51100000000E-03 0. -1.
         12    1    3    3    0    0 -0.18687003522E+02  0.77900813376E+01 -0.25769098407E+02  0.32770961240E+02  0.00000000000E+00 0. -1.
</event>
<event>
 7    1  0.3986981E-008  0.4614232E+02  0.7816164E-02  0.1320468E+00
        -11   -1    0    0    0    0  0.00000000000E+00  0.00000000000E+00  0.45593999997E+02  0.45594000000E+02  0.51100000000E-03 0. -1.
         11   -1    0    0    0    0 -0.00000000000E+00 -0.00000000000E+00 -0.45593999997E+02  0.45594000000E+02  0.51100000000E-03 0.  1.
    9900012    2    1    2    0    0 -0.91621986293E+01  0.18163245506E+02  0.40190347962E+02  0.46142318295E+02  0.10000004864E+02 0.  0.
        -12    1    1    2    0    0  0.91621986293E+01 -0.18163245506E+02 -0.40190347962E+02  0.45045681705E+02  0.00000000000E+00 0.  1.
         11    1    3    3    0    0 -0.47429781730E+01  0.52345342323E+01  0.96342028884E+01  0.11946298847E+02  0.51100000000E-03 0. -1.
        -11    1    3    3    0    0 -0.19088983867E+01  0.23044796985E+00  0.16873736510E+01  0.25581691533E+01  0.51100000000E-03 0.  1.
         12    1    3    3    0    0 -0.25103220695E+01  0.12698263304E+02  0.28868771422E+02  0.31637850294E+02  0.00000000000E+00 0. -1.
</event>
<event>
 7    1  0.3986981E-008  0.4614232E+02  0.7816164E-02  0.1320468E+00
        -11   -1    0    0    0    0  0.00000000000E+00  0.00000000000E+00  0.45593999997E+02  0.45594000000E+02  0.51100000000E-03 0. -1.
         11   -1    0    0    0    0 -0.00000000000E+00 -0.00000000000E+00 -0.45593999997E+02  0.45594000000E+02  0.51100000000E-03 0.  1.
    9900012    2    1    2    0    0  0.25896131670E+02  0.29337487183E+02  0.22311787468E+02  0.46142315970E+02  0.99999836685E+01 0.  0.
        -12    1    1    2    0    0 -0.25896131670E+02 -0.29337487183E+02 -0.22311787468E+02  0.45045684030E+02  0.00000000000E+00 0.  1.
         11    1    3    3    0    0  0.11572891022E+01  0.17457269672E+01  0.21326509862E+00  0.21053177845E+01  0.51100000000E-03 0. -1.
        -11    1    3    3    0    0  0.72325396867E+01  0.13576013328E+02  0.11653073374E+02  0.19297976254E+02  0.51100000000E-03 0.  1.
        -12    1    3    3    0    0  0.17506302881E+02  0.14015746889E+02  0.10445448995E+02  0.24739021931E+02  0.00000000000E+00 0.  1.
</event>
<event>
 7    1  0.3986981E-008  0.4614232E+02  0.7816164E-02  0.1320468E+00
        -11   -1    0    0    0    0  0.00000000000E+00  0.00000000000E+00  0.45593999997E+02  0.45594000000E+02  0.51100000000E-03 0.  1.
         11   -1    0    0    0    0 -0.00000000000E+00 -0.00000000000E+00 -0.45593999997E+02  0.45594000000E+02  0.51100000000E-03 0. -1.
    9900012    2    1    2    0    0  0.33784259314E+02 -0.25226172024E+02 -0.15854888705E+02  0.46142318429E+02  0.10000006087E+02 0.  0.
        -12    1    1    2    0    0 -0.33784259314E+02  0.25226172024E+02  0.15854888705E+02  0.45045681571E+02  0.00000000000E+00 0.  1.
         11    1    3    3    0    0  0.36371719427E+01 -0.23193275014E+01 -0.44556006779E+00  0.43366835064E+01  0.51100000000E-03 0. -1.
        -11    1    3    3    0    0  0.24035957188E+02 -0.21454498870E+02 -0.10678003634E+02  0.33941751893E+02  0.51100000000E-03 0.  1.
        -12    1    3    3    0    0  0.61111301826E+01 -0.14523456533E+01 -0.47313250037E+01  0.78638830291E+01  0.00000000000E+00 0.  1.
</event>
<event>
 7    1  0.3986981E-008  0.4614231E+02  0.7816164E-02  0.1320468E+00
        -11   -1    0    0    0    0  0.00000000000E+00  0.00000000000E+00  0.45593999997E+02  0.45594000000E+02  0.51100000000E-03 0.  1.
         11   -1    0    0    0    0 -0.00000000000E+00 -0.00000000000E+00 -0.45593999997E+02  0.45594000000E+02  0.51100000000E-03 0. -1.
    9900012    2    1    2    0    0  0.44490927271E+02  0.61088301965E+01 -0.35147305086E+01  0.46142314898E+02  0.99999738873E+01 0.  0.
        -12    1    1    2    0    0 -0.44490927271E+02 -0.61088301965E+01  0.35147305086E+01  0.45045685102E+02  0.00000000000E+00 0.  1.
         11    1    3    3    0    0  0.19924493895E+01 -0.12473677929E+01  0.29994167723E+00  0.23697565806E+01  0.51100000000E-03 0. -1.
        -11    1    3    3    0    0  0.28201167727E+02  0.76318700268E+01 -0.38823775756E+01  0.29472430459E+02  0.51100000000E-03 0.  1.
         12    1    3    3    0    0  0.14297310154E+02 -0.27567203740E+00  0.67705389733E-01  0.14300127857E+02  0.00000000000E+00 0. -1.
</event>
<event>
 7    1  0.3986981E-008  0.4614232E+02  0.7816164E-02  0.1320468E+00
        -11   -1    0    0    0    0  0.00000000000E+00  0.00000000000E+00  0.45593999997E+02  0.45594000000E+02  0.51100000000E-03 0.  1.
         11   -1    0    0    0    0 -0.00000000000E+00 -0.00000000000E+00 -0.45593999997E+02  0.45594000000E+02  0.51100000000E-03 0. -1.
    9900012    2    1    2    0    0 -0.44702844475E+02 -0.55128864277E+01  0.61416031133E+00  0.46142318589E+02  0.10000007549E+02 0.  0.
        -12    1    1    2    0    0  0.44702844475E+02  0.55128864277E+01 -0.61416031133E+00  0.45045681411E+02  0.00000000000E+00 0.  1.
         11    1    3    3    0    0 -0.16611439059E+02 -0.23809107613E+01 -0.10985039736E+01  0.16817114940E+02  0.51100000000E-03 0. -1.
        -11    1    3    3    0    0 -0.27958036838E+02 -0.23259028860E+01  0.25313346476E+01  0.28168587175E+02  0.51100000000E-03 0.  1.
        -12    1    3    3    0    0 -0.13336857737E+00 -0.80607278035E+00 -0.81867036267E+00  0.11566164738E+01  0.00000000000E+00 0.  1.
</event>
<event>
 7    1  0.3986981E-008  0.4614232E+02  0.7816164E-02  0.1320468E+00
        -11   -1    0    0    0    0  0.00000000000E+00  0.00000000000E+00  0.45593999997E+02  0.45594000000E+02  0.51100000000E-03 0.  1.
         11   -1    0    0    0    0 -0.00000000000E+00 -0.00000000000E+00 -0.45593999997E+02  0.45594000000E+02  0.51100000000E-03 0. -1.
    9900012    2    1    2    0    0 -0.89009687644E+01  0.25706925255E+02 -0.35903203303E+02  0.46142320314E+02  0.10000023276E+02 0.  0.
        -12    1    1    2    0    0  0.89009687644E+01 -0.25706925255E+02  0.35903203303E+02  0.45045679686E+02  0.00000000000E+00 0.  1.
         11    1    3    3    0    0 -0.21203457070E+01  0.40371186268E+01 -0.28439196607E+01  0.53742043152E+01  0.51100000000E-03 0. -1.
        -11    1    3    3    0    0  0.12161742787E+01  0.72474849746E+01 -0.94992012986E+01  0.12009993501E+02  0.51100000000E-03 0.  1.
         12    1    3    3    0    0 -0.79967973362E+01  0.14422321653E+02 -0.23560082344E+02  0.28758122497E+02  0.00000000000E+00 0. -1.
</event>
<event>
 7    1  0.3986981E-008  0.4614232E+02  0.7816164E-02  0.1320468E+00
        -11   -1    0    0    0    0  0.00000000000E+00  0.00000000000E+00  0.45593999997E+02  0.45594000000E+02  0.51100000000E-03 0. -1.
         11   -1    0    0    0    0 -0.00000000000E+00 -0.00000000000E+00 -0.45593999997E+02  0.45594000000E+02  0.51100000000E-03 0.  1.
    9900012    2    1    2    0    0 -0.15694963886E+02 -0.13718953321E+02  0.39932091021E+02  0.46142318021E+02  0.10000002370E+02 0.  0.
        -12    1    1    2    0    0  0.15694963886E+02  0.13718953321E+02 -0.39932091021E+02  0.45045681979E+02  0.00000000000E+00 0.  1.
         11    1    3    3    0    0 -0.81774213330E+01 -0.95398517231E+01  0.16433458713E+02  0.20686651640E+02  0.51100000000E-03 0. -1.
        -11    1    3    3    0    0 -0.48304588434E+01 -0.43077222611E+01  0.11869415668E+02  0.13519350291E+02  0.51100000000E-03 0.  1.
        -12    1    3    3    0    0 -0.26870837099E+01  0.12862066322E+00  0.11629216640E+02  0.11936316090E+02  0.00000000000E+00 0.  1.
</event>
<event>
 7    1  0.3986981E-008  0.4614232E+02  0.7816164E-02  0.1320468E+00
        -11   -1    0    0    0    0  0.00000000000E+00  0.00000000000E+00  0.45593999997E+02  0.45594000000E+02  0.51100000000E-03 0.  1.
         11   -1    0    0    0    0 -0.00000000000E+00 -0.00000000000E+00 -0.45593999997E+02  0.45594000000E+02  0.51100000000E-03 0. -1.
    9900012    2    1    2    0    0 -0.41619428696E+02  0.98359150941E+01 -0.14148902038E+02  0.46142317637E+02  0.99999988641E+01 0.  0.
        -12    1    1    2    0    0  0.41619428696E+02 -0.98359150941E+01  0.14148902038E+02  0.45045682363E+02  0.00000000000E+00 0.  1.
         11    1    3    3    0    0 -0.13480563129E+02  0.12213057893E+01 -0.61839831368E+01  0.14881492458E+02  0.51100000000E-03 0. -1.
        -11    1    3    3    0    0 -0.10547285210E+02  0.61216136994E+01 -0.12186152292E+01  0.12255790588E+02  0.51100000000E-03 0.  1.
        -12    1    3    3    0    0 -0.17591580357E+02  0.24929956054E+01 -0.67463036721E+01  0.19005034590E+02  0.00000000000E+00 0.  1.
</event>
<event>
 7    1  0.3986981E-008  0.4614232E+02  0.7816164E-02  0.1320468E+00
        -11   -1    0    0    0    0  0.00000000000E+00  0.00000000000E+00  0.45593999997E+02  0.45594000000E+02  0.51100000000E-03 0.  1.
         11   -1    0    0    0    0 -0.00000000000E+00 -0.00000000000E+00 -0.45593999997E+02  0.45594000000E+02  0.51100000000E-03 0. -1.
    9900012    2    1    2    0    0  0.31185022004E+02  0.68385941774E+01 -0.31778001828E+02  0.46142319098E+02  0.10000012188E+02 0.  0.
        -12    1    1    2    0    0 -0.31185022004E+02 -0.68385941774E+01  0.31778001828E+02  0.45045680902E+02  0.00000000000E+00 0.  1.
         11    1    3    3    0    0  0.68610044687E+01  0.39391140208E+01 -0.91342988976E+01  0.12084097740E+02  0.51100000000E-03 0. -1.
        -11    1    3    3    0    0  0.15165711367E+02  0.64844759868E+00 -0.17999822160E+02  0.23545973830E+02  0.51100000000E-03 0.  1.
        -12    1    3    3    0    0  0.91583061691E+01  0.22510325579E+01 -0.46438807711E+01  0.10512247528E+02  0.00000000000E+00 0.  1.
</event>
<event>
 7    1  0.3986981E-008  0.4614232E+02  0.7816164E-02  0.1320468E+00
        -11   -1    0    0    0    0  0.00000000000E+00  0.00000000000E+00  0.45593999997E+02  0.45594000000E+02  0.51100000000E-03 0.  1.
         11   -1    0    0    0    0 -0.00000000000E+00 -0.00000000000E+00 -0.45593999997E+02  0.45594000000E+02  0.51100000000E-03 0. -1.
    9900012    2    1    2    0    0  0.40229972054E+02  0.10100972231E+02 -0.17567957580E+02  0.46142318464E+02  0.10000006410E+02 0.  0.
        -12    1    1    2    0    0 -0.40229972054E+02 -0.10100972231E+02  0.17567957580E+02  0.45045681536E+02  0.00000000000E+00 0.  1.
         11    1    3    3    0    0  0.23730246583E+02  0.71559908996E+01 -0.69967799774E+01  0.25754373201E+02  0.51100000000E-03 0. -1.
        -11    1    3    3    0    0  0.32670563279E+01  0.15877065759E+01 -0.44520898895E+01  0.57459180177E+01  0.51100000000E-03 0.  1.
        -12    1    3    3    0    0  0.13232669143E+02  0.13572747557E+01 -0.61190877129E+01  0.14642027245E+02  0.00000000000E+00 0.  1.
</event>
<event>
 7    1  0.3986981E-008  0.4614232E+02  0.7816164E-02  0.1320468E+00
        -11   -1    0    0    0    0  0.00000000000E+00  0.00000000000E+00  0.45593999997E+02  0.45594000000E+02  0.51100000000E-03 0. -1.
         11   -1    0    0    0    0 -0.00000000000E+00 -0.00000000000E+00 -0.45593999997E+02  0.45594000000E+02  0.51100000000E-03 0.  1.
    9900012    2    1    2    0    0 -0.15887057963E+02 -0.21075719271E+02  0.36503820868E+02  0.46142317727E+02  0.99999996866E+01 0.  0.
        -12    1    1    2    0    0  0.15887057963E+02  0.21075719271E+02 -0.36503820868E+02  0.45045682273E+02  0.00000000000E+00 0.  1.
         11    1    3    3    0    0 -0.18647129749E+01 -0.19811229084E+01  0.30076875926E+01  0.40556364942E+01  0.51100000000E-03 0. -1.
        -11    1    3    3    0    0 -0.11745925746E+02 -0.86181033372E+01  0.16709281800E+02  0.22168413910E+02  0.51100000000E-03 0.  1.
        -12    1    3    3    0    0 -0.22764192423E+01 -0.10476493025E+02  0.16786851475E+02  0.19918267322E+02  0.00000000000E+00 0.  1.
</event>
<event>
 7    1  0.3986981E-008  0.4614232E+02  0.7816164E-02  0.1320468E+00
        -11   -1    0    0    0    0  0.00000000000E+00  0.00000000000E+00  0.45593999997E+02  0.45594000000E+02  0.51100000000E-03 0. -1.
         11   -1    0    0    0    0 -0.00000000000E+00 -0.00000000000E+00 -0.45593999997E+02  0.45594000000E+02  0.51100000000E-03 0.  1.
    9900012    2    1    2    0    0 -0.17929729696E+02  0.41127528694E+02 -0.40205271519E+01  0.46142318053E+02  0.10000002664E+02 0.  0.
        -12    1    1    2    0    0  0.17929729696E+02 -0.41127528694E+02  0.40205271519E+01  0.45045681947E+02  0.00000000000E+00 0.  1.
         11    1    3    3    0    0 -0.67066253492E+01  0.24747723503E+02 -0.12609701148E+01  0.25671359295E+02  0.51100000000E-03 0. -1.
        -11    1    3    3    0    0 -0.97898227745E+01  0.12309501147E+02 -0.84636585779E+00  0.15750580430E+02  0.51100000000E-03 0.  1.
         12    1    3    3    0    0 -0.14332815722E+01  0.40703040437E+01 -0.19131911793E+01  0.47203783283E+01  0.00000000000E+00 0. -1.
</event>
<event>
 7    1  0.3986981E-008  0.4614232E+02  0.7816164E-02  0.1320468E+00
        -11   -1    0    0    0    0  0.00000000000E+00  0.00000000000E+00  0.45593999997E+02  0.45594000000E+02  0.51100000000E-03 0.  1.
         11   -1    0    0    0    0 -0.00000000000E+00 -0.00000000000E+00 -0.45593999997E+02  0.45594000000E+02  0.51100000000E-03 0. -1.
    9900012    2    1    2    0    0 -0.11134627868E+02 -0.77808478012E+01 -0.42948712503E+02  0.46142318343E+02  0.10000005306E+02 0.  0.
        -12    1    1    2    0    0  0.11134627868E+02  0.77808478012E+01  0.42948712503E+02  0.45045681657E+02  0.00000000000E+00 0.  1.
         11    1    3    3    0    0 -0.12289646599E+02 -0.61788185081E+01 -0.39397248870E+02  0.41729563027E+02  0.51100000000E-03 0. -1.
        -11    1    3    3    0    0  0.65190736362E+00 -0.12446748258E+00 -0.16499650185E+00  0.68388556916E+00  0.51100000000E-03 0.  1.
         12    1    3    3    0    0  0.50311136804E+00 -0.14775618105E+01 -0.33864671316E+01  0.37288697465E+01  0.00000000000E+00 0. -1.
</event>
<event>
 7    1  0.3986981E-008  0.4614231E+02  0.7816164E-02  0.1320468E+00
        -11   -1    0    0    0    0  0.00000000000E+00  0.00000000000E+00  0.45593999997E+02  0.45594000000E+02  0.51100000000E-03 0. -1.
         11   -1    0    0    0    0 -0.00000000000E+00 -0.00000000000E+00 -0.45593999997E+02  0.45594000000E+02  0.51100000000E-03 0.  1.
    9900012    2    1    2    0    0  0.14261406022E+02  0.16853313578E+02  0.39264388220E+02  0.46142311388E+02  0.99999418842E+01 0.  0.
        -12    1    1    2    0    0 -0.14261406022E+02 -0.16853313578E+02 -0.39264388220E+02  0.45045688612E+02  0.00000000000E+00 0.  1.
         11    1    3    3    0    0  0.20113542534E+01  0.58318123576E+01  0.71697969971E+01  0.94584126865E+01  0.51100000000E-03 0. -1.
        -11    1    3    3    0    0  0.10850038592E+02  0.10760505546E+02  0.23907996202E+02  0.28374356376E+02  0.51100000000E-03 0.  1.
        -12    1    3    3    0    0  0.14000131761E+01  0.26099567357E+00  0.81865950206E+01  0.83095423259E+01  0.00000000000E+00 0.  1.
</event>
<event>
 7    1  0.3986981E-008  0.4614232E+02  0.7816164E-02  0.1320468E+00
        -11   -1    0    0    0    0  0.00000000000E+00  0.00000000000E+00  0.45593999997E+02  0.45594000000E+02  0.51100000000E-03 0.  1.
         11   -1    0    0    0    0 -0.00000000000E+00 -0.00000000000E+00 -0.45593999997E+02  0.45594000000E+02  0.51100000000E-03 0. -1.
    9900012    2    1    2    0    0  0.13330774712E+02  0.13191285986E+02 -0.40955999131E+02  0.46142318240E+02  0.10000004365E+02 0.  0.
        -12    1    1    2    0    0 -0.13330774712E+02 -0.13191285986E+02  0.40955999131E+02  0.45045681760E+02  0.00000000000E+00 0.  1.
         11    1    3    3    0    0  0.10182020520E+02  0.12710892491E+02 -0.34824181127E+02  0.38444296342E+02  0.51100000000E-03 0. -1.
        -11    1    3    3    0    0  0.19067637673E+01  0.15625396541E+01 -0.53159755430E+01  0.58597674416E+01  0.51100000000E-03 0.  1.
        -12    1    3    3    0    0  0.12419904250E+01 -0.10821461587E+01 -0.81584246091E+00  0.18382544562E+01  0.00000000000E+00 0.  1.
</event>
<event>
 7    1  0.3986981E-008  0.4614232E+02  0.7816164E-02  0.1320468E+00
        -11   -1    0    0    0    0  0.00000000000E+00  0.00000000000E+00  0.45593999997E+02  0.45594000000E+02  0.51100000000E-03 0.  1.
         11   -1    0    0    0    0 -0.00000000000E+00 -0.00000000000E+00 -0.45593999997E+02  0.45594000000E+02  0.51100000000E-03 0. -1.
    9900012    2    1    2    0    0 -0.36019642989E+02  0.60855448392E+01  0.26356495255E+02  0.46142318973E+02  0.10000011051E+02 0.  0.
        -12    1    1    2    0    0  0.36019642989E+02 -0.60855448392E+01 -0.26356495255E+02  0.45045681027E+02  0.00000000000E+00 0.  1.
         11    1    3    3    0    0 -0.10483122435E+02  0.23304673776E+01  0.52559611685E+01  0.11956256197E+02  0.51100000000E-03 0. -1.
        -11    1    3    3    0    0 -0.52559762205E+01 -0.21736279189E+01  0.55902793149E+01  0.79750340087E+01  0.51100000000E-03 0.  1.
         12    1    3    3    0    0 -0.20280544334E+02  0.59287053805E+01  0.15510254771E+02  0.26211028768E+02  0.00000000000E+00 0. -1.
</event>
<event>
 7    1  0.3986981E-008  0.4614232E+02  0.7816164E-02  0.1320468E+00
        -11   -1    0    0    0    0  0.00000000000E+00  0.00000000000E+00  0.45593999997E+02  0.45594000000E+02  0.51100000000E-03 0. -1.
         11   -1    0    0    0    0 -0.00000000000E+00 -0.00000000000E+00 -0.45593999997E+02  0.45594000000E+02  0.51100000000E-03 0.  1.
    9900012    2    1    2    0    0  0.79478013847E+01  0.42003371799E+02  0.14200795148E+02  0.46142319051E+02  0.10000011764E+02 0.  0.
        -12    1    1    2    0    0 -0.79478013847E+01 -0.42003371799E+02 -0.14200795148E+02  0.45045680949E+02  0.00000000000E+00 0.  1.
         11    1    3    3    0    0  0.23801846385E+01  0.55763617401E+01  0.41543268362E+01  0.73497973369E+01  0.51100000000E-03 0. -1.
        -11    1    3    3    0    0  0.27994322062E+01  0.27098431648E+02  0.10120048459E+02  0.29061610409E+02  0.51100000000E-03 0.  1.
        -12    1    3    3    0    0  0.27681845399E+01  0.93285784102E+01 -0.73580146546E-01  0.97309113057E+01  0.00000000000E+00 0.  1.
</event>
<event>
 7    1  0.3986981E-008  0.4614232E+02  0.7816164E-02  0.1320468E+00
        -11   -1    0    0    0    0  0.00000000000E+00  0.00000000000E+00  0.45593999997E+02  0.45594000000E+02  0.51100000000E-03 0.  1.
         11   -1    0    0    0    0 -0.00000000000E+00 -0.00000000000E+00 -0.45593999997E+02  0.45594000000E+02  0.51100000000E-03 0. -1.
    9900012    2    1    2    0    0 -0.20862897926E+02  0.49636733032E+01 -0.39613318143E+02  0.46142317223E+02  0.99999950972E+01 0.  0.
        -12    1    1    2    0    0  0.20862897926E+02 -0.49636733032E+01  0.39613318143E+02  0.45045682777E+02  0.00000000000E+00 0.  1.
         11    1    3    3    0    0 -0.12294670672E+02 -0.16968385280E+00 -0.15340790463E+02  0.19660304469E+02  0.51100000000E-03 0. -1.
        -11    1    3    3    0    0 -0.37954061092E+00 -0.39160877492E+00 -0.50434445996E+00  0.74281363972E+00  0.51100000000E-03 0.  1.
        -12    1    3    3    0    0 -0.81886866431E+01  0.55249659309E+01 -0.23768183220E+02  0.25739199115E+02  0.00000000000E+00 0.  1.
</event>
<event>
 7    1  0.3986981E-008  0.4614232E+02  0.7816164E-02  0.1320468E+00
        -11   -1    0    0    0    0  0.00000000000E+00  0.00000000000E+00  0.45593999997E+02  0.45594000000E+02  0.51100000000E-03 0.  1.
         11   -1    0    0    0    0 -0.00000000000E+00 -0.00000000000E+00 -0.45593999997E+02  0.45594000000E+02  0.51100000000E-03 0. -1.
    9900012    2    1    2    0    0  0.28825282137E+02  0.22766519546E+02 -0.26074935144E+02  0.46142317130E+02  0.99999942428E+01 0.  0.
        -12    1    1    2    0    0 -0.28825282137E+02 -0.22766519546E+02  0.26074935144E+02  0.45045682870E+02  0.00000000000E+00 0.  1.
         11    1    3    3    0    0  0.18730223369E+02  0.13678482209E+02 -0.15201017160E+02  0.27730724224E+02  0.51100000000E-03 0. -1.
        -11    1    3    3    0    0  0.10347772437E+02  0.96840608486E+01 -0.10644951601E+02  0.17724909697E+02  0.51100000000E-03 0.  1.
        -12    1    3    3    0    0 -0.25271366959E+00 -0.59602351139E+00 -0.22896638215E+00  0.68668320868E+00  0.00000000000E+00 0.  1.
</event>
<event>
 7    1  0.3986981E-008  0.4614231E+02  0.7816164E-02  0.1320468E+00
        -11   -1    0    0    0    0  0.00000000000E+00  0.00000000000E+00  0.45593999997E+02  0.45594000000E+02  0.51100000000E-03 0.  1.
         11   -1    0    0    0    0 -0.00000000000E+00 -0.00000000000E+00 -0.45593999997E+02  0.45594000000E+02  0.51100000000E-03 0. -1.
    9900012    2    1    2    0    0  0.50862534400E+01 -0.73629855715E+01 -0.44147825577E+02  0.46142311708E+02  0.99999448002E+01 0.  0.
        -12    1    1    2    0    0 -0.50862534400E+01  0.73629855715E+01  0.44147825577E+02  0.45045688292E+02  0.00000000000E+00 0.  1.
         11    1    3    3    0    0 -0.11245100334E+01  0.35638740510E+00 -0.64677076303E+01  0.65744031706E+01  0.51100000000E-03 0. -1.
        -11    1    3    3    0    0 -0.12780130657E+01 -0.19135185924E+01 -0.44038444040E+01  0.49687741542E+01  0.51100000000E-03 0.  1.
         12    1    3    3    0    0  0.74887765391E+01 -0.58058543842E+01 -0.33276273542E+02  0.34599134383E+02  0.00000000000E+00 0. -1.
</event>
<event>
 7    1  0.3986981E-008  0.4614232E+02  0.7816164E-02  0.1320468E+00
        -11   -1    0    0    0    0  0.00000000000E+00  0.00000000000E+00  0.45593999997E+02  0.45594000000E+02  0.51100000000E-03 0.  1.
         11   -1    0    0    0    0 -0.00000000000E+00 -0.00000000000E+00 -0.45593999997E+02  0.45594000000E+02  0.51100000000E-03 0. -1.
    9900012    2    1    2    0    0 -0.39575268443E+02  0.99500490607E+01 -0.19076376771E+02  0.46142317639E+02  0.99999988902E+01 0.  0.
        -12    1    1    2    0    0  0.39575268443E+02 -0.99500490607E+01  0.19076376771E+02  0.45045682361E+02  0.00000000000E+00 0.  1.
         11    1    3    3    0    0 -0.22175555169E+02  0.54602964578E+01 -0.61208844408E+01  0.23643927572E+02  0.51100000000E-03 0. -1.
        -11    1    3    3    0    0 -0.86704048200E+01  0.42600645177E+01 -0.69249769748E+01  0.11886100109E+02  0.51100000000E-03 0.  1.
        -12    1    3    3    0    0 -0.87293084540E+01  0.22968808516E+00 -0.60305153559E+01  0.10612289958E+02  0.00000000000E+00 0.  1.
</event>
<event>
 7    1  0.3986981E-008  0.4614232E+02  0.7816164E-02  0.1320468E+00
        -11   -1    0    0    0    0  0.00000000000E+00  0.00000000000E+00  0.45593999997E+02  0.45594000000E+02  0.51100000000E-03 0.  1.
         11   -1    0    0    0    0 -0.00000000000E+00 -0.00000000000E+00 -0.45593999997E+02  0.45594000000E+02  0.51100000000E-03 0. -1.
    9900012    2    1    2    0    0  0.20114141478E+02 -0.15944943356E+02 -0.37017475427E+02  0.46142318820E+02  0.10000009652E+02 0.  0.
        -12    1    1    2    0    0 -0.20114141478E+02  0.15944943356E+02  0.37017475427E+02  0.45045681180E+02  0.00000000000E+00 0.  1.
         11    1    3    3    0    0  0.56222361803E+01 -0.30602099102E+01 -0.13347473102E+02  0.14803022085E+02  0.51100000000E-03 0. -1.
        -11    1    3    3    0    0  0.63249945795E+01 -0.67024491214E+01 -0.16284666417E+02  0.18711460158E+02  0.51100000000E-03 0.  1.
        -12    1    3    3    0    0  0.81669107184E+01 -0.61822843246E+01 -0.73853359071E+01  0.12627836577E+02  0.00000000000E+00 0.  1.
</event>
<event>
 7    1  0.3986981E-008  0.4614232E+02  0.7816164E-02  0.1320468E+00
        -11   -1    0    0    0    0  0.00000000000E+00  0.00000000000E+00  0.45593999997E+02  0.45594000000E+02  0.51100000000E-03 0.  1.
         11   -1    0    0    0    0 -0.00000000000E+00 -0.00000000000E+00 -0.45593999997E+02  0.45594000000E+02  0.51100000000E-03 0. -1.
    9900012    2    1    2    0    0  0.71618424795E+01 -0.13759476690E+02 -0.42290641220E+02  0.46142317396E+02  0.99999966708E+01 0.  0.
        -12    1    1    2    0    0 -0.71618424795E+01  0.13759476690E+02  0.42290641220E+02  0.45045682604E+02  0.00000000000E+00 0.  1.
         11    1    3    3    0    0  0.41622592479E+01 -0.68870564224E+00 -0.10428301899E+02  0.11249364349E+02  0.51100000000E-03 0. -1.
        -11    1    3    3    0    0 -0.19966529363E+00 -0.39637599496E+01 -0.52303329228E+01  0.65656410130E+01  0.51100000000E-03 0.  1.
        -12    1    3    3    0    0  0.31992485252E+01 -0.91070110987E+01 -0.26632006398E+02  0.28327312034E+02  0.00000000000E+00 0.  1.
</event>
<event>
 7    1  0.3986981E-008  0.4614232E+02  0.7816164E-02  0.1320468E+00
        -11   -1    0    0    0    0  0.00000000000E+00  0.00000000000E+00  0.45593999997E+02  0.45594000000E+02  0.51100000000E-03 0.  1.
         11   -1    0    0    0    0 -0.00000000000E+00 -0.00000000000E+00 -0.45593999997E+02  0.45594000000E+02  0.51100000000E-03 0. -1.
    9900012    2    1    2    0    0  0.13800065844E+02  0.11862097642E+02 -0.41206338552E+02  0.46142317469E+02  0.99999973397E+01 0.  0.
        -12    1    1    2    0    0 -0.13800065844E+02 -0.11862097642E+02  0.41206338552E+02  0.45045682531E+02  0.00000000000E+00 0.  1.
         11    1    3    3    0    0  0.41098757091E+01  0.53986063084E+01 -0.11833912165E+02  0.13641022902E+02  0.51100000000E-03 0. -1.
        -11    1    3    3    0    0  0.66890076107E+01  0.58325025536E+01 -0.27526585687E+02  0.28921857283E+02  0.51100000000E-03 0.  1.
        -12    1    3    3    0    0  0.30011825241E+01  0.63098878005E+00 -0.18458407003E+01  0.35794372846E+01  0.00000000000E+00 0.  1.
</event>
<event>
 7    1  0.3986981E-008  0.4614232E+02  0.7816164E-02  0.1320468E+00
        -11   -1    0    0    0    0  0.00000000000E+00  0.00000000000E+00  0.45593999997E+02  0.45594000000E+02  0.51100000000E-03 0.  1.
         11   -1    0    0    0    0 -0.00000000000E+00 -0.00000000000E+00 -0.45593999997E+02  0.45594000000E+02  0.51100000000E-03 0. -1.
    9900012    2    1    2    0    0  0.49477042754E+01 -0.15046218620E+02 -0.42169242516E+02  0.46142317780E+02  0.10000000169E+02 0.  0.
        -12    1    1    2    0    0 -0.49477042754E+01  0.15046218620E+02  0.42169242516E+02  0.45045682220E+02  0.00000000000E+00 0.  1.
         11    1    3    3    0    0  0.51430408209E+01 -0.11670781235E+02 -0.36049425997E+02  0.38238973816E+02  0.51100000000E-03 0. -1.
        -11    1    3    3    0    0  0.53369104008E+00 -0.35987923226E+01 -0.30721552979E+01  0.47617508064E+01  0.51100000000E-03 0.  1.
        -12    1    3    3    0    0 -0.72902758562E+00  0.22335493800E+00 -0.30476612204E+01  0.31415931569E+01  0.00000000000E+00 0.  1.
</event>
<event>
 7    1  0.3986981E-008  0.4614232E+02  0.7816164E-02  0.1320468E+00
        -11   -1    0    0    0    0  0.00000000000E+00  0.00000000000E+00  0.45593999997E+02  0.45594000000E+02  0.51100000000E-03 0. -1.
         11   -1    0    0    0    0 -0.00000000000E+00 -0.00000000000E+00 -0.45593999997E+02  0.45594000000E+02  0.51100000000E-03 0.  1.
    9900012    2    1    2    0    0 -0.23818752885E+00 -0.18805148812E+02  0.40931926863E+02  0.46142323272E+02  0.10000050256E+02 0.  0.
        -12    1    1    2    0    0  0.23818752885E+00  0.18805148812E+02 -0.40931926863E+02  0.45045676728E+02  0.00000000000E+00 0.  1.
         11    1    3    3    0    0  0.20402636095E+01 -0.23416733857E+01  0.55777317362E+01  0.63841367015E+01  0.51100000000E-03 0. -1.
        -11    1    3    3    0    0  0.16627844727E+01 -0.77717079489E+01  0.10757509328E+02  0.13374913228E+02  0.51100000000E-03 0.  1.
         12    1    3    3    0    0 -0.39412356111E+01 -0.86917674771E+01  0.24596685799E+02  0.26383273343E+02  0.00000000000E+00 0. -1.
</event>
<event>
 7    1  0.3986981E-008  0.4614232E+02  0.7816164E-02  0.1320468E+00
        -11   -1    0    0    0    0  0.00000000000E+00  0.00000000000E+00  0.45593999997E+02  0.45594000000E+02  0.51100000000E-03 0.  1.
         11   -1    0    0    0    0 -0.00000000000E+00 -0.00000000000E+00 -0.45593999997E+02  0.45594000000E+02  0.51100000000E-03 0. -1.
    9900012    2    1    2    0    0  0.29554297255E+02  0.33965013845E+02  0.14264956064E+01  0.46142317173E+02  0.99999946334E+01 0.  0.
        -12    1    1    2    0    0 -0.29554297255E+02 -0.33965013845E+02 -0.14264956064E+01  0.45045682827E+02  0.00000000000E+00 0.  1.
         11    1    3    3    0    0  0.29419379487E+01  0.77872199917E+01 -0.36625375831E+00  0.83324627914E+01  0.51100000000E-03 0. -1.
        -11    1    3    3    0    0  0.12113731851E+01  0.73343051143E-01  0.63160224060E+00  0.13681103202E+01  0.51100000000E-03 0.  1.
         12    1    3    3    0    0  0.25400986121E+02  0.26104450802E+02  0.11611471241E+01  0.36441744061E+02  0.00000000000E+00 0. -1.
</event>
<event>
 7    1  0.3986981E-008  0.4614232E+02  0.7816164E-02  0.1320468E+00
        -11   -1    0    0    0    0  0.00000000000E+00  0.00000000000E+00  0.45593999997E+02  0.45594000000E+02  0.51100000000E-03 0.  1.
         11   -1    0    0    0    0 -0.00000000000E+00 -0.00000000000E+00 -0.45593999997E+02  0.45594000000E+02  0.51100000000E-03 0. -1.
    9900012    2    1    2    0    0 -0.30228442671E+01  0.44786683220E+02 -0.37588617512E+01  0.46142316267E+02  0.99999863776E+01 0.  0.
        -12    1    1    2    0    0  0.30228442671E+01 -0.44786683220E+02  0.37588617512E+01  0.45045683733E+02  0.00000000000E+00 0.  1.
         11    1    3    3    0    0  0.13631302811E+01  0.19079280396E+02 -0.38354791218E+01  0.19508663843E+02  0.51100000000E-03 0. -1.
        -11    1    3    3    0    0  0.10476636662E+01  0.30390805733E+01 -0.77850663107E+00  0.33075191193E+01  0.51100000000E-03 0.  1.
         12    1    3    3    0    0 -0.54336382144E+01  0.22668322251E+02  0.85512400162E+00  0.23326133305E+02  0.00000000000E+00 0. -1.
</event>
<event>
 7    1  0.3986981E-008  0.4614232E+02  0.7816164E-02  0.1320468E+00
        -11   -1    0    0    0    0  0.00000000000E+00  0.00000000000E+00  0.45593999997E+02  0.45594000000E+02  0.51100000000E-03 0.  1.
         11   -1    0    0    0    0 -0.00000000000E+00 -0.00000000000E+00 -0.45593999997E+02  0.45594000000E+02  0.51100000000E-03 0. -1.
    9900012    2    1    2    0    0 -0.21922113164E+02  0.11875187601E+02 -0.37516852835E+02  0.46142319044E+02  0.10000011701E+02 0.  0.
        -12    1    1    2    0    0  0.21922113164E+02 -0.11875187601E+02  0.37516852835E+02  0.45045680956E+02  0.00000000000E+00 0.  1.
         11    1    3    3    0    0 -0.15563310348E+01 -0.29282925595E+00 -0.76362376046E+01  0.77987204257E+01  0.51100000000E-03 0. -1.
        -11    1    3    3    0    0 -0.66801358975E+01  0.58533700320E+01 -0.12563194725E+02  0.15385708248E+02  0.51100000000E-03 0.  1.
         12    1    3    3    0    0 -0.13685646231E+02  0.63146468252E+01 -0.17317420506E+02  0.22957890371E+02  0.00000000000E+00 0. -1.
</event>
<event>
 7    1  0.3986981E-008  0.4614232E+02  0.7816164E-02  0.1320468E+00
        -11   -1    0    0    0    0  0.00000000000E+00  0.00000000000E+00  0.45593999997E+02  0.45594000000E+02  0.51100000000E-03 0.  1.
         11   -1    0    0    0    0 -0.00000000000E+00 -0.00000000000E+00 -0.45593999997E+02  0.45594000000E+02  0.51100000000E-03 0. -1.
    9900012    2    1    2    0    0 -0.44734389846E+02 -0.72519583636E+00 -0.52366001768E+01  0.46142317352E+02  0.99999962654E+01 0.  0.
        -12    1    1    2    0    0  0.44734389846E+02  0.72519583636E+00  0.52366001768E+01  0.45045682648E+02  0.00000000000E+00 0.  1.
         11    1    3    3    0    0 -0.96757421279E+01 -0.17527986458E+01  0.26546054346E+01  0.10185245166E+02  0.51100000000E-03 0. -1.
        -11    1    3    3    0    0 -0.12057932602E+02  0.32114060959E+00 -0.30483235158E+01  0.12441428633E+02  0.51100000000E-03 0.  1.
         12    1    3    3    0    0 -0.23000715116E+02  0.70646219987E+00 -0.48428820957E+01  0.23515643552E+02  0.00000000000E+00 0. -1.
</event>
<event>
 7    1  0.3986981E-008  0.4614232E+02  0.7816164E-02  0.1320468E+00
        -11   -1    0    0    0    0  0.00000000000E+00  0.00000000000E+00  0.45593999997E+02  0.45594000000E+02  0.51100000000E-03 0.  1.
         11   -1    0    0    0    0 -0.00000000000E+00 -0.00000000000E+00 -0.45593999997E+02  0.45594000000E+02  0.51100000000E-03 0. -1.
    9900012    2    1    2    0    0 -0.18224870565E+02 -0.30089620638E+02 -0.28135074048E+02  0.46142316867E+02  0.99999918476E+01 0.  0.
        -12    1    1    2    0    0  0.18224870565E+02  0.30089620638E+02  0.28135074048E+02  0.45045683133E+02  0.00000000000E+00 0.  1.
         11    1    3    3    0    0 -0.13424918461E+02 -0.16600784069E+02 -0.15912319391E+02  0.26627361418E+02  0.51100000000E-03 0. -1.
        -11    1    3    3    0    0 -0.14253208851E+01 -0.54828529327E+00 -0.21564465468E+00  0.15422902666E+01  0.51100000000E-03 0.  1.
        -12    1    3    3    0    0 -0.33746312187E+01 -0.12940551275E+02 -0.12007110002E+02  0.17972665183E+02  0.00000000000E+00 0.  1.
</event>
<event>
 7    1  0.3986981E-008  0.4614232E+02  0.7816164E-02  0.1320468E+00
        -11   -1    0    0    0    0  0.00000000000E+00  0.00000000000E+00  0.45593999997E+02  0.45594000000E+02  0.51100000000E-03 0.  1.
         11   -1    0    0    0    0 -0.00000000000E+00 -0.00000000000E+00 -0.45593999997E+02  0.45594000000E+02  0.51100000000E-03 0. -1.
    9900012    2    1    2    0    0 -0.20016217441E+02  0.33097528390E+02 -0.23087186534E+02  0.46142317319E+02  0.99999959670E+01 0.  0.
        -12    1    1    2    0    0  0.20016217441E+02 -0.33097528390E+02  0.23087186534E+02  0.45045682681E+02  0.00000000000E+00 0.  1.
         11    1    3    3    0    0 -0.24983537282E+01  0.14713309923E+01 -0.10771590006E+01  0.30930337880E+01  0.51100000000E-03 0. -1.
        -11    1    3    3    0    0  0.53316599262E+00  0.91889953560E+00 -0.18142123073E+01  0.21023817182E+01  0.51100000000E-03 0.  1.
         12    1    3    3    0    0 -0.18051029705E+02  0.30707297862E+02 -0.20195815226E+02  0.40946901813E+02  0.00000000000E+00 0. -1.
</event>
<event>
 7    1  0.3986981E-008  0.4614232E+02  0.7816164E-02  0.1320468E+00
        -11   -1    0    0    0    0  0.00000000000E+00  0.00000000000E+00  0.45593999997E+02  0.45594000000E+02  0.51100000000E-03 0.  1.
         11   -1    0    0    0    0 -0.00000000000E+00 -0.00000000000E+00 -0.45593999997E+02  0.45594000000E+02  0.51100000000E-03 0. -1.
    9900012    2    1    2    0    0  0.37556897312E+02  0.78557369644E+01 -0.23598312915E+02  0.46142317505E+02  0.99999976648E+01 0.  0.
        -12    1    1    2    0    0 -0.37556897312E+02 -0.78557369644E+01  0.23598312915E+02  0.45045682495E+02  0.00000000000E+00 0.  1.
         11    1    3    3    0    0 -0.18280015064E+00 -0.35515132698E-01 -0.28983052981E+00  0.34449850051E+00  0.51100000000E-03 0. -1.
        -11    1    3    3    0    0  0.42284729102E+01  0.26392729597E+01 -0.57252816586E+01  0.75910865651E+01  0.51100000000E-03 0.  1.
         12    1    3    3    0    0  0.33511224553E+02  0.52519791374E+01 -0.17583200727E+02  0.38206732439E+02  0.00000000000E+00 0. -1.
</event>
<event>
 7    1  0.3986981E-008  0.4614232E+02  0.7816164E-02  0.1320468E+00
        -11   -1    0    0    0    0  0.00000000000E+00  0.00000000000E+00  0.45593999997E+02  0.45594000000E+02  0.51100000000E-03 0.  1.
         11   -1    0    0    0    0 -0.00000000000E+00 -0.00000000000E+00 -0.45593999997E+02  0.45594000000E+02  0.51100000000E-03 0. -1.
    9900012    2    1    2    0    0  0.37725045660E+02  0.42614717108E+01 -0.24244057400E+02  0.46142317295E+02  0.99999957478E+01 0.  0.
        -12    1    1    2    0    0 -0.37725045660E+02 -0.42614717108E+01  0.24244057400E+02  0.45045682705E+02  0.00000000000E+00 0.  1.
         11    1    3    3    0    0  0.24930231019E+02 -0.56775357951E+00 -0.15161028312E+02  0.29183823302E+02  0.51100000000E-03 0. -1.
        -11    1    3    3    0    0  0.12511293590E+02  0.45336273522E+01 -0.74003206790E+01  0.15226653955E+02  0.51100000000E-03 0.  1.
        -12    1    3    3    0    0  0.28352105153E+00  0.29559793815E+00 -0.16827084091E+01  0.17318400382E+01  0.00000000000E+00 0.  1.
</event>
<event>
 7    1  0.3986981E-008  0.4614232E+02  0.7816164E-02  0.1320468E+00
        -11   -1    0    0    0    0  0.00000000000E+00  0.00000000000E+00  0.45593999997E+02  0.45594000000E+02  0.51100000000E-03 0.  1.
         11   -1    0    0    0    0 -0.00000000000E+00 -0.00000000000E+00 -0.45593999997E+02  0.45594000000E+02  0.51100000000E-03 0. -1.
    9900012    2    1    2    0    0 -0.24556673870E+02 -0.10267962729E+02 -0.36340778340E+02  0.46142318070E+02  0.10000002817E+02 0.  0.
        -12    1    1    2    0    0  0.24556673870E+02  0.10267962729E+02  0.36340778340E+02  0.45045681930E+02  0.00000000000E+00 0.  1.
         11    1    3    3    0    0 -0.12549444526E+02 -0.27243894107E+01 -0.18276061246E+02  0.22336635165E+02  0.51100000000E-03 0. -1.
        -11    1    3    3    0    0 -0.24346302155E+01 -0.48497431769E+00 -0.74904871959E+01  0.78911357274E+01  0.51100000000E-03 0.  1.
        -12    1    3    3    0    0 -0.95725991287E+01 -0.70585990004E+01 -0.10574229899E+02  0.15914547178E+02  0.00000000000E+00 0.  1.
</event>
<event>
 7    1  0.3986981E-008  0.4614232E+02  0.7816164E-02  0.1320468E+00
        -11   -1    0    0    0    0  0.00000000000E+00  0.00000000000E+00  0.45593999997E+02  0.45594000000E+02  0.51100000000E-03 0.  1.
         11   -1    0    0    0    0 -0.00000000000E+00 -0.00000000000E+00 -0.45593999997E+02  0.45594000000E+02  0.51100000000E-03 0. -1.
    9900012    2    1    2    0    0  0.22179948916E+02  0.37456750601E+02 -0.11582539180E+02  0.46142317484E+02  0.99999974703E+01 0.  0.
        -12    1    1    2    0    0 -0.22179948916E+02 -0.37456750601E+02  0.11582539180E+02  0.45045682516E+02  0.00000000000E+00 0.  1.
         11    1    3    3    0    0  0.42604498005E+01  0.66665577751E+01 -0.41249153808E+01  0.89224073114E+01  0.51100000000E-03 0. -1.
        -11    1    3    3    0    0  0.10430013185E+02  0.10953590420E+02 -0.15220512529E+01  0.15201413040E+02  0.51100000000E-03 0.  1.
        -12    1    3    3    0    0  0.74894859302E+01  0.19836602406E+02 -0.59355725462E+01  0.22018497132E+02  0.00000000000E+00 0.  1.
</event>
<event>
 7    1  0.3986981E-008  0.4614232E+02  0.7816164E-02  0.1320468E+00
        -11   -1    0    0    0    0  0.00000000000E+00  0.00000000000E+00  0.45593999997E+02  0.45594000000E+02  0.51100000000E-03 0.  1.
         11   -1    0    0    0    0 -0.00000000000E+00 -0.00000000000E+00 -0.45593999997E+02  0.45594000000E+02  0.51100000000E-03 0. -1.
    9900012    2    1    2    0    0 -0.10359701977E+02 -0.27840404514E+02 -0.33862987934E+02  0.46142317628E+02  0.99999987822E+01 0.  0.
        -12    1    1    2    0    0  0.10359701977E+02  0.27840404514E+02  0.33862987934E+02  0.45045682372E+02  0.00000000000E+00 0.  1.
         11    1    3    3    0    0 -0.40512078529E+00 -0.45450485143E+01 -0.78362337198E+01  0.90679737549E+01  0.51100000000E-03 0.  1.
        -11    1    3    3    0    0 -0.82059230840E+01 -0.20820836357E+02 -0.25618504762E+02  0.34016939704E+02  0.51100000000E-03 0. -1.
        -12    1    3    3    0    0 -0.17486581077E+01 -0.24745196423E+01 -0.40824945237E+00  0.30574041691E+01  0.00000000000E+00 0.  1.
</event>
<event>
 7    1  0.3986981E-008  0.4614232E+02  0.7816164E-02  0.1320468E+00
        -11   -1    0    0    0    0  0.00000000000E+00  0.00000000000E+00  0.45593999997E+02  0.45594000000E+02  0.51100000000E-03 0.  1.
         11   -1    0    0    0    0 -0.00000000000E+00 -0.00000000000E+00 -0.45593999997E+02  0.45594000000E+02  0.51100000000E-03 0. -1.
    9900012    2    1    2    0    0 -0.14063052166E+02  0.27032478108E+02 -0.33175128993E+02  0.46142317714E+02  0.99999995742E+01 0.  0.
        -12    1    1    2    0    0  0.14063052166E+02 -0.27032478108E+02  0.33175128993E+02  0.45045682286E+02  0.00000000000E+00 0.  1.
         11    1    3    3    0    0 -0.53784405456E+01  0.17154855927E+02 -0.16119383446E+02  0.24146453725E+02  0.51100000000E-03 0. -1.
        -11    1    3    3    0    0 -0.45024870349E+01  0.44390530146E+01 -0.47549621268E+01  0.79112101637E+01  0.51100000000E-03 0.  1.
        -12    1    3    3    0    0 -0.41821245853E+01  0.54385691664E+01 -0.12300783420E+02  0.14084653825E+02  0.00000000000E+00 0.  1.
</event>
<event>
 7    1  0.3986981E-008  0.4614232E+02  0.7816164E-02  0.1320468E+00
        -11   -1    0    0    0    0  0.00000000000E+00  0.00000000000E+00  0.45593999997E+02  0.45594000000E+02  0.51100000000E-03 0.  1.
         11   -1    0    0    0    0 -0.00000000000E+00 -0.00000000000E+00 -0.45593999997E+02  0.45594000000E+02  0.51100000000E-03 0. -1.
    9900012    2    1    2    0    0 -0.26872121624E+02 -0.36028475055E+02  0.29919111053E+01  0.46142317993E+02  0.10000002117E+02 0.  0.
        -12    1    1    2    0    0  0.26872121624E+02  0.36028475055E+02 -0.29919111053E+01  0.45045682007E+02  0.00000000000E+00 0.  1.
         11    1    3    3    0    0 -0.10868804260E+02 -0.13816406753E+02  0.45160134385E+01  0.18149886480E+02  0.51100000000E-03 0. -1.
        -11    1    3    3    0    0 -0.71701356675E+01 -0.85536383327E+01  0.20258596152E+01  0.11343706698E+02  0.51100000000E-03 0.  1.
        -12    1    3    3    0    0 -0.88331816969E+01 -0.13658429970E+02 -0.35499619484E+01  0.16648724815E+02  0.00000000000E+00 0.  1.
</event>
<event>
 7    1  0.3986981E-008  0.4614232E+02  0.7816164E-02  0.1320468E+00
        -11   -1    0    0    0    0  0.00000000000E+00  0.00000000000E+00  0.45593999997E+02  0.45594000000E+02  0.51100000000E-03 0.  1.
         11   -1    0    0    0    0 -0.00000000000E+00 -0.00000000000E+00 -0.45593999997E+02  0.45594000000E+02  0.51100000000E-03 0. -1.
    9900012    2    1    2    0    0 -0.57214954849E+01  0.43658061065E+01 -0.44467040398E+02  0.46142318128E+02  0.10000003348E+02 0.  0.
        -12    1    1    2    0    0  0.57214954849E+01 -0.43658061065E+01  0.44467040398E+02  0.45045681872E+02  0.00000000000E+00 0.  1.
         11    1    3    3    0    0 -0.55720672026E+00 -0.26815046227E+01 -0.10671336615E+02  0.11017185293E+02  0.51100000000E-03 0. -1.
        -11    1    3    3    0    0 -0.15648305854E+01  0.41908630199E+01 -0.22314797587E+02  0.22758783342E+02  0.51100000000E-03 0.  1.
         12    1    3    3    0    0 -0.35994581792E+01  0.28564477093E+01 -0.11480906196E+02  0.12366349493E+02  0.00000000000E+00 0. -1.
</event>
<event>
 7    1  0.3986981E-008  0.4614232E+02  0.7816164E-02  0.1320468E+00
        -11   -1    0    0    0    0  0.00000000000E+00  0.00000000000E+00  0.45593999997E+02  0.45594000000E+02  0.51100000000E-03 0.  1.
         11   -1    0    0    0    0 -0.00000000000E+00 -0.00000000000E+00 -0.45593999997E+02  0.45594000000E+02  0.51100000000E-03 0. -1.
    9900012    2    1    2    0    0  0.11240332727E+02  0.12434306728E+02 -0.41810959776E+02  0.46142318509E+02  0.10000006815E+02 0.  0.
        -12    1    1    2    0    0 -0.11240332727E+02 -0.12434306728E+02  0.41810959776E+02  0.45045681491E+02  0.00000000000E+00 0.  1.
         11    1    3    3    0    0  0.19471720784E+01  0.51785798391E+01 -0.68613722740E+01  0.88140568409E+01  0.51100000000E-03 0. -1.
        -11    1    3    3    0    0 -0.31348597708E+00 -0.44367631886E+00 -0.37222629014E+01  0.37616968913E+01  0.51100000000E-03 0.  1.
         12    1    3    3    0    0  0.96066466259E+01  0.76994032077E+01 -0.31227324601E+02  0.33566564776E+02  0.00000000000E+00 0. -1.
</event>
<event>
 7    1  0.3986981E-008  0.4614232E+02  0.7816164E-02  0.1320468E+00
        -11   -1    0    0    0    0  0.00000000000E+00  0.00000000000E+00  0.45593999997E+02  0.45594000000E+02  0.51100000000E-03 0.  1.
         11   -1    0    0    0    0 -0.00000000000E+00 -0.00000000000E+00 -0.45593999997E+02  0.45594000000E+02  0.51100000000E-03 0. -1.
    9900012    2    1    2    0    0 -0.59321441593E+01 -0.16250919680E+02 -0.41591233741E+02  0.46142318200E+02  0.10000004000E+02 0.  0.
        -12    1    1    2    0    0  0.59321441593E+01  0.16250919680E+02  0.41591233741E+02  0.45045681800E+02  0.00000000000E+00 0.  1.
         11    1    3    3    0    0  0.21205080543E+01 -0.40161968136E+01 -0.76242875658E+01  0.88744663164E+01  0.51100000000E-03 0.  1.
        -11    1    3    3    0    0 -0.14804646500E+01 -0.33357846923E+01 -0.13704376863E+02  0.14182001994E+02  0.51100000000E-03 0. -1.
         12    1    3    3    0    0 -0.65721875636E+01 -0.88989381739E+01 -0.20262569312E+02  0.23085849890E+02  0.00000000000E+00 0. -1.
</event>
<event>
 7    1  0.5228813E-008  0.4614233E+02  0.7816164E-02  0.1320468E+00
        -11   -1    0    0    0    0  0.00000000000E+00  0.00000000000E+00  0.45593999997E+02  0.45594000000E+02  0.51100000000E-03 0.  1.
         11   -1    0    0    0    0 -0.00000000000E+00 -0.00000000000E+00 -0.45593999997E+02  0.45594000000E+02  0.51100000000E-03 0. -1.
    9900012    2    1    2    0    0 -0.44159738155E+02  0.17909259374E+01 -0.87076141916E+01  0.46142329459E+02  0.10000106668E+02 0.  0.
        -12    1    1    2    0    0  0.44159738155E+02 -0.17909259374E+01  0.87076141916E+01  0.45045670541E+02  0.00000000000E+00 0.  1.
         11    1    3    3    0    0 -0.13617414231E+02 -0.68247577817E+00 -0.23560341934E+01  0.13836568972E+02  0.51100000000E-03 0. -1.
        -11    1    3    3    0    0 -0.98703114974E+01 -0.28848306330E+01 -0.13376046918E+01  0.10369883481E+02  0.51100000000E-03 0.  1.
        -12    1    3    3    0    0 -0.20672012426E+02  0.53582323485E+01 -0.50139753064E+01  0.21935877006E+02  0.00000000000E+00 0.  1.
</event>
<event>
 7    1  0.3986981E-008  0.4614232E+02  0.7816164E-02  0.1320468E+00
        -11   -1    0    0    0    0  0.00000000000E+00  0.00000000000E+00  0.45593999997E+02  0.45594000000E+02  0.51100000000E-03 0. -1.
         11   -1    0    0    0    0 -0.00000000000E+00 -0.00000000000E+00 -0.45593999997E+02  0.45594000000E+02  0.51100000000E-03 0.  1.
    9900012    2    1    2    0    0  0.29060576678E+02  0.26495978433E+02  0.21967234158E+02  0.46142319114E+02  0.10000012336E+02 0.  0.
        -12    1    1    2    0    0 -0.29060576678E+02 -0.26495978433E+02 -0.21967234158E+02  0.45045680886E+02  0.00000000000E+00 0.  1.
         11    1    3    3    0    0  0.78067948428E+01  0.72897532734E+01  0.85801990081E+01  0.13700597205E+02  0.51100000000E-03 0. -1.
        -11    1    3    3    0    0  0.10137773835E+01  0.40342772112E+01  0.10087824392E+01  0.42802779665E+01  0.51100000000E-03 0.  1.
        -12    1    3    3    0    0  0.20240004451E+02  0.15171947949E+02  0.12378252710E+02  0.28161443942E+02  0.00000000000E+00 0.  1.
</event>
<event>
 7    1  0.3986981E-008  0.4614232E+02  0.7816164E-02  0.1320468E+00
        -11   -1    0    0    0    0  0.00000000000E+00  0.00000000000E+00  0.45593999997E+02  0.45594000000E+02  0.51100000000E-03 0.  1.
         11   -1    0    0    0    0 -0.00000000000E+00 -0.00000000000E+00 -0.45593999997E+02  0.45594000000E+02  0.51100000000E-03 0. -1.
    9900012    2    1    2    0    0  0.15104577935E+02  0.49079238186E+01 -0.42153026860E+02  0.46142315808E+02  0.99999821927E+01 0.  0.
        -12    1    1    2    0    0 -0.15104577935E+02 -0.49079238186E+01  0.42153026860E+02  0.45045684192E+02  0.00000000000E+00 0.  1.
         11    1    3    3    0    0  0.69371651502E+01  0.60608377180E+01 -0.18449222268E+02  0.20621149743E+02  0.51100000000E-03 0. -1.
        -11    1    3    3    0    0  0.83378210961E+00 -0.16112155138E+01 -0.25653204243E+01  0.31419861837E+01  0.51100000000E-03 0.  1.
         12    1    3    3    0    0  0.73336306750E+01  0.45830161437E+00 -0.21138484168E+02  0.22379179882E+02  0.00000000000E+00 0. -1.
</event>
<event>
 7    1  0.3986981E-008  0.4614232E+02  0.7816164E-02  0.1320468E+00
        -11   -1    0    0    0    0  0.00000000000E+00  0.00000000000E+00  0.45593999997E+02  0.45594000000E+02  0.51100000000E-03 0.  1.
         11   -1    0    0    0    0 -0.00000000000E+00 -0.00000000000E+00 -0.45593999997E+02  0.45594000000E+02  0.51100000000E-03 0. -1.
    9900012    2    1    2    0    0 -0.39330079299E+02 -0.19165263000E+02 -0.10721521629E+02  0.46142317970E+02  0.10000001906E+02 0.  0.
        -12    1    1    2    0    0  0.39330079299E+02  0.19165263000E+02  0.10721521629E+02  0.45045682030E+02  0.00000000000E+00 0.  1.
         11    1    3    3    0    0 -0.83952384091E+01 -0.58032493190E+01 -0.39700002147E+01  0.10950736622E+02  0.51100000000E-03 0. -1.
        -11    1    3    3    0    0 -0.95391809219E+01 -0.44576992110E+01 -0.57461174292E+01  0.11995204070E+02  0.51100000000E-03 0.  1.
         12    1    3    3    0    0 -0.21395659968E+02 -0.89043144703E+01 -0.10054039848E+01  0.23196377278E+02  0.00000000000E+00 0. -1.
</event>
<event>
 7    1  0.3986981E-008  0.4614232E+02  0.7816164E-02  0.1320468E+00
        -11   -1    0    0    0    0  0.00000000000E+00  0.00000000000E+00  0.45593999997E+02  0.45594000000E+02  0.51100000000E-03 0. -1.
         11   -1    0    0    0    0 -0.00000000000E+00 -0.00000000000E+00 -0.45593999997E+02  0.45594000000E+02  0.51100000000E-03 0.  1.
    9900012    2    1    2    0    0 -0.26759822644E+02  0.13499280677E+02  0.33627292523E+02  0.46142317752E+02  0.99999999181E+01 0.  0.
        -12    1    1    2    0    0  0.26759822644E+02 -0.13499280677E+02 -0.33627292523E+02  0.45045682248E+02  0.00000000000E+00 0.  1.
         11    1    3    3    0    0 -0.13297652522E+02  0.11997316361E+02  0.18984219774E+02  0.26099114222E+02  0.51100000000E-03 0. -1.
        -11    1    3    3    0    0 -0.21640679022E+01 -0.20861916791E+00  0.32250428038E+01  0.38894232465E+01  0.51100000000E-03 0.  1.
         12    1    3    3    0    0 -0.11298102221E+02  0.17105834837E+01  0.11418029945E+02  0.16153780284E+02  0.00000000000E+00 0. -1.
</event>
<event>
 7    1  0.3986981E-008  0.4614232E+02  0.7816164E-02  0.1320468E+00
        -11   -1    0    0    0    0  0.00000000000E+00  0.00000000000E+00  0.45593999997E+02  0.45594000000E+02  0.51100000000E-03 0.  1.
         11   -1    0    0    0    0 -0.00000000000E+00 -0.00000000000E+00 -0.45593999997E+02  0.45594000000E+02  0.51100000000E-03 0. -1.
    9900012    2    1    2    0    0 -0.31278206720E+02 -0.12653939312E+02 -0.29844010657E+02  0.46142319099E+02  0.10000012201E+02 0.  0.
        -12    1    1    2    0    0  0.31278206720E+02  0.12653939312E+02  0.29844010657E+02  0.45045680901E+02  0.00000000000E+00 0.  1.
         11    1    3    3    0    0 -0.14914326169E-01  0.56647577790E+00 -0.13030318342E+01  0.14209185290E+01  0.51100000000E-03 0. -1.
        -11    1    3    3    0    0 -0.16194083457E+02 -0.39950140450E+01 -0.12325189195E+02  0.20739304839E+02  0.51100000000E-03 0.  1.
         12    1    3    3    0    0 -0.15069208936E+02 -0.92254010451E+01 -0.16215789628E+02  0.23982095732E+02  0.00000000000E+00 0. -1.
</event>
<event>
 7    1  0.3986981E-008  0.4614232E+02  0.7816164E-02  0.1320468E+00
        -11   -1    0    0    0    0  0.00000000000E+00  0.00000000000E+00  0.45593999997E+02  0.45594000000E+02  0.51100000000E-03 0. -1.
         11   -1    0    0    0    0 -0.00000000000E+00 -0.00000000000E+00 -0.45593999997E+02  0.45594000000E+02  0.51100000000E-03 0.  1.
    9900012    2    1    2    0    0 -0.30656962005E+02  0.32986903881E+02 -0.10622186598E+01  0.46142318125E+02  0.10000003322E+02 0.  0.
        -12    1    1    2    0    0  0.30656962005E+02 -0.32986903881E+02  0.10622186598E+01  0.45045681875E+02  0.00000000000E+00 0.  1.
         11    1    3    3    0    0 -0.52032755383E+01  0.39340520537E+01  0.17052505880E+01  0.67423083375E+01  0.51100000000E-03 0.  1.
        -11    1    3    3    0    0  0.31042941527E-01  0.21102823755E+01  0.50435300853E+00  0.21699372311E+01  0.51100000000E-03 0. -1.
         12    1    3    3    0    0 -0.25484729409E+02  0.26942569452E+02 -0.32718222563E+01  0.37230072557E+02  0.00000000000E+00 0. -1.
</event>
<event>
 7    1  0.3986981E-008  0.4614232E+02  0.7816164E-02  0.1320468E+00
        -11   -1    0    0    0    0  0.00000000000E+00  0.00000000000E+00  0.45593999997E+02  0.45594000000E+02  0.51100000000E-03 0. -1.
         11   -1    0    0    0    0 -0.00000000000E+00 -0.00000000000E+00 -0.45593999997E+02  0.45594000000E+02  0.51100000000E-03 0.  1.
    9900012    2    1    2    0    0  0.79951498546E+01  0.44277618561E+02  0.21641410079E+01  0.46142318377E+02  0.10000005613E+02 0.  0.
        -12    1    1    2    0    0 -0.79951498546E+01 -0.44277618561E+02 -0.21641410079E+01  0.45045681623E+02  0.00000000000E+00 0.  1.
         11    1    3    3    0    0  0.27062981015E+01  0.89351648420E+01  0.26963057040E+01  0.97175760804E+01  0.51100000000E-03 0. -1.
        -11    1    3    3    0    0  0.11079133489E+01  0.10281781484E+02 -0.33297451656E+01  0.10864147717E+02  0.51100000000E-03 0.  1.
        -12    1    3    3    0    0  0.41809384041E+01  0.25060672234E+02  0.27975804695E+01  0.25560594580E+02  0.00000000000E+00 0.  1.
</event>
<event>
 7    1  0.3986981E-008  0.4614232E+02  0.7816164E-02  0.1320468E+00
        -11   -1    0    0    0    0  0.00000000000E+00  0.00000000000E+00  0.45593999997E+02  0.45594000000E+02  0.51100000000E-03 0.  1.
         11   -1    0    0    0    0 -0.00000000000E+00 -0.00000000000E+00 -0.45593999997E+02  0.45594000000E+02  0.51100000000E-03 0. -1.
    9900012    2    1    2    0    0 -0.14689926574E+02  0.28496086495E+02 -0.31643208094E+02  0.46142317557E+02  0.99999981372E+01 0.  0.
        -12    1    1    2    0    0  0.14689926574E+02 -0.28496086495E+02  0.31643208094E+02  0.45045682443E+02  0.00000000000E+00 0.  1.
         11    1    3    3    0    0 -0.79727665805E+01  0.84866617871E+01 -0.14172215799E+02  0.18342304548E+02  0.51100000000E-03 0. -1.
        -11    1    3    3    0    0 -0.58957118862E+00  0.85099576182E+01 -0.79655560473E+01  0.11671206290E+02  0.51100000000E-03 0.  1.
         12    1    3    3    0    0 -0.61275888045E+01  0.11499467090E+02 -0.95054362480E+01  0.16128806719E+02  0.00000000000E+00 0. -1.
</event>
<event>
 7    1  0.3986981E-008  0.4614232E+02  0.7816164E-02  0.1320468E+00
        -11   -1    0    0    0    0  0.00000000000E+00  0.00000000000E+00  0.45593999997E+02  0.45594000000E+02  0.51100000000E-03 0.  1.
         11   -1    0    0    0    0 -0.00000000000E+00 -0.00000000000E+00 -0.45593999997E+02  0.45594000000E+02  0.51100000000E-03 0. -1.
    9900012    2    1    2    0    0 -0.40218524359E+02  0.18347329238E+02  0.86579149415E+01  0.46142315602E+02  0.99999803119E+01 0.  0.
        -12    1    1    2    0    0  0.40218524359E+02 -0.18347329238E+02 -0.86579149415E+01  0.45045684398E+02  0.00000000000E+00 0.  1.
         11    1    3    3    0    0  0.36300297084E+00  0.55214107894E+00 -0.20873410080E+00  0.69296544925E+00  0.51100000000E-03 0. -1.
        -11    1    3    3    0    0 -0.71016235243E+00  0.82503581743E+00 -0.35770009544E+00  0.11458465370E+01  0.51100000000E-03 0.  1.
         12    1    3    3    0    0 -0.39871364977E+02  0.16970152342E+02  0.92243491378E+01  0.44303503616E+02  0.00000000000E+00 0. -1.
</event>
<event>
 7    1  0.3986981E-008  0.4614232E+02  0.7816164E-02  0.1320468E+00
        -11   -1    0    0    0    0  0.00000000000E+00  0.00000000000E+00  0.45593999997E+02  0.45594000000E+02  0.51100000000E-03 0.  1.
         11   -1    0    0    0    0 -0.00000000000E+00 -0.00000000000E+00 -0.45593999997E+02  0.45594000000E+02  0.51100000000E-03 0. -1.
    9900012    2    1    2    0    0 -0.29300334457E+02  0.25279111383E+02 -0.23055809797E+02  0.46142318332E+02  0.10000005203E+02 0.  0.
        -12    1    1    2    0    0  0.29300334457E+02 -0.25279111383E+02  0.23055809797E+02  0.45045681668E+02  0.00000000000E+00 0.  1.
         11    1    3    3    0    0 -0.74122804278E+01  0.64878098193E+01 -0.23361146154E+01  0.10123784329E+02  0.51100000000E-03 0. -1.
        -11    1    3    3    0    0 -0.16715660036E+02  0.17304595679E+02 -0.16397594592E+02  0.29116033911E+02  0.51100000000E-03 0.  1.
        -12    1    3    3    0    0 -0.51723939931E+01  0.14867058851E+01 -0.43221005887E+01  0.69025000911E+01  0.00000000000E+00 0.  1.
</event>
<event>
 7    1  0.3986981E-008  0.4614232E+02  0.7816164E-02  0.1320468E+00
        -11   -1    0    0    0    0  0.00000000000E+00  0.00000000000E+00  0.45593999997E+02  0.45594000000E+02  0.51100000000E-03 0.  1.
         11   -1    0    0    0    0 -0.00000000000E+00 -0.00000000000E+00 -0.45593999997E+02  0.45594000000E+02  0.51100000000E-03 0. -1.
    9900012    2    1    2    0    0 -0.15138490718E+02 -0.13927383811E+02 -0.40074523177E+02  0.46142319531E+02  0.10000016142E+02 0.  0.
        -12    1    1    2    0    0  0.15138490718E+02  0.13927383811E+02  0.40074523177E+02  0.45045680469E+02  0.00000000000E+00 0.  1.
         11    1    3    3    0    0 -0.11587097814E+01 -0.23973907004E+01 -0.30158955141E+01  0.40231475912E+01  0.51100000000E-03 0. -1.
        -11    1    3    3    0    0 -0.10189339585E+01 -0.34529639683E+01 -0.14047762643E+02  0.14501752381E+02  0.51100000000E-03 0.  1.
        -12    1    3    3    0    0 -0.12960846978E+02 -0.80770291421E+01 -0.23010865020E+02  0.27617419559E+02  0.00000000000E+00 0.  1.
</event>
<event>
 7    1  0.3986981E-008  0.4614232E+02  0.7816164E-02  0.1320468E+00
        -11   -1    0    0    0    0  0.00000000000E+00  0.00000000000E+00  0.45593999997E+02  0.45594000000E+02  0.51100000000E-03 0.  1.
         11   -1    0    0    0    0 -0.00000000000E+00 -0.00000000000E+00 -0.45593999997E+02  0.45594000000E+02  0.51100000000E-03 0. -1.
    9900012    2    1    2    0    0  0.80242249038E+01  0.42033253740E+02 -0.14068785262E+02  0.46142319585E+02  0.10000016635E+02 0.  0.
        -12    1    1    2    0    0 -0.80242249038E+01 -0.42033253740E+02  0.14068785262E+02  0.45045680415E+02  0.00000000000E+00 0.  1.
         11    1    3    3    0    0  0.60244677049E+01  0.17586450966E+02 -0.61023395319E+01  0.19565684674E+02  0.51100000000E-03 0. -1.
        -11    1    3    3    0    0  0.54124072600E+00  0.49226247469E+01  0.98412899432E+00  0.50491272573E+01  0.51100000000E-03 0.  1.
        -12    1    3    3    0    0  0.14585164729E+01  0.19524178027E+02 -0.89505747239E+01  0.21527507654E+02  0.00000000000E+00 0.  1.
</event>
<event>
 7    1  0.3986981E-008  0.4614232E+02  0.7816164E-02  0.1320468E+00
        -11   -1    0    0    0    0  0.00000000000E+00  0.00000000000E+00  0.45593999997E+02  0.45594000000E+02  0.51100000000E-03 0. -1.
         11   -1    0    0    0    0 -0.00000000000E+00 -0.00000000000E+00 -0.45593999997E+02  0.45594000000E+02  0.51100000000E-03 0.  1.
    9900012    2    1    2    0    0 -0.27661394447E+02  0.77571166687E+01  0.34695646871E+02  0.46142317481E+02  0.99999974481E+01 0.  0.
        -12    1    1    2    0    0  0.27661394447E+02 -0.77571166687E+01 -0.34695646871E+02  0.45045682519E+02  0.00000000000E+00 0.  1.
         11    1    3    3    0    0 -0.27767479538E+01  0.12554191840E+01  0.24119046202E+01  0.38863467015E+01  0.51100000000E-03 0. -1.
        -11    1    3    3    0    0 -0.14515851830E+02 -0.34275703880E+00  0.20586244143E+02  0.25191682852E+02  0.51100000000E-03 0.  1.
        -12    1    3    3    0    0 -0.10368794663E+02  0.68444545235E+01  0.11697498108E+02  0.17064287928E+02  0.00000000000E+00 0.  1.
</event>
<event>
 7    1  0.3986981E-008  0.4614232E+02  0.7816164E-02  0.1320468E+00
        -11   -1    0    0    0    0  0.00000000000E+00  0.00000000000E+00  0.45593999997E+02  0.45594000000E+02  0.51100000000E-03 0.  1.
         11   -1    0    0    0    0 -0.00000000000E+00 -0.00000000000E+00 -0.45593999997E+02  0.45594000000E+02  0.51100000000E-03 0. -1.
    9900012    2    1    2    0    0 -0.17525105901E+02 -0.40963565538E+02  0.66310184071E+01  0.46142318258E+02  0.10000004535E+02 0.  0.
        -12    1    1    2    0    0  0.17525105901E+02  0.40963565538E+02 -0.66310184071E+01  0.45045681742E+02  0.00000000000E+00 0.  1.
         11    1    3    3    0    0 -0.55436668217E+01 -0.16091335880E+02 -0.10129799068E+01  0.17049617614E+02  0.51100000000E-03 0. -1.
        -11    1    3    3    0    0 -0.15070267369E+01 -0.75398603156E+00  0.10446643483E+01  0.19826619438E+01  0.51100000000E-03 0.  1.
        -12    1    3    3    0    0 -0.10474412342E+02 -0.24118243626E+02  0.65993339656E+01  0.27110038700E+02  0.00000000000E+00 0.  1.
</event>
<event>
 7    1  0.3986981E-008  0.4614232E+02  0.7816164E-02  0.1320468E+00
        -11   -1    0    0    0    0  0.00000000000E+00  0.00000000000E+00  0.45593999997E+02  0.45594000000E+02  0.51100000000E-03 0.  1.
         11   -1    0    0    0    0 -0.00000000000E+00 -0.00000000000E+00 -0.45593999997E+02  0.45594000000E+02  0.51100000000E-03 0. -1.
    9900012    2    1    2    0    0 -0.44990222252E+02 -0.22322200644E+01 -0.10282112661E+00  0.46142317888E+02  0.10000001159E+02 0.  0.
        -12    1    1    2    0    0  0.44990222252E+02  0.22322200644E+01  0.10282112661E+00  0.45045682112E+02  0.00000000000E+00 0.  1.
         11    1    3    3    0    0 -0.30880990012E+02 -0.40748096567E+01 -0.38315160619E+01  0.31383437247E+02  0.51100000000E-03 0. -1.
        -11    1    3    3    0    0 -0.26987557033E+01  0.47770539512E+00  0.12012708652E+01  0.29924131973E+01  0.51100000000E-03 0.  1.
         12    1    3    3    0    0 -0.11410476537E+02  0.13648841972E+01  0.25274240700E+01  0.11766467444E+02  0.00000000000E+00 0. -1.
</event>
<event>
 7    1  0.3986981E-008  0.4614232E+02  0.7816164E-02  0.1320468E+00
        -11   -1    0    0    0    0  0.00000000000E+00  0.00000000000E+00  0.45593999997E+02  0.45594000000E+02  0.51100000000E-03 0.  1.
         11   -1    0    0    0    0 -0.00000000000E+00 -0.00000000000E+00 -0.45593999997E+02  0.45594000000E+02  0.51100000000E-03 0. -1.
    9900012    2    1    2    0    0  0.81879558864E+01  0.43886831523E+02 -0.60014105471E+01  0.46142317284E+02  0.99999956525E+01 0.  0.
        -12    1    1    2    0    0 -0.81879558864E+01 -0.43886831523E+02  0.60014105471E+01  0.45045682716E+02  0.00000000000E+00 0.  1.
         11    1    3    3    0    0  0.54723308029E+01  0.22335152279E+02  0.59337306304E+00  0.23003424171E+02  0.51100000000E-03 0. -1.
        -11    1    3    3    0    0  0.46532305570E+00  0.80330896478E+01 -0.28526946226E+00  0.80516106316E+01  0.51100000000E-03 0.  1.
        -12    1    3    3    0    0  0.22503020278E+01  0.13518589597E+02 -0.63095141479E+01  0.15087282482E+02  0.00000000000E+00 0.  1.
</event>
<event>
 7    1  0.3986981E-008  0.4614232E+02  0.7816164E-02  0.1320468E+00
        -11   -1    0    0    0    0  0.00000000000E+00  0.00000000000E+00  0.45593999997E+02  0.45594000000E+02  0.51100000000E-03 0. -1.
         11   -1    0    0    0    0 -0.00000000000E+00 -0.00000000000E+00 -0.45593999997E+02  0.45594000000E+02  0.51100000000E-03 0.  1.
    9900012    2    1    2    0    0  0.47415901530E+01  0.22961348046E+02  0.38463064764E+02  0.46142317273E+02  0.99999955487E+01 0.  0.
        -12    1    1    2    0    0 -0.47415901530E+01 -0.22961348046E+02 -0.38463064764E+02  0.45045682727E+02  0.00000000000E+00 0.  1.
         11    1    3    3    0    0  0.47892482173E+00  0.31340509366E+00  0.12109955351E+01  0.13394409971E+01  0.51100000000E-03 0. -1.
        -11    1    3    3    0    0  0.51223662483E+01  0.54075281992E+01  0.13814780193E+02  0.15694844671E+02  0.51100000000E-03 0.  1.
         12    1    3    3    0    0 -0.85970091705E+00  0.17240414753E+02  0.23437289036E+02  0.29108031604E+02  0.00000000000E+00 0. -1.
</event>
<event>
 7    1  0.3986981E-008  0.4614232E+02  0.7816164E-02  0.1320468E+00
        -11   -1    0    0    0    0  0.00000000000E+00  0.00000000000E+00  0.45593999997E+02  0.45594000000E+02  0.51100000000E-03 0.  1.
         11   -1    0    0    0    0 -0.00000000000E+00 -0.00000000000E+00 -0.45593999997E+02  0.45594000000E+02  0.51100000000E-03 0. -1.
    9900012    2    1    2    0    0  0.13402288748E+02  0.45000898894E+01 -0.42769630096E+02  0.46142318617E+02  0.10000007805E+02 0.  0.
        -12    1    1    2    0    0 -0.13402288748E+02 -0.45000898894E+01  0.42769630096E+02  0.45045681383E+02  0.00000000000E+00 0.  1.
         11    1    3    3    0    0  0.39645992425E+01  0.20733323269E+01 -0.84294397335E+01  0.95431760213E+01  0.51100000000E-03 0. -1.
        -11    1    3    3    0    0  0.36840961785E+01  0.83726615757E-01 -0.33105134264E+01  0.49536929867E+01  0.51100000000E-03 0.  1.
         12    1    3    3    0    0  0.57535933270E+01  0.23430309468E+01 -0.31029676936E+02  0.31645449609E+02  0.00000000000E+00 0. -1.
</event>
<event>
 7    1  0.3986981E-008  0.4614232E+02  0.7816164E-02  0.1320468E+00
        -11   -1    0    0    0    0  0.00000000000E+00  0.00000000000E+00  0.45593999997E+02  0.45594000000E+02  0.51100000000E-03 0.  1.
         11   -1    0    0    0    0 -0.00000000000E+00 -0.00000000000E+00 -0.45593999997E+02  0.45594000000E+02  0.51100000000E-03 0. -1.
    9900012    2    1    2    0    0 -0.11618330992E+02 -0.75314456028E+01 -0.42864965835E+02  0.46142316700E+02  0.99999903268E+01 0.  0.
        -12    1    1    2    0    0  0.11618330992E+02  0.75314456028E+01  0.42864965835E+02  0.45045683300E+02  0.00000000000E+00 0.  1.
         11    1    3    3    0    0 -0.62877735368E+01 -0.93696582263E+00 -0.16296294082E+02  0.17492375541E+02  0.51100000000E-03 0. -1.
        -11    1    3    3    0    0 -0.11964560900E+00  0.88405327709E+00 -0.47627799945E+00  0.10112894058E+01  0.51100000000E-03 0.  1.
         12    1    3    3    0    0 -0.52109118460E+01 -0.74785330573E+01 -0.26092393753E+02  0.27638651753E+02  0.00000000000E+00 0. -1.
</event>
<event>
 7    1  0.3986981E-008  0.4614232E+02  0.7816164E-02  0.1320468E+00
        -11   -1    0    0    0    0  0.00000000000E+00  0.00000000000E+00  0.45593999997E+02  0.45594000000E+02  0.51100000000E-03 0.  1.
         11   -1    0    0    0    0 -0.00000000000E+00 -0.00000000000E+00 -0.45593999997E+02  0.45594000000E+02  0.51100000000E-03 0. -1.
    9900012    2    1    2    0    0  0.85879257964E+01  0.44052851528E+02 -0.38350117780E+01  0.46142317492E+02  0.99999975463E+01 0.  0.
        -12    1    1    2    0    0 -0.85879257964E+01 -0.44052851528E+02  0.38350117780E+01  0.45045682508E+02  0.00000000000E+00 0.  1.
         11    1    3    3    0    0  0.72720193908E+01  0.13873752579E+02 -0.84983833361E+00  0.15687112612E+02  0.51100000000E-03 0. -1.
        -11    1    3    3    0    0  0.60127726274E+00  0.18006862599E+02 -0.57490479239E+00  0.18026068645E+02  0.51100000000E-03 0.  1.
         12    1    3    3    0    0  0.71462914290E+00  0.12172236350E+02 -0.24102686520E+01  0.12429136234E+02  0.00000000000E+00 0. -1.
</event>
<event>
 7    1  0.3986981E-008  0.4614232E+02  0.7816164E-02  0.1320468E+00
        -11   -1    0    0    0    0  0.00000000000E+00  0.00000000000E+00  0.45593999997E+02  0.45594000000E+02  0.51100000000E-03 0. -1.
         11   -1    0    0    0    0 -0.00000000000E+00 -0.00000000000E+00 -0.45593999997E+02  0.45594000000E+02  0.51100000000E-03 0.  1.
    9900012    2    1    2    0    0  0.24191196793E+02 -0.37460820430E+02  0.63707592507E+01  0.46142316045E+02  0.99999843509E+01 0.  0.
        -12    1    1    2    0    0 -0.24191196793E+02  0.37460820430E+02 -0.63707592507E+01  0.45045683955E+02  0.00000000000E+00 0.  1.
         11    1    3    3    0    0  0.43891272924E+01 -0.12884143691E+02  0.23238296123E+01  0.13808178061E+02  0.51100000000E-03 0. -1.
        -11    1    3    3    0    0  0.66903637106E+01 -0.52843421259E+01 -0.61101296118E+00  0.85474309230E+01  0.51100000000E-03 0.  1.
        -12    1    3    3    0    0  0.13111705790E+02 -0.19292334612E+02  0.46579425996E+01  0.23786707061E+02  0.00000000000E+00 0.  1.
</event>
<event>
 7    1  0.3986981E-008  0.4614232E+02  0.7816164E-02  0.1320468E+00
        -11   -1    0    0    0    0  0.00000000000E+00  0.00000000000E+00  0.45593999997E+02  0.45594000000E+02  0.51100000000E-03 0. -1.
         11   -1    0    0    0    0 -0.00000000000E+00 -0.00000000000E+00 -0.45593999997E+02  0.45594000000E+02  0.51100000000E-03 0.  1.
    9900012    2    1    2    0    0  0.44593725458E+02  0.60925558478E+01 -0.18422781346E+01  0.46142316792E+02  0.99999911613E+01 0.  0.
        -12    1    1    2    0    0 -0.44593725458E+02 -0.60925558478E+01  0.18422781346E+01  0.45045683208E+02  0.00000000000E+00 0.  1.
         11    1    3    3    0    0  0.15401719048E+02 -0.52029431504E+00 -0.81409331897E+00  0.15431992872E+02  0.51100000000E-03 0. -1.
        -11    1    3    3    0    0  0.20326512070E+02  0.64624571750E+01 -0.32350669321E+01  0.21573041139E+02  0.51100000000E-03 0.  1.
         12    1    3    3    0    0  0.88654943393E+01  0.15039298782E+00  0.22068821165E+01  0.91372827802E+01  0.00000000000E+00 0. -1.
</event>
<event>
 7    1  0.3986981E-008  0.4614232E+02  0.7816164E-02  0.1320468E+00
        -11   -1    0    0    0    0  0.00000000000E+00  0.00000000000E+00  0.45593999997E+02  0.45594000000E+02  0.51100000000E-03 0. -1.
         11   -1    0    0    0    0 -0.00000000000E+00 -0.00000000000E+00 -0.45593999997E+02  0.45594000000E+02  0.51100000000E-03 0.  1.
    9900012    2    1    2    0    0 -0.48949631141E+00  0.44826535109E+02  0.44108628288E+01  0.46142316884E+02  0.99999919983E+01 0.  0.
        -12    1    1    2    0    0  0.48949631141E+00 -0.44826535109E+02 -0.44108628288E+01  0.45045683116E+02  0.00000000000E+00 0.  1.
         11    1    3    3    0    0 -0.23318672928E+01  0.31649104843E+02  0.30340243479E+01  0.31879597652E+02  0.51100000000E-03 0. -1.
        -11    1    3    3    0    0  0.11533313230E+01  0.11174704895E+02 -0.75274194358E+00  0.11259255007E+02  0.51100000000E-03 0.  1.
        -12    1    3    3    0    0  0.68903965844E+00  0.20027253715E+01  0.21295804244E+01  0.30034642246E+01  0.00000000000E+00 0.  1.
</event>
<event>
 7    1  0.3986981E-008  0.4614232E+02  0.7816164E-02  0.1320468E+00
        -11   -1    0    0    0    0  0.00000000000E+00  0.00000000000E+00  0.45593999997E+02  0.45594000000E+02  0.51100000000E-03 0.  1.
         11   -1    0    0    0    0 -0.00000000000E+00 -0.00000000000E+00 -0.45593999997E+02  0.45594000000E+02  0.51100000000E-03 0. -1.
    9900012    2    1    2    0    0 -0.11651953707E+02  0.40302437111E+02 -0.16403026056E+02  0.46142315122E+02  0.99999759388E+01 0.  0.
        -12    1    1    2    0    0  0.11651953707E+02 -0.40302437111E+02  0.16403026056E+02  0.45045684878E+02  0.00000000000E+00 0.  1.
         11    1    3    3    0    0 -0.69857680966E+01  0.33994755764E+02 -0.15719833251E+02  0.38099311451E+02  0.51100000000E-03 0. -1.
        -11    1    3    3    0    0 -0.31986792866E+00  0.14304966056E+01  0.66514842447E-01  0.14673310860E+01  0.51100000000E-03 0.  1.
        -12    1    3    3    0    0 -0.43463176813E+01  0.48771847416E+01 -0.74970764718E+00  0.65756725851E+01  0.00000000000E+00 0.  1.
</event>
<event>
 7    1  0.3986981E-008  0.4614232E+02  0.7816164E-02  0.1320468E+00
        -11   -1    0    0    0    0  0.00000000000E+00  0.00000000000E+00  0.45593999997E+02  0.45594000000E+02  0.51100000000E-03 0.  1.
         11   -1    0    0    0    0 -0.00000000000E+00 -0.00000000000E+00 -0.45593999997E+02  0.45594000000E+02  0.51100000000E-03 0. -1.
    9900012    2    1    2    0    0 -0.15810362791E+02 -0.12612314493E+02 -0.40250160494E+02  0.46142317985E+02  0.10000002037E+02 0.  0.
        -12    1    1    2    0    0  0.15810362791E+02  0.12612314493E+02  0.40250160494E+02  0.45045682015E+02  0.00000000000E+00 0.  1.
         11    1    3    3    0    0 -0.75417448351E+01 -0.81326098809E+00 -0.10468019972E+02  0.12927441780E+02  0.51100000000E-03 0. -1.
        -11    1    3    3    0    0 -0.30931641105E+01 -0.48232731299E+01 -0.87438355440E+01  0.10454008235E+02  0.51100000000E-03 0.  1.
        -12    1    3    3    0    0 -0.51754538450E+01 -0.69757803755E+01 -0.21038304978E+02  0.22760867969E+02  0.00000000000E+00 0.  1.
</event>
<event>
 7    1  0.3986981E-008  0.4614233E+02  0.7816164E-02  0.1320468E+00
        -11   -1    0    0    0    0  0.00000000000E+00  0.00000000000E+00  0.45593999997E+02  0.45594000000E+02  0.51100000000E-03 0.  1.
         11   -1    0    0    0    0 -0.00000000000E+00 -0.00000000000E+00 -0.45593999997E+02  0.45594000000E+02  0.51100000000E-03 0. -1.
    9900012    2    1    2    0    0 -0.66081887287E+01  0.41488889738E+02 -0.16251655017E+02  0.46142329611E+02  0.10000108055E+02 0.  0.
        -12    1    1    2    0    0  0.66081887287E+01 -0.41488889738E+02  0.16251655017E+02  0.45045670389E+02  0.00000000000E+00 0.  1.
         11    1    3    3    0    0 -0.58430470941E+01  0.22579505949E+02 -0.96093113019E+01  0.25225268129E+02  0.51100000000E-03 0. -1.
        -11    1    3    3    0    0 -0.16872845031E+01  0.18813894405E+02 -0.65145881989E+01  0.19981226472E+02  0.51100000000E-03 0.  1.
         12    1    3    3    0    0  0.92214286855E+00  0.95489384608E-01 -0.12775551659E+00  0.93583500928E+00  0.00000000000E+00 0. -1.
</event>
<event>
 7    1  0.3986981E-008  0.4614232E+02  0.7816164E-02  0.1320468E+00
        -11   -1    0    0    0    0  0.00000000000E+00  0.00000000000E+00  0.45593999997E+02  0.45594000000E+02  0.51100000000E-03 0. -1.
         11   -1    0    0    0    0 -0.00000000000E+00 -0.00000000000E+00 -0.45593999997E+02  0.45594000000E+02  0.51100000000E-03 0.  1.
    9900012    2    1    2    0    0 -0.42662547011E+02  0.10084738408E+02  0.10359462792E+02  0.46142319457E+02  0.10000015463E+02 0.  0.
        -12    1    1    2    0    0  0.42662547011E+02 -0.10084738408E+02 -0.10359462792E+02  0.45045680543E+02  0.00000000000E+00 0.  1.
         11    1    3    3    0    0 -0.10494327536E+02  0.24920664945E+00  0.59348360652E+01  0.12058826384E+02  0.51100000000E-03 0. -1.
        -11    1    3    3    0    0 -0.64860767332E+00 -0.65042840696E-01  0.48284048276E+00  0.81120754307E+00  0.51100000000E-03 0.  1.
        -12    1    3    3    0    0 -0.31519611802E+02  0.99005745992E+01  0.39417862440E+01  0.33272285530E+02  0.00000000000E+00 0.  1.
</event>
<event>
 7    1  0.3986981E-008  0.4614232E+02  0.7816164E-02  0.1320468E+00
        -11   -1    0    0    0    0  0.00000000000E+00  0.00000000000E+00  0.45593999997E+02  0.45594000000E+02  0.51100000000E-03 0.  1.
         11   -1    0    0    0    0 -0.00000000000E+00 -0.00000000000E+00 -0.45593999997E+02  0.45594000000E+02  0.51100000000E-03 0. -1.
    9900012    2    1    2    0    0  0.36772593557E+02  0.24533800349E+02 -0.86592249287E+01  0.46142321264E+02  0.10000031939E+02 0.  0.
        -12    1    1    2    0    0 -0.36772593557E+02 -0.24533800349E+02  0.86592249287E+01  0.45045678736E+02  0.00000000000E+00 0.  1.
         11    1    3    3    0    0  0.68402566554E+01  0.77714018276E+01 -0.39101666111E+01  0.11066761074E+02  0.51100000000E-03 0. -1.
        -11    1    3    3    0    0  0.26172406348E+02  0.12345825145E+02 -0.35809466743E+01  0.29158831113E+02  0.51100000000E-03 0.  1.
        -12    1    3    3    0    0  0.37599305535E+01  0.44165733761E+01 -0.11681116433E+01  0.59167290765E+01  0.00000000000E+00 0.  1.
</event>
<event>
 7    1  0.3986981E-008  0.4614232E+02  0.7816164E-02  0.1320468E+00
        -11   -1    0    0    0    0  0.00000000000E+00  0.00000000000E+00  0.45593999997E+02  0.45594000000E+02  0.51100000000E-03 0.  1.
         11   -1    0    0    0    0 -0.00000000000E+00 -0.00000000000E+00 -0.45593999997E+02  0.45594000000E+02  0.51100000000E-03 0. -1.
    9900012    2    1    2    0    0 -0.19387286900E+02  0.29714305798E+02 -0.27754397211E+02  0.46142318443E+02  0.10000006217E+02 0.  0.
        -12    1    1    2    0    0  0.19387286900E+02 -0.29714305798E+02  0.27754397211E+02  0.45045681557E+02  0.00000000000E+00 0.  1.
         11    1    3    3    0    0 -0.96678195008E+01  0.20581236188E+02 -0.14350352522E+02  0.26888410788E+02  0.51100000000E-03 0. -1.
        -11    1    3    3    0    0  0.23534202121E+00  0.42521530587E+00 -0.10371247626E+00  0.49694110530E+00  0.51100000000E-03 0.  1.
         12    1    3    3    0    0 -0.99548094207E+01  0.87078543037E+01 -0.13300332213E+02  0.18756966550E+02  0.00000000000E+00 0. -1.
</event>
<event>
 7    1  0.3986981E-008  0.4614232E+02  0.7816164E-02  0.1320468E+00
        -11   -1    0    0    0    0  0.00000000000E+00  0.00000000000E+00  0.45593999997E+02  0.45594000000E+02  0.51100000000E-03 0. -1.
         11   -1    0    0    0    0 -0.00000000000E+00 -0.00000000000E+00 -0.45593999997E+02  0.45594000000E+02  0.51100000000E-03 0.  1.
    9900012    2    1    2    0    0 -0.33933697206E+02  0.35475581643E+01  0.29411435112E+02  0.46142317739E+02  0.99999998021E+01 0.  0.
        -12    1    1    2    0    0  0.33933697206E+02 -0.35475581643E+01 -0.29411435112E+02  0.45045682261E+02  0.00000000000E+00 0.  1.
         11    1    3    3    0    0 -0.41026943277E+01 -0.14170498580E+01  0.33322256700E+01  0.54720982469E+01  0.51100000000E-03 0. -1.
        -11    1    3    3    0    0  0.23217944846E+00  0.10714628557E+00  0.15386360447E+01  0.15597399661E+01  0.51100000000E-03 0.  1.
         12    1    3    3    0    0 -0.30063182327E+02  0.48574617367E+01  0.24540573397E+02  0.39110479526E+02  0.00000000000E+00 0. -1.
</event>
<event>
 7    1  0.3986981E-008  0.4614232E+02  0.7816164E-02  0.1320468E+00
        -11   -1    0    0    0    0  0.00000000000E+00  0.00000000000E+00  0.45593999997E+02  0.45594000000E+02  0.51100000000E-03 0.  1.
         11   -1    0    0    0    0 -0.00000000000E+00 -0.00000000000E+00 -0.45593999997E+02  0.45594000000E+02  0.51100000000E-03 0. -1.
    9900012    2    1    2    0    0  0.10656221057E+02 -0.22936660545E+02 -0.37275567740E+02  0.46142318803E+02  0.10000009499E+02 0.  0.
        -12    1    1    2    0    0 -0.10656221057E+02  0.22936660545E+02  0.37275567740E+02  0.45045681197E+02  0.00000000000E+00 0.  1.
         11    1    3    3    0    0  0.36081738847E+01 -0.59465288862E+01 -0.13903702051E+02  0.15546480488E+02  0.51100000000E-03 0.  1.
        -11    1    3    3    0    0  0.58001683202E+01 -0.15817964190E+02 -0.23458388853E+02  0.28881584990E+02  0.51100000000E-03 0. -1.
         12    1    3    3    0    0  0.12478788524E+01 -0.11721674687E+01  0.86523164242E-01  0.17142533252E+01  0.00000000000E+00 0. -1.
</event>
<event>
 7    1  0.3986981E-008  0.4614232E+02  0.7816164E-02  0.1320468E+00
        -11   -1    0    0    0    0  0.00000000000E+00  0.00000000000E+00  0.45593999997E+02  0.45594000000E+02  0.51100000000E-03 0.  1.
         11   -1    0    0    0    0 -0.00000000000E+00 -0.00000000000E+00 -0.45593999997E+02  0.45594000000E+02  0.51100000000E-03 0. -1.
    9900012    2    1    2    0    0  0.72166329370E+01  0.15405177068E+01 -0.44437152492E+02  0.46142317551E+02  0.99999980819E+01 0.  0.
        -12    1    1    2    0    0 -0.72166329370E+01 -0.15405177068E+01  0.44437152492E+02  0.45045682449E+02  0.00000000000E+00 0.  1.
         11    1    3    3    0    0  0.72050202540E+01 -0.25871332177E+00 -0.23842301497E+02  0.24908524452E+02  0.51100000000E-03 0. -1.
        -11    1    3    3    0    0  0.18544508429E+01  0.15648810845E+01 -0.53302538023E+01  0.58565729395E+01  0.51100000000E-03 0.  1.
        -12    1    3    3    0    0 -0.18428381600E+01  0.23434994406E+00 -0.15264597192E+02  0.15377220159E+02  0.00000000000E+00 0.  1.
</event>
<event>
 7    1  0.3986981E-008  0.4614232E+02  0.7816164E-02  0.1320468E+00
        -11   -1    0    0    0    0  0.00000000000E+00  0.00000000000E+00  0.45593999997E+02  0.45594000000E+02  0.51100000000E-03 0. -1.
         11   -1    0    0    0    0 -0.00000000000E+00 -0.00000000000E+00 -0.45593999997E+02  0.45594000000E+02  0.51100000000E-03 0.  1.
    9900012    2    1    2    0    0  0.44888472160E+02 -0.14518026171E+00  0.37573114842E+01  0.46142318745E+02  0.10000008969E+02 0.  0.
        -12    1    1    2    0    0 -0.44888472160E+02  0.14518026171E+00 -0.37573114842E+01  0.45045681255E+02  0.00000000000E+00 0.  1.
         11    1    3    3    0    0  0.21655894445E+02 -0.34915178030E+00 -0.13938862545E+01  0.21703515622E+02  0.51100000000E-03 0. -1.
        -11    1    3    3    0    0  0.11840877162E+02 -0.67510228767E+00 -0.10878664743E+00  0.11860605797E+02  0.51100000000E-03 0.  1.
        -12    1    3    3    0    0  0.11391700553E+02  0.87907380626E+00  0.52599843862E+01  0.12578197326E+02  0.00000000000E+00 0.  1.
</event>
<event>
 7    1  0.3986981E-008  0.4614232E+02  0.7816164E-02  0.1320468E+00
        -11   -1    0    0    0    0  0.00000000000E+00  0.00000000000E+00  0.45593999997E+02  0.45594000000E+02  0.51100000000E-03 0.  1.
         11   -1    0    0    0    0 -0.00000000000E+00 -0.00000000000E+00 -0.45593999997E+02  0.45594000000E+02  0.51100000000E-03 0. -1.
    9900012    2    1    2    0    0  0.31898437310E+02  0.45811424950E+01 -0.31474051353E+02  0.46142322317E+02  0.10000041546E+02 0.  0.
        -12    1    1    2    0    0 -0.31898437310E+02 -0.45811424950E+01  0.31474051353E+02  0.45045677683E+02  0.00000000000E+00 0.  1.
         11    1    3    3    0    0  0.20518755694E+01  0.23234418440E+01 -0.23911899305E+01  0.39148901516E+01  0.51100000000E-03 0. -1.
        -11    1    3    3    0    0  0.21851736235E+02 -0.19319054276E+00 -0.17805791508E+02  0.28188329333E+02  0.51100000000E-03 0.  1.
        -12    1    3    3    0    0  0.79948255048E+01  0.24508911938E+01 -0.11277069914E+02  0.14039102833E+02  0.00000000000E+00 0.  1.
</event>
<event>
 7    1  0.3986981E-008  0.4614232E+02  0.7816164E-02  0.1320468E+00
        -11   -1    0    0    0    0  0.00000000000E+00  0.00000000000E+00  0.45593999997E+02  0.45594000000E+02  0.51100000000E-03 0.  1.
         11   -1    0    0    0    0 -0.00000000000E+00 -0.00000000000E+00 -0.45593999997E+02  0.45594000000E+02  0.51100000000E-03 0. -1.
    9900012    2    1    2    0    0  0.27899262043E+01 -0.43583028392E+02 -0.11038547982E+02  0.46142316593E+02  0.99999893479E+01 0.  0.
        -12    1    1    2    0    0 -0.27899262043E+01  0.43583028392E+02  0.11038547982E+02  0.45045683407E+02  0.00000000000E+00 0.  1.
         11    1    3    3    0    0 -0.13455715997E+01 -0.23602194803E+02 -0.90726423747E+01  0.25321670608E+02  0.51100000000E-03 0. -1.
        -11    1    3    3    0    0 -0.32311996190E+00 -0.41681113320E+01  0.48840925711E+00  0.42090500650E+01  0.51100000000E-03 0.  1.
         12    1    3    3    0    0  0.44586177659E+01 -0.15812722257E+02 -0.24543148647E+01  0.16611595920E+02  0.00000000000E+00 0. -1.
</event>
<event>
 7    1  0.3986981E-008  0.4614232E+02  0.7816164E-02  0.1320468E+00
        -11   -1    0    0    0    0  0.00000000000E+00  0.00000000000E+00  0.45593999997E+02  0.45594000000E+02  0.51100000000E-03 0.  1.
         11   -1    0    0    0    0 -0.00000000000E+00 -0.00000000000E+00 -0.45593999997E+02  0.45594000000E+02  0.51100000000E-03 0. -1.
    9900012    2    1    2    0    0 -0.14551029297E+02 -0.36182790599E+02 -0.22542995435E+02  0.46142318383E+02  0.10000005674E+02 0.  0.
        -12    1    1    2    0    0  0.14551029297E+02  0.36182790599E+02  0.22542995435E+02  0.45045681617E+02  0.00000000000E+00 0.  1.
         11    1    3    3    0    0 -0.23855355729E+01 -0.36519775537E+01 -0.40725553966E+01  0.59676986973E+01  0.51100000000E-03 0. -1.
        -11    1    3    3    0    0 -0.53596612985E+01 -0.20169997565E+02 -0.14828668821E+02  0.25601644288E+02  0.51100000000E-03 0.  1.
         12    1    3    3    0    0 -0.68058324253E+01 -0.12360815480E+02 -0.36417712178E+01  0.14572975398E+02  0.00000000000E+00 0. -1.
</event>
<event>
 7    1  0.3986981E-008  0.4614232E+02  0.7816164E-02  0.1320468E+00
        -11   -1    0    0    0    0  0.00000000000E+00  0.00000000000E+00  0.45593999997E+02  0.45594000000E+02  0.51100000000E-03 0. -1.
         11   -1    0    0    0    0 -0.00000000000E+00 -0.00000000000E+00 -0.45593999997E+02  0.45594000000E+02  0.51100000000E-03 0.  1.
    9900012    2    1    2    0    0 -0.23717449393E+02 -0.55419095185E+01  0.37893051218E+02  0.46142317661E+02  0.99999990836E+01 0.  0.
        -12    1    1    2    0    0  0.23717449393E+02  0.55419095185E+01 -0.37893051218E+02  0.45045682339E+02  0.00000000000E+00 0.  1.
         11    1    3    3    0    0 -0.13148144042E+02 -0.39950160410E+01  0.18998151079E+02  0.23447037970E+02  0.51100000000E-03 0. -1.
        -11    1    3    3    0    0 -0.12910420925E+00 -0.16214887261E+01  0.53607813697E+01  0.56021309107E+01  0.51100000000E-03 0.  1.
         12    1    3    3    0    0 -0.10440201142E+02  0.74595248651E-01  0.13534118769E+02  0.17093148780E+02  0.00000000000E+00 0. -1.
</event>
<event>
 7    1  0.3986981E-008  0.4614232E+02  0.7816164E-02  0.1320468E+00
        -11   -1    0    0    0    0  0.00000000000E+00  0.00000000000E+00  0.45593999997E+02  0.45594000000E+02  0.51100000000E-03 0.  1.
         11   -1    0    0    0    0 -0.00000000000E+00 -0.00000000000E+00 -0.45593999997E+02  0.45594000000E+02  0.51100000000E-03 0. -1.
    9900012    2    1    2    0    0 -0.10712209828E+02 -0.35971605511E+02 -0.24907942512E+02  0.46142318269E+02  0.10000004633E+02 0.  0.
        -12    1    1    2    0    0  0.10712209828E+02  0.35971605511E+02  0.24907942512E+02  0.45045681731E+02  0.00000000000E+00 0.  1.
         11    1    3    3    0    0 -0.82996718729E+01 -0.15838796529E+02 -0.13180419854E+02  0.22214308373E+02  0.51100000000E-03 0. -1.
        -11    1    3    3    0    0  0.10287737485E+01 -0.10886987995E+01 -0.69019692573E+00  0.16492460577E+01  0.51100000000E-03 0.  1.
         12    1    3    3    0    0 -0.34413117036E+01 -0.19044110182E+02 -0.11037325733E+02  0.22278763839E+02  0.00000000000E+00 0. -1.
</event>
<event>
 7    1  0.3986981E-008  0.4614232E+02  0.7816164E-02  0.1320468E+00
        -11   -1    0    0    0    0  0.00000000000E+00  0.00000000000E+00  0.45593999997E+02  0.45594000000E+02  0.51100000000E-03 0.  1.
         11   -1    0    0    0    0 -0.00000000000E+00 -0.00000000000E+00 -0.45593999997E+02  0.45594000000E+02  0.51100000000E-03 0. -1.
    9900012    2    1    2    0    0 -0.29875025204E+02  0.89066410390E+01 -0.32515659410E+02  0.46142317717E+02  0.99999995943E+01 0.  0.
        -12    1    1    2    0    0  0.29875025204E+02 -0.89066410390E+01  0.32515659410E+02  0.45045682283E+02  0.00000000000E+00 0.  1.
         11    1    3    3    0    0 -0.13798083196E+01 -0.37248110662E+00 -0.44896107492E+00  0.14980585708E+01  0.51100000000E-03 0. -1.
        -11    1    3    3    0    0  0.37141269858E-01  0.14147888015E+01 -0.97692234668E+00  0.17197047303E+01  0.51100000000E-03 0.  1.
         12    1    3    3    0    0 -0.28532358154E+02  0.78643333441E+01 -0.31089775988E+02  0.42924554416E+02  0.00000000000E+00 0. -1.
</event>
<event>
 7    1  0.3986981E-008  0.4614232E+02  0.7816164E-02  0.1320468E+00
        -11   -1    0    0    0    0  0.00000000000E+00  0.00000000000E+00  0.45593999997E+02  0.45594000000E+02  0.51100000000E-03 0. -1.
         11   -1    0    0    0    0 -0.00000000000E+00 -0.00000000000E+00 -0.45593999997E+02  0.45594000000E+02  0.51100000000E-03 0.  1.
    9900012    2    1    2    0    0 -0.13761802430E+02  0.39813653723E+02  0.15956168212E+02  0.46142317266E+02  0.99999954874E+01 0.  0.
        -12    1    1    2    0    0  0.13761802430E+02 -0.39813653723E+02 -0.15956168212E+02  0.45045682734E+02  0.00000000000E+00 0.  1.
         11    1    3    3    0    0 -0.26565828346E+01  0.12516942375E+02  0.38911871462E+01  0.13374326766E+02  0.51100000000E-03 0. -1.
        -11    1    3    3    0    0  0.38550817982E+00  0.22807469561E+01 -0.70973755751E+00  0.24195352645E+01  0.51100000000E-03 0.  1.
         12    1    3    3    0    0 -0.11490727776E+02  0.25015964392E+02  0.12774718624E+02  0.30348455236E+02  0.00000000000E+00 0. -1.
</event>
<event>
 7    1  0.5559497E-008  0.4614232E+02  0.7816164E-02  0.1320468E+00
        -11   -1    0    0    0    0  0.00000000000E+00  0.00000000000E+00  0.45593999997E+02  0.45594000000E+02  0.51100000000E-03 0.  1.
         11   -1    0    0    0    0 -0.00000000000E+00 -0.00000000000E+00 -0.45593999997E+02  0.45594000000E+02  0.51100000000E-03 0. -1.
    9900012    2    1    2    0    0 -0.25956173522E+02 -0.31788493119E+02 -0.18571004630E+02  0.46142318169E+02  0.10000003716E+02 0.  0.
        -12    1    1    2    0    0  0.25956173522E+02  0.31788493119E+02  0.18571004630E+02  0.45045681831E+02  0.00000000000E+00 0.  1.
         11    1    3    3    0    0 -0.12706100814E+02 -0.13259022891E+02 -0.77850844179E+01  0.19946283503E+02  0.51100000000E-03 0. -1.
        -11    1    3    3    0    0 -0.13837761977E+02 -0.15483357643E+02 -0.92129440765E+01  0.22717754274E+02  0.51100000000E-03 0.  1.
        -12    1    3    3    0    0  0.58768926957E+00 -0.30461125854E+01 -0.15729761359E+01  0.34782803919E+01  0.00000000000E+00 0.  1.
</event>
<event>
 7    1  0.3986981E-008  0.4614232E+02  0.7816164E-02  0.1320468E+00
        -11   -1    0    0    0    0  0.00000000000E+00  0.00000000000E+00  0.45593999997E+02  0.45594000000E+02  0.51100000000E-03 0.  1.
         11   -1    0    0    0    0 -0.00000000000E+00 -0.00000000000E+00 -0.45593999997E+02  0.45594000000E+02  0.51100000000E-03 0. -1.
    9900012    2    1    2    0    0  0.37109564042E+02  0.69827273274E+01 -0.24560850018E+02  0.46142316767E+02  0.99999909331E+01 0.  0.
        -12    1    1    2    0    0 -0.37109564042E+02 -0.69827273274E+01  0.24560850018E+02  0.45045683233E+02  0.00000000000E+00 0.  1.
         11    1    3    3    0    0  0.85270306783E+01  0.35174636238E+01 -0.84590776427E+01  0.12515542232E+02  0.51100000000E-03 0. -1.
        -11    1    3    3    0    0  0.11173372228E+02 -0.17306814199E+01 -0.52658031458E+01  0.12472697710E+02  0.51100000000E-03 0.  1.
        -12    1    3    3    0    0  0.17409161136E+02  0.51959451236E+01 -0.10835969229E+02  0.21154076825E+02  0.00000000000E+00 0.  1.
</event>
<event>
 7    1  0.3986981E-008  0.4614232E+02  0.7816164E-02  0.1320468E+00
        -11   -1    0    0    0    0  0.00000000000E+00  0.00000000000E+00  0.45593999997E+02  0.45594000000E+02  0.51100000000E-03 0. -1.
         11   -1    0    0    0    0 -0.00000000000E+00 -0.00000000000E+00 -0.45593999997E+02  0.45594000000E+02  0.51100000000E-03 0.  1.
    9900012    2    1    2    0    0  0.44706804336E+02 -0.51731995336E+01  0.19113117252E+01  0.46142318078E+02  0.10000002889E+02 0.  0.
        -12    1    1    2    0    0 -0.44706804336E+02  0.51731995336E+01 -0.19113117252E+01  0.45045681922E+02  0.00000000000E+00 0.  1.
         11    1    3    3    0    0  0.13070624482E+02  0.11683923919E+01  0.18353780528E+00  0.13124025736E+02  0.51100000000E-03 0. -1.
        -11    1    3    3    0    0  0.12050381795E+02 -0.10740569477E+01 -0.23663847678E+01  0.12327411605E+02  0.51100000000E-03 0.  1.
         12    1    3    3    0    0  0.19585798058E+02 -0.52675349779E+01  0.40941586878E+01  0.20690880737E+02  0.00000000000E+00 0. -1.
</event>
<event>
 7    1  0.3986981E-008  0.4614232E+02  0.7816164E-02  0.1320468E+00
        -11   -1    0    0    0    0  0.00000000000E+00  0.00000000000E+00  0.45593999997E+02  0.45594000000E+02  0.51100000000E-03 0. -1.
         11   -1    0    0    0    0 -0.00000000000E+00 -0.00000000000E+00 -0.45593999997E+02  0.45594000000E+02  0.51100000000E-03 0.  1.
    9900012    2    1    2    0    0  0.29079538153E+02  0.31419498059E+02  0.14011035659E+02  0.46142317436E+02  0.99999970320E+01 0.  0.
        -12    1    1    2    0    0 -0.29079538153E+02 -0.31419498059E+02 -0.14011035659E+02  0.45045682564E+02  0.00000000000E+00 0.  1.
         11    1    3    3    0    0  0.41081117205E+00  0.53521952449E+00 -0.77215998754E+00  0.10254058055E+01  0.51100000000E-03 0.  1.
        -11    1    3    3    0    0  0.11606296850E+02  0.93590583647E+01  0.28997372293E+01  0.15189028156E+02  0.51100000000E-03 0. -1.
         12    1    3    3    0    0  0.17062430130E+02  0.21525220169E+02  0.11883458417E+02  0.29927883474E+02  0.00000000000E+00 0. -1.
</event>
<event>
 7    1  0.3986981E-008  0.4614232E+02  0.7816164E-02  0.1320468E+00
        -11   -1    0    0    0    0  0.00000000000E+00  0.00000000000E+00  0.45593999997E+02  0.45594000000E+02  0.51100000000E-03 0.  1.
         11   -1    0    0    0    0 -0.00000000000E+00 -0.00000000000E+00 -0.45593999997E+02  0.45594000000E+02  0.51100000000E-03 0. -1.
    9900012    2    1    2    0    0  0.22469188869E+02 -0.72022095220E+01 -0.38371566444E+02  0.46142318945E+02  0.10000010791E+02 0.  0.
        -12    1    1    2    0    0 -0.22469188869E+02  0.72022095220E+01  0.38371566444E+02  0.45045681055E+02  0.00000000000E+00 0.  1.
         11    1    3    3    0    0  0.95650853178E+01 -0.51842345676E+01 -0.25561821433E+02  0.27780818210E+02  0.51100000000E-03 0. -1.
        -11    1    3    3    0    0  0.28527127257E+00  0.17694751002E+00 -0.21778131662E+00  0.40014882637E+00  0.51100000000E-03 0.  1.
        -12    1    3    3    0    0  0.12618832278E+02 -0.21949224644E+01 -0.12591963694E+02  0.17961351908E+02  0.00000000000E+00 0.  1.
</event>
<event>
 7    1  0.3986981E-008  0.4614232E+02  0.7816164E-02  0.1320468E+00
        -11   -1    0    0    0    0  0.00000000000E+00  0.00000000000E+00  0.45593999997E+02  0.45594000000E+02  0.51100000000E-03 0.  1.
         11   -1    0    0    0    0 -0.00000000000E+00 -0.00000000000E+00 -0.45593999997E+02  0.45594000000E+02  0.51100000000E-03 0. -1.
    9900012    2    1    2    0    0 -0.27754106945E+02 -0.31793583906E+02 -0.15747729801E+02  0.46142318477E+02  0.10000006531E+02 0.  0.
        -12    1    1    2    0    0  0.27754106945E+02  0.31793583906E+02  0.15747729801E+02  0.45045681523E+02  0.00000000000E+00 0.  1.
         11    1    3    3    0    0 -0.11799024585E+02 -0.14811365664E+02 -0.10300479961E+02  0.21556748866E+02  0.51100000000E-03 0. -1.
        -11    1    3    3    0    0 -0.49357643419E+01 -0.19146485713E+01 -0.15463689690E+01  0.55153337197E+01  0.51100000000E-03 0.  1.
         12    1    3    3    0    0 -0.11019318019E+02 -0.15067569671E+02 -0.39008808711E+01  0.19070235891E+02  0.00000000000E+00 0. -1.
</event>
<event>
 7    1  0.3986981E-008  0.4614232E+02  0.7816164E-02  0.1320468E+00
        -11   -1    0    0    0    0  0.00000000000E+00  0.00000000000E+00  0.45593999997E+02  0.45594000000E+02  0.51100000000E-03 0.  1.
         11   -1    0    0    0    0 -0.00000000000E+00 -0.00000000000E+00 -0.45593999997E+02  0.45594000000E+02  0.51100000000E-03 0. -1.
    9900012    2    1    2    0    0  0.86229836272E+00  0.39481486377E+02  0.21669843837E+02  0.46142318110E+02  0.10000003180E+02 0.  0.
        -12    1    1    2    0    0 -0.86229836272E+00 -0.39481486377E+02 -0.21669843837E+02  0.45045681890E+02  0.00000000000E+00 0.  1.
         11    1    3    3    0    0 -0.74793602599E+00  0.43993270351E+01  0.45723422374E+01  0.63890375220E+01  0.51100000000E-03 0. -1.
        -11    1    3    3    0    0  0.12449432851E+01  0.17884156440E+02  0.46515133639E+01  0.18521055915E+02  0.51100000000E-03 0.  1.
         12    1    3    3    0    0  0.36529110360E+00  0.17198002902E+02  0.12445988235E+02  0.21232224673E+02  0.00000000000E+00 0. -1.
</event>
<event>
 7    1  0.3986981E-008  0.4614232E+02  0.7816164E-02  0.1320468E+00
        -11   -1    0    0    0    0  0.00000000000E+00  0.00000000000E+00  0.45593999997E+02  0.45594000000E+02  0.51100000000E-03 0.  1.
         11   -1    0    0    0    0 -0.00000000000E+00 -0.00000000000E+00 -0.45593999997E+02  0.45594000000E+02  0.51100000000E-03 0. -1.
    9900012    2    1    2    0    0 -0.34788384626E+02  0.61387971479E-01 -0.28616043712E+02  0.46142318397E+02  0.10000005796E+02 0.  0.
        -12    1    1    2    0    0  0.34788384626E+02 -0.61387971479E-01  0.28616043712E+02  0.45045681603E+02  0.00000000000E+00 0.  1.
         11    1    3    3    0    0 -0.62108486027E+01  0.16265319245E+01 -0.64398826250E+01  0.90935325893E+01  0.51100000000E-03 0.  1.
        -11    1    3    3    0    0 -0.54388471481E+01 -0.10628909679E+00 -0.77157292642E+00  0.54943316895E+01  0.51100000000E-03 0. -1.
         12    1    3    3    0    0 -0.23138688875E+02 -0.14588548562E+01 -0.21404588161E+02  0.31554454118E+02  0.00000000000E+00 0. -1.
</event>
<event>
 7    1  0.3986981E-008  0.4614232E+02  0.7816164E-02  0.1320468E+00
        -11   -1    0    0    0    0  0.00000000000E+00  0.00000000000E+00  0.45593999997E+02  0.45594000000E+02  0.51100000000E-03 0.  1.
         11   -1    0    0    0    0 -0.00000000000E+00 -0.00000000000E+00 -0.45593999997E+02  0.45594000000E+02  0.51100000000E-03 0. -1.
    9900012    2    1    2    0    0 -0.44800965201E+02  0.43982190522E+01 -0.16256364521E+01  0.46142317547E+02  0.99999980446E+01 0.  0.
        -12    1    1    2    0    0  0.44800965201E+02 -0.43982190522E+01  0.16256364521E+01  0.45045682453E+02  0.00000000000E+00 0.  1.
         11    1    3    3    0    0 -0.14945193923E+02 -0.11634441960E+01  0.15891207350E+01  0.15074406415E+02  0.51100000000E-03 0.  1.
        -11    1    3    3    0    0 -0.26741275501E+02  0.67039576253E+01 -0.25686157956E+01  0.27688204178E+02  0.51100000000E-03 0. -1.
         12    1    3    3    0    0 -0.31144957778E+01 -0.11422943772E+01 -0.64614139145E+00  0.33797069535E+01  0.00000000000E+00 0. -1.
</event>
<event>
 7    1  0.3986981E-008  0.4614232E+02  0.7816164E-02  0.1320468E+00
        -11   -1    0    0    0    0  0.00000000000E+00  0.00000000000E+00  0.45593999997E+02  0.45594000000E+02  0.51100000000E-03 0.  1.
         11   -1    0    0    0    0 -0.00000000000E+00 -0.00000000000E+00 -0.45593999997E+02  0.45594000000E+02  0.51100000000E-03 0. -1.
    9900012    2    1    2    0    0  0.29596050926E+01  0.30581898757E+02 -0.32940882463E+02  0.46142317284E+02  0.99999956509E+01 0.  0.
        -12    1    1    2    0    0 -0.29596050926E+01 -0.30581898757E+02  0.32940882463E+02  0.45045682716E+02  0.00000000000E+00 0.  1.
         11    1    3    3    0    0  0.27403075598E+01  0.15450884470E+02 -0.21712200081E+02  0.26789153571E+02  0.51100000000E-03 0. -1.
        -11    1    3    3    0    0 -0.91108136054E+00  0.13456613547E+02 -0.10822050413E+02  0.17292405639E+02  0.51100000000E-03 0.  1.
         12    1    3    3    0    0  0.11303788933E+01  0.16744007407E+01 -0.40663196938E+00  0.20607580745E+01  0.00000000000E+00 0. -1.
</event>
<event>
 7    1  0.3986981E-008  0.4614232E+02  0.7816164E-02  0.1320468E+00
        -11   -1    0    0    0    0  0.00000000000E+00  0.00000000000E+00  0.45593999997E+02  0.45594000000E+02  0.51100000000E-03 0.  1.
         11   -1    0    0    0    0 -0.00000000000E+00 -0.00000000000E+00 -0.45593999997E+02  0.45594000000E+02  0.51100000000E-03 0. -1.
    9900012    2    1    2    0    0 -0.39197467164E+01 -0.20391924746E+02 -0.39973973233E+02  0.46142317131E+02  0.99999942498E+01 0.  0.
        -12    1    1    2    0    0  0.39197467164E+01  0.20391924746E+02  0.39973973233E+02  0.45045682869E+02  0.00000000000E+00 0.  1.
         11    1    3    3    0    0  0.49615004275E+00 -0.12457978468E+02 -0.17632391491E+02  0.21595106444E+02  0.51100000000E-03 0. -1.
        -11    1    3    3    0    0 -0.25261746116E+01 -0.28479691276E+01 -0.44762909930E+01  0.58761949964E+01  0.51100000000E-03 0.  1.
         12    1    3    3    0    0 -0.18897221476E+01 -0.50859771505E+01 -0.17865290749E+02  0.18671015690E+02  0.00000000000E+00 0. -1.
</event>
<event>
 7    1  0.3986981E-008  0.4614232E+02  0.7816164E-02  0.1320468E+00
        -11   -1    0    0    0    0  0.00000000000E+00  0.00000000000E+00  0.45593999997E+02  0.45594000000E+02  0.51100000000E-03 0.  1.
         11   -1    0    0    0    0 -0.00000000000E+00 -0.00000000000E+00 -0.45593999997E+02  0.45594000000E+02  0.51100000000E-03 0. -1.
    9900012    2    1    2    0    0 -0.18378344126E+02 -0.31324168113E+01 -0.41006559546E+02  0.46142317702E+02  0.99999994576E+01 0.  0.
        -12    1    1    2    0    0  0.18378344126E+02  0.31324168113E+01  0.41006559546E+02  0.45045682298E+02  0.00000000000E+00 0.  1.
         11    1    3    3    0    0 -0.11578118439E+02 -0.13151257021E+01 -0.20229794316E+02  0.23345812484E+02  0.51100000000E-03 0. -1.
        -11    1    3    3    0    0 -0.30980849940E+00 -0.26611688646E+01 -0.42870115848E+01  0.50553209217E+01  0.51100000000E-03 0.  1.
        -12    1    3    3    0    0 -0.64904171871E+01  0.84387775533E+00 -0.16489753646E+02  0.17741184296E+02  0.00000000000E+00 0.  1.
</event>
<event>
 7    1  0.3986981E-008  0.4614232E+02  0.7816164E-02  0.1320468E+00
        -11   -1    0    0    0    0  0.00000000000E+00  0.00000000000E+00  0.45593999997E+02  0.45594000000E+02  0.51100000000E-03 0.  1.
         11   -1    0    0    0    0 -0.00000000000E+00 -0.00000000000E+00 -0.45593999997E+02  0.45594000000E+02  0.51100000000E-03 0. -1.
    9900012    2    1    2    0    0 -0.24706203723E+02  0.27757638031E+02 -0.25460373954E+02  0.46142316374E+02  0.99999873548E+01 0.  0.
        -12    1    1    2    0    0  0.24706203723E+02 -0.27757638031E+02  0.25460373954E+02  0.45045683626E+02  0.00000000000E+00 0.  1.
         11    1    3    3    0    0  0.11801096193E+00  0.38196654718E+01 -0.25168983628E+01  0.45758658780E+01  0.51100000000E-03 0. -1.
        -11    1    3    3    0    0 -0.97100545426E+01  0.90264422665E+01 -0.68367632202E+01  0.14916539505E+02  0.51100000000E-03 0.  1.
        -12    1    3    3    0    0 -0.15114160142E+02  0.14911530292E+02 -0.16106712371E+02  0.26649910992E+02  0.00000000000E+00 0.  1.
</event>
<event>
 7    1  0.3986981E-008  0.4614232E+02  0.7816164E-02  0.1320468E+00
        -11   -1    0    0    0    0  0.00000000000E+00  0.00000000000E+00  0.45593999997E+02  0.45594000000E+02  0.51100000000E-03 0.  1.
         11   -1    0    0    0    0 -0.00000000000E+00 -0.00000000000E+00 -0.45593999997E+02  0.45594000000E+02  0.51100000000E-03 0. -1.
    9900012    2    1    2    0    0 -0.40337125964E+02 -0.92368250248E+00 -0.20029384732E+02  0.46142321260E+02  0.10000031905E+02 0.  0.
        -12    1    1    2    0    0  0.40337125964E+02  0.92368250248E+00  0.20029384732E+02  0.45045678740E+02  0.00000000000E+00 0.  1.
         11    1    3    3    0    0  0.32456718370E+00 -0.21009968368E+00 -0.28640430579E+00  0.48115841603E+00  0.51100000000E-03 0. -1.
        -11    1    3    3    0    0 -0.67553032425E+01 -0.24684433728E+01 -0.41036131483E+01  0.82805178410E+01  0.51100000000E-03 0.  1.
         12    1    3    3    0    0 -0.33906389905E+02  0.17548605540E+01 -0.15639367278E+02  0.37380645003E+02  0.00000000000E+00 0. -1.
</event>
<event>
 7    1  0.3986981E-008  0.4614231E+02  0.7816164E-02  0.1320468E+00
        -11   -1    0    0    0    0  0.00000000000E+00  0.00000000000E+00  0.45593999997E+02  0.45594000000E+02  0.51100000000E-03 0.  1.
         11   -1    0    0    0    0 -0.00000000000E+00 -0.00000000000E+00 -0.45593999997E+02  0.45594000000E+02  0.51100000000E-03 0. -1.
    9900012    2    1    2    0    0 -0.34130570032E+02 -0.12024613671E+02 -0.26825856956E+02  0.46142314901E+02  0.99999739172E+01 0.  0.
        -12    1    1    2    0    0  0.34130570032E+02  0.12024613671E+02  0.26825856956E+02  0.45045685099E+02  0.00000000000E+00 0.  1.
         11    1    3    3    0    0 -0.14133409184E+02 -0.21265771298E+01 -0.91220668245E+01  0.16955461918E+02  0.51100000000E-03 0. -1.
        -11    1    3    3    0    0 -0.57717885957E+01 -0.33485093628E+01 -0.19003364654E+01  0.69381076303E+01  0.51100000000E-03 0.  1.
         12    1    3    3    0    0 -0.14225372252E+02 -0.65495271788E+01 -0.15803453666E+02  0.22248745353E+02  0.00000000000E+00 0. -1.
</event>
<event>
 7    1  0.3986981E-008  0.4614232E+02  0.7816164E-02  0.1320468E+00
        -11   -1    0    0    0    0  0.00000000000E+00  0.00000000000E+00  0.45593999997E+02  0.45594000000E+02  0.51100000000E-03 0.  1.
         11   -1    0    0    0    0 -0.00000000000E+00 -0.00000000000E+00 -0.45593999997E+02  0.45594000000E+02  0.51100000000E-03 0. -1.
    9900012    2    1    2    0    0  0.76043184328E+01 -0.33226516726E+02 -0.29449729282E+02  0.46142316218E+02  0.99999859286E+01 0.  0.
        -12    1    1    2    0    0 -0.76043184328E+01  0.33226516726E+02  0.29449729282E+02  0.45045683782E+02  0.00000000000E+00 0.  1.
         11    1    3    3    0    0  0.48350116923E+01 -0.13189151516E+02 -0.10151077868E+02  0.17331342646E+02  0.51100000000E-03 0. -1.
        -11    1    3    3    0    0 -0.27532419988E+00 -0.12564487085E+02 -0.78967150093E+01  0.14842514859E+02  0.51100000000E-03 0.  1.
        -12    1    3    3    0    0  0.30446309403E+01 -0.74728781250E+01 -0.11401936405E+02  0.13968458713E+02  0.00000000000E+00 0.  1.
</event>
<event>
 7    1  0.3986981E-008  0.4614232E+02  0.7816164E-02  0.1320468E+00
        -11   -1    0    0    0    0  0.00000000000E+00  0.00000000000E+00  0.45593999997E+02  0.45594000000E+02  0.51100000000E-03 0.  1.
         11   -1    0    0    0    0 -0.00000000000E+00 -0.00000000000E+00 -0.45593999997E+02  0.45594000000E+02  0.51100000000E-03 0. -1.
    9900012    2    1    2    0    0 -0.15550113996E+02 -0.38437792584E+02 -0.17602372867E+02  0.46142317914E+02  0.10000001397E+02 0.  0.
        -12    1    1    2    0    0  0.15550113996E+02  0.38437792584E+02  0.17602372867E+02  0.45045682086E+02  0.00000000000E+00 0.  1.
         11    1    3    3    0    0 -0.24878127245E+00 -0.11276501391E+02 -0.63545664211E+01  0.12946114877E+02  0.51100000000E-03 0. -1.
        -11    1    3    3    0    0 -0.37949925060E+01 -0.51849419439E+01 -0.22158764632E+01  0.67967418550E+01  0.51100000000E-03 0.  1.
         12    1    3    3    0    0 -0.11506340217E+02 -0.21976349249E+02 -0.90319299826E+01  0.26399461182E+02  0.00000000000E+00 0. -1.
</event>
<event>
 7    1  0.3986981E-008  0.4614232E+02  0.7816164E-02  0.1320468E+00
        -11   -1    0    0    0    0  0.00000000000E+00  0.00000000000E+00  0.45593999997E+02  0.45594000000E+02  0.51100000000E-03 0.  1.
         11   -1    0    0    0    0 -0.00000000000E+00 -0.00000000000E+00 -0.45593999997E+02  0.45594000000E+02  0.51100000000E-03 0. -1.
    9900012    2    1    2    0    0  0.42192908500E+02 -0.15326837479E+02  0.37363055161E+01  0.46142318146E+02  0.10000003511E+02 0.  0.
        -12    1    1    2    0    0 -0.42192908500E+02  0.15326837479E+02 -0.37363055161E+01  0.45045681854E+02  0.00000000000E+00 0.  1.
         11    1    3    3    0    0  0.16933573788E+02 -0.10000056289E+02  0.45484830119E+01  0.20185037651E+02  0.51100000000E-03 0. -1.
        -11    1    3    3    0    0  0.72370014808E+01 -0.34840665589E+00 -0.86041538526E-01  0.72458940813E+01  0.51100000000E-03 0.  1.
         12    1    3    3    0    0  0.18022333231E+02 -0.49783745346E+01 -0.72613595721E+00  0.18711386413E+02  0.00000000000E+00 0. -1.
</event>
<event>
 7    1  0.3986981E-008  0.4614232E+02  0.7816164E-02  0.1320468E+00
        -11   -1    0    0    0    0  0.00000000000E+00  0.00000000000E+00  0.45593999997E+02  0.45594000000E+02  0.51100000000E-03 0.  1.
         11   -1    0    0    0    0 -0.00000000000E+00 -0.00000000000E+00 -0.45593999997E+02  0.45594000000E+02  0.51100000000E-03 0. -1.
    9900012    2    1    2    0    0  0.17026965235E+02 -0.37175322686E+02 -0.18899505152E+02  0.46142318110E+02  0.10000003185E+02 0.  0.
        -12    1    1    2    0    0 -0.17026965235E+02  0.37175322686E+02  0.18899505152E+02  0.45045681890E+02  0.00000000000E+00 0.  1.
         11    1    3    3    0    0  0.16310570576E+02 -0.31489590075E+02 -0.14810869901E+02  0.38431638829E+02  0.51100000000E-03 0. -1.
        -11    1    3    3    0    0  0.17943238644E+00  0.20487485347E+00  0.25422433402E+00  0.37255866655E+00  0.51100000000E-03 0.  1.
         12    1    3    3    0    0  0.53696227302E+00 -0.58906074644E+01 -0.43428595853E+01  0.73381206150E+01  0.00000000000E+00 0. -1.
</event>
<event>
 7    1  0.3986981E-008  0.4614231E+02  0.7816164E-02  0.1320468E+00
        -11   -1    0    0    0    0  0.00000000000E+00  0.00000000000E+00  0.45593999997E+02  0.45594000000E+02  0.51100000000E-03 0.  1.
         11   -1    0    0    0    0 -0.00000000000E+00 -0.00000000000E+00 -0.45593999997E+02  0.45594000000E+02  0.51100000000E-03 0. -1.
    9900012    2    1    2    0    0  0.24572879421E+02 -0.12169706557E+02 -0.35737734141E+02  0.46142314277E+02  0.99999682253E+01 0.  0.
        -12    1    1    2    0    0 -0.24572879421E+02  0.12169706557E+02  0.35737734141E+02  0.45045685723E+02  0.00000000000E+00 0.  1.
         11    1    3    3    0    0  0.38843424191E+01 -0.48357216394E+00 -0.16659336050E+01  0.42540913370E+01  0.51100000000E-03 0.  1.
        -11    1    3    3    0    0  0.67554423411E+01 -0.10891950973E+01 -0.88441721184E+01  0.11182205860E+02  0.51100000000E-03 0. -1.
        -12    1    3    3    0    0  0.13933094661E+02 -0.10596939295E+02 -0.25227628418E+02  0.30706017079E+02  0.00000000000E+00 0.  1.
</event>
<event>
 7    1  0.3986981E-008  0.4614232E+02  0.7816164E-02  0.1320468E+00
        -11   -1    0    0    0    0  0.00000000000E+00  0.00000000000E+00  0.45593999997E+02  0.45594000000E+02  0.51100000000E-03 0.  1.
         11   -1    0    0    0    0 -0.00000000000E+00 -0.00000000000E+00 -0.45593999997E+02  0.45594000000E+02  0.51100000000E-03 0. -1.
    9900012    2    1    2    0    0 -0.26039687292E+02 -0.34735218969E+02 -0.12021341316E+02  0.46142318763E+02  0.10000009138E+02 0.  0.
        -12    1    1    2    0    0  0.26039687292E+02  0.34735218969E+02  0.12021341316E+02  0.45045681237E+02  0.00000000000E+00 0.  1.
         11    1    3    3    0    0 -0.49716909231E+01 -0.68027455393E+01 -0.21354979931E+01  0.86922614691E+01  0.51100000000E-03 0. -1.
        -11    1    3    3    0    0 -0.14008548054E+02 -0.18563683310E+02 -0.20572849935E+01  0.23346995062E+02  0.51100000000E-03 0.  1.
         12    1    3    3    0    0 -0.70594483151E+01 -0.93687901193E+01 -0.78285583295E+01  0.14103062232E+02  0.00000000000E+00 0. -1.
</event>
<event>
 7    1  0.3986981E-008  0.4614232E+02  0.7816164E-02  0.1320468E+00
        -11   -1    0    0    0    0  0.00000000000E+00  0.00000000000E+00  0.45593999997E+02  0.45594000000E+02  0.51100000000E-03 0. -1.
         11   -1    0    0    0    0 -0.00000000000E+00 -0.00000000000E+00 -0.45593999997E+02  0.45594000000E+02  0.51100000000E-03 0.  1.
    9900012    2    1    2    0    0 -0.40520629202E+02  0.74708589082E+01  0.18203805028E+02  0.46142316064E+02  0.99999845268E+01 0.  0.
        -12    1    1    2    0    0  0.40520629202E+02 -0.74708589082E+01 -0.18203805028E+02  0.45045683936E+02  0.00000000000E+00 0.  1.
         11    1    3    3    0    0 -0.47367595363E+01 -0.44491662162E+00  0.14083831037E+01  0.49616917410E+01  0.51100000000E-03 0.  1.
        -11    1    3    3    0    0 -0.33051842762E+02  0.64195264098E+01  0.17559600742E+02  0.37973335484E+02  0.51100000000E-03 0. -1.
         12    1    3    3    0    0 -0.27320269034E+01  0.14962491200E+01 -0.76417881841E+00  0.32072888389E+01  0.00000000000E+00 0. -1.
</event>
<event>
 7    1  0.3986981E-008  0.4614232E+02  0.7816164E-02  0.1320468E+00
        -11   -1    0    0    0    0  0.00000000000E+00  0.00000000000E+00  0.45593999997E+02  0.45594000000E+02  0.51100000000E-03 0.  1.
         11   -1    0    0    0    0 -0.00000000000E+00 -0.00000000000E+00 -0.45593999997E+02  0.45594000000E+02  0.51100000000E-03 0. -1.
    9900012    2    1    2    0    0 -0.88650232151E+01  0.43989914514E+02 -0.39258209828E+01  0.46142320008E+02  0.10000020491E+02 0.  0.
        -12    1    1    2    0    0  0.88650232151E+01 -0.43989914514E+02  0.39258209828E+01  0.45045679992E+02  0.00000000000E+00 0.  1.
         11    1    3    3    0    0 -0.42004009866E+00  0.11598865391E+02  0.17023307466E+01  0.11730645433E+02  0.51100000000E-03 0.  1.
        -11    1    3    3    0    0 -0.25870893724E+01  0.57099537859E+01 -0.30569487371E+01  0.69743486792E+01  0.51100000000E-03 0. -1.
        -12    1    3    3    0    0 -0.58578937441E+01  0.26681095337E+02 -0.25712029923E+01  0.27437325896E+02  0.00000000000E+00 0.  1.
</event>
<event>
 7    1  0.3986981E-008  0.4614232E+02  0.7816164E-02  0.1320468E+00
        -11   -1    0    0    0    0  0.00000000000E+00  0.00000000000E+00  0.45593999997E+02  0.45594000000E+02  0.51100000000E-03 0.  1.
         11   -1    0    0    0    0 -0.00000000000E+00 -0.00000000000E+00 -0.45593999997E+02  0.45594000000E+02  0.51100000000E-03 0. -1.
    9900012    2    1    2    0    0 -0.21349651224E+02 -0.26340157001E+02 -0.29656399119E+02  0.46142317777E+02  0.10000000145E+02 0.  0.
        -12    1    1    2    0    0  0.21349651224E+02  0.26340157001E+02  0.29656399119E+02  0.45045682223E+02  0.00000000000E+00 0.  1.
         11    1    3    3    0    0 -0.12845645788E+01 -0.47623611840E+01 -0.28316328681E+01  0.56875596845E+01  0.51100000000E-03 0.  1.
        -11    1    3    3    0    0 -0.95815031392E+01 -0.11763337005E+02 -0.92906623864E+01  0.17790382451E+02  0.51100000000E-03 0. -1.
         12    1    3    3    0    0 -0.10483583506E+02 -0.98144588116E+01 -0.17534103865E+02  0.22664375642E+02  0.00000000000E+00 0. -1.
</event>
<event>
 7    1  0.3986981E-008  0.4614232E+02  0.7816164E-02  0.1320468E+00
        -11   -1    0    0    0    0  0.00000000000E+00  0.00000000000E+00  0.45593999997E+02  0.45594000000E+02  0.51100000000E-03 0.  1.
         11   -1    0    0    0    0 -0.00000000000E+00 -0.00000000000E+00 -0.45593999997E+02  0.45594000000E+02  0.51100000000E-03 0. -1.
    9900012    2    1    2    0    0 -0.36285360350E+02 -0.23473902167E+02 -0.12706773441E+02  0.46142317077E+02  0.99999937648E+01 0.  0.
        -12    1    1    2    0    0  0.36285360350E+02  0.23473902167E+02  0.12706773441E+02  0.45045682923E+02  0.00000000000E+00 0.  1.
         11    1    3    3    0    0 -0.49137639922E+01 -0.35128375804E+01 -0.24023268722E+01  0.65004829897E+01  0.51100000000E-03 0. -1.
        -11    1    3    3    0    0 -0.10828638999E+02 -0.10191763088E+02 -0.76995821341E+01  0.16745597114E+02  0.51100000000E-03 0.  1.
        -12    1    3    3    0    0 -0.20542957359E+02 -0.97693014992E+01 -0.26048644351E+01  0.22896236974E+02  0.00000000000E+00 0.  1.
</event>
<event>
 7    1  0.3986981E-008  0.4614232E+02  0.7816164E-02  0.1320468E+00
        -11   -1    0    0    0    0  0.00000000000E+00  0.00000000000E+00  0.45593999997E+02  0.45594000000E+02  0.51100000000E-03 0.  1.
         11   -1    0    0    0    0 -0.00000000000E+00 -0.00000000000E+00 -0.45593999997E+02  0.45594000000E+02  0.51100000000E-03 0. -1.
    9900012    2    1    2    0    0 -0.45030289935E+02 -0.10970194540E+01  0.42788219086E+00  0.46142317116E+02  0.99999941171E+01 0.  0.
        -12    1    1    2    0    0  0.45030289935E+02  0.10970194540E+01 -0.42788219086E+00  0.45045682884E+02  0.00000000000E+00 0.  1.
         11    1    3    3    0    0 -0.18347593305E+02  0.18584605632E+01 -0.17496341256E-01  0.18441484813E+02  0.51100000000E-03 0. -1.
        -11    1    3    3    0    0 -0.60609636278E+01 -0.29779140066E+01 -0.17117039495E+01  0.69665761031E+01  0.51100000000E-03 0.  1.
        -12    1    3    3    0    0 -0.20621733003E+02  0.22433989409E-01  0.21570824817E+01  0.20734256200E+02  0.00000000000E+00 0.  1.
</event>
<event>
 7    1  0.3986981E-008  0.4614232E+02  0.7816164E-02  0.1320468E+00
        -11   -1    0    0    0    0  0.00000000000E+00  0.00000000000E+00  0.45593999997E+02  0.45594000000E+02  0.51100000000E-03 0.  1.
         11   -1    0    0    0    0 -0.00000000000E+00 -0.00000000000E+00 -0.45593999997E+02  0.45594000000E+02  0.51100000000E-03 0. -1.
    9900012    2    1    2    0    0 -0.13961861345E+02 -0.41387137448E+02 -0.11012936417E+02  0.46142317778E+02  0.10000000151E+02 0.  0.
        -12    1    1    2    0    0  0.13961861345E+02  0.41387137448E+02  0.11012936417E+02  0.45045682222E+02  0.00000000000E+00 0.  1.
         11    1    3    3    0    0 -0.67774123192E+01 -0.19142251592E+02 -0.57762907627E+01  0.21112191952E+02  0.51100000000E-03 0. -1.
        -11    1    3    3    0    0 -0.90321103993E+00 -0.13128748438E+02 -0.10766968161E+01  0.13203753331E+02  0.51100000000E-03 0.  1.
        -12    1    3    3    0    0 -0.62812379862E+01 -0.91161374179E+01 -0.41599488380E+01  0.11826372495E+02  0.00000000000E+00 0.  1.
</event>
<event>
 7    1  0.3986981E-008  0.4614232E+02  0.7816164E-02  0.1320468E+00
        -11   -1    0    0    0    0  0.00000000000E+00  0.00000000000E+00  0.45593999997E+02  0.45594000000E+02  0.51100000000E-03 0.  1.
         11   -1    0    0    0    0 -0.00000000000E+00 -0.00000000000E+00 -0.45593999997E+02  0.45594000000E+02  0.51100000000E-03 0. -1.
    9900012    2    1    2    0    0 -0.28993876366E+02 -0.33601872459E+02  0.77060237823E+01  0.46142317610E+02  0.99999986185E+01 0.  0.
        -12    1    1    2    0    0  0.28993876366E+02  0.33601872459E+02 -0.77060237823E+01  0.45045682390E+02  0.00000000000E+00 0.  1.
         11    1    3    3    0    0 -0.11283421052E+02 -0.12209699009E+02  0.17947394922E+01  0.16721645572E+02  0.51100000000E-03 0. -1.
        -11    1    3    3    0    0 -0.17086837774E+02 -0.18350235466E+02  0.71566250222E+01  0.26075054146E+02  0.51100000000E-03 0.  1.
        -12    1    3    3    0    0 -0.62361754028E+00 -0.30419379846E+01 -0.12453407321E+01  0.33456178917E+01  0.00000000000E+00 0.  1.
</event>
<event>
 7    1  0.3986981E-008  0.4614231E+02  0.7816164E-02  0.1320468E+00
        -11   -1    0    0    0    0  0.00000000000E+00  0.00000000000E+00  0.45593999997E+02  0.45594000000E+02  0.51100000000E-03 0. -1.
         11   -1    0    0    0    0 -0.00000000000E+00 -0.00000000000E+00 -0.45593999997E+02  0.45594000000E+02  0.51100000000E-03 0.  1.
    9900012    2    1    2    0    0 -0.49699642124E+00  0.41581922420E+02  0.17315035707E+02  0.46142314978E+02  0.99999746239E+01 0.  0.
        -12    1    1    2    0    0  0.49699642124E+00 -0.41581922420E+02 -0.17315035707E+02  0.45045685022E+02  0.00000000000E+00 0.  1.
         11    1    3    3    0    0  0.27171966865E+01  0.98282414813E+01  0.33083966317E+01  0.10720213477E+02  0.51100000000E-03 0. -1.
        -11    1    3    3    0    0 -0.34792516287E+01  0.75314297565E+01  0.40494088575E+01  0.92317570608E+01  0.51100000000E-03 0.  1.
         12    1    3    3    0    0  0.26505852103E+00  0.24222251182E+02  0.99572302176E+01  0.26190344441E+02  0.00000000000E+00 0. -1.
</event>
<event>
 7    1  0.3986981E-008  0.4614231E+02  0.7816164E-02  0.1320468E+00
        -11   -1    0    0    0    0  0.00000000000E+00  0.00000000000E+00  0.45593999997E+02  0.45594000000E+02  0.51100000000E-03 0.  1.
         11   -1    0    0    0    0 -0.00000000000E+00 -0.00000000000E+00 -0.45593999997E+02  0.45594000000E+02  0.51100000000E-03 0. -1.
    9900012    2    1    2    0    0 -0.22912725764E+02  0.30673334659E+02  0.23733256853E+02  0.46142312727E+02  0.99999540924E+01 0.  0.
        -12    1    1    2    0    0  0.22912725764E+02 -0.30673334659E+02 -0.23733256853E+02  0.45045687273E+02  0.00000000000E+00 0.  1.
         11    1    3    3    0    0 -0.75114024469E+01  0.96897017301E+01  0.48607685682E+01  0.13188576787E+02  0.51100000000E-03 0. -1.
        -11    1    3    3    0    0 -0.61418429488E+01  0.32194485751E+01  0.40163133628E+01  0.80136045089E+01  0.51100000000E-03 0.  1.
         12    1    3    3    0    0 -0.92594803685E+01  0.17764184354E+02  0.14856174922E+02  0.24940131431E+02  0.00000000000E+00 0. -1.
</event>
<event>
 7    1  0.3986981E-008  0.4614232E+02  0.7816164E-02  0.1320468E+00
        -11   -1    0    0    0    0  0.00000000000E+00  0.00000000000E+00  0.45593999997E+02  0.45594000000E+02  0.51100000000E-03 0. -1.
         11   -1    0    0    0    0 -0.00000000000E+00 -0.00000000000E+00 -0.45593999997E+02  0.45594000000E+02  0.51100000000E-03 0.  1.
    9900012    2    1    2    0    0  0.42841811853E+02  0.13240573607E+02  0.42871991318E+01  0.46142315316E+02  0.99999777016E+01 0.  0.
        -12    1    1    2    0    0 -0.42841811853E+02 -0.13240573607E+02 -0.42871991318E+01  0.45045684684E+02  0.00000000000E+00 0.  1.
         11    1    3    3    0    0  0.34150822983E+02  0.10617480427E+02  0.30260299117E+01  0.35891035905E+02  0.51100000000E-03 0. -1.
        -11    1    3    3    0    0  0.35455822242E+01  0.13390644088E+01  0.28196267718E+01  0.47238270706E+01  0.51100000000E-03 0.  1.
        -12    1    3    3    0    0  0.51454066451E+01  0.12840287712E+01 -0.15584575518E+01  0.55274523399E+01  0.00000000000E+00 0.  1.
</event>
<event>
 7    1  0.3986981E-008  0.4614232E+02  0.7816164E-02  0.1320468E+00
        -11   -1    0    0    0    0  0.00000000000E+00  0.00000000000E+00  0.45593999997E+02  0.45594000000E+02  0.51100000000E-03 0. -1.
         11   -1    0    0    0    0 -0.00000000000E+00 -0.00000000000E+00 -0.45593999997E+02  0.45594000000E+02  0.51100000000E-03 0.  1.
    9900012    2    1    2    0    0  0.18452555688E+02  0.37224240320E+02  0.17406103102E+02  0.46142319808E+02  0.10000018662E+02 0.  0.
        -12    1    1    2    0    0 -0.18452555688E+02 -0.37224240320E+02 -0.17406103102E+02  0.45045680192E+02  0.00000000000E+00 0.  1.
         11    1    3    3    0    0  0.63953971146E+01  0.11629702720E+02  0.65517103800E+01  0.14801216125E+02  0.51100000000E-03 0. -1.
        -11    1    3    3    0    0  0.43621430881E+01  0.17990996110E+02  0.78967093988E+01  0.20126158425E+02  0.51100000000E-03 0.  1.
        -12    1    3    3    0    0  0.76950154849E+01  0.76035414898E+01  0.29576833236E+01  0.11214945258E+02  0.00000000000E+00 0.  1.
</event>
<event>
 7    1  0.3986981E-008  0.4614232E+02  0.7816164E-02  0.1320468E+00
        -11   -1    0    0    0    0  0.00000000000E+00  0.00000000000E+00  0.45593999997E+02  0.45594000000E+02  0.51100000000E-03 0. -1.
         11   -1    0    0    0    0 -0.00000000000E+00 -0.00000000000E+00 -0.45593999997E+02  0.45594000000E+02  0.51100000000E-03 0.  1.
    9900012    2    1    2    0    0 -0.23235260852E+01 -0.43928244097E+02 -0.96966064467E+01  0.46142316749E+02  0.99999907748E+01 0.  0.
        -12    1    1    2    0    0  0.23235260852E+01  0.43928244097E+02  0.96966064467E+01  0.45045683251E+02  0.00000000000E+00 0.  1.
         11    1    3    3    0    0 -0.31162752518E+01 -0.35475947497E+02 -0.70301214194E+01  0.36299815836E+02  0.51100000000E-03 0. -1.
        -11    1    3    3    0    0 -0.95639415834E+00 -0.43333139962E+01 -0.29977637411E+01  0.53552672842E+01  0.51100000000E-03 0.  1.
         12    1    3    3    0    0  0.17491433249E+01 -0.41189826037E+01  0.33127871384E+00  0.44872336296E+01  0.00000000000E+00 0. -1.
</event>
<event>
 7    1  0.3986981E-008  0.4614232E+02  0.7816164E-02  0.1320468E+00
        -11   -1    0    0    0    0  0.00000000000E+00  0.00000000000E+00  0.45593999997E+02  0.45594000000E+02  0.51100000000E-03 0.  1.
         11   -1    0    0    0    0 -0.00000000000E+00 -0.00000000000E+00 -0.45593999997E+02  0.45594000000E+02  0.51100000000E-03 0. -1.
    9900012    2    1    2    0    0  0.84550748868E+01  0.41908511686E+02 -0.14188088562E+02  0.46142317631E+02  0.99999988135E+01 0.  0.
        -12    1    1    2    0    0 -0.84550748868E+01 -0.41908511686E+02  0.14188088562E+02  0.45045682369E+02  0.00000000000E+00 0.  1.
         11    1    3    3    0    0  0.32671899415E+01  0.13191839389E+02 -0.48908782899E+01  0.14443678454E+02  0.51100000000E-03 0. -1.
        -11    1    3    3    0    0 -0.21938078684E+01  0.63096868766E+01 -0.14456836420E+01  0.68348330556E+01  0.51100000000E-03 0.  1.
        -12    1    3    3    0    0  0.73816928138E+01  0.22406985420E+02 -0.78515266299E+01  0.24863806121E+02  0.00000000000E+00 0.  1.
</event>
<event>
 7    1  0.3994982E-008  0.4614232E+02  0.7816164E-02  0.1320468E+00
        -11   -1    0    0    0    0  0.00000000000E+00  0.00000000000E+00  0.45593999997E+02  0.45594000000E+02  0.51100000000E-03 0. -1.
         11   -1    0    0    0    0 -0.00000000000E+00 -0.00000000000E+00 -0.45593999997E+02  0.45594000000E+02  0.51100000000E-03 0.  1.
    9900012    2    1    2    0    0  0.24176155796E+02  0.37635835780E+02  0.53076230997E+01  0.46142317555E+02  0.99999981241E+01 0.  0.
        -12    1    1    2    0    0 -0.24176155796E+02 -0.37635835780E+02 -0.53076230997E+01  0.45045682445E+02  0.00000000000E+00 0.  1.
         11    1    3    3    0    0  0.11630935353E+02  0.18743741241E+02  0.40161514028E+01  0.22421774355E+02  0.51100000000E-03 0. -1.
        -11    1    3    3    0    0  0.11549412651E+02  0.19022857483E+02  0.22492086306E+00  0.22255530303E+02  0.51100000000E-03 0.  1.
        -12    1    3    3    0    0  0.99580779207E+00 -0.13076294454E+00  0.10665508339E+01  0.14650128967E+01  0.00000000000E+00 0.  1.
</event>
<event>
 7    1  0.3986981E-008  0.4614231E+02  0.7816164E-02  0.1320468E+00
        -11   -1    0    0    0    0  0.00000000000E+00  0.00000000000E+00  0.45593999997E+02  0.45594000000E+02  0.51100000000E-03 0.  1.
         11   -1    0    0    0    0 -0.00000000000E+00 -0.00000000000E+00 -0.45593999997E+02  0.45594000000E+02  0.51100000000E-03 0. -1.
    9900012    2    1    2    0    0  0.71784537440E+01 -0.96662639718E+01 -0.43406770555E+02  0.46142305562E+02  0.99998887612E+01 0.  0.
        -12    1    1    2    0    0 -0.71784537440E+01  0.96662639718E+01  0.43406770555E+02  0.45045694438E+02  0.00000000000E+00 0.  1.
         11    1    3    3    0    0 -0.14342730784E+01  0.30803665024E+00 -0.11819737235E+02  0.11910424610E+02  0.51100000000E-03 0. -1.
        -11    1    3    3    0    0  0.23408465060E+01 -0.24478166010E+01 -0.87046022582E+01  0.93403141924E+01  0.51100000000E-03 0.  1.
         12    1    3    3    0    0  0.62718803164E+01 -0.75264840210E+01 -0.22882431063E+02  0.24891566760E+02  0.00000000000E+00 0. -1.
</event>
<event>
 7    1  0.3986981E-008  0.4614232E+02  0.7816164E-02  0.1320468E+00
        -11   -1    0    0    0    0  0.00000000000E+00  0.00000000000E+00  0.45593999997E+02  0.45594000000E+02  0.51100000000E-03 0.  1.
         11   -1    0    0    0    0 -0.00000000000E+00 -0.00000000000E+00 -0.45593999997E+02  0.45594000000E+02  0.51100000000E-03 0. -1.
    9900012    2    1    2    0    0 -0.40131863317E+02  0.10545877178E+02 -0.17530872005E+02  0.46142318165E+02  0.10000003683E+02 0.  0.
        -12    1    1    2    0    0  0.40131863317E+02 -0.10545877178E+02  0.17530872005E+02  0.45045681835E+02  0.00000000000E+00 0.  1.
         11    1    3    3    0    0 -0.21709361084E+02  0.72085403591E+01 -0.61586425518E+01  0.23689413060E+02  0.51100000000E-03 0. -1.
        -11    1    3    3    0    0 -0.83979392727E+00 -0.36618005821E+00  0.36980793057E+00  0.98797765255E+00  0.51100000000E-03 0.  1.
         12    1    3    3    0    0 -0.17582708305E+02  0.37035168770E+01 -0.11742037384E+02  0.21464927452E+02  0.00000000000E+00 0. -1.
</event>
<event>
 7    1  0.3986981E-008  0.4614232E+02  0.7816164E-02  0.1320468E+00
        -11   -1    0    0    0    0  0.00000000000E+00  0.00000000000E+00  0.45593999997E+02  0.45594000000E+02  0.51100000000E-03 0.  1.
         11   -1    0    0    0    0 -0.00000000000E+00 -0.00000000000E+00 -0.45593999997E+02  0.45594000000E+02  0.51100000000E-03 0. -1.
    9900012    2    1    2    0    0  0.26349243579E+02 -0.25379021691E+02 -0.26281860041E+02  0.46142317117E+02  0.99999941271E+01 0.  0.
        -12    1    1    2    0    0 -0.26349243579E+02  0.25379021691E+02  0.26281860041E+02  0.45045682883E+02  0.00000000000E+00 0.  1.
         11    1    3    3    0    0  0.15389296565E+02 -0.16191494014E+02 -0.17008357522E+02  0.28076309462E+02  0.51100000000E-03 0. -1.
        -11    1    3    3    0    0  0.37415103869E+01 -0.41108892681E+01 -0.43420042102E+00  0.55755574444E+01  0.51100000000E-03 0.  1.
         12    1    3    3    0    0  0.72184366270E+01 -0.50766384090E+01 -0.88393020985E+01  0.12490450210E+02  0.00000000000E+00 0. -1.
</event>
<event>
 7    1  0.3986981E-008  0.4614232E+02  0.7816164E-02  0.1320468E+00
        -11   -1    0    0    0    0  0.00000000000E+00  0.00000000000E+00  0.45593999997E+02  0.45594000000E+02  0.51100000000E-03 0. -1.
         11   -1    0    0    0    0 -0.00000000000E+00 -0.00000000000E+00 -0.45593999997E+02  0.45594000000E+02  0.51100000000E-03 0.  1.
    9900012    2    1    2    0    0  0.29589007200E+01  0.34004517017E+02 -0.29394747788E+02  0.46142317981E+02  0.10000002008E+02 0.  0.
        -12    1    1    2    0    0 -0.29589007200E+01 -0.34004517017E+02  0.29394747788E+02  0.45045682019E+02  0.00000000000E+00 0.  1.
         11    1    3    3    0    0 -0.17479192430E+01  0.11871824555E+02 -0.11789804229E+02  0.16822452971E+02  0.51100000000E-03 0. -1.
        -11    1    3    3    0    0  0.27027209826E+01  0.11516584885E+02 -0.12997660209E+02  0.17574857020E+02  0.51100000000E-03 0.  1.
         12    1    3    3    0    0  0.20040989803E+01  0.10616107577E+02 -0.46072833496E+01  0.11745007990E+02  0.00000000000E+00 0. -1.
</event>
<event>
 7    1  0.3986981E-008  0.4614232E+02  0.7816164E-02  0.1320468E+00
        -11   -1    0    0    0    0  0.00000000000E+00  0.00000000000E+00  0.45593999997E+02  0.45594000000E+02  0.51100000000E-03 0.  1.
         11   -1    0    0    0    0 -0.00000000000E+00 -0.00000000000E+00 -0.45593999997E+02  0.45594000000E+02  0.51100000000E-03 0. -1.
    9900012    2    1    2    0    0  0.28861222041E+02 -0.28007212297E+02 -0.20291363196E+02  0.46142317647E+02  0.99999989582E+01 0.  0.
        -12    1    1    2    0    0 -0.28861222041E+02  0.28007212297E+02  0.20291363196E+02  0.45045682353E+02  0.00000000000E+00 0.  1.
         11    1    3    3    0    0  0.11038729541E+02 -0.82128286256E+01 -0.95934007533E+01  0.16773116651E+02  0.51100000000E-03 0. -1.
        -11    1    3    3    0    0 -0.44656769917E+00 -0.94357824339E+00 -0.62985167038E-01  0.10458154731E+01  0.51100000000E-03 0.  1.
        -12    1    3    3    0    0  0.18269060199E+02 -0.18850805428E+02 -0.10634977275E+02  0.28323385523E+02  0.00000000000E+00 0.  1.
</event>
<event>
 7    1  0.3986981E-008  0.4614232E+02  0.7816164E-02  0.1320468E+00
        -11   -1    0    0    0    0  0.00000000000E+00  0.00000000000E+00  0.45593999997E+02  0.45594000000E+02  0.51100000000E-03 0.  1.
         11   -1    0    0    0    0 -0.00000000000E+00 -0.00000000000E+00 -0.45593999997E+02  0.45594000000E+02  0.51100000000E-03 0. -1.
    9900012    2    1    2    0    0  0.29045872475E+01  0.11193742584E+02 -0.43535927581E+02  0.46142317738E+02  0.99999997853E+01 0.  0.
        -12    1    1    2    0    0 -0.29045872475E+01 -0.11193742584E+02  0.43535927581E+02  0.45045682262E+02  0.00000000000E+00 0.  1.
         11    1    3    3    0    0  0.46261575330E+01  0.52028106412E+01 -0.15798963040E+02  0.17264929930E+02  0.51100000000E-03 0. -1.
        -11    1    3    3    0    0 -0.18317627880E+01  0.41659341223E+00 -0.31622516914E+01  0.36781436899E+01  0.51100000000E-03 0.  1.
         12    1    3    3    0    0  0.11019250238E+00  0.55743385305E+01 -0.24574712850E+02  0.25199244117E+02  0.00000000000E+00 0. -1.
</event>
<event>
 7    1  0.3986981E-008  0.4614232E+02  0.7816164E-02  0.1320468E+00
        -11   -1    0    0    0    0  0.00000000000E+00  0.00000000000E+00  0.45593999997E+02  0.45594000000E+02  0.51100000000E-03 0.  1.
         11   -1    0    0    0    0 -0.00000000000E+00 -0.00000000000E+00 -0.45593999997E+02  0.45594000000E+02  0.51100000000E-03 0. -1.
    9900012    2    1    2    0    0  0.14750219923E+02 -0.41606698665E+02 -0.89681109222E+01  0.46142319018E+02  0.10000011463E+02 0.  0.
        -12    1    1    2    0    0 -0.14750219923E+02  0.41606698665E+02  0.89681109222E+01  0.45045680982E+02  0.00000000000E+00 0.  1.
         11    1    3    3    0    0 -0.52462319815E+00 -0.28322211327E+01 -0.14606914810E+01  0.32296015092E+01  0.51100000000E-03 0. -1.
        -11    1    3    3    0    0  0.67441263665E+01 -0.10790513726E+02 -0.45267465246E+01  0.13505919490E+02  0.51100000000E-03 0.  1.
         12    1    3    3    0    0  0.85307167549E+01 -0.27983963806E+02 -0.29806729166E+01  0.29406798018E+02  0.00000000000E+00 0. -1.
</event>
<event>
 7    1  0.3986981E-008  0.4614232E+02  0.7816164E-02  0.1320468E+00
        -11   -1    0    0    0    0  0.00000000000E+00  0.00000000000E+00  0.45593999997E+02  0.45594000000E+02  0.51100000000E-03 0. -1.
         11   -1    0    0    0    0 -0.00000000000E+00 -0.00000000000E+00 -0.45593999997E+02  0.45594000000E+02  0.51100000000E-03 0.  1.
    9900012    2    1    2    0    0  0.12732350616E+02 -0.27186299966E+02 -0.33584308294E+02  0.46142318502E+02  0.10000006752E+02 0.  0.
        -12    1    1    2    0    0 -0.12732350616E+02  0.27186299966E+02  0.33584308294E+02  0.45045681498E+02  0.00000000000E+00 0.  1.
         11    1    3    3    0    0  0.36678676648E+01 -0.64832027716E+01 -0.67098212211E+01  0.10025311589E+02  0.51100000000E-03 0. -1.
        -11    1    3    3    0    0  0.85257445164E+01 -0.17645905889E+02 -0.17613573954E+02  0.26349654683E+02  0.51100000000E-03 0.  1.
        -12    1    3    3    0    0  0.53873843444E+00 -0.30571913060E+01 -0.92609131187E+01  0.97673522295E+01  0.00000000000E+00 0.  1.
</event>
<event>
 7    1  0.3986981E-008  0.4614232E+02  0.7816164E-02  0.1320468E+00
        -11   -1    0    0    0    0  0.00000000000E+00  0.00000000000E+00  0.45593999997E+02  0.45594000000E+02  0.51100000000E-03 0.  1.
         11   -1    0    0    0    0 -0.00000000000E+00 -0.00000000000E+00 -0.45593999997E+02  0.45594000000E+02  0.51100000000E-03 0. -1.
    9900012    2    1    2    0    0 -0.69038784134E+01  0.41329198018E+02 -0.16533219083E+02  0.46142317862E+02  0.10000000924E+02 0.  0.
        -12    1    1    2    0    0  0.69038784134E+01 -0.41329198018E+02  0.16533219083E+02  0.45045682138E+02  0.00000000000E+00 0.  1.
         11    1    3    3    0    0 -0.20813509427E+01  0.29107715334E+02 -0.12997242168E+02  0.31945569613E+02  0.51100000000E-03 0. -1.
        -11    1    3    3    0    0 -0.13979951428E+00  0.18399613690E+01 -0.19726698938E+01  0.27011902034E+01  0.51100000000E-03 0.  1.
        -12    1    3    3    0    0 -0.46827279564E+01  0.10381521316E+02 -0.15633070219E+01  0.11495558046E+02  0.00000000000E+00 0.  1.
</event>
<event>
 7    1  0.3986981E-008  0.4614232E+02  0.7816164E-02  0.1320468E+00
        -11   -1    0    0    0    0  0.00000000000E+00  0.00000000000E+00  0.45593999997E+02  0.45594000000E+02  0.51100000000E-03 0. -1.
         11   -1    0    0    0    0 -0.00000000000E+00 -0.00000000000E+00 -0.45593999997E+02  0.45594000000E+02  0.51100000000E-03 0.  1.
    9900012    2    1    2    0    0 -0.19501289300E+02  0.18330143813E+02 -0.36232843655E+02  0.46142318565E+02  0.10000007332E+02 0.  0.
        -12    1    1    2    0    0  0.19501289300E+02 -0.18330143813E+02  0.36232843655E+02  0.45045681435E+02  0.00000000000E+00 0.  1.
         11    1    3    3    0    0 -0.19933577947E+01 -0.76680474643E+00 -0.12380870369E+01  0.24686685863E+01  0.51100000000E-03 0. -1.
        -11    1    3    3    0    0 -0.16910195809E+02  0.17129997894E+02 -0.32423117000E+02  0.40381308379E+02  0.51100000000E-03 0.  1.
        -12    1    3    3    0    0 -0.59773569664E+00  0.19669506657E+01 -0.25716396184E+01  0.32923416001E+01  0.00000000000E+00 0.  1.
</event>
<event>
 7    1  0.3986981E-008  0.4614232E+02  0.7816164E-02  0.1320468E+00
        -11   -1    0    0    0    0  0.00000000000E+00  0.00000000000E+00  0.45593999997E+02  0.45594000000E+02  0.51100000000E-03 0. -1.
         11   -1    0    0    0    0 -0.00000000000E+00 -0.00000000000E+00 -0.45593999997E+02  0.45594000000E+02  0.51100000000E-03 0.  1.
    9900012    2    1    2    0    0 -0.15924506679E+02 -0.14800031160E+02  0.39452281400E+02  0.46142319375E+02  0.10000014719E+02 0.  0.
        -12    1    1    2    0    0  0.15924506679E+02  0.14800031160E+02 -0.39452281400E+02  0.45045680625E+02  0.00000000000E+00 0.  1.
         11    1    3    3    0    0 -0.35496630967E+01 -0.46215002008E+01  0.14120574830E+02  0.15275765317E+02  0.51100000000E-03 0. -1.
        -11    1    3    3    0    0 -0.70952645763E+01 -0.14120070525E+01  0.84346271445E+01  0.11112132048E+02  0.51100000000E-03 0.  1.
        -12    1    3    3    0    0 -0.52795790056E+01 -0.87665239069E+01  0.16897079425E+02  0.19754422011E+02  0.00000000000E+00 0.  1.
</event>
<event>
 7    1  0.3986981E-008  0.4614232E+02  0.7816164E-02  0.1320468E+00
        -11   -1    0    0    0    0  0.00000000000E+00  0.00000000000E+00  0.45593999997E+02  0.45594000000E+02  0.51100000000E-03 0.  1.
         11   -1    0    0    0    0 -0.00000000000E+00 -0.00000000000E+00 -0.45593999997E+02  0.45594000000E+02  0.51100000000E-03 0. -1.
    9900012    2    1    2    0    0  0.68622393030E+01 -0.75039362821E+01 -0.43882959554E+02  0.46142317331E+02  0.99999960738E+01 0.  0.
        -12    1    1    2    0    0 -0.68622393030E+01  0.75039362821E+01  0.43882959554E+02  0.45045682669E+02  0.00000000000E+00 0.  1.
         11    1    3    3    0    0  0.22907687870E+01 -0.12725156673E+01 -0.25798598613E+02  0.25931344130E+02  0.51100000000E-03 0. -1.
        -11    1    3    3    0    0  0.14220403538E+01  0.54869934064E+00 -0.25382281113E+01  0.29607215236E+01  0.51100000000E-03 0.  1.
        -12    1    3    3    0    0  0.31494301623E+01 -0.67801199554E+01 -0.15546132829E+02  0.17250251677E+02  0.00000000000E+00 0.  1.
</event>
<event>
 7    1  0.3986981E-008  0.4614232E+02  0.7816164E-02  0.1320468E+00
        -11   -1    0    0    0    0  0.00000000000E+00  0.00000000000E+00  0.45593999997E+02  0.45594000000E+02  0.51100000000E-03 0.  1.
         11   -1    0    0    0    0 -0.00000000000E+00 -0.00000000000E+00 -0.45593999997E+02  0.45594000000E+02  0.51100000000E-03 0. -1.
    9900012    2    1    2    0    0  0.74666226802E+01 -0.53791488828E+00 -0.44419295927E+02  0.46142315885E+02  0.99999828962E+01 0.  0.
        -12    1    1    2    0    0 -0.74666226802E+01  0.53791488828E+00  0.44419295927E+02  0.45045684115E+02  0.00000000000E+00 0.  1.
         11    1    3    3    0    0  0.20385727463E+01  0.96239731730E-02 -0.28083343031E+02  0.28157237569E+02  0.51100000000E-03 0. -1.
        -11    1    3    3    0    0  0.27060927442E+01 -0.28609589156E+01 -0.80365280356E+01  0.89495143435E+01  0.51100000000E-03 0.  1.
         12    1    3    3    0    0  0.27219571897E+01  0.23134200542E+01 -0.82994248607E+01  0.90355639729E+01  0.00000000000E+00 0. -1.
</event>
<event>
 7    1  0.3986981E-008  0.4614232E+02  0.7816164E-02  0.1320468E+00
        -11   -1    0    0    0    0  0.00000000000E+00  0.00000000000E+00  0.45593999997E+02  0.45594000000E+02  0.51100000000E-03 0. -1.
         11   -1    0    0    0    0 -0.00000000000E+00 -0.00000000000E+00 -0.45593999997E+02  0.45594000000E+02  0.51100000000E-03 0.  1.
    9900012    2    1    2    0    0 -0.30315780296E+02  0.30531091524E+02  0.13338646094E+02  0.46142316919E+02  0.99999923187E+01 0.  0.
        -12    1    1    2    0    0  0.30315780296E+02 -0.30531091524E+02 -0.13338646094E+02  0.45045683081E+02  0.00000000000E+00 0.  1.
         11    1    3    3    0    0 -0.70388354315E+01  0.97724900293E+01  0.30777401898E+01  0.12430577241E+02  0.51100000000E-03 0. -1.
        -11    1    3    3    0    0 -0.24867135607E+00  0.27688272151E+01  0.12897974263E+00  0.27829620237E+01  0.51100000000E-03 0.  1.
         12    1    3    3    0    0 -0.23028273509E+02  0.17989774280E+02  0.10131926162E+02  0.30928777654E+02  0.00000000000E+00 0. -1.
</event>
<event>
 7    1  0.3986981E-008  0.4614232E+02  0.7816164E-02  0.1320468E+00
        -11   -1    0    0    0    0  0.00000000000E+00  0.00000000000E+00  0.45593999997E+02  0.45594000000E+02  0.51100000000E-03 0. -1.
         11   -1    0    0    0    0 -0.00000000000E+00 -0.00000000000E+00 -0.45593999997E+02  0.45594000000E+02  0.51100000000E-03 0.  1.
    9900012    2    1    2    0    0  0.34806515144E+02  0.27101935391E+02  0.91161980909E+01  0.46142318009E+02  0.10000002260E+02 0.  0.
        -12    1    1    2    0    0 -0.34806515144E+02 -0.27101935391E+02 -0.91161980909E+01  0.45045681991E+02  0.00000000000E+00 0.  1.
         11    1    3    3    0    0  0.87137230838E+00  0.19145865603E+01  0.13070310338E+01  0.24765423035E+01  0.51100000000E-03 0. -1.
        -11    1    3    3    0    0  0.23786051270E+02  0.18879538026E+02  0.21502886978E+01  0.30443996663E+02  0.51100000000E-03 0.  1.
        -12    1    3    3    0    0  0.10149091566E+02  0.63078108056E+01  0.56588783593E+01  0.13221779043E+02  0.00000000000E+00 0.  1.
</event>
<event>
 7    1  0.3986981E-008  0.4614232E+02  0.7816164E-02  0.1320468E+00
        -11   -1    0    0    0    0  0.00000000000E+00  0.00000000000E+00  0.45593999997E+02  0.45594000000E+02  0.51100000000E-03 0.  1.
         11   -1    0    0    0    0 -0.00000000000E+00 -0.00000000000E+00 -0.45593999997E+02  0.45594000000E+02  0.51100000000E-03 0. -1.
    9900012    2    1    2    0    0 -0.31427675382E+02 -0.27312422490E+02 -0.17188541884E+02  0.46142321247E+02  0.10000031791E+02 0.  0.
        -12    1    1    2    0    0  0.31427675382E+02  0.27312422490E+02  0.17188541884E+02  0.45045678753E+02  0.00000000000E+00 0.  1.
         11    1    3    3    0    0 -0.21429251423E+02 -0.21258238289E+02 -0.15999990249E+02  0.34163214134E+02  0.51100000000E-03 0. -1.
        -11    1    3    3    0    0 -0.37245964577E+01 -0.98816238970E+00 -0.26496086049E+00  0.38625494430E+01  0.51100000000E-03 0.  1.
         12    1    3    3    0    0 -0.62738275006E+01 -0.50660218115E+01 -0.92359077468E+00  0.81165576706E+01  0.00000000000E+00 0. -1.
</event>
<event>
 7    1  0.3986981E-008  0.4614232E+02  0.7816164E-02  0.1320468E+00
        -11   -1    0    0    0    0  0.00000000000E+00  0.00000000000E+00  0.45593999997E+02  0.45594000000E+02  0.51100000000E-03 0.  1.
         11   -1    0    0    0    0 -0.00000000000E+00 -0.00000000000E+00 -0.45593999997E+02  0.45594000000E+02  0.51100000000E-03 0. -1.
    9900012    2    1    2    0    0 -0.14038204987E+02  0.24800670455E+02 -0.34885085888E+02  0.46142315726E+02  0.99999814415E+01 0.  0.
        -12    1    1    2    0    0  0.14038204987E+02 -0.24800670455E+02  0.34885085888E+02  0.45045684274E+02  0.00000000000E+00 0.  1.
         11    1    3    3    0    0 -0.55625909750E+01  0.16669883917E+02 -0.23828387724E+02  0.29607760975E+02  0.51100000000E-03 0.  1.
        -11    1    3    3    0    0 -0.38683266736E+01  0.50290365753E+01 -0.37975509461E+01  0.73943595786E+01  0.51100000000E-03 0. -1.
        -12    1    3    3    0    0 -0.46072873389E+01  0.31017499630E+01 -0.72591472181E+01  0.91401951724E+01  0.00000000000E+00 0.  1.
</event>
<event>
 7    1  0.3986981E-008  0.4614232E+02  0.7816164E-02  0.1320468E+00
        -11   -1    0    0    0    0  0.00000000000E+00  0.00000000000E+00  0.45593999997E+02  0.45594000000E+02  0.51100000000E-03 0.  1.
         11   -1    0    0    0    0 -0.00000000000E+00 -0.00000000000E+00 -0.45593999997E+02  0.45594000000E+02  0.51100000000E-03 0. -1.
    9900012    2    1    2    0    0  0.33734578296E+02  0.28473717725E+01 -0.29715050053E+02  0.46142317649E+02  0.99999989777E+01 0.  0.
        -12    1    1    2    0    0 -0.33734578296E+02 -0.28473717725E+01  0.29715050053E+02  0.45045682351E+02  0.00000000000E+00 0.  1.
         11    1    3    3    0    0  0.66095582459E+01  0.48728646138E+00 -0.11251428300E+02  0.13058267395E+02  0.51100000000E-03 0. -1.
        -11    1    3    3    0    0  0.10221671186E+01 -0.48965338326E+00 -0.12471204509E+01  0.16851990192E+01  0.51100000000E-03 0.  1.
         12    1    3    3    0    0  0.26102852932E+02  0.28497386944E+01 -0.17216501301E+02  0.31398851235E+02  0.00000000000E+00 0. -1.
</event>
<event>
 7    1  0.3986981E-008  0.4614231E+02  0.7816164E-02  0.1320468E+00
        -11   -1    0    0    0    0  0.00000000000E+00  0.00000000000E+00  0.45593999997E+02  0.45594000000E+02  0.51100000000E-03 0.  1.
         11   -1    0    0    0    0 -0.00000000000E+00 -0.00000000000E+00 -0.45593999997E+02  0.45594000000E+02  0.51100000000E-03 0. -1.
    9900012    2    1    2    0    0 -0.14754481670E+01 -0.44288068399E+02 -0.80934430697E+01  0.46142314629E+02  0.99999714409E+01 0.  0.
        -12    1    1    2    0    0  0.14754481670E+01  0.44288068399E+02  0.80934430697E+01  0.45045685371E+02  0.00000000000E+00 0.  1.
         11    1    3    3    0    0 -0.92791665409E+00 -0.18594794411E+02 -0.18058019863E+01  0.18705302178E+02  0.51100000000E-03 0. -1.
        -11    1    3    3    0    0 -0.35858628309E+01 -0.88724014841E+01 -0.30160263922E+01  0.10033660140E+02  0.51100000000E-03 0.  1.
         12    1    3    3    0    0  0.30383313180E+01 -0.16820872504E+02 -0.32716146912E+01  0.17403352312E+02  0.00000000000E+00 0. -1.
</event>
<event>
 7    1  0.3986981E-008  0.4614232E+02  0.7816164E-02  0.1320468E+00
        -11   -1    0    0    0    0  0.00000000000E+00  0.00000000000E+00  0.45593999997E+02  0.45594000000E+02  0.51100000000E-03 0.  1.
         11   -1    0    0    0    0 -0.00000000000E+00 -0.00000000000E+00 -0.45593999997E+02  0.45594000000E+02  0.51100000000E-03 0. -1.
    9900012    2    1    2    0    0 -0.42434169636E+02  0.13390308621E+02 -0.70110065820E+01  0.46142319508E+02  0.10000015931E+02 0.  0.
        -12    1    1    2    0    0  0.42434169636E+02 -0.13390308621E+02  0.70110065820E+01  0.45045680492E+02  0.00000000000E+00 0.  1.
         11    1    3    3    0    0 -0.21991902179E+02  0.39038944918E+01 -0.36853393393E+01  0.22637709248E+02  0.51100000000E-03 0.  1.
        -11    1    3    3    0    0 -0.15294156723E+02  0.74849710794E+01 -0.49762892055E+01  0.17739771037E+02  0.51100000000E-03 0. -1.
         12    1    3    3    0    0 -0.51481107340E+01  0.20014430497E+01  0.16506219628E+01  0.57648392237E+01  0.00000000000E+00 0. -1.
</event>
<event>
 7    1  0.3986981E-008  0.4614232E+02  0.7816164E-02  0.1320468E+00
        -11   -1    0    0    0    0  0.00000000000E+00  0.00000000000E+00  0.45593999997E+02  0.45594000000E+02  0.51100000000E-03 0.  1.
         11   -1    0    0    0    0 -0.00000000000E+00 -0.00000000000E+00 -0.45593999997E+02  0.45594000000E+02  0.51100000000E-03 0. -1.
    9900012    2    1    2    0    0  0.24630466599E+02 -0.24067793242E+02 -0.29037817722E+02  0.46142318581E+02  0.10000007475E+02 0.  0.
        -12    1    1    2    0    0 -0.24630466599E+02  0.24067793242E+02  0.29037817722E+02  0.45045681419E+02  0.00000000000E+00 0.  1.
         11    1    3    3    0    0  0.21431476918E-01  0.59133067786E-01 -0.16841844350E+01  0.16853585673E+01  0.51100000000E-03 0.  1.
        -11    1    3    3    0    0  0.47165229213E+01 -0.79602028681E+01 -0.91865740330E+01  0.13038541364E+02  0.51100000000E-03 0. -1.
        -12    1    3    3    0    0  0.19892512201E+02 -0.16166723442E+02 -0.18167059254E+02  0.31418418650E+02  0.00000000000E+00 0.  1.
</event>
<event>
 7    1  0.3986981E-008  0.4614232E+02  0.7816164E-02  0.1320468E+00
        -11   -1    0    0    0    0  0.00000000000E+00  0.00000000000E+00  0.45593999997E+02  0.45594000000E+02  0.51100000000E-03 0.  1.
         11   -1    0    0    0    0 -0.00000000000E+00 -0.00000000000E+00 -0.45593999997E+02  0.45594000000E+02  0.51100000000E-03 0. -1.
    9900012    2    1    2    0    0  0.25332981123E+02 -0.32988378668E+02 -0.17295096415E+02  0.46142318523E+02  0.10000006947E+02 0.  0.
        -12    1    1    2    0    0 -0.25332981123E+02  0.32988378668E+02  0.17295096415E+02  0.45045681477E+02  0.00000000000E+00 0.  1.
         11    1    3    3    0    0  0.17173171931E+02 -0.15135716014E+02 -0.89549384830E+01  0.24580452740E+02  0.51100000000E-03 0. -1.
        -11    1    3    3    0    0  0.21087431615E+01 -0.24712752876E+01 -0.22272635861E+01  0.39388707279E+01  0.51100000000E-03 0.  1.
         12    1    3    3    0    0  0.60510660310E+01 -0.15381387366E+02 -0.61128943464E+01  0.17622995055E+02  0.00000000000E+00 0. -1.
</event>
<event>
 7    1  0.3986981E-008  0.4614232E+02  0.7816164E-02  0.1320468E+00
        -11   -1    0    0    0    0  0.00000000000E+00  0.00000000000E+00  0.45593999997E+02  0.45594000000E+02  0.51100000000E-03 0.  1.
         11   -1    0    0    0    0 -0.00000000000E+00 -0.00000000000E+00 -0.45593999997E+02  0.45594000000E+02  0.51100000000E-03 0. -1.
    9900012    2    1    2    0    0  0.14067088265E+02 -0.13930054112E+02 -0.40462130826E+02  0.46142318622E+02  0.10000007851E+02 0.  0.
        -12    1    1    2    0    0 -0.14067088265E+02  0.13930054112E+02  0.40462130826E+02  0.45045681378E+02  0.00000000000E+00 0.  1.
         11    1    3    3    0    0 -0.59357724425E+00 -0.12486055963E+01 -0.58913616352E+01  0.60514041393E+01  0.51100000000E-03 0. -1.
        -11    1    3    3    0    0  0.27601418170E+01 -0.56175496519E+01 -0.82716104223E+01  0.10372790665E+02  0.51100000000E-03 0.  1.
         12    1    3    3    0    0  0.11900523693E+02 -0.70638988641E+01 -0.26299158768E+02  0.29718123818E+02  0.00000000000E+00 0. -1.
</event>
<event>
 7    1  0.3986981E-008  0.4614232E+02  0.7816164E-02  0.1320468E+00
        -11   -1    0    0    0    0  0.00000000000E+00  0.00000000000E+00  0.45593999997E+02  0.45594000000E+02  0.51100000000E-03 0. -1.
         11   -1    0    0    0    0 -0.00000000000E+00 -0.00000000000E+00 -0.45593999997E+02  0.45594000000E+02  0.51100000000E-03 0.  1.
    9900012    2    1    2    0    0 -0.39561454845E+02 -0.41491071035E+01  0.21137399525E+02  0.46142318100E+02  0.10000003086E+02 0.  0.
        -12    1    1    2    0    0  0.39561454845E+02  0.41491071035E+01 -0.21137399525E+02  0.45045681900E+02  0.00000000000E+00 0.  1.
         11    1    3    3    0    0 -0.14065719726E+02 -0.40018672088E+01  0.10636495172E+02  0.18082987651E+02  0.51100000000E-03 0. -1.
        -11    1    3    3    0    0 -0.48768613891E+01 -0.15860846868E+01  0.36115351715E+01  0.62723702217E+01  0.51100000000E-03 0.  1.
        -12    1    3    3    0    0 -0.20618873730E+02  0.14388447920E+01  0.68893691811E+01  0.21786960227E+02  0.00000000000E+00 0.  1.
</event>
<event>
 7    1  0.3986981E-008  0.4614231E+02  0.7816164E-02  0.1320468E+00
        -11   -1    0    0    0    0  0.00000000000E+00  0.00000000000E+00  0.45593999997E+02  0.45594000000E+02  0.51100000000E-03 0.  1.
         11   -1    0    0    0    0 -0.00000000000E+00 -0.00000000000E+00 -0.45593999997E+02  0.45594000000E+02  0.51100000000E-03 0. -1.
    9900012    2    1    2    0    0 -0.63249994965E+01  0.34844198408E+02 -0.27838643828E+02  0.46142313508E+02  0.99999612190E+01 0.  0.
        -12    1    1    2    0    0  0.63249994965E+01 -0.34844198408E+02  0.27838643828E+02  0.45045686492E+02  0.00000000000E+00 0.  1.
         11    1    3    3    0    0 -0.56602247202E+01  0.21525970571E+02 -0.19757919296E+02  0.29762071972E+02  0.51100000000E-03 0. -1.
        -11    1    3    3    0    0 -0.18212549359E+01  0.12444778695E+02 -0.80456183174E+01  0.14930554601E+02  0.51100000000E-03 0.  1.
        -12    1    3    3    0    0  0.11564801596E+01  0.87344914241E+00 -0.35106213644E-01  0.14496869352E+01  0.00000000000E+00 0.  1.
</event>
<event>
 7    1  0.3986981E-008  0.4614232E+02  0.7816164E-02  0.1320468E+00
        -11   -1    0    0    0    0  0.00000000000E+00  0.00000000000E+00  0.45593999997E+02  0.45594000000E+02  0.51100000000E-03 0. -1.
         11   -1    0    0    0    0 -0.00000000000E+00 -0.00000000000E+00 -0.45593999997E+02  0.45594000000E+02  0.51100000000E-03 0.  1.
    9900012    2    1    2    0    0 -0.45781533846E+01 -0.26515315151E+02  0.36126060465E+02  0.46142315737E+02  0.99999815458E+01 0.  0.
        -12    1    1    2    0    0  0.45781533846E+01  0.26515315151E+02 -0.36126060465E+02  0.45045684263E+02  0.00000000000E+00 0.  1.
         11    1    3    3    0    0 -0.12705923075E+01 -0.13352316289E+02  0.17107585138E+02  0.21738634377E+02  0.51100000000E-03 0. -1.
        -11    1    3    3    0    0  0.33933668954E+00 -0.99350560914E+01  0.96999002016E+01  0.13889152354E+02  0.51100000000E-03 0.  1.
         12    1    3    3    0    0 -0.36468977666E+01 -0.32279427715E+01  0.93185751251E+01  0.10514529006E+02  0.00000000000E+00 0. -1.
</event>
<event>
 7    1  0.3986981E-008  0.4614232E+02  0.7816164E-02  0.1320468E+00
        -11   -1    0    0    0    0  0.00000000000E+00  0.00000000000E+00  0.45593999997E+02  0.45594000000E+02  0.51100000000E-03 0.  1.
         11   -1    0    0    0    0 -0.00000000000E+00 -0.00000000000E+00 -0.45593999997E+02  0.45594000000E+02  0.51100000000E-03 0. -1.
    9900012    2    1    2    0    0 -0.31258661095E+01  0.21213781208E+02 -0.39614617412E+02  0.46142318023E+02  0.10000002390E+02 0.  0.
        -12    1    1    2    0    0  0.31258661095E+01 -0.21213781208E+02  0.39614617412E+02  0.45045681977E+02  0.00000000000E+00 0.  1.
         11    1    3    3    0    0 -0.24549286223E+00  0.14115828309E+01 -0.97157179918E+01  0.98207947332E+01  0.51100000000E-03 0. -1.
        -11    1    3    3    0    0 -0.10549366476E+01  0.79440526534E+00 -0.34963073173E+01  0.37373969784E+01  0.51100000000E-03 0.  1.
        -12    1    3    3    0    0 -0.18254365997E+01  0.19007793111E+02 -0.26402592103E+02  0.32584126312E+02  0.00000000000E+00 0.  1.
</event>
<event>
 7    1  0.3986981E-008  0.4614232E+02  0.7816164E-02  0.1320468E+00
        -11   -1    0    0    0    0  0.00000000000E+00  0.00000000000E+00  0.45593999997E+02  0.45594000000E+02  0.51100000000E-03 0.  1.
         11   -1    0    0    0    0 -0.00000000000E+00 -0.00000000000E+00 -0.45593999997E+02  0.45594000000E+02  0.51100000000E-03 0. -1.
    9900012    2    1    2    0    0 -0.17981327200E+02 -0.21154279733E+02 -0.35472266978E+02  0.46142318703E+02  0.10000008591E+02 0.  0.
        -12    1    1    2    0    0  0.17981327200E+02  0.21154279733E+02  0.35472266978E+02  0.45045681297E+02  0.00000000000E+00 0.  1.
         11    1    3    3    0    0 -0.66859625761E+01 -0.14565485881E+02 -0.16103104594E+02  0.22719274908E+02  0.51100000000E-03 0. -1.
        -11    1    3    3    0    0 -0.37065091442E+01 -0.26503332361E+01 -0.78649214981E+01  0.90895251103E+01  0.51100000000E-03 0.  1.
         12    1    3    3    0    0 -0.75888554796E+01 -0.39384606160E+01 -0.11504240886E+02  0.14333518685E+02  0.00000000000E+00 0. -1.
</event>
<event>
 7    1  0.3986981E-008  0.4614232E+02  0.7816164E-02  0.1320468E+00
        -11   -1    0    0    0    0  0.00000000000E+00  0.00000000000E+00  0.45593999997E+02  0.45594000000E+02  0.51100000000E-03 0.  1.
         11   -1    0    0    0    0 -0.00000000000E+00 -0.00000000000E+00 -0.45593999997E+02  0.45594000000E+02  0.51100000000E-03 0. -1.
    9900012    2    1    2    0    0  0.44359417140E+01  0.12405670280E+02 -0.43075924989E+02  0.46142317103E+02  0.99999940008E+01 0.  0.
        -12    1    1    2    0    0 -0.44359417140E+01 -0.12405670280E+02  0.43075924989E+02  0.45045682897E+02  0.00000000000E+00 0.  1.
         11    1    3    3    0    0  0.48100909355E+01  0.45940210208E+01 -0.16629213192E+02  0.17910129413E+02  0.51100000000E-03 0. -1.
        -11    1    3    3    0    0 -0.71168323497E+00 -0.65316551593E+00 -0.63477747033E+01  0.64208536942E+01  0.51100000000E-03 0.  1.
        -12    1    3    3    0    0  0.33753401353E+00  0.84648147748E+01 -0.20098937093E+02  0.21811333996E+02  0.00000000000E+00 0.  1.
</event>
<event>
 7    1  0.3986981E-008  0.4614232E+02  0.7816164E-02  0.1320468E+00
        -11   -1    0    0    0    0  0.00000000000E+00  0.00000000000E+00  0.45593999997E+02  0.45594000000E+02  0.51100000000E-03 0. -1.
         11   -1    0    0    0    0 -0.00000000000E+00 -0.00000000000E+00 -0.45593999997E+02  0.45594000000E+02  0.51100000000E-03 0.  1.
    9900012    2    1    2    0    0  0.21979946209E+02  0.34541269668E+02  0.18785529800E+02  0.46142317904E+02  0.10000001304E+02 0.  0.
        -12    1    1    2    0    0 -0.21979946209E+02 -0.34541269668E+02 -0.18785529800E+02  0.45045682096E+02  0.00000000000E+00 0.  1.
         11    1    3    3    0    0  0.65996053331E+01  0.11308974137E+02  0.39303673889E+01  0.13670971972E+02  0.51100000000E-03 0. -1.
        -11    1    3    3    0    0  0.67983380045E+01  0.42023901784E+01  0.44153691835E+01  0.91308799205E+01  0.51100000000E-03 0.  1.
         12    1    3    3    0    0  0.85820028719E+01  0.19029905352E+02  0.10439793228E+02  0.23340466011E+02  0.00000000000E+00 0. -1.
</event>
<event>
 7    1  0.3986981E-008  0.4614231E+02  0.7816164E-02  0.1320468E+00
        -11   -1    0    0    0    0  0.00000000000E+00  0.00000000000E+00  0.45593999997E+02  0.45594000000E+02  0.51100000000E-03 0. -1.
         11   -1    0    0    0    0 -0.00000000000E+00 -0.00000000000E+00 -0.45593999997E+02  0.45594000000E+02  0.51100000000E-03 0.  1.
    9900012    2    1    2    0    0  0.44568405918E+02 -0.61523762230E+01 -0.22179319693E+01  0.46142314729E+02  0.99999723523E+01 0.  0.
        -12    1    1    2    0    0 -0.44568405918E+02  0.61523762230E+01  0.22179319693E+01  0.45045685271E+02  0.00000000000E+00 0.  1.
         11    1    3    3    0    0  0.17429306968E+02  0.46048369618E+00 -0.40107033446E+01  0.17890738615E+02  0.51100000000E-03 0.  1.
        -11    1    3    3    0    0  0.70798865612E+01 -0.15534171068E+01  0.21520128550E+01  0.75610222864E+01  0.51100000000E-03 0. -1.
        -12    1    3    3    0    0  0.20059212390E+02 -0.50594428123E+01 -0.35924147962E+00  0.20690553828E+02  0.00000000000E+00 0.  1.
</event>
<event>
 7    1  0.3986981E-008  0.4614232E+02  0.7816164E-02  0.1320468E+00
        -11   -1    0    0    0    0  0.00000000000E+00  0.00000000000E+00  0.45593999997E+02  0.45594000000E+02  0.51100000000E-03 0. -1.
         11   -1    0    0    0    0 -0.00000000000E+00 -0.00000000000E+00 -0.45593999997E+02  0.45594000000E+02  0.51100000000E-03 0.  1.
    9900012    2    1    2    0    0  0.19094187960E+02 -0.40355879753E+02 -0.59940295881E+01  0.46142318352E+02  0.10000005387E+02 0.  0.
        -12    1    1    2    0    0 -0.19094187960E+02  0.40355879753E+02  0.59940295881E+01  0.45045681648E+02  0.00000000000E+00 0.  1.
         11    1    3    3    0    0  0.80021682891E+01 -0.12453715914E+02 -0.46853437123E+01  0.15526821418E+02  0.51100000000E-03 0.  1.
        -11    1    3    3    0    0  0.47156394402E+01 -0.68207841146E+01  0.14526863893E+01  0.84184707207E+01  0.51100000000E-03 0. -1.
         12    1    3    3    0    0  0.63763802306E+01 -0.21081379724E+02 -0.27613722651E+01  0.22197026213E+02  0.00000000000E+00 0. -1.
</event>
<event>
 7    1  0.3986981E-008  0.4614232E+02  0.7816164E-02  0.1320468E+00
        -11   -1    0    0    0    0  0.00000000000E+00  0.00000000000E+00  0.45593999997E+02  0.45594000000E+02  0.51100000000E-03 0. -1.
         11   -1    0    0    0    0 -0.00000000000E+00 -0.00000000000E+00 -0.45593999997E+02  0.45594000000E+02  0.51100000000E-03 0.  1.
    9900012    2    1    2    0    0  0.20504371253E+02  0.17323092295E+02  0.36174503542E+02  0.46142317924E+02  0.10000001489E+02 0.  0.
        -12    1    1    2    0    0 -0.20504371253E+02 -0.17323092295E+02 -0.36174503542E+02  0.45045682076E+02  0.00000000000E+00 0.  1.
         11    1    3    3    0    0  0.99743564767E+01  0.84407375937E+01  0.25193218363E+02  0.28380135482E+02  0.51100000000E-03 0. -1.
        -11    1    3    3    0    0  0.13290750927E+01  0.22350000570E+01  0.23080313543E+01  0.34768771693E+01  0.51100000000E-03 0.  1.
        -12    1    3    3    0    0  0.92009396837E+01  0.66473546441E+01  0.86732538250E+01  0.14285305273E+02  0.00000000000E+00 0.  1.
</event>
<event>
 7    1  0.3986981E-008  0.4614232E+02  0.7816164E-02  0.1320468E+00
        -11   -1    0    0    0    0  0.00000000000E+00  0.00000000000E+00  0.45593999997E+02  0.45594000000E+02  0.51100000000E-03 0.  1.
         11   -1    0    0    0    0 -0.00000000000E+00 -0.00000000000E+00 -0.45593999997E+02  0.45594000000E+02  0.51100000000E-03 0. -1.
    9900012    2    1    2    0    0  0.37633710979E+02 -0.19438928723E+02 -0.15327926464E+02  0.46142317836E+02  0.10000000684E+02 0.  0.
        -12    1    1    2    0    0 -0.37633710979E+02  0.19438928723E+02  0.15327926464E+02  0.45045682164E+02  0.00000000000E+00 0.  1.
         11    1    3    3    0    0  0.10169249703E+01  0.35717655004E+00  0.68150143614E+00  0.12752081994E+01  0.51100000000E-03 0. -1.
        -11    1    3    3    0    0  0.12262355462E+02 -0.40591131180E+01 -0.50395990932E+01  0.13865039490E+02  0.51100000000E-03 0.  1.
         12    1    3    3    0    0  0.24354430547E+02 -0.15736992155E+02 -0.10969828807E+02  0.31002070147E+02  0.00000000000E+00 0. -1.
</event>
<event>
 7    1  0.3986981E-008  0.4614232E+02  0.7816164E-02  0.1320468E+00
        -11   -1    0    0    0    0  0.00000000000E+00  0.00000000000E+00  0.45593999997E+02  0.45594000000E+02  0.51100000000E-03 0. -1.
         11   -1    0    0    0    0 -0.00000000000E+00 -0.00000000000E+00 -0.45593999997E+02  0.45594000000E+02  0.51100000000E-03 0.  1.
    9900012    2    1    2    0    0  0.42763451477E+02  0.99760691893E+01  0.10043840544E+02  0.46142317948E+02  0.10000001705E+02 0.  0.
        -12    1    1    2    0    0 -0.42763451477E+02 -0.99760691893E+01 -0.10043840544E+02  0.45045682052E+02  0.00000000000E+00 0.  1.
         11    1    3    3    0    0  0.62513091998E+01  0.34772414790E+01  0.44559219826E+01  0.84276518670E+01  0.51100000000E-03 0. -1.
        -11    1    3    3    0    0  0.17281743932E+02  0.11150536231E+01  0.21402307585E+01  0.17449429959E+02  0.51100000000E-03 0.  1.
         12    1    3    3    0    0  0.19230398344E+02  0.53837740872E+01  0.34476878024E+01  0.20265236122E+02  0.00000000000E+00 0. -1.
</event>
<event>
 7    1  0.3986981E-008  0.4614232E+02  0.7816164E-02  0.1320468E+00
        -11   -1    0    0    0    0  0.00000000000E+00  0.00000000000E+00  0.45593999997E+02  0.45594000000E+02  0.51100000000E-03 0. -1.
         11   -1    0    0    0    0 -0.00000000000E+00 -0.00000000000E+00 -0.45593999997E+02  0.45594000000E+02  0.51100000000E-03 0.  1.
    9900012    2    1    2    0    0  0.33282716165E+02  0.28979394617E+02  0.90315394809E+01  0.46142320817E+02  0.10000027864E+02 0.  0.
        -12    1    1    2    0    0 -0.33282716165E+02 -0.28979394617E+02 -0.90315394809E+01  0.45045679183E+02  0.00000000000E+00 0.  1.
         11    1    3    3    0    0  0.14644258604E+02  0.11155528134E+02  0.75154527320E-02  0.18409241558E+02  0.51100000000E-03 0.  1.
        -11    1    3    3    0    0  0.15622086187E+02  0.13796863309E+02  0.53944442052E+01  0.21529120803E+02  0.51100000000E-03 0. -1.
        -12    1    3    3    0    0  0.30163713743E+01  0.40270031745E+01  0.36295798230E+01  0.62039584563E+01  0.00000000000E+00 0.  1.
</event>
<event>
 7    1  0.3986981E-008  0.4614232E+02  0.7816164E-02  0.1320468E+00
        -11   -1    0    0    0    0  0.00000000000E+00  0.00000000000E+00  0.45593999997E+02  0.45594000000E+02  0.51100000000E-03 0. -1.
         11   -1    0    0    0    0 -0.00000000000E+00 -0.00000000000E+00 -0.45593999997E+02  0.45594000000E+02  0.51100000000E-03 0.  1.
    9900012    2    1    2    0    0 -0.36542279215E+02 -0.14679594404E+02  0.21869725807E+02  0.46142316867E+02  0.99999918452E+01 0.  0.
        -12    1    1    2    0    0  0.36542279215E+02  0.14679594404E+02 -0.21869725807E+02  0.45045683133E+02  0.00000000000E+00 0.  1.
         11    1    3    3    0    0 -0.77514946219E+01 -0.18355235410E+01  0.46159597707E+01  0.92066226386E+01  0.51100000000E-03 0. -1.
        -11    1    3    3    0    0 -0.24066430565E+02 -0.78254138481E+01  0.15970698050E+02  0.29924795379E+02  0.51100000000E-03 0.  1.
        -12    1    3    3    0    0 -0.47243540278E+01 -0.50186570147E+01  0.12830679861E+01  0.70108988488E+01  0.00000000000E+00 0.  1.
</event>
<event>
 7    1  0.3986981E-008  0.4614232E+02  0.7816164E-02  0.1320468E+00
        -11   -1    0    0    0    0  0.00000000000E+00  0.00000000000E+00  0.45593999997E+02  0.45594000000E+02  0.51100000000E-03 0.  1.
         11   -1    0    0    0    0 -0.00000000000E+00 -0.00000000000E+00 -0.45593999997E+02  0.45594000000E+02  0.51100000000E-03 0. -1.
    9900012    2    1    2    0    0  0.10612879240E+02 -0.35842984161E+00 -0.43776157939E+02  0.46142315616E+02  0.99999804356E+01 0.  0.
        -12    1    1    2    0    0 -0.10612879240E+02  0.35842984161E+00  0.43776157939E+02  0.45045684384E+02  0.00000000000E+00 0.  1.
         11    1    3    3    0    0 -0.51338346178E+00 -0.26079798193E+01 -0.10287770784E+02  0.10625598773E+02  0.51100000000E-03 0. -1.
        -11    1    3    3    0    0  0.63875018131E+01  0.20770453808E+01 -0.15094711615E+02  0.16521640836E+02  0.51100000000E-03 0.  1.
         12    1    3    3    0    0  0.47387608891E+01  0.17250459695E+00 -0.18393675540E+02  0.18995076006E+02  0.00000000000E+00 0. -1.
</event>
<event>
 7    1  0.3986981E-008  0.4614232E+02  0.7816164E-02  0.1320468E+00
        -11   -1    0    0    0    0  0.00000000000E+00  0.00000000000E+00  0.45593999997E+02  0.45594000000E+02  0.51100000000E-03 0.  1.
         11   -1    0    0    0    0 -0.00000000000E+00 -0.00000000000E+00 -0.45593999997E+02  0.45594000000E+02  0.51100000000E-03 0. -1.
    9900012    2    1    2    0    0 -0.19209475499E+02 -0.18130114790E+02 -0.36488470257E+02  0.46142317932E+02  0.10000001562E+02 0.  0.
        -12    1    1    2    0    0  0.19209475499E+02  0.18130114790E+02  0.36488470257E+02  0.45045682068E+02  0.00000000000E+00 0.  1.
         11    1    3    3    0    0 -0.11886443993E+02 -0.75736444011E+01 -0.17065768723E+02  0.22133415974E+02  0.51100000000E-03 0. -1.
        -11    1    3    3    0    0 -0.67584305674E+01 -0.57633494031E+01 -0.96876692826E+01  0.13143192781E+02  0.51100000000E-03 0.  1.
        -12    1    3    3    0    0 -0.56460093877E+00 -0.47931209856E+01 -0.97350322519E+01  0.10865709178E+02  0.00000000000E+00 0.  1.
</event>
<event>
 7    1  0.3986981E-008  0.4614232E+02  0.7816164E-02  0.1320468E+00
        -11   -1    0    0    0    0  0.00000000000E+00  0.00000000000E+00  0.45593999997E+02  0.45594000000E+02  0.51100000000E-03 0.  1.
         11   -1    0    0    0    0 -0.00000000000E+00 -0.00000000000E+00 -0.45593999997E+02  0.45594000000E+02  0.51100000000E-03 0. -1.
    9900012    2    1    2    0    0 -0.58065933612E+01  0.73330294907E+01 -0.44063851674E+02  0.46142324600E+02  0.10000062359E+02 0.  0.
        -12    1    1    2    0    0  0.58065933612E+01 -0.73330294907E+01  0.44063851674E+02  0.45045675400E+02  0.00000000000E+00 0.  1.
         11    1    3    3    0    0 -0.19609702805E+01  0.31618972354E+01 -0.95402273349E+01  0.10240065255E+02  0.51100000000E-03 0. -1.
        -11    1    3    3    0    0 -0.76053360086E+00 -0.19928275066E+01 -0.33183818140E+01  0.39447979611E+01  0.51100000000E-03 0.  1.
         12    1    3    3    0    0 -0.30850894798E+01  0.61639597619E+01 -0.31205242525E+02  0.31957461383E+02  0.00000000000E+00 0. -1.
</event>
<event>
 7    1  0.3986981E-008  0.4614232E+02  0.7816164E-02  0.1320468E+00
        -11   -1    0    0    0    0  0.00000000000E+00  0.00000000000E+00  0.45593999997E+02  0.45594000000E+02  0.51100000000E-03 0.  1.
         11   -1    0    0    0    0 -0.00000000000E+00 -0.00000000000E+00 -0.45593999997E+02  0.45594000000E+02  0.51100000000E-03 0. -1.
    9900012    2    1    2    0    0 -0.21677177961E+02 -0.28565973407E+02 -0.27261669855E+02  0.46142317362E+02  0.99999963586E+01 0.  0.
        -12    1    1    2    0    0  0.21677177961E+02  0.28565973407E+02  0.27261669855E+02  0.45045682638E+02  0.00000000000E+00 0.  1.
         11    1    3    3    0    0 -0.11736393318E+02 -0.10367090814E+02 -0.13983419143E+02  0.20994178032E+02  0.51100000000E-03 0. -1.
        -11    1    3    3    0    0 -0.18913924933E+01 -0.74134627080E+00 -0.59356053326E+00  0.21164295936E+01  0.51100000000E-03 0.  1.
        -12    1    3    3    0    0 -0.80493921504E+01 -0.17457536323E+02 -0.12684690179E+02  0.23031709736E+02  0.00000000000E+00 0.  1.
</event>
<event>
 7    1  0.3986981E-008  0.4614232E+02  0.7816164E-02  0.1320468E+00
        -11   -1    0    0    0    0  0.00000000000E+00  0.00000000000E+00  0.45593999997E+02  0.45594000000E+02  0.51100000000E-03 0.  1.
         11   -1    0    0    0    0 -0.00000000000E+00 -0.00000000000E+00 -0.45593999997E+02  0.45594000000E+02  0.51100000000E-03 0. -1.
    9900012    2    1    2    0    0 -0.29401997149E+01  0.14057073661E+02 -0.42695049744E+02  0.46142319109E+02  0.10000012295E+02 0.  0.
        -12    1    1    2    0    0  0.29401997149E+01 -0.14057073661E+02  0.42695049744E+02  0.45045680891E+02  0.00000000000E+00 0.  1.
         11    1    3    3    0    0 -0.31999467828E+00  0.39705185644E+01 -0.82220672062E+01  0.91361810221E+01  0.51100000000E-03 0. -1.
        -11    1    3    3    0    0 -0.12510738388E+01  0.43876273009E+01 -0.43010678874E+01  0.62702188410E+01  0.51100000000E-03 0.  1.
        -12    1    3    3    0    0 -0.13691311978E+01  0.56989277953E+01 -0.30171914650E+02  0.30735919246E+02  0.00000000000E+00 0.  1.
</event>
<event>
 7    1  0.3986981E-008  0.4614232E+02  0.7816164E-02  0.1320468E+00
        -11   -1    0    0    0    0  0.00000000000E+00  0.00000000000E+00  0.45593999997E+02  0.45594000000E+02  0.51100000000E-03 0.  1.
         11   -1    0    0    0    0 -0.00000000000E+00 -0.00000000000E+00 -0.45593999997E+02  0.45594000000E+02  0.51100000000E-03 0. -1.
    9900012    2    1    2    0    0 -0.19090553696E+01  0.44751053944E+02  0.47762208819E+01  0.46142316440E+02  0.99999879533E+01 0.  0.
        -12    1    1    2    0    0  0.19090553696E+01 -0.44751053944E+02 -0.47762208819E+01  0.45045683560E+02  0.00000000000E+00 0.  1.
         11    1    3    3    0    0 -0.10284644019E+01  0.96072514355E+01  0.12487420272E+01  0.97425035839E+01  0.51100000000E-03 0. -1.
        -11    1    3    3    0    0  0.23549018835E+01  0.20155208212E+02  0.52749965898E+01  0.20966725310E+02  0.51100000000E-03 0.  1.
        -12    1    3    3    0    0 -0.32354928511E+01  0.14988594297E+02 -0.17475177351E+01  0.15433087546E+02  0.00000000000E+00 0.  1.
</event>
<event>
 7    1  0.3986981E-008  0.4614233E+02  0.7816164E-02  0.1320468E+00
        -11   -1    0    0    0    0  0.00000000000E+00  0.00000000000E+00  0.45593999997E+02  0.45594000000E+02  0.51100000000E-03 0. -1.
         11   -1    0    0    0    0 -0.00000000000E+00 -0.00000000000E+00 -0.45593999997E+02  0.45594000000E+02  0.51100000000E-03 0.  1.
    9900012    2    1    2    0    0 -0.18914919555E+02 -0.39834221542E+02  0.91963748725E+01  0.46142326529E+02  0.10000079956E+02 0.  0.
        -12    1    1    2    0    0  0.18914919555E+02  0.39834221542E+02 -0.91963748725E+01  0.45045673471E+02  0.00000000000E+00 0.  1.
         11    1    3    3    0    0 -0.10061864855E+01 -0.34392668029E+01  0.51199630497E-01  0.35837953413E+01  0.51100000000E-03 0. -1.
        -11    1    3    3    0    0 -0.22065130056E+01 -0.68137282631E+01 -0.16903316304E+01  0.73588595427E+01  0.51100000000E-03 0.  1.
         12    1    3    3    0    0 -0.15702220064E+02 -0.29581226476E+02  0.10835506872E+02  0.35199671645E+02  0.00000000000E+00 0. -1.
</event>
<event>
 7    1  0.3986981E-008  0.4614232E+02  0.7816164E-02  0.1320468E+00
        -11   -1    0    0    0    0  0.00000000000E+00  0.00000000000E+00  0.45593999997E+02  0.45594000000E+02  0.51100000000E-03 0.  1.
         11   -1    0    0    0    0 -0.00000000000E+00 -0.00000000000E+00 -0.45593999997E+02  0.45594000000E+02  0.51100000000E-03 0. -1.
    9900012    2    1    2    0    0 -0.79806152188E+01  0.44329933025E+02  0.52942017124E+00  0.46142317999E+02  0.10000002166E+02 0.  0.
        -12    1    1    2    0    0  0.79806152188E+01 -0.44329933025E+02 -0.52942017124E+00  0.45045682001E+02  0.00000000000E+00 0.  1.
         11    1    3    3    0    0  0.22592791268E-01  0.58841083162E+01 -0.48046771387E+00  0.59037353088E+01  0.51100000000E-03 0. -1.
        -11    1    3    3    0    0 -0.86209534263E+01  0.20985056611E+02  0.17243133005E+01  0.22752289897E+02  0.51100000000E-03 0.  1.
        -12    1    3    3    0    0  0.61774541624E+00  0.17460768098E+02 -0.71442541535E+00  0.17486292793E+02  0.00000000000E+00 0.  1.
</event>
<event>
 7    1  0.3986981E-008  0.4614232E+02  0.7816164E-02  0.1320468E+00
        -11   -1    0    0    0    0  0.00000000000E+00  0.00000000000E+00  0.45593999997E+02  0.45594000000E+02  0.51100000000E-03 0.  1.
         11   -1    0    0    0    0 -0.00000000000E+00 -0.00000000000E+00 -0.45593999997E+02  0.45594000000E+02  0.51100000000E-03 0. -1.
    9900012    2    1    2    0    0  0.41972200488E+02  0.80478315305E+01 -0.14236581296E+02  0.46142318152E+02  0.10000003566E+02 0.  0.
        -12    1    1    2    0    0 -0.41972200488E+02 -0.80478315305E+01  0.14236581296E+02  0.45045681848E+02  0.00000000000E+00 0.  1.
         11    1    3    3    0    0  0.52419573188E+01  0.32099206284E+01 -0.50099626999E+00  0.61670661174E+01  0.51100000000E-03 0.  1.
        -11    1    3    3    0    0  0.11980071791E+01  0.13591930262E+01 -0.34371410467E+00  0.18441167345E+01  0.51100000000E-03 0. -1.
         12    1    3    3    0    0  0.35532235990E+02  0.34787178759E+01 -0.13391870922E+02  0.38131135300E+02  0.00000000000E+00 0. -1.
</event>
<event>
 7    1  0.3986981E-008  0.4614233E+02  0.7816164E-02  0.1320468E+00
        -11   -1    0    0    0    0  0.00000000000E+00  0.00000000000E+00  0.45593999997E+02  0.45594000000E+02  0.51100000000E-03 0. -1.
         11   -1    0    0    0    0 -0.00000000000E+00 -0.00000000000E+00 -0.45593999997E+02  0.45594000000E+02  0.51100000000E-03 0.  1.
    9900012    2    1    2    0    0  0.39139301889E+02 -0.21491364319E+02  0.59455058833E+01  0.46142326147E+02  0.10000076472E+02 0.  0.
        -12    1    1    2    0    0 -0.39139301889E+02  0.21491364319E+02 -0.59455058833E+01  0.45045673853E+02  0.00000000000E+00 0.  1.
         11    1    3    3    0    0  0.15907154517E+02 -0.10142059005E+02  0.68284409803E+01  0.20063063877E+02  0.51100000000E-03 0. -1.
        -11    1    3    3    0    0  0.43534041074E+01 -0.35527100278E+01 -0.61040178852E+00  0.56521205284E+01  0.51100000000E-03 0.  1.
         12    1    3    3    0    0  0.18878743265E+02 -0.77965952861E+01 -0.27253330843E+00  0.20427141741E+02  0.00000000000E+00 0. -1.
</event>
<event>
 7    1  0.3986981E-008  0.4614232E+02  0.7816164E-02  0.1320468E+00
        -11   -1    0    0    0    0  0.00000000000E+00  0.00000000000E+00  0.45593999997E+02  0.45594000000E+02  0.51100000000E-03 0.  1.
         11   -1    0    0    0    0 -0.00000000000E+00 -0.00000000000E+00 -0.45593999997E+02  0.45594000000E+02  0.51100000000E-03 0. -1.
    9900012    2    1    2    0    0 -0.15275558652E+02 -0.13697488642E+02 -0.40101741756E+02  0.46142316754E+02  0.99999908128E+01 0.  0.
        -12    1    1    2    0    0  0.15275558652E+02  0.13697488642E+02  0.40101741756E+02  0.45045683246E+02  0.00000000000E+00 0.  1.
         11    1    3    3    0    0 -0.23277723580E+01 -0.44635621741E+01 -0.66561842486E+01  0.83454598702E+01  0.51100000000E-03 0. -1.
        -11    1    3    3    0    0 -0.24266780943E+01 -0.12217493576E+01 -0.12491506365E+01  0.29902868826E+01  0.51100000000E-03 0.  1.
         12    1    3    3    0    0 -0.10521108200E+02 -0.80121771107E+01 -0.32196406871E+02  0.34806570001E+02  0.00000000000E+00 0. -1.
</event>
<event>
 7    1  0.3986981E-008  0.4614231E+02  0.7816164E-02  0.1320468E+00
        -11   -1    0    0    0    0  0.00000000000E+00  0.00000000000E+00  0.45593999997E+02  0.45594000000E+02  0.51100000000E-03 0. -1.
         11   -1    0    0    0    0 -0.00000000000E+00 -0.00000000000E+00 -0.45593999997E+02  0.45594000000E+02  0.51100000000E-03 0.  1.
    9900012    2    1    2    0    0 -0.24666701761E+02 -0.58097964804E+01  0.37241295032E+02  0.46142312453E+02  0.99999515969E+01 0.  0.
        -12    1    1    2    0    0  0.24666701761E+02  0.58097964804E+01 -0.37241295032E+02  0.45045687547E+02  0.00000000000E+00 0.  1.
         11    1    3    3    0    0 -0.93027953218E+01 -0.55302072855E+01  0.17005721342E+02  0.20157374632E+02  0.51100000000E-03 0. -1.
        -11    1    3    3    0    0 -0.29901360669E+01 -0.70792908538E+00  0.12463918232E+01  0.33159568945E+01  0.51100000000E-03 0.  1.
         12    1    3    3    0    0 -0.12373770372E+02  0.42833989050E+00  0.18989181867E+02  0.22668980927E+02  0.00000000000E+00 0. -1.
</event>
<event>
 7    1  0.3986981E-008  0.4614232E+02  0.7816164E-02  0.1320468E+00
        -11   -1    0    0    0    0  0.00000000000E+00  0.00000000000E+00  0.45593999997E+02  0.45594000000E+02  0.51100000000E-03 0.  1.
         11   -1    0    0    0    0 -0.00000000000E+00 -0.00000000000E+00 -0.45593999997E+02  0.45594000000E+02  0.51100000000E-03 0. -1.
    9900012    2    1    2    0    0 -0.14687348190E+02 -0.25499668850E+02 -0.34105164552E+02  0.46142316994E+02  0.99999930081E+01 0.  0.
        -12    1    1    2    0    0  0.14687348190E+02  0.25499668850E+02  0.34105164552E+02  0.45045683006E+02  0.00000000000E+00 0.  1.
         11    1    3    3    0    0 -0.97316509796E+01 -0.86729809990E+01 -0.18174402849E+02  0.22365923844E+02  0.51100000000E-03 0. -1.
        -11    1    3    3    0    0 -0.35480330250E+01 -0.11031211858E+02 -0.11677479555E+02  0.16451130734E+02  0.51100000000E-03 0.  1.
        -12    1    3    3    0    0 -0.14076641855E+01 -0.57954759931E+01 -0.42532821478E+01  0.73252624167E+01  0.00000000000E+00 0.  1.
</event>
<event>
 7    1  0.3986981E-008  0.4614232E+02  0.7816164E-02  0.1320468E+00
        -11   -1    0    0    0    0  0.00000000000E+00  0.00000000000E+00  0.45593999997E+02  0.45594000000E+02  0.51100000000E-03 0. -1.
         11   -1    0    0    0    0 -0.00000000000E+00 -0.00000000000E+00 -0.45593999997E+02  0.45594000000E+02  0.51100000000E-03 0.  1.
    9900012    2    1    2    0    0 -0.25539040808E+02  0.34065690299E+02  0.14710526935E+02  0.46142318036E+02  0.10000002503E+02 0.  0.
        -12    1    1    2    0    0  0.25539040808E+02 -0.34065690299E+02 -0.14710526935E+02  0.45045681964E+02  0.00000000000E+00 0.  1.
         11    1    3    3    0    0 -0.23318780021E+01  0.34467434358E+00  0.15206139470E+00  0.23621131109E+01  0.51100000000E-03 0.  1.
        -11    1    3    3    0    0 -0.75747863053E+01  0.11578837969E+02  0.22745156355E+01  0.14022135997E+02  0.51100000000E-03 0. -1.
        -12    1    3    3    0    0 -0.15632376501E+02  0.22142177986E+02  0.12283949905E+02  0.29758068927E+02  0.00000000000E+00 0.  1.
</event>
<event>
 7    1  0.3986981E-008  0.4614232E+02  0.7816164E-02  0.1320468E+00
        -11   -1    0    0    0    0  0.00000000000E+00  0.00000000000E+00  0.45593999997E+02  0.45594000000E+02  0.51100000000E-03 0.  1.
         11   -1    0    0    0    0 -0.00000000000E+00 -0.00000000000E+00 -0.45593999997E+02  0.45594000000E+02  0.51100000000E-03 0. -1.
    9900012    2    1    2    0    0 -0.30727888908E+02  0.16047425772E+02 -0.28764394395E+02  0.46142318569E+02  0.10000007366E+02 0.  0.
        -12    1    1    2    0    0  0.30727888908E+02 -0.16047425772E+02  0.28764394395E+02  0.45045681431E+02  0.00000000000E+00 0.  1.
         11    1    3    3    0    0 -0.21058133549E+02  0.12027882199E+02 -0.19443863988E+02  0.31083416572E+02  0.51100000000E-03 0. -1.
        -11    1    3    3    0    0 -0.28205707217E+01 -0.13226020974E+01 -0.20266281229E+01  0.37164657020E+01  0.51100000000E-03 0.  1.
        -12    1    3    3    0    0 -0.68491846376E+01  0.53421456705E+01 -0.72939022849E+01  0.11342436295E+02  0.00000000000E+00 0.  1.
</event>
<event>
 7    1  0.3986981E-008  0.4614232E+02  0.7816164E-02  0.1320468E+00
        -11   -1    0    0    0    0  0.00000000000E+00  0.00000000000E+00  0.45593999997E+02  0.45594000000E+02  0.51100000000E-03 0.  1.
         11   -1    0    0    0    0 -0.00000000000E+00 -0.00000000000E+00 -0.45593999997E+02  0.45594000000E+02  0.51100000000E-03 0. -1.
    9900012    2    1    2    0    0 -0.44876765223E+02  0.35827045993E+01 -0.15342344854E+01  0.46142315361E+02  0.99999781159E+01 0.  0.
        -12    1    1    2    0    0  0.44876765223E+02 -0.35827045993E+01  0.15342344854E+01  0.45045684639E+02  0.00000000000E+00 0.  1.
         11    1    3    3    0    0 -0.22457116660E+01  0.15379658067E+01  0.34993983753E+00  0.27442700050E+01  0.51100000000E-03 0.  1.
        -11    1    3    3    0    0 -0.32977144993E+02  0.46185045830E+01 -0.24647551331E+01  0.33390083777E+02  0.51100000000E-03 0. -1.
         12    1    3    3    0    0 -0.96539085635E+01 -0.25737657904E+01  0.58058081016E+00  0.10007961579E+02  0.00000000000E+00 0. -1.
</event>
<event>
 7    1  0.3986981E-008  0.4614232E+02  0.7816164E-02  0.1320468E+00
        -11   -1    0    0    0    0  0.00000000000E+00  0.00000000000E+00  0.45593999997E+02  0.45594000000E+02  0.51100000000E-03 0.  1.
         11   -1    0    0    0    0 -0.00000000000E+00 -0.00000000000E+00 -0.45593999997E+02  0.45594000000E+02  0.51100000000E-03 0. -1.
    9900012    2    1    2    0    0 -0.32301849677E+02  0.14252726660E+02 -0.27974341141E+02  0.46142317942E+02  0.10000001652E+02 0.  0.
        -12    1    1    2    0    0  0.32301849677E+02 -0.14252726660E+02  0.27974341141E+02  0.45045682058E+02  0.00000000000E+00 0.  1.
         11    1    3    3    0    0 -0.12962427908E+02  0.59450413067E+01 -0.15946909291E+02  0.21393269259E+02  0.51100000000E-03 0. -1.
        -11    1    3    3    0    0 -0.37141676369E+01  0.29238348486E+01 -0.86407828166E+00  0.48052557679E+01  0.51100000000E-03 0.  1.
         12    1    3    3    0    0 -0.15625254132E+02  0.53838505049E+01 -0.11163353568E+02  0.19943792915E+02  0.00000000000E+00 0. -1.
</event>
<event>
 7    1  0.3986981E-008  0.4614232E+02  0.7816164E-02  0.1320468E+00
        -11   -1    0    0    0    0  0.00000000000E+00  0.00000000000E+00  0.45593999997E+02  0.45594000000E+02  0.51100000000E-03 0.  1.
         11   -1    0    0    0    0 -0.00000000000E+00 -0.00000000000E+00 -0.45593999997E+02  0.45594000000E+02  0.51100000000E-03 0. -1.
    9900012    2    1    2    0    0 -0.32327248748E+01  0.26978504906E+02 -0.35928027517E+02  0.46142318761E+02  0.10000009115E+02 0.  0.
        -12    1    1    2    0    0  0.32327248748E+01 -0.26978504906E+02  0.35928027517E+02  0.45045681239E+02  0.00000000000E+00 0.  1.
         11    1    3    3    0    0 -0.62328514702E+00  0.32247159157E+01 -0.22071801911E+01  0.39571355510E+01  0.51100000000E-03 0. -1.
        -11    1    3    3    0    0  0.95716372533E+00  0.67744310835E+01 -0.44592018652E+01  0.81666125436E+01  0.51100000000E-03 0.  1.
         12    1    3    3    0    0 -0.35666034532E+01  0.16979357907E+02 -0.29261645461E+02  0.34018570666E+02  0.00000000000E+00 0. -1.
</event>
<event>
 7    1  0.3986981E-008  0.4614232E+02  0.7816164E-02  0.1320468E+00
        -11   -1    0    0    0    0  0.00000000000E+00  0.00000000000E+00  0.45593999997E+02  0.45594000000E+02  0.51100000000E-03 0.  1.
         11   -1    0    0    0    0 -0.00000000000E+00 -0.00000000000E+00 -0.45593999997E+02  0.45594000000E+02  0.51100000000E-03 0. -1.
    9900012    2    1    2    0    0  0.11835368727E+02  0.25361130510E+02 -0.35296609040E+02  0.46142317595E+02  0.99999984817E+01 0.  0.
        -12    1    1    2    0    0 -0.11835368727E+02 -0.25361130510E+02  0.35296609040E+02  0.45045682405E+02  0.00000000000E+00 0.  1.
         11    1    3    3    0    0  0.35127168983E+00  0.19018560879E+01 -0.16243861945E+01  0.25256838973E+01  0.51100000000E-03 0. -1.
        -11    1    3    3    0    0  0.66962217825E+01  0.44347585567E+01 -0.11266968761E+02  0.13836583933E+02  0.51100000000E-03 0.  1.
         12    1    3    3    0    0  0.47878752550E+01  0.19024515866E+02 -0.22405254084E+02  0.29780049764E+02  0.00000000000E+00 0. -1.
</event>
<event>
 7    1  0.3986981E-008  0.4614232E+02  0.7816164E-02  0.1320468E+00
        -11   -1    0    0    0    0  0.00000000000E+00  0.00000000000E+00  0.45593999997E+02  0.45594000000E+02  0.51100000000E-03 0.  1.
         11   -1    0    0    0    0 -0.00000000000E+00 -0.00000000000E+00 -0.45593999997E+02  0.45594000000E+02  0.51100000000E-03 0. -1.
    9900012    2    1    2    0    0 -0.31058687476E+02 -0.55968068981E+00 -0.32621438375E+02  0.46142317056E+02  0.99999935737E+01 0.  0.
        -12    1    1    2    0    0  0.31058687476E+02  0.55968068981E+00  0.32621438375E+02  0.45045682944E+02  0.00000000000E+00 0.  1.
         11    1    3    3    0    0 -0.18192746280E+02  0.22451849495E+01 -0.20087101732E+02  0.27193906099E+02  0.51100000000E-03 0. -1.
        -11    1    3    3    0    0 -0.11191042731E+02 -0.51708944507E+00 -0.87251778546E+01  0.14199843230E+02  0.51100000000E-03 0.  1.
        -12    1    3    3    0    0 -0.16748984640E+01 -0.22877761943E+01 -0.38091587886E+01  0.47485677268E+01  0.00000000000E+00 0.  1.
</event>
<event>
 7    1  0.3986981E-008  0.4614231E+02  0.7816164E-02  0.1320468E+00
        -11   -1    0    0    0    0  0.00000000000E+00  0.00000000000E+00  0.45593999997E+02  0.45594000000E+02  0.51100000000E-03 0. -1.
         11   -1    0    0    0    0 -0.00000000000E+00 -0.00000000000E+00 -0.45593999997E+02  0.45594000000E+02  0.51100000000E-03 0.  1.
    9900012    2    1    2    0    0  0.78192726169E+01 -0.35631734449E+01  0.44218508742E+02  0.46142314916E+02  0.99999740596E+01 0.  0.
        -12    1    1    2    0    0 -0.78192726169E+01  0.35631734449E+01 -0.44218508742E+02  0.45045685084E+02  0.00000000000E+00 0.  1.
         11    1    3    3    0    0  0.10944334463E+01 -0.14052342751E+01  0.31963807406E+01  0.36591417076E+01  0.51100000000E-03 0. -1.
        -11    1    3    3    0    0  0.66962581346E+01 -0.67523809420E+00  0.15258016483E+02  0.16676417083E+02  0.51100000000E-03 0.  1.
        -12    1    3    3    0    0  0.28581035993E-01 -0.14827010755E+01  0.25764111519E+02  0.25806756125E+02  0.00000000000E+00 0.  1.
</event>
<event>
 7    1  0.3986981E-008  0.4614232E+02  0.7816164E-02  0.1320468E+00
        -11   -1    0    0    0    0  0.00000000000E+00  0.00000000000E+00  0.45593999997E+02  0.45594000000E+02  0.51100000000E-03 0.  1.
         11   -1    0    0    0    0 -0.00000000000E+00 -0.00000000000E+00 -0.45593999997E+02  0.45594000000E+02  0.51100000000E-03 0. -1.
    9900012    2    1    2    0    0 -0.33970054901E+02 -0.55744273874E+01 -0.29052963293E+02  0.46142317113E+02  0.99999940860E+01 0.  0.
        -12    1    1    2    0    0  0.33970054901E+02  0.55744273874E+01  0.29052963293E+02  0.45045682887E+02  0.00000000000E+00 0.  1.
         11    1    3    3    0    0 -0.12735271234E+02 -0.23365779938E+01 -0.10124017453E+02  0.16436011067E+02  0.51100000000E-03 0. -1.
        -11    1    3    3    0    0 -0.15062881858E+02 -0.12584958630E+01 -0.82658211314E+01  0.17227826936E+02  0.51100000000E-03 0.  1.
         12    1    3    3    0    0 -0.61719018085E+01 -0.19793535306E+01 -0.10663124709E+02  0.12478479109E+02  0.00000000000E+00 0. -1.
</event>
<event>
 7    1  0.3986981E-008  0.4614232E+02  0.7816164E-02  0.1320468E+00
        -11   -1    0    0    0    0  0.00000000000E+00  0.00000000000E+00  0.45593999997E+02  0.45594000000E+02  0.51100000000E-03 0.  1.
         11   -1    0    0    0    0 -0.00000000000E+00 -0.00000000000E+00 -0.45593999997E+02  0.45594000000E+02  0.51100000000E-03 0. -1.
    9900012    2    1    2    0    0  0.61524999692E+01  0.21776466959E+02 -0.38949271116E+02  0.46142317748E+02  0.99999998782E+01 0.  0.
        -12    1    1    2    0    0 -0.61524999692E+01 -0.21776466959E+02  0.38949271116E+02  0.45045682252E+02  0.00000000000E+00 0.  1.
         11    1    3    3    0    0 -0.42699511323E+00  0.10465833020E+02 -0.10597548764E+02  0.14900470654E+02  0.51100000000E-03 0.  1.
        -11    1    3    3    0    0  0.45463138058E+01  0.78656241291E+01 -0.18549530385E+02  0.20654832120E+02  0.51100000000E-03 0. -1.
        -12    1    3    3    0    0  0.20331812766E+01  0.34450098099E+01 -0.98021919675E+01  0.10587014974E+02  0.00000000000E+00 0.  1.
</event>
<event>
 7    1  0.3986981E-008  0.4614232E+02  0.7816164E-02  0.1320468E+00
        -11   -1    0    0    0    0  0.00000000000E+00  0.00000000000E+00  0.45593999997E+02  0.45594000000E+02  0.51100000000E-03 0.  1.
         11   -1    0    0    0    0 -0.00000000000E+00 -0.00000000000E+00 -0.45593999997E+02  0.45594000000E+02  0.51100000000E-03 0. -1.
    9900012    2    1    2    0    0 -0.42263951313E+02 -0.60808468454E+01 -0.14349053736E+02  0.46142316277E+02  0.99999864671E+01 0.  0.
        -12    1    1    2    0    0  0.42263951313E+02  0.60808468454E+01  0.14349053736E+02  0.45045683723E+02  0.00000000000E+00 0.  1.
         11    1    3    3    0    0 -0.15631230881E+02 -0.20104796623E+01 -0.72755874882E+01  0.17358328862E+02  0.51100000000E-03 0. -1.
        -11    1    3    3    0    0 -0.88790357832E+01  0.20570193899E+01 -0.20362684637E+01  0.93388968689E+01  0.51100000000E-03 0.  1.
         12    1    3    3    0    0 -0.17753684649E+02 -0.61273865730E+01 -0.50371977839E+01  0.19445090546E+02  0.00000000000E+00 0. -1.
</event>
<event>
 7    1  0.3986981E-008  0.4614232E+02  0.7816164E-02  0.1320468E+00
        -11   -1    0    0    0    0  0.00000000000E+00  0.00000000000E+00  0.45593999997E+02  0.45594000000E+02  0.51100000000E-03 0.  1.
         11   -1    0    0    0    0 -0.00000000000E+00 -0.00000000000E+00 -0.45593999997E+02  0.45594000000E+02  0.51100000000E-03 0. -1.
    9900012    2    1    2    0    0  0.24600420065E+02  0.22106333946E+02 -0.30581741493E+02  0.46142316737E+02  0.99999906574E+01 0.  0.
        -12    1    1    2    0    0 -0.24600420065E+02 -0.22106333946E+02  0.30581741493E+02  0.45045683263E+02  0.00000000000E+00 0.  1.
         11    1    3    3    0    0 -0.31323143728E+00  0.12237316466E+01 -0.54151372724E+00  0.13743618352E+01  0.51100000000E-03 0. -1.
        -11    1    3    3    0    0  0.21903198584E+02  0.15177864730E+02 -0.25471970859E+02  0.36863789627E+02  0.51100000000E-03 0.  1.
        -12    1    3    3    0    0  0.30104529181E+01  0.57047375701E+01 -0.45682569067E+01  0.79041652742E+01  0.00000000000E+00 0.  1.
</event>
<event>
 7    1  0.3986981E-008  0.4614232E+02  0.7816164E-02  0.1320468E+00
        -11   -1    0    0    0    0  0.00000000000E+00  0.00000000000E+00  0.45593999997E+02  0.45594000000E+02  0.51100000000E-03 0.  1.
         11   -1    0    0    0    0 -0.00000000000E+00 -0.00000000000E+00 -0.45593999997E+02  0.45594000000E+02  0.51100000000E-03 0. -1.
    9900012    2    1    2    0    0 -0.11269414349E+02 -0.41995567171E+02 -0.11768013325E+02  0.46142317638E+02  0.99999988798E+01 0.  0.
        -12    1    1    2    0    0  0.11269414349E+02  0.41995567171E+02  0.11768013325E+02  0.45045682362E+02  0.00000000000E+00 0.  1.
         11    1    3    3    0    0 -0.68836759637E+00 -0.13491511655E+01  0.17518259485E+00  0.15247124377E+01  0.51100000000E-03 0. -1.
        -11    1    3    3    0    0 -0.24276772214E+00 -0.14165204275E+02 -0.11645172533E+01  0.14215064158E+02  0.51100000000E-03 0.  1.
         12    1    3    3    0    0 -0.10338279031E+02 -0.26481211731E+02 -0.10778678666E+02  0.30402541043E+02  0.00000000000E+00 0. -1.
</event>
<event>
 7    1  0.3986981E-008  0.4614232E+02  0.7816164E-02  0.1320468E+00
        -11   -1    0    0    0    0  0.00000000000E+00  0.00000000000E+00  0.45593999997E+02  0.45594000000E+02  0.51100000000E-03 0. -1.
         11   -1    0    0    0    0 -0.00000000000E+00 -0.00000000000E+00 -0.45593999997E+02  0.45594000000E+02  0.51100000000E-03 0.  1.
    9900012    2    1    2    0    0 -0.11819030637E+02 -0.35356061813E+02  0.25285824235E+02  0.46142317639E+02  0.99999988822E+01 0.  0.
        -12    1    1    2    0    0  0.11819030637E+02  0.35356061813E+02 -0.25285824235E+02  0.45045682361E+02  0.00000000000E+00 0.  1.
         11    1    3    3    0    0 -0.29111397604E+01 -0.23110866470E+02  0.15862306082E+02  0.28181547832E+02  0.51100000000E-03 0. -1.
        -11    1    3    3    0    0 -0.29170881936E+01 -0.57833231047E+01  0.38885368934E+01  0.75549287949E+01  0.51100000000E-03 0.  1.
         12    1    3    3    0    0 -0.59908026832E+01 -0.64618722391E+01  0.55349812596E+01  0.10405841012E+02  0.00000000000E+00 0. -1.
</event>
<event>
 7    1  0.3986981E-008  0.4614232E+02  0.7816164E-02  0.1320468E+00
        -11   -1    0    0    0    0  0.00000000000E+00  0.00000000000E+00  0.45593999997E+02  0.45594000000E+02  0.51100000000E-03 0. -1.
         11   -1    0    0    0    0 -0.00000000000E+00 -0.00000000000E+00 -0.45593999997E+02  0.45594000000E+02  0.51100000000E-03 0.  1.
    9900012    2    1    2    0    0 -0.85840577178E+01 -0.36874024197E+02  0.24407658472E+02  0.46142317638E+02  0.99999988749E+01 0.  0.
        -12    1    1    2    0    0  0.85840577178E+01  0.36874024197E+02 -0.24407658472E+02  0.45045682362E+02  0.00000000000E+00 0.  1.
         11    1    3    3    0    0  0.19056520419E+01 -0.79432793137E+01  0.53979652687E+01  0.97910788611E+01  0.51100000000E-03 0. -1.
        -11    1    3    3    0    0 -0.52971377526E+00 -0.42661039398E+00  0.94973381896E+00  0.11681556831E+01  0.51100000000E-03 0.  1.
        -12    1    3    3    0    0 -0.99599959844E+01 -0.28504134490E+02  0.18059959384E+02  0.35183083094E+02  0.00000000000E+00 0.  1.
</event>
<event>
 7    1  0.3986981E-008  0.4614232E+02  0.7816164E-02  0.1320468E+00
        -11   -1    0    0    0    0  0.00000000000E+00  0.00000000000E+00  0.45593999997E+02  0.45594000000E+02  0.51100000000E-03 0.  1.
         11   -1    0    0    0    0 -0.00000000000E+00 -0.00000000000E+00 -0.45593999997E+02  0.45594000000E+02  0.51100000000E-03 0. -1.
    9900012    2    1    2    0    0 -0.87968779374E+00 -0.66983667179E+01 -0.44536184158E+02  0.46142315782E+02  0.99999819559E+01 0.  0.
        -12    1    1    2    0    0  0.87968779374E+00  0.66983667179E+01  0.44536184158E+02  0.45045684218E+02  0.00000000000E+00 0.  1.
         11    1    3    3    0    0  0.10795249486E+01 -0.20885667151E+01 -0.57599637380E+01  0.62213075444E+01  0.51100000000E-03 0. -1.
        -11    1    3    3    0    0  0.24159659793E+00 -0.59766650427E+01 -0.33648002419E+02  0.34175531612E+02  0.51100000000E-03 0.  1.
        -12    1    3    3    0    0 -0.22008093403E+01  0.13668650398E+01 -0.51282180010E+01  0.57454766256E+01  0.00000000000E+00 0.  1.
</event>
<event>
 7    1  0.3986981E-008  0.4614232E+02  0.7816164E-02  0.1320468E+00
        -11   -1    0    0    0    0  0.00000000000E+00  0.00000000000E+00  0.45593999997E+02  0.45594000000E+02  0.51100000000E-03 0. -1.
         11   -1    0    0    0    0 -0.00000000000E+00 -0.00000000000E+00 -0.45593999997E+02  0.45594000000E+02  0.51100000000E-03 0.  1.
    9900012    2    1    2    0    0 -0.40057179675E+02  0.69216249145E+00  0.20592639446E+02  0.46142317279E+02  0.99999956047E+01 0.  0.
        -12    1    1    2    0    0  0.40057179675E+02 -0.69216249145E+00 -0.20592639446E+02  0.45045682721E+02  0.00000000000E+00 0.  1.
         11    1    3    3    0    0 -0.21676229778E+02  0.53333485431E+00  0.12376662008E+02  0.24966480452E+02  0.51100000000E-03 0. -1.
        -11    1    3    3    0    0 -0.17780959076E+02 -0.13514839935E+01  0.79697030810E+01  0.19532157641E+02  0.51100000000E-03 0.  1.
        -12    1    3    3    0    0 -0.59999082078E+00  0.15103116307E+01  0.24627435746E+00  0.16436791858E+01  0.00000000000E+00 0.  1.
</event>
<event>
 7    1  0.3986981E-008  0.4614232E+02  0.7816164E-02  0.1320468E+00
        -11   -1    0    0    0    0  0.00000000000E+00  0.00000000000E+00  0.45593999997E+02  0.45594000000E+02  0.51100000000E-03 0.  1.
         11   -1    0    0    0    0 -0.00000000000E+00 -0.00000000000E+00 -0.45593999997E+02  0.45594000000E+02  0.51100000000E-03 0. -1.
    9900012    2    1    2    0    0 -0.26641101354E+02  0.23039857162E+02  0.28080778826E+02  0.46142318310E+02  0.10000005009E+02 0.  0.
        -12    1    1    2    0    0  0.26641101354E+02 -0.23039857162E+02 -0.28080778826E+02  0.45045681690E+02  0.00000000000E+00 0.  1.
         11    1    3    3    0    0 -0.13239468461E+02  0.11535924215E+02  0.11442897439E+02  0.20959507978E+02  0.51100000000E-03 0. -1.
        -11    1    3    3    0    0 -0.34213559138E+00  0.18889133038E+01  0.46047582023E+01  0.49888724773E+01  0.51100000000E-03 0.  1.
         12    1    3    3    0    0 -0.13059497301E+02  0.96150196428E+01  0.12033123185E+02  0.20193937855E+02  0.00000000000E+00 0. -1.
</event>
<event>
 7    1  0.3986981E-008  0.4614232E+02  0.7816164E-02  0.1320468E+00
        -11   -1    0    0    0    0  0.00000000000E+00  0.00000000000E+00  0.45593999997E+02  0.45594000000E+02  0.51100000000E-03 0.  1.
         11   -1    0    0    0    0 -0.00000000000E+00 -0.00000000000E+00 -0.45593999997E+02  0.45594000000E+02  0.51100000000E-03 0. -1.
    9900012    2    1    2    0    0  0.12404860907E+01  0.41206836977E+02 -0.18154098228E+02  0.46142317611E+02  0.99999986312E+01 0.  0.
        -12    1    1    2    0    0 -0.12404860907E+01 -0.41206836977E+02  0.18154098228E+02  0.45045682389E+02  0.00000000000E+00 0.  1.
         11    1    3    3    0    0 -0.14058899686E+01  0.10401929986E+02 -0.17754754263E+01  0.10645608827E+02  0.51100000000E-03 0. -1.
        -11    1    3    3    0    0  0.22046591351E+00  0.24394167010E+02 -0.10889311706E+02  0.26715184802E+02  0.51100000000E-03 0.  1.
        -12    1    3    3    0    0  0.24259101458E+01  0.64107399814E+01 -0.54893110955E+01  0.87815239821E+01  0.00000000000E+00 0.  1.
</event>
<event>
 7    1  0.3986981E-008  0.4614232E+02  0.7816164E-02  0.1320468E+00
        -11   -1    0    0    0    0  0.00000000000E+00  0.00000000000E+00  0.45593999997E+02  0.45594000000E+02  0.51100000000E-03 0. -1.
         11   -1    0    0    0    0 -0.00000000000E+00 -0.00000000000E+00 -0.45593999997E+02  0.45594000000E+02  0.51100000000E-03 0.  1.
    9900012    2    1    2    0    0 -0.44055877242E+02  0.88198907051E+01  0.32253412269E+01  0.46142316326E+02  0.99999869150E+01 0.  0.
        -12    1    1    2    0    0  0.44055877242E+02 -0.88198907051E+01 -0.32253412269E+01  0.45045683674E+02  0.00000000000E+00 0.  1.
         11    1    3    3    0    0 -0.23550487968E+02  0.56913032270E+01  0.61904731165E+01  0.25006766556E+02  0.51100000000E-03 0. -1.
        -11    1    3    3    0    0 -0.88362910776E+01  0.17706577456E+01  0.29634983757E-01  0.90120001861E+01  0.51100000000E-03 0.  1.
        -12    1    3    3    0    0 -0.11669098197E+02  0.13579297325E+01 -0.29947668734E+01  0.12123549584E+02  0.00000000000E+00 0.  1.
</event>
<event>
 7    1  0.3986981E-008  0.4614232E+02  0.7816164E-02  0.1320468E+00
        -11   -1    0    0    0    0  0.00000000000E+00  0.00000000000E+00  0.45593999997E+02  0.45594000000E+02  0.51100000000E-03 0.  1.
         11   -1    0    0    0    0 -0.00000000000E+00 -0.00000000000E+00 -0.45593999997E+02  0.45594000000E+02  0.51100000000E-03 0. -1.
    9900012    2    1    2    0    0  0.11982245555E+02 -0.10658803185E+02 -0.42094289148E+02  0.46142317935E+02  0.10000001583E+02 0.  0.
        -12    1    1    2    0    0 -0.11982245555E+02  0.10658803185E+02  0.42094289148E+02  0.45045682065E+02  0.00000000000E+00 0.  1.
         11    1    3    3    0    0  0.62762695971E+01 -0.52444155922E+01 -0.14257002382E+02  0.16436470794E+02  0.51100000000E-03 0. -1.
        -11    1    3    3    0    0 -0.62808354854E+00 -0.10319854278E+01 -0.50564153607E+00  0.13096398327E+01  0.51100000000E-03 0.  1.
         12    1    3    3    0    0  0.63340595068E+01 -0.43824021649E+01 -0.27331645229E+02  0.28396207308E+02  0.00000000000E+00 0. -1.
</event>
<event>
 7    1  0.3986981E-008  0.4614232E+02  0.7816164E-02  0.1320468E+00
        -11   -1    0    0    0    0  0.00000000000E+00  0.00000000000E+00  0.45593999997E+02  0.45594000000E+02  0.51100000000E-03 0. -1.
         11   -1    0    0    0    0 -0.00000000000E+00 -0.00000000000E+00 -0.45593999997E+02  0.45594000000E+02  0.51100000000E-03 0.  1.
    9900012    2    1    2    0    0  0.37339668040E+02  0.24351724058E+02  0.64696348566E+01  0.46142318197E+02  0.10000003973E+02 0.  0.
        -12    1    1    2    0    0 -0.37339668040E+02 -0.24351724058E+02 -0.64696348566E+01  0.45045681803E+02  0.00000000000E+00 0.  1.
         11    1    3    3    0    0  0.65346493316E+01  0.65788231857E+01  0.11416406064E+01  0.93426923277E+01  0.51100000000E-03 0. -1.
        -11    1    3    3    0    0  0.39055173748E+01  0.42802192304E+01  0.32278013569E+01  0.66326498842E+01  0.51100000000E-03 0.  1.
         12    1    3    3    0    0  0.26899501333E+02  0.13492681642E+02  0.21001928933E+01  0.30166975985E+02  0.00000000000E+00 0. -1.
</event>
<event>
 7    1  0.3986981E-008  0.4614232E+02  0.7816164E-02  0.1320468E+00
        -11   -1    0    0    0    0  0.00000000000E+00  0.00000000000E+00  0.45593999997E+02  0.45594000000E+02  0.51100000000E-03 0. -1.
         11   -1    0    0    0    0 -0.00000000000E+00 -0.00000000000E+00 -0.45593999997E+02  0.45594000000E+02  0.51100000000E-03 0.  1.
    9900012    2    1    2    0    0 -0.41434101687E+02 -0.15893404944E+02 -0.77284150900E+01  0.46142317597E+02  0.99999985041E+01 0.  0.
        -12    1    1    2    0    0  0.41434101687E+02  0.15893404944E+02  0.77284150900E+01  0.45045682403E+02  0.00000000000E+00 0.  1.
         11    1    3    3    0    0 -0.13335830073E+02 -0.77635565070E+01 -0.59269580099E+00  0.15442424095E+02  0.51100000000E-03 0. -1.
        -11    1    3    3    0    0 -0.36838716137E+01 -0.33460164695E+01 -0.13726525569E+01  0.51624520902E+01  0.51100000000E-03 0.  1.
        -12    1    3    3    0    0 -0.24414400001E+02 -0.47838319680E+01 -0.57630667322E+01  0.25537441412E+02  0.00000000000E+00 0.  1.
</event>
<event>
 7    1  0.3986981E-008  0.4614232E+02  0.7816164E-02  0.1320468E+00
        -11   -1    0    0    0    0  0.00000000000E+00  0.00000000000E+00  0.45593999997E+02  0.45594000000E+02  0.51100000000E-03 0.  1.
         11   -1    0    0    0    0 -0.00000000000E+00 -0.00000000000E+00 -0.45593999997E+02  0.45594000000E+02  0.51100000000E-03 0. -1.
    9900012    2    1    2    0    0 -0.89149190872E+01  0.66140729583E+01 -0.43656520098E+02  0.46142317738E+02  0.99999997880E+01 0.  0.
        -12    1    1    2    0    0  0.89149190872E+01 -0.66140729583E+01  0.43656520098E+02  0.45045682262E+02  0.00000000000E+00 0.  1.
         11    1    3    3    0    0 -0.17054371258E+01  0.15965253278E+01 -0.24644854088E+02  0.24755327552E+02  0.51100000000E-03 0. -1.
        -11    1    3    3    0    0 -0.23890161277E+00  0.22993126838E+01 -0.46907000183E+01  0.52293957319E+01  0.51100000000E-03 0.  1.
         12    1    3    3    0    0 -0.69705803486E+01  0.27182349468E+01 -0.14320965991E+02  0.16157594454E+02  0.00000000000E+00 0. -1.
</event>
<event>
 7    1  0.3986981E-008  0.4614232E+02  0.7816164E-02  0.1320468E+00
        -11   -1    0    0    0    0  0.00000000000E+00  0.00000000000E+00  0.45593999997E+02  0.45594000000E+02  0.51100000000E-03 0.  1.
         11   -1    0    0    0    0 -0.00000000000E+00 -0.00000000000E+00 -0.45593999997E+02  0.45594000000E+02  0.51100000000E-03 0. -1.
    9900012    2    1    2    0    0  0.14704047743E+02  0.27257436081E+02 -0.32709884041E+02  0.46142319233E+02  0.10000013426E+02 0.  0.
        -12    1    1    2    0    0 -0.14704047743E+02 -0.27257436081E+02  0.32709884041E+02  0.45045680767E+02  0.00000000000E+00 0.  1.
         11    1    3    3    0    0  0.43645475231E+01  0.13099704698E+02 -0.12205888559E+02  0.18429195697E+02  0.51100000000E-03 0. -1.
        -11    1    3    3    0    0  0.59687828066E+01  0.12704821181E+02 -0.15302432572E+02  0.20765435038E+02  0.51100000000E-03 0.  1.
        -12    1    3    3    0    0  0.43707174135E+01  0.14529102016E+01 -0.52015629105E+01  0.69476884987E+01  0.00000000000E+00 0.  1.
</event>
<event>
 7    1  0.3986981E-008  0.4614232E+02  0.7816164E-02  0.1320468E+00
        -11   -1    0    0    0    0  0.00000000000E+00  0.00000000000E+00  0.45593999997E+02  0.45594000000E+02  0.51100000000E-03 0. -1.
         11   -1    0    0    0    0 -0.00000000000E+00 -0.00000000000E+00 -0.45593999997E+02  0.45594000000E+02  0.51100000000E-03 0.  1.
    9900012    2    1    2    0    0  0.26781650490E+02 -0.20925625365E+02  0.29563067569E+02  0.46142316922E+02  0.99999923463E+01 0.  0.
        -12    1    1    2    0    0 -0.26781650490E+02  0.20925625365E+02 -0.29563067569E+02  0.45045683078E+02  0.00000000000E+00 0.  1.
         11    1    3    3    0    0  0.94903928311E+01 -0.93991964585E+01  0.16634299486E+02  0.21333362834E+02  0.51100000000E-03 0. -1.
        -11    1    3    3    0    0  0.84180083846E+01 -0.75239095937E+01  0.54697544385E+01  0.12545528870E+02  0.51100000000E-03 0.  1.
        -12    1    3    3    0    0  0.88732492745E+01 -0.40025193128E+01  0.74590136445E+01  0.12263425218E+02  0.00000000000E+00 0.  1.
</event>
<event>
 7    1  0.3986981E-008  0.4614232E+02  0.7816164E-02  0.1320468E+00
        -11   -1    0    0    0    0  0.00000000000E+00  0.00000000000E+00  0.45593999997E+02  0.45594000000E+02  0.51100000000E-03 0. -1.
         11   -1    0    0    0    0 -0.00000000000E+00 -0.00000000000E+00 -0.45593999997E+02  0.45594000000E+02  0.51100000000E-03 0.  1.
    9900012    2    1    2    0    0  0.11491599867E+02 -0.54005427113E+01  0.43219101086E+02  0.46142318434E+02  0.10000006138E+02 0.  0.
        -12    1    1    2    0    0 -0.11491599867E+02  0.54005427113E+01 -0.43219101086E+02  0.45045681566E+02  0.00000000000E+00 0.  1.
         11    1    3    3    0    0  0.25644488318E+01  0.84628988378E+00  0.56738413349E+01  0.62837154720E+01  0.51100000000E-03 0. -1.
        -11    1    3    3    0    0  0.97133205361E+01 -0.33540958329E+01  0.31018029589E+02  0.32675934792E+02  0.51100000000E-03 0.  1.
         12    1    3    3    0    0 -0.78616950075E+00 -0.28927367622E+01  0.65272301619E+01  0.71826681704E+01  0.00000000000E+00 0. -1.
</event>
<event>
 7    1  0.3986981E-008  0.4614232E+02  0.7816164E-02  0.1320468E+00
        -11   -1    0    0    0    0  0.00000000000E+00  0.00000000000E+00  0.45593999997E+02  0.45594000000E+02  0.51100000000E-03 0.  1.
         11   -1    0    0    0    0 -0.00000000000E+00 -0.00000000000E+00 -0.45593999997E+02  0.45594000000E+02  0.51100000000E-03 0. -1.
    9900012    2    1    2    0    0 -0.81342938774E+01 -0.30534051741E+02 -0.32103246189E+02  0.46142317982E+02  0.10000002015E+02 0.  0.
        -12    1    1    2    0    0  0.81342938774E+01  0.30534051741E+02  0.32103246189E+02  0.45045682018E+02  0.00000000000E+00 0.  1.
         11    1    3    3    0    0 -0.22514115726E+01 -0.13946261832E+02 -0.12737581140E+02  0.19021383933E+02  0.51100000000E-03 0. -1.
        -11    1    3    3    0    0 -0.17875329149E+01 -0.39793575769E+01 -0.10086119732E+01  0.44774835589E+01  0.51100000000E-03 0.  1.
         12    1    3    3    0    0 -0.40953493899E+01 -0.12608432332E+02 -0.18357053076E+02  0.22643450490E+02  0.00000000000E+00 0. -1.
</event>
<event>
 7    1  0.3986981E-008  0.4614232E+02  0.7816164E-02  0.1320468E+00
        -11   -1    0    0    0    0  0.00000000000E+00  0.00000000000E+00  0.45593999997E+02  0.45594000000E+02  0.51100000000E-03 0.  1.
         11   -1    0    0    0    0 -0.00000000000E+00 -0.00000000000E+00 -0.45593999997E+02  0.45594000000E+02  0.51100000000E-03 0. -1.
    9900012    2    1    2    0    0 -0.17758058170E+02 -0.32502643653E+01 -0.41269851981E+02  0.46142317289E+02  0.99999956909E+01 0.  0.
        -12    1    1    2    0    0  0.17758058170E+02  0.32502643653E+01  0.41269851981E+02  0.45045682711E+02  0.00000000000E+00 0.  1.
         11    1    3    3    0    0 -0.39068095608E+01  0.19051727513E+01 -0.10181246200E+02  0.11070258290E+02  0.51100000000E-03 0. -1.
        -11    1    3    3    0    0 -0.14344419719E+02 -0.42416237117E+01 -0.27140530848E+02  0.30989710612E+02  0.51100000000E-03 0.  1.
        -12    1    3    3    0    0  0.49317110985E+00 -0.91381340489E+00 -0.39480749321E+01  0.40823483869E+01  0.00000000000E+00 0.  1.
</event>
<event>
 7    1  0.3986981E-008  0.4614232E+02  0.7816164E-02  0.1320468E+00
        -11   -1    0    0    0    0  0.00000000000E+00  0.00000000000E+00  0.45593999997E+02  0.45594000000E+02  0.51100000000E-03 0. -1.
         11   -1    0    0    0    0 -0.00000000000E+00 -0.00000000000E+00 -0.45593999997E+02  0.45594000000E+02  0.51100000000E-03 0.  1.
    9900012    2    1    2    0    0  0.38406987290E+02 -0.55196690211E+01  0.22881215294E+02  0.46142318385E+02  0.10000005693E+02 0.  0.
        -12    1    1    2    0    0 -0.38406987290E+02  0.55196690211E+01 -0.22881215294E+02  0.45045681615E+02  0.00000000000E+00 0.  1.
         11    1    3    3    0    0  0.19442153678E+02  0.61660592885E+00  0.12091196901E+02  0.22903593283E+02  0.51100000000E-03 0. -1.
        -11    1    3    3    0    0  0.32599522723E+01  0.72742887845E+00  0.93658274710E+00  0.34689521608E+01  0.51100000000E-03 0.  1.
        -12    1    3    3    0    0  0.15704881340E+02 -0.68637038284E+01  0.98534356455E+01  0.19769772941E+02  0.00000000000E+00 0.  1.
</event>
<event>
 7    1  0.3986981E-008  0.4614232E+02  0.7816164E-02  0.1320468E+00
        -11   -1    0    0    0    0  0.00000000000E+00  0.00000000000E+00  0.45593999997E+02  0.45594000000E+02  0.51100000000E-03 0. -1.
         11   -1    0    0    0    0 -0.00000000000E+00 -0.00000000000E+00 -0.45593999997E+02  0.45594000000E+02  0.51100000000E-03 0.  1.
    9900012    2    1    2    0    0 -0.87858101111E+01 -0.43642775762E+02 -0.68724687303E+01  0.46142321384E+02  0.10000033037E+02 0.  0.
        -12    1    1    2    0    0  0.87858101111E+01  0.43642775762E+02  0.68724687303E+01  0.45045678616E+02  0.00000000000E+00 0.  1.
         11    1    3    3    0    0 -0.18654863870E+01 -0.18222652960E+01 -0.26743739764E+00  0.26214906622E+01  0.51100000000E-03 0. -1.
        -11    1    3    3    0    0 -0.47685051417E+01 -0.10310366783E+02 -0.63039505958E+00  0.11377157056E+02  0.51100000000E-03 0.  1.
         12    1    3    3    0    0 -0.21518185824E+01 -0.31510143683E+02 -0.59746362731E+01  0.32143673666E+02  0.00000000000E+00 0. -1.
</event>
<event>
 7    1  0.3986981E-008  0.4614232E+02  0.7816164E-02  0.1320468E+00
        -11   -1    0    0    0    0  0.00000000000E+00  0.00000000000E+00  0.45593999997E+02  0.45594000000E+02  0.51100000000E-03 0.  1.
         11   -1    0    0    0    0 -0.00000000000E+00 -0.00000000000E+00 -0.45593999997E+02  0.45594000000E+02  0.51100000000E-03 0. -1.
    9900012    2    1    2    0    0 -0.92537759236E+01 -0.10810486823E+02 -0.42738912470E+02  0.46142316152E+02  0.99999853285E+01 0.  0.
        -12    1    1    2    0    0  0.92537759236E+01  0.10810486823E+02  0.42738912470E+02  0.45045683848E+02  0.00000000000E+00 0.  1.
         11    1    3    3    0    0 -0.84091710311E+01 -0.11411164545E+02 -0.32886385414E+02  0.35811215835E+02  0.51100000000E-03 0. -1.
        -11    1    3    3    0    0  0.42582211953E+00 -0.76638787802E+00 -0.58443971618E+01  0.59097930000E+01  0.51100000000E-03 0.  1.
         12    1    3    3    0    0 -0.12704270121E+01  0.13670655997E+01 -0.40081298943E+01  0.44213073176E+01  0.00000000000E+00 0. -1.
</event>
<event>
 7    1  0.3986981E-008  0.4614232E+02  0.7816164E-02  0.1320468E+00
        -11   -1    0    0    0    0  0.00000000000E+00  0.00000000000E+00  0.45593999997E+02  0.45594000000E+02  0.51100000000E-03 0.  1.
         11   -1    0    0    0    0 -0.00000000000E+00 -0.00000000000E+00 -0.45593999997E+02  0.45594000000E+02  0.51100000000E-03 0. -1.
    9900012    2    1    2    0    0 -0.33743396807E+02 -0.24030161197E+02 -0.17693160794E+02  0.46142318585E+02  0.10000007517E+02 0.  0.
        -12    1    1    2    0    0  0.33743396807E+02  0.24030161197E+02  0.17693160794E+02  0.45045681415E+02  0.00000000000E+00 0.  1.
         11    1    3    3    0    0 -0.21887075586E+02 -0.19066667112E+02 -0.98395636509E+01  0.30649614771E+02  0.51100000000E-03 0.  1.
        -11    1    3    3    0    0 -0.72554645755E+01 -0.48965044297E+01 -0.51198205265E+01  0.10140516965E+02  0.51100000000E-03 0. -1.
        -12    1    3    3    0    0 -0.46008566453E+01 -0.66989655012E-01 -0.27337766166E+01  0.53521868497E+01  0.00000000000E+00 0.  1.
</event>
<event>
 7    1  0.3986981E-008  0.4614232E+02  0.7816164E-02  0.1320468E+00
        -11   -1    0    0    0    0  0.00000000000E+00  0.00000000000E+00  0.45593999997E+02  0.45594000000E+02  0.51100000000E-03 0.  1.
         11   -1    0    0    0    0 -0.00000000000E+00 -0.00000000000E+00 -0.45593999997E+02  0.45594000000E+02  0.51100000000E-03 0. -1.
    9900012    2    1    2    0    0  0.42145919814E+02  0.15900113990E+02 -0.14597013117E+00  0.46142317753E+02  0.99999999227E+01 0.  0.
        -12    1    1    2    0    0 -0.42145919814E+02 -0.15900113990E+02  0.14597013117E+00  0.45045682247E+02  0.00000000000E+00 0.  1.
         11    1    3    3    0    0  0.30115421642E+02  0.12214820485E+02 -0.15016365340E+01  0.32532988991E+02  0.51100000000E-03 0. -1.
        -11    1    3    3    0    0  0.58684399576E+01  0.61231768408E+00  0.28664756152E+01  0.65597410922E+01  0.51100000000E-03 0.  1.
         12    1    3    3    0    0  0.61620582146E+01  0.30729758213E+01 -0.15108092123E+01  0.70495876698E+01  0.00000000000E+00 0. -1.
</event>
<event>
 7    1  0.3986981E-008  0.4614232E+02  0.7816164E-02  0.1320468E+00
        -11   -1    0    0    0    0  0.00000000000E+00  0.00000000000E+00  0.45593999997E+02  0.45594000000E+02  0.51100000000E-03 0.  1.
         11   -1    0    0    0    0 -0.00000000000E+00 -0.00000000000E+00 -0.45593999997E+02  0.45594000000E+02  0.51100000000E-03 0. -1.
    9900012    2    1    2    0    0 -0.44278727708E+02  0.82769337336E+01  0.85773316565E-02  0.46142318375E+02  0.10000005597E+02 0.  0.
        -12    1    1    2    0    0  0.44278727708E+02 -0.82769337336E+01 -0.85773316565E-02  0.45045681625E+02  0.00000000000E+00 0.  1.
         11    1    3    3    0    0 -0.51960343825E+01  0.86438218710E+00 -0.10237146763E+01  0.53659968197E+01  0.51100000000E-03 0. -1.
        -11    1    3    3    0    0 -0.24508630509E+02  0.14667869931E+01  0.36422092764E+01  0.24821162789E+02  0.51100000000E-03 0.  1.
        -12    1    3    3    0    0 -0.14574062817E+02  0.59457645534E+01 -0.26099172685E+01  0.15955158767E+02  0.00000000000E+00 0.  1.
</event>
<event>
 7    1  0.3986981E-008  0.4614232E+02  0.7816164E-02  0.1320468E+00
        -11   -1    0    0    0    0  0.00000000000E+00  0.00000000000E+00  0.45593999997E+02  0.45594000000E+02  0.51100000000E-03 0.  1.
         11   -1    0    0    0    0 -0.00000000000E+00 -0.00000000000E+00 -0.45593999997E+02  0.45594000000E+02  0.51100000000E-03 0. -1.
    9900012    2    1    2    0    0 -0.26396727978E+02 -0.31728644203E+02 -0.18044920587E+02  0.46142320186E+02  0.10000022112E+02 0.  0.
        -12    1    1    2    0    0  0.26396727978E+02  0.31728644203E+02  0.18044920587E+02  0.45045679814E+02  0.00000000000E+00 0.  1.
         11    1    3    3    0    0 -0.16558829257E+02 -0.19614162002E+02 -0.12408697381E+02  0.28511154806E+02  0.51100000000E-03 0. -1.
        -11    1    3    3    0    0 -0.94938544848E+01 -0.77742543951E+01 -0.33817957582E+01  0.12728269607E+02  0.51100000000E-03 0.  1.
        -12    1    3    3    0    0 -0.34404423609E+00 -0.43402278060E+01 -0.22544274474E+01  0.49028957730E+01  0.00000000000E+00 0.  1.
</event>
<event>
 7    1  0.3986981E-008  0.4614232E+02  0.7816164E-02  0.1320468E+00
        -11   -1    0    0    0    0  0.00000000000E+00  0.00000000000E+00  0.45593999997E+02  0.45594000000E+02  0.51100000000E-03 0.  1.
         11   -1    0    0    0    0 -0.00000000000E+00 -0.00000000000E+00 -0.45593999997E+02  0.45594000000E+02  0.51100000000E-03 0. -1.
    9900012    2    1    2    0    0  0.36568484060E+01  0.23037224086E+02 -0.38536050257E+02  0.46142318706E+02  0.10000008618E+02 0.  0.
        -12    1    1    2    0    0 -0.36568484060E+01 -0.23037224086E+02  0.38536050257E+02  0.45045681294E+02  0.00000000000E+00 0.  1.
         11    1    3    3    0    0 -0.23699863424E+00  0.96375726596E+01 -0.15205387039E+02  0.18003965407E+02  0.51100000000E-03 0. -1.
        -11    1    3    3    0    0 -0.19741585451E+01  0.38409389406E+01 -0.86022113941E+01  0.96253911628E+01  0.51100000000E-03 0.  1.
        -12    1    3    3    0    0  0.58680055854E+01  0.95587124855E+01 -0.14728451824E+02  0.18512962136E+02  0.00000000000E+00 0.  1.
</event>
<event>
 7    1  0.3986981E-008  0.4614232E+02  0.7816164E-02  0.1320468E+00
        -11   -1    0    0    0    0  0.00000000000E+00  0.00000000000E+00  0.45593999997E+02  0.45594000000E+02  0.51100000000E-03 0. -1.
         11   -1    0    0    0    0 -0.00000000000E+00 -0.00000000000E+00 -0.45593999997E+02  0.45594000000E+02  0.51100000000E-03 0.  1.
    9900012    2    1    2    0    0 -0.22416552251E+02  0.20093059937E+02  0.33509410033E+02  0.46142318373E+02  0.10000005580E+02 0.  0.
        -12    1    1    2    0    0  0.22416552251E+02 -0.20093059937E+02 -0.33509410033E+02  0.45045681627E+02  0.00000000000E+00 0.  1.
         11    1    3    3    0    0 -0.79964092325E+01  0.58689835945E+01  0.75764392722E+01  0.12481584889E+02  0.51100000000E-03 0. -1.
        -11    1    3    3    0    0 -0.14400494892E+02  0.13038615632E+02  0.21084586940E+02  0.28669488266E+02  0.51100000000E-03 0.  1.
         12    1    3    3    0    0 -0.19648125995E-01  0.11854607105E+01  0.48483838207E+01  0.49912452172E+01  0.00000000000E+00 0. -1.
</event>
<event>
 7    1  0.3986981E-008  0.4614232E+02  0.7816164E-02  0.1320468E+00
        -11   -1    0    0    0    0  0.00000000000E+00  0.00000000000E+00  0.45593999997E+02  0.45594000000E+02  0.51100000000E-03 0.  1.
         11   -1    0    0    0    0 -0.00000000000E+00 -0.00000000000E+00 -0.45593999997E+02  0.45594000000E+02  0.51100000000E-03 0. -1.
    9900012    2    1    2    0    0  0.18159806743E+02  0.21882125265E+02 -0.34935763846E+02  0.46142316716E+02  0.99999904654E+01 0.  0.
        -12    1    1    2    0    0 -0.18159806743E+02 -0.21882125265E+02  0.34935763846E+02  0.45045683284E+02  0.00000000000E+00 0.  1.
         11    1    3    3    0    0  0.42636506942E+01  0.40415163239E+01 -0.37712391596E+01  0.69810326241E+01  0.51100000000E-03 0. -1.
        -11    1    3    3    0    0 -0.44709525643E+00  0.25969246531E+01 -0.50282865235E+01  0.56769338067E+01  0.51100000000E-03 0.  1.
        -12    1    3    3    0    0  0.14343251305E+02  0.15243684288E+02 -0.26136238163E+02  0.33484350285E+02  0.00000000000E+00 0.  1.
</event>
<event>
 7    1  0.3986981E-008  0.4614232E+02  0.7816164E-02  0.1320468E+00
        -11   -1    0    0    0    0  0.00000000000E+00  0.00000000000E+00  0.45593999997E+02  0.45594000000E+02  0.51100000000E-03 0. -1.
         11   -1    0    0    0    0 -0.00000000000E+00 -0.00000000000E+00 -0.45593999997E+02  0.45594000000E+02  0.51100000000E-03 0.  1.
    9900012    2    1    2    0    0 -0.43841932850E+02  0.14716071785E+01  0.10238787169E+02  0.46142318005E+02  0.10000002220E+02 0.  0.
        -12    1    1    2    0    0  0.43841932850E+02 -0.14716071785E+01 -0.10238787169E+02  0.45045681995E+02  0.00000000000E+00 0.  1.
         11    1    3    3    0    0 -0.44785284133E+01 -0.26094773955E+01 -0.24469472635E+00  0.51890716700E+01  0.51100000000E-03 0. -1.
        -11    1    3    3    0    0 -0.11068951439E+02  0.14373127925E+01  0.25619662841E+01  0.11452127554E+02  0.51100000000E-03 0.  1.
         12    1    3    3    0    0 -0.28294452998E+02  0.26437717814E+01  0.79215156116E+01  0.29501118780E+02  0.00000000000E+00 0. -1.
</event>
<event>
 7    1  0.3986981E-008  0.4614232E+02  0.7816164E-02  0.1320468E+00
        -11   -1    0    0    0    0  0.00000000000E+00  0.00000000000E+00  0.45593999997E+02  0.45594000000E+02  0.51100000000E-03 0.  1.
         11   -1    0    0    0    0 -0.00000000000E+00 -0.00000000000E+00 -0.45593999997E+02  0.45594000000E+02  0.51100000000E-03 0. -1.
    9900012    2    1    2    0    0 -0.26851882929E+02 -0.27010159805E+02 -0.24052881687E+02  0.46142317999E+02  0.10000002169E+02 0.  0.
        -12    1    1    2    0    0  0.26851882929E+02  0.27010159805E+02  0.24052881687E+02  0.45045682001E+02  0.00000000000E+00 0.  1.
         11    1    3    3    0    0 -0.46003642172E+01 -0.32393175414E+01 -0.50444169251E+01  0.75566309583E+01  0.51100000000E-03 0. -1.
        -11    1    3    3    0    0 -0.65321865582E+01 -0.55770254693E+01 -0.92893387155E+01  0.12651659510E+02  0.51100000000E-03 0.  1.
         12    1    3    3    0    0 -0.15719332153E+02 -0.18193816794E+02 -0.97191260464E+01  0.25934027531E+02  0.00000000000E+00 0. -1.
</event>
<event>
 7    1  0.3986981E-008  0.4614232E+02  0.7816164E-02  0.1320468E+00
        -11   -1    0    0    0    0  0.00000000000E+00  0.00000000000E+00  0.45593999997E+02  0.45594000000E+02  0.51100000000E-03 0.  1.
         11   -1    0    0    0    0 -0.00000000000E+00 -0.00000000000E+00 -0.45593999997E+02  0.45594000000E+02  0.51100000000E-03 0. -1.
    9900012    2    1    2    0    0  0.22844528312E+02  0.37157775817E+02 -0.11249037880E+02  0.46142316181E+02  0.99999855902E+01 0.  0.
        -12    1    1    2    0    0 -0.22844528312E+02 -0.37157775817E+02  0.11249037880E+02  0.45045683819E+02  0.00000000000E+00 0.  1.
         11    1    3    3    0    0  0.16654178660E+02  0.31784068317E+02 -0.11354531536E+02  0.37636605217E+02  0.51100000000E-03 0. -1.
        -11    1    3    3    0    0  0.12470139769E+01  0.36607696891E+00  0.64043003497E+00  0.14488640711E+01  0.51100000000E-03 0.  1.
        -12    1    3    3    0    0  0.49433356748E+01  0.50076305320E+01 -0.53493637971E+00  0.70568468928E+01  0.00000000000E+00 0.  1.
</event>
<event>
 7    1  0.3986981E-008  0.4614232E+02  0.7816164E-02  0.1320468E+00
        -11   -1    0    0    0    0  0.00000000000E+00  0.00000000000E+00  0.45593999997E+02  0.45594000000E+02  0.51100000000E-03 0.  1.
         11   -1    0    0    0    0 -0.00000000000E+00 -0.00000000000E+00 -0.45593999997E+02  0.45594000000E+02  0.51100000000E-03 0. -1.
    9900012    2    1    2    0    0  0.94801077230E+01 -0.35739064331E+02 -0.25728588484E+02  0.46142318442E+02  0.10000006205E+02 0.  0.
        -12    1    1    2    0    0 -0.94801077230E+01  0.35739064331E+02  0.25728588484E+02  0.45045681558E+02  0.00000000000E+00 0.  1.
         11    1    3    3    0    0  0.20078175314E+00 -0.17236402516E+01 -0.28493510837E+00  0.17585327141E+01  0.51100000000E-03 0. -1.
        -11    1    3    3    0    0  0.75718727446E+00 -0.17685582487E+02 -0.99005267554E+01  0.20282346777E+02  0.51100000000E-03 0.  1.
        -12    1    3    3    0    0  0.85221386954E+01 -0.16329841592E+02 -0.15543126620E+02  0.24101438951E+02  0.00000000000E+00 0.  1.
</event>
<event>
 7    1  0.3986981E-008  0.4614232E+02  0.7816164E-02  0.1320468E+00
        -11   -1    0    0    0    0  0.00000000000E+00  0.00000000000E+00  0.45593999997E+02  0.45594000000E+02  0.51100000000E-03 0.  1.
         11   -1    0    0    0    0 -0.00000000000E+00 -0.00000000000E+00 -0.45593999997E+02  0.45594000000E+02  0.51100000000E-03 0. -1.
    9900012    2    1    2    0    0 -0.27431644722E+02 -0.29434079690E+02  0.20254709934E+02  0.46142318144E+02  0.10000003491E+02 0.  0.
        -12    1    1    2    0    0  0.27431644722E+02  0.29434079690E+02 -0.20254709934E+02  0.45045681856E+02  0.00000000000E+00 0.  1.
         11    1    3    3    0    0 -0.20965791496E+02 -0.21773903038E+02  0.15648177079E+02  0.34037225397E+02  0.51100000000E-03 0. -1.
        -11    1    3    3    0    0 -0.64118160690E+00 -0.27607095503E+01  0.33545321023E+01  0.43915278617E+01  0.51100000000E-03 0.  1.
         12    1    3    3    0    0 -0.58246716192E+01 -0.48994671011E+01  0.12520007526E+01  0.77135648847E+01  0.00000000000E+00 0. -1.
</event>
<event>
 7    1  0.3986981E-008  0.4614232E+02  0.7816164E-02  0.1320468E+00
        -11   -1    0    0    0    0  0.00000000000E+00  0.00000000000E+00  0.45593999997E+02  0.45594000000E+02  0.51100000000E-03 0.  1.
         11   -1    0    0    0    0 -0.00000000000E+00 -0.00000000000E+00 -0.45593999997E+02  0.45594000000E+02  0.51100000000E-03 0. -1.
    9900012    2    1    2    0    0  0.18287063748E+02 -0.41057846669E+02 -0.29916589323E+01  0.46142317667E+02  0.99999991446E+01 0.  0.
        -12    1    1    2    0    0 -0.18287063748E+02  0.41057846669E+02  0.29916589323E+01  0.45045682333E+02  0.00000000000E+00 0.  1.
         11    1    3    3    0    0  0.14918026873E+02 -0.35615737668E+02 -0.34198113757E+01  0.38764976532E+02  0.51100000000E-03 0. -1.
        -11    1    3    3    0    0 -0.38406511595E+00 -0.19412575013E+01 -0.74164478028E+00  0.21132969363E+01  0.51100000000E-03 0.  1.
        -12    1    3    3    0    0  0.37531019918E+01 -0.35008514994E+01  0.11697972236E+01  0.52640441988E+01  0.00000000000E+00 0.  1.
</event>
<event>
 7    1  0.3986981E-008  0.4614232E+02  0.7816164E-02  0.1320468E+00
        -11   -1    0    0    0    0  0.00000000000E+00  0.00000000000E+00  0.45593999997E+02  0.45594000000E+02  0.51100000000E-03 0.  1.
         11   -1    0    0    0    0 -0.00000000000E+00 -0.00000000000E+00 -0.45593999997E+02  0.45594000000E+02  0.51100000000E-03 0. -1.
    9900012    2    1    2    0    0 -0.29266284996E+02 -0.21665609225E+02 -0.26517905563E+02  0.46142319008E+02  0.10000011372E+02 0.  0.
        -12    1    1    2    0    0  0.29266284996E+02  0.21665609225E+02  0.26517905563E+02  0.45045680992E+02  0.00000000000E+00 0.  1.
         11    1    3    3    0    0 -0.19231065141E+02 -0.15649102896E+02 -0.16304666744E+02  0.29674407253E+02  0.51100000000E-03 0. -1.
        -11    1    3    3    0    0 -0.79291793442E+01 -0.40300324813E+01 -0.10251912899E+02  0.13572574008E+02  0.51100000000E-03 0.  1.
         12    1    3    3    0    0 -0.21060405108E+01 -0.19864738484E+01  0.38674080308E-01  0.28953377468E+01  0.00000000000E+00 0. -1.
</event>
<event>
 7    1  0.3986981E-008  0.4614232E+02  0.7816164E-02  0.1320468E+00
        -11   -1    0    0    0    0  0.00000000000E+00  0.00000000000E+00  0.45593999997E+02  0.45594000000E+02  0.51100000000E-03 0.  1.
         11   -1    0    0    0    0 -0.00000000000E+00 -0.00000000000E+00 -0.45593999997E+02  0.45594000000E+02  0.51100000000E-03 0. -1.
    9900012    2    1    2    0    0  0.46260077111E+01  0.40395219368E+02 -0.19389167327E+02  0.46142317579E+02  0.99999983365E+01 0.  0.
        -12    1    1    2    0    0 -0.46260077111E+01 -0.40395219368E+02  0.19389167327E+02  0.45045682421E+02  0.00000000000E+00 0.  1.
         11    1    3    3    0    0  0.38525411776E+01  0.96916518309E+01 -0.27544291413E+01  0.10786893385E+02  0.51100000000E-03 0. -1.
        -11    1    3    3    0    0 -0.15296459695E+01  0.42941349251E+01 -0.36327885731E+01  0.58289419816E+01  0.51100000000E-03 0.  1.
        -12    1    3    3    0    0  0.23031125030E+01  0.26409432612E+02 -0.13001949613E+02  0.29526482212E+02  0.00000000000E+00 0.  1.
</event>
<event>
 7    1  0.3986981E-008  0.4614232E+02  0.7816164E-02  0.1320468E+00
        -11   -1    0    0    0    0  0.00000000000E+00  0.00000000000E+00  0.45593999997E+02  0.45594000000E+02  0.51100000000E-03 0.  1.
         11   -1    0    0    0    0 -0.00000000000E+00 -0.00000000000E+00 -0.45593999997E+02  0.45594000000E+02  0.51100000000E-03 0. -1.
    9900012    2    1    2    0    0  0.40179964825E-01  0.38204846437E+02 -0.23864232431E+02  0.46142317685E+02  0.99999993052E+01 0.  0.
        -12    1    1    2    0    0 -0.40179964825E-01 -0.38204846437E+02  0.23864232431E+02  0.45045682315E+02  0.00000000000E+00 0.  1.
         11    1    3    3    0    0  0.28870174594E+01  0.15496970187E+02 -0.89845746103E+01  0.18144242503E+02  0.51100000000E-03 0. -1.
        -11    1    3    3    0    0 -0.68737610662E-01  0.63806818683E+01 -0.75539562544E+01  0.98883811273E+01  0.51100000000E-03 0.  1.
         12    1    3    3    0    0 -0.27780998839E+01  0.16327194381E+02 -0.73257015665E+01  0.18109694055E+02  0.00000000000E+00 0. -1.
</event>
<event>
 7    1  0.3986981E-008  0.4614232E+02  0.7816164E-02  0.1320468E+00
        -11   -1    0    0    0    0  0.00000000000E+00  0.00000000000E+00  0.45593999997E+02  0.45594000000E+02  0.51100000000E-03 0.  1.
         11   -1    0    0    0    0 -0.00000000000E+00 -0.00000000000E+00 -0.45593999997E+02  0.45594000000E+02  0.51100000000E-03 0. -1.
    9900012    2    1    2    0    0 -0.41386547953E+01  0.76335439323E+00 -0.44848660123E+02  0.46142317762E+02  0.10000000008E+02 0.  0.
        -12    1    1    2    0    0  0.41386547953E+01 -0.76335439323E+00  0.44848660123E+02  0.45045682238E+02  0.00000000000E+00 0.  1.
         11    1    3    3    0    0 -0.59010574470E+01 -0.13880549207E+01 -0.30859516317E+02  0.31449307195E+02  0.51100000000E-03 0.  1.
        -11    1    3    3    0    0  0.28303957317E+00  0.28343911371E+01 -0.94680291143E+01  0.98872372323E+01  0.51100000000E-03 0. -1.
        -12    1    3    3    0    0  0.14793630785E+01 -0.68298182317E+00 -0.45211146920E+01  0.48057733349E+01  0.00000000000E+00 0.  1.
</event>
<event>
 7    1  0.3986981E-008  0.4614232E+02  0.7816164E-02  0.1320468E+00
        -11   -1    0    0    0    0  0.00000000000E+00  0.00000000000E+00  0.45593999997E+02  0.45594000000E+02  0.51100000000E-03 0.  1.
         11   -1    0    0    0    0 -0.00000000000E+00 -0.00000000000E+00 -0.45593999997E+02  0.45594000000E+02  0.51100000000E-03 0. -1.
    9900012    2    1    2    0    0 -0.19703095151E+02 -0.15472883645E+02 -0.37436500327E+02  0.46142316038E+02  0.99999842900E+01 0.  0.
        -12    1    1    2    0    0  0.19703095151E+02  0.15472883645E+02  0.37436500327E+02  0.45045683962E+02  0.00000000000E+00 0.  1.
         11    1    3    3    0    0 -0.11625716477E+02 -0.67996709909E+01 -0.19102107673E+02  0.23372704743E+02  0.51100000000E-03 0. -1.
        -11    1    3    3    0    0 -0.23955974230E+01  0.58240312182E+00 -0.49777302554E+01  0.55548068523E+01  0.51100000000E-03 0.  1.
        -12    1    3    3    0    0 -0.56817812511E+01 -0.92556157759E+01 -0.13356662399E+02  0.17214804443E+02  0.00000000000E+00 0.  1.
</event>
<event>
 7    1  0.3986981E-008  0.4614231E+02  0.7816164E-02  0.1320468E+00
        -11   -1    0    0    0    0  0.00000000000E+00  0.00000000000E+00  0.45593999997E+02  0.45594000000E+02  0.51100000000E-03 0.  1.
         11   -1    0    0    0    0 -0.00000000000E+00 -0.00000000000E+00 -0.45593999997E+02  0.45594000000E+02  0.51100000000E-03 0. -1.
    9900012    2    1    2    0    0  0.28555775851E+02 -0.10771768445E+02 -0.33130810862E+02  0.46142312545E+02  0.99999524381E+01 0.  0.
        -12    1    1    2    0    0 -0.28555775851E+02  0.10771768445E+02  0.33130810862E+02  0.45045687455E+02  0.00000000000E+00 0.  1.
         11    1    3    3    0    0  0.27990930565E+02 -0.10429313969E+02 -0.32398448114E+02  0.44067246615E+02  0.51100000000E-03 0. -1.
        -11    1    3    3    0    0  0.75571370180E+00 -0.97353016855E+00 -0.24841925050E+00  0.12572098366E+01  0.51100000000E-03 0.  1.
         12    1    3    3    0    0 -0.19086841606E+00  0.63107569203E+00 -0.48394349780E+00  0.81785609393E+00  0.00000000000E+00 0. -1.
</event>
<event>
 7    1  0.3986981E-008  0.4614231E+02  0.7816164E-02  0.1320468E+00
        -11   -1    0    0    0    0  0.00000000000E+00  0.00000000000E+00  0.45593999997E+02  0.45594000000E+02  0.51100000000E-03 0. -1.
         11   -1    0    0    0    0 -0.00000000000E+00 -0.00000000000E+00 -0.45593999997E+02  0.45594000000E+02  0.51100000000E-03 0.  1.
    9900012    2    1    2    0    0 -0.21184924736E+02  0.52691354087E+01  0.39402399167E+02  0.46142313368E+02  0.99999599427E+01 0.  0.
        -12    1    1    2    0    0  0.21184924736E+02 -0.52691354087E+01 -0.39402399167E+02  0.45045686632E+02  0.00000000000E+00 0.  1.
         11    1    3    3    0    0 -0.66953965146E+01  0.23678902927E+01  0.13784782533E+02  0.15506626605E+02  0.51100000000E-03 0. -1.
        -11    1    3    3    0    0 -0.19109497726E+01  0.29045601485E+01  0.99716962838E+01  0.10560441550E+02  0.51100000000E-03 0.  1.
         12    1    3    3    0    0 -0.12578578449E+02 -0.33150324694E-02  0.15645920350E+02  0.20075245213E+02  0.00000000000E+00 0. -1.
</event>
<event>
 7    1  0.3986981E-008  0.4614231E+02  0.7816164E-02  0.1320468E+00
        -11   -1    0    0    0    0  0.00000000000E+00  0.00000000000E+00  0.45593999997E+02  0.45594000000E+02  0.51100000000E-03 0.  1.
         11   -1    0    0    0    0 -0.00000000000E+00 -0.00000000000E+00 -0.45593999997E+02  0.45594000000E+02  0.51100000000E-03 0. -1.
    9900012    2    1    2    0    0 -0.13065514761E+02 -0.16444137853E+02 -0.39849672663E+02  0.46142314779E+02  0.99999728042E+01 0.  0.
        -12    1    1    2    0    0  0.13065514761E+02  0.16444137853E+02  0.39849672663E+02  0.45045685221E+02  0.00000000000E+00 0.  1.
         11    1    3    3    0    0 -0.27239494059E+01 -0.13154482117E+01 -0.26536551821E+01  0.40239520934E+01  0.51100000000E-03 0. -1.
        -11    1    3    3    0    0 -0.35402258872E+01 -0.20861158325E+01 -0.36781067675E+01  0.55148479810E+01  0.51100000000E-03 0.  1.
         12    1    3    3    0    0 -0.68013394682E+01 -0.13042573809E+02 -0.33517910713E+02  0.36603514704E+02  0.00000000000E+00 0. -1.
</event>
<event>
 7    1  0.3986981E-008  0.4614232E+02  0.7816164E-02  0.1320468E+00
        -11   -1    0    0    0    0  0.00000000000E+00  0.00000000000E+00  0.45593999997E+02  0.45594000000E+02  0.51100000000E-03 0.  1.
         11   -1    0    0    0    0 -0.00000000000E+00 -0.00000000000E+00 -0.45593999997E+02  0.45594000000E+02  0.51100000000E-03 0. -1.
    9900012    2    1    2    0    0  0.49361008492E+01 -0.20881686021E+01 -0.44725695293E+02  0.46142319196E+02  0.10000013080E+02 0.  0.
        -12    1    1    2    0    0 -0.49361008492E+01  0.20881686021E+01  0.44725695293E+02  0.45045680804E+02  0.00000000000E+00 0.  1.
         11    1    3    3    0    0  0.12094924480E+01  0.15263955420E+01 -0.85801108522E+01  0.87983554048E+01  0.51100000000E-03 0. -1.
        -11    1    3    3    0    0 -0.11979411454E+01  0.91613714801E+00 -0.16920626895E+02  0.16987700994E+02  0.51100000000E-03 0.  1.
        -12    1    3    3    0    0  0.49245495466E+01 -0.45307012921E+01 -0.19224957545E+02  0.20356262797E+02  0.00000000000E+00 0.  1.
</event>
<event>
 7    1  0.3986981E-008  0.4614232E+02  0.7816164E-02  0.1320468E+00
        -11   -1    0    0    0    0  0.00000000000E+00  0.00000000000E+00  0.45593999997E+02  0.45594000000E+02  0.51100000000E-03 0. -1.
         11   -1    0    0    0    0 -0.00000000000E+00 -0.00000000000E+00 -0.45593999997E+02  0.45594000000E+02  0.51100000000E-03 0.  1.
    9900012    2    1    2    0    0 -0.35588269898E+01  0.13266058376E+02  0.42900581364E+02  0.46142318345E+02  0.10000005324E+02 0.  0.
        -12    1    1    2    0    0  0.35588269898E+01 -0.13266058376E+02 -0.42900581364E+02  0.45045681655E+02  0.00000000000E+00 0.  1.
         11    1    3    3    0    0  0.10090302908E+01  0.31919880128E+01  0.12790880749E+02  0.13221707915E+02  0.51100000000E-03 0. -1.
        -11    1    3    3    0    0 -0.10225932558E+01 -0.11057202277E+01  0.24335366543E+01  0.28618901267E+01  0.51100000000E-03 0.  1.
         12    1    3    3    0    0 -0.35452640249E+01  0.11179790590E+02  0.27676163961E+02  0.30058720303E+02  0.00000000000E+00 0. -1.
</event>
<event>
 7    1  0.3986981E-008  0.4614232E+02  0.7816164E-02  0.1320468E+00
        -11   -1    0    0    0    0  0.00000000000E+00  0.00000000000E+00  0.45593999997E+02  0.45594000000E+02  0.51100000000E-03 0.  1.
         11   -1    0    0    0    0 -0.00000000000E+00 -0.00000000000E+00 -0.45593999997E+02  0.45594000000E+02  0.51100000000E-03 0. -1.
    9900012    2    1    2    0    0  0.31646835930E+02  0.45581804848E+01 -0.31730336173E+02  0.46142317994E+02  0.10000002126E+02 0.  0.
        -12    1    1    2    0    0 -0.31646835930E+02 -0.45581804848E+01  0.31730336173E+02  0.45045682006E+02  0.00000000000E+00 0.  1.
         11    1    3    3    0    0  0.45565061465E+01 -0.25537590269E+00 -0.24749481412E+01  0.51915637026E+01  0.51100000000E-03 0.  1.
        -11    1    3    3    0    0  0.21673051218E+02  0.64150019131E+01 -0.25919393785E+02  0.34390236595E+02  0.51100000000E-03 0. -1.
         12    1    3    3    0    0  0.54172785657E+01 -0.16014455256E+01 -0.33359942466E+01  0.65605176963E+01  0.00000000000E+00 0. -1.
</event>
<event>
 7    1  0.3986981E-008  0.4614232E+02  0.7816164E-02  0.1320468E+00
        -11   -1    0    0    0    0  0.00000000000E+00  0.00000000000E+00  0.45593999997E+02  0.45594000000E+02  0.51100000000E-03 0. -1.
         11   -1    0    0    0    0 -0.00000000000E+00 -0.00000000000E+00 -0.45593999997E+02  0.45594000000E+02  0.51100000000E-03 0.  1.
    9900012    2    1    2    0    0 -0.10013660926E+02  0.32554402754E+02 -0.29479671104E+02  0.46142317052E+02  0.99999935348E+01 0.  0.
        -12    1    1    2    0    0  0.10013660926E+02 -0.32554402754E+02  0.29479671104E+02  0.45045682948E+02  0.00000000000E+00 0.  1.
         11    1    3    3    0    0 -0.17866658121E+01  0.13584383931E+02 -0.90300976695E+01  0.16409458422E+02  0.51100000000E-03 0. -1.
        -11    1    3    3    0    0 -0.19934274311E+01  0.41893539882E+01 -0.14365580225E+01  0.48567621905E+01  0.51100000000E-03 0.  1.
         12    1    3    3    0    0 -0.62335676829E+01  0.14780664835E+02 -0.19013015412E+02  0.24876096440E+02  0.00000000000E+00 0. -1.
</event>
<event>
 7    1  0.3986981E-008  0.4614231E+02  0.7816164E-02  0.1320468E+00
        -11   -1    0    0    0    0  0.00000000000E+00  0.00000000000E+00  0.45593999997E+02  0.45594000000E+02  0.51100000000E-03 0. -1.
         11   -1    0    0    0    0 -0.00000000000E+00 -0.00000000000E+00 -0.45593999997E+02  0.45594000000E+02  0.51100000000E-03 0.  1.
    9900012    2    1    2    0    0 -0.22192589654E+02  0.15282356702E+02  0.36097819496E+02  0.46142311702E+02  0.99999447445E+01 0.  0.
        -12    1    1    2    0    0  0.22192589654E+02 -0.15282356702E+02 -0.36097819496E+02  0.45045688298E+02  0.00000000000E+00 0.  1.
         11    1    3    3    0    0 -0.10452109252E+02  0.76508384048E+01  0.19433158540E+02  0.23354433567E+02  0.51100000000E-03 0. -1.
        -11    1    3    3    0    0 -0.43190942243E+01  0.13879481900E+01  0.14830710759E+01  0.47728896042E+01  0.51100000000E-03 0.  1.
        -12    1    3    3    0    0 -0.74213861775E+01  0.62435701069E+01  0.15181589880E+02  0.18014988531E+02  0.00000000000E+00 0.  1.
</event>
<event>
 7    1  0.3986981E-008  0.4614232E+02  0.7816164E-02  0.1320468E+00
        -11   -1    0    0    0    0  0.00000000000E+00  0.00000000000E+00  0.45593999997E+02  0.45594000000E+02  0.51100000000E-03 0.  1.
         11   -1    0    0    0    0 -0.00000000000E+00 -0.00000000000E+00 -0.45593999997E+02  0.45594000000E+02  0.51100000000E-03 0. -1.
    9900012    2    1    2    0    0 -0.31200753731E+02  0.79373295174E+00 -0.32480706593E+02  0.46142319339E+02  0.10000014393E+02 0.  0.
        -12    1    1    2    0    0  0.31200753731E+02 -0.79373295174E+00  0.32480706593E+02  0.45045680661E+02  0.00000000000E+00 0.  1.
         11    1    3    3    0    0 -0.31127890040E+01 -0.21473995419E+01 -0.49559047238E+01  0.62339210830E+01  0.51100000000E-03 0. -1.
        -11    1    3    3    0    0 -0.82594869949E+01 -0.88432682323E+00 -0.51755175544E+01  0.97870905568E+01  0.51100000000E-03 0.  1.
        -12    1    3    3    0    0 -0.19828477732E+02  0.38254593169E+01 -0.22349284314E+02  0.30121307700E+02  0.00000000000E+00 0.  1.
</event>
<event>
 7    1  0.3986981E-008  0.4614232E+02  0.7816164E-02  0.1320468E+00
        -11   -1    0    0    0    0  0.00000000000E+00  0.00000000000E+00  0.45593999997E+02  0.45594000000E+02  0.51100000000E-03 0.  1.
         11   -1    0    0    0    0 -0.00000000000E+00 -0.00000000000E+00 -0.45593999997E+02  0.45594000000E+02  0.51100000000E-03 0. -1.
    9900012    2    1    2    0    0 -0.12902360716E+02  0.38341093862E+02 -0.19814215152E+02  0.46142317491E+02  0.99999975387E+01 0.  0.
        -12    1    1    2    0    0  0.12902360716E+02 -0.38341093862E+02  0.19814215152E+02  0.45045682509E+02  0.00000000000E+00 0.  1.
         11    1    3    3    0    0  0.23105447329E+00  0.11042510952E+02 -0.67577604386E+01  0.12948272498E+02  0.51100000000E-03 0. -1.
        -11    1    3    3    0    0 -0.46119875671E+00  0.13276691185E+01 -0.15432130991E+01  0.20873228096E+01  0.51100000000E-03 0.  1.
         12    1    3    3    0    0 -0.12672216433E+02  0.25970913792E+02 -0.11513241615E+02  0.31106722183E+02  0.00000000000E+00 0. -1.
</event>
<event>
 7    1  0.3986981E-008  0.4614232E+02  0.7816164E-02  0.1320468E+00
        -11   -1    0    0    0    0  0.00000000000E+00  0.00000000000E+00  0.45593999997E+02  0.45594000000E+02  0.51100000000E-03 0.  1.
         11   -1    0    0    0    0 -0.00000000000E+00 -0.00000000000E+00 -0.45593999997E+02  0.45594000000E+02  0.51100000000E-03 0. -1.
    9900012    2    1    2    0    0 -0.41167567135E+02  0.92900998638E+01 -0.15749254050E+02  0.46142317161E+02  0.99999945288E+01 0.  0.
        -12    1    1    2    0    0  0.41167567135E+02 -0.92900998638E+01  0.15749254050E+02  0.45045682839E+02  0.00000000000E+00 0.  1.
         11    1    3    3    0    0 -0.12497344192E+02  0.28290482057E+01 -0.84938119819E+01  0.15373092332E+02  0.51100000000E-03 0. -1.
        -11    1    3    3    0    0 -0.39655405180E+00  0.75551844043E+00  0.37705487438E+00  0.93286326396E+00  0.51100000000E-03 0.  1.
        -12    1    3    3    0    0 -0.28273668892E+02  0.57055332177E+01 -0.76324969421E+01  0.29836361565E+02  0.00000000000E+00 0.  1.
</event>
<event>
 7    1  0.3986981E-008  0.4614232E+02  0.7816164E-02  0.1320468E+00
        -11   -1    0    0    0    0  0.00000000000E+00  0.00000000000E+00  0.45593999997E+02  0.45594000000E+02  0.51100000000E-03 0.  1.
         11   -1    0    0    0    0 -0.00000000000E+00 -0.00000000000E+00 -0.45593999997E+02  0.45594000000E+02  0.51100000000E-03 0. -1.
    9900012    2    1    2    0    0 -0.19843401643E+02  0.23884180582E+02 -0.32632787385E+02  0.46142317817E+02  0.10000000509E+02 0.  0.
        -12    1    1    2    0    0  0.19843401643E+02 -0.23884180582E+02  0.32632787385E+02  0.45045682183E+02  0.00000000000E+00 0.  1.
         11    1    3    3    0    0 -0.54284505182E+01  0.49528650963E+01 -0.84445109682E+01  0.11194137459E+02  0.51100000000E-03 0. -1.
        -11    1    3    3    0    0 -0.13812354593E+02  0.13727455029E+02 -0.15886630065E+02  0.25131835907E+02  0.51100000000E-03 0.  1.
        -12    1    3    3    0    0 -0.60259653156E+00  0.52038604564E+01 -0.83016463519E+01  0.98163444510E+01  0.00000000000E+00 0.  1.
</event>
<event>
 7    1  0.3986981E-008  0.4614232E+02  0.7816164E-02  0.1320468E+00
        -11   -1    0    0    0    0  0.00000000000E+00  0.00000000000E+00  0.45593999997E+02  0.45594000000E+02  0.51100000000E-03 0. -1.
         11   -1    0    0    0    0 -0.00000000000E+00 -0.00000000000E+00 -0.45593999997E+02  0.45594000000E+02  0.51100000000E-03 0.  1.
    9900012    2    1    2    0    0 -0.69421669540E+01 -0.44409467624E+02  0.29527994330E+01  0.46142317397E+02  0.99999966843E+01 0.  0.
        -12    1    1    2    0    0  0.69421669540E+01  0.44409467624E+02 -0.29527994330E+01  0.45045682603E+02  0.00000000000E+00 0.  1.
         11    1    3    3    0    0 -0.54401153738E+00 -0.99200892961E+01  0.46834847047E-01  0.99351051308E+01  0.51100000000E-03 0. -1.
        -11    1    3    3    0    0 -0.22363792308E+01 -0.26480154221E+02  0.47478732802E+01  0.26995226626E+02  0.51100000000E-03 0.  1.
        -12    1    3    3    0    0 -0.41617761859E+01 -0.80092241064E+01 -0.18419086943E+01  0.92119856408E+01  0.00000000000E+00 0.  1.
</event>
<event>
 7    1  0.3986981E-008  0.4614232E+02  0.7816164E-02  0.1320468E+00
        -11   -1    0    0    0    0  0.00000000000E+00  0.00000000000E+00  0.45593999997E+02  0.45594000000E+02  0.51100000000E-03 0.  1.
         11   -1    0    0    0    0 -0.00000000000E+00 -0.00000000000E+00 -0.45593999997E+02  0.45594000000E+02  0.51100000000E-03 0. -1.
    9900012    2    1    2    0    0  0.77337067276E+01 -0.15943285083E+01 -0.44348183669E+02  0.46142317656E+02  0.99999990394E+01 0.  0.
        -12    1    1    2    0    0 -0.77337067276E+01  0.15943285083E+01  0.44348183669E+02  0.45045682344E+02  0.00000000000E+00 0.  1.
         11    1    3    3    0    0  0.92011980376E+00  0.21365874232E+01 -0.17216808331E+02  0.17373258637E+02  0.51100000000E-03 0. -1.
        -11    1    3    3    0    0 -0.91221347497E+00  0.23015611875E-01 -0.17495334505E+01  0.19732031567E+01  0.51100000000E-03 0.  1.
         12    1    3    3    0    0  0.77258003988E+01 -0.37539315433E+01 -0.25381841887E+02  0.26795855862E+02  0.00000000000E+00 0. -1.
</event>
<event>
 7    1  0.3986981E-008  0.4614232E+02  0.7816164E-02  0.1320468E+00
        -11   -1    0    0    0    0  0.00000000000E+00  0.00000000000E+00  0.45593999997E+02  0.45594000000E+02  0.51100000000E-03 0.  1.
         11   -1    0    0    0    0 -0.00000000000E+00 -0.00000000000E+00 -0.45593999997E+02  0.45594000000E+02  0.51100000000E-03 0. -1.
    9900012    2    1    2    0    0  0.15852683119E+01  0.43328874210E+02 -0.12215126536E+02  0.46142315054E+02  0.99999753184E+01 0.  0.
        -12    1    1    2    0    0 -0.15852683119E+01 -0.43328874210E+02  0.12215126536E+02  0.45045684946E+02  0.00000000000E+00 0.  1.
         11    1    3    3    0    0  0.26697889473E+01  0.18580849719E+02 -0.83186708768E+01  0.20532316838E+02  0.51100000000E-03 0. -1.
        -11    1    3    3    0    0  0.10449620678E+01  0.10112364589E+02 -0.37010240340E+01  0.10818939063E+02  0.51100000000E-03 0.  1.
        -12    1    3    3    0    0 -0.21294827032E+01  0.14635659902E+02 -0.19543162529E+00  0.14791059153E+02  0.00000000000E+00 0.  1.
</event>
<event>
 7    1  0.3986981E-008  0.4614232E+02  0.7816164E-02  0.1320468E+00
        -11   -1    0    0    0    0  0.00000000000E+00  0.00000000000E+00  0.45593999997E+02  0.45594000000E+02  0.51100000000E-03 0.  1.
         11   -1    0    0    0    0 -0.00000000000E+00 -0.00000000000E+00 -0.45593999997E+02  0.45594000000E+02  0.51100000000E-03 0. -1.
    9900012    2    1    2    0    0 -0.27104689530E+02  0.31689652088E+01 -0.35838621332E+02  0.46142319697E+02  0.10000017649E+02 0.  0.
        -12    1    1    2    0    0  0.27104689530E+02 -0.31689652088E+01  0.35838621332E+02  0.45045680303E+02  0.00000000000E+00 0.  1.
         11    1    3    3    0    0 -0.34342925050E+01 -0.76944481161E+00 -0.60720641988E+01  0.70182885537E+01  0.51100000000E-03 0. -1.
        -11    1    3    3    0    0 -0.82404326022E+01 -0.96861761045E+00 -0.15329531529E+02  0.17430934763E+02  0.51100000000E-03 0.  1.
         12    1    3    3    0    0 -0.15429964423E+02  0.49070276308E+01 -0.14437025605E+02  0.21693096380E+02  0.00000000000E+00 0. -1.
</event>
<event>
 7    1  0.3986981E-008  0.4614231E+02  0.7816164E-02  0.1320468E+00
        -11   -1    0    0    0    0  0.00000000000E+00  0.00000000000E+00  0.45593999997E+02  0.45594000000E+02  0.51100000000E-03 0.  1.
         11   -1    0    0    0    0 -0.00000000000E+00 -0.00000000000E+00 -0.45593999997E+02  0.45594000000E+02  0.51100000000E-03 0. -1.
    9900012    2    1    2    0    0  0.84452695626E+01 -0.39164308667E+02 -0.20590012410E+02  0.46142309169E+02  0.99999216528E+01 0.  0.
        -12    1    1    2    0    0 -0.84452695626E+01  0.39164308667E+02  0.20590012410E+02  0.45045690831E+02  0.00000000000E+00 0.  1.
         11    1    3    3    0    0  0.26456828294E+01 -0.21322664381E+02 -0.10397540765E+02  0.23869740429E+02  0.51100000000E-03 0. -1.
        -11    1    3    3    0    0  0.56923960983E+01 -0.16471335921E+02 -0.11066213626E+02  0.20643869905E+02  0.51100000000E-03 0.  1.
        -12    1    3    3    0    0  0.10719063499E+00 -0.13703083648E+01  0.87374198070E+00  0.16286988352E+01  0.00000000000E+00 0.  1.
</event>
<event>
 7    1  0.3986981E-008  0.4614232E+02  0.7816164E-02  0.1320468E+00
        -11   -1    0    0    0    0  0.00000000000E+00  0.00000000000E+00  0.45593999997E+02  0.45594000000E+02  0.51100000000E-03 0.  1.
         11   -1    0    0    0    0 -0.00000000000E+00 -0.00000000000E+00 -0.45593999997E+02  0.45594000000E+02  0.51100000000E-03 0. -1.
    9900012    2    1    2    0    0  0.39253387456E+02 -0.72870345883E+01 -0.20861068063E+02  0.46142318070E+02  0.10000002815E+02 0.  0.
        -12    1    1    2    0    0 -0.39253387456E+02  0.72870345883E+01  0.20861068063E+02  0.45045681930E+02  0.00000000000E+00 0.  1.
         11    1    3    3    0    0  0.26930265707E+01 -0.24677356813E+01 -0.91545649699E+00  0.37656569630E+01  0.51100000000E-03 0. -1.
        -11    1    3    3    0    0  0.92839128943E+01  0.59935898153E+00 -0.28381882544E+01  0.97265401170E+01  0.51100000000E-03 0.  1.
        -12    1    3    3    0    0  0.27276447990E+02 -0.54186578885E+01 -0.17107423312E+02  0.32650120990E+02  0.00000000000E+00 0.  1.
</event>
<event>
 7    1  0.3986981E-008  0.4614232E+02  0.7816164E-02  0.1320468E+00
        -11   -1    0    0    0    0  0.00000000000E+00  0.00000000000E+00  0.45593999997E+02  0.45594000000E+02  0.51100000000E-03 0. -1.
         11   -1    0    0    0    0 -0.00000000000E+00 -0.00000000000E+00 -0.45593999997E+02  0.45594000000E+02  0.51100000000E-03 0.  1.
    9900012    2    1    2    0    0  0.25604745198E+02 -0.23187294854E+02 -0.28911241265E+02  0.46142317734E+02  0.99999997540E+01 0.  0.
        -12    1    1    2    0    0 -0.25604745198E+02  0.23187294854E+02  0.28911241265E+02  0.45045682266E+02  0.00000000000E+00 0.  1.
         11    1    3    3    0    0  0.87667974973E+01 -0.87647168359E+01 -0.11612789499E+02  0.16986285049E+02  0.51100000000E-03 0. -1.
        -11    1    3    3    0    0  0.81300353992E+01 -0.23407490514E+01 -0.76870708489E+01  0.11430994717E+02  0.51100000000E-03 0.  1.
         12    1    3    3    0    0  0.87079123016E+01 -0.12081828967E+02 -0.96113809174E+01  0.17725037968E+02  0.00000000000E+00 0. -1.
</event>
<event>
 7    1  0.3986981E-008  0.4614232E+02  0.7816164E-02  0.1320468E+00
        -11   -1    0    0    0    0  0.00000000000E+00  0.00000000000E+00  0.45593999997E+02  0.45594000000E+02  0.51100000000E-03 0.  1.
         11   -1    0    0    0    0 -0.00000000000E+00 -0.00000000000E+00 -0.45593999997E+02  0.45594000000E+02  0.51100000000E-03 0. -1.
    9900012    2    1    2    0    0  0.12354004185E+02 -0.29547378797E+02 -0.31677192272E+02  0.46142317372E+02  0.99999964511E+01 0.  0.
        -12    1    1    2    0    0 -0.12354004185E+02  0.29547378797E+02  0.31677192272E+02  0.45045682628E+02  0.00000000000E+00 0.  1.
         11    1    3    3    0    0  0.22911676756E+01 -0.79962223296E+01 -0.10631527237E+02  0.13498829302E+02  0.51100000000E-03 0. -1.
        -11    1    3    3    0    0 -0.91642359292E+00 -0.19143707559E+01 -0.51034914269E+00  0.21829118400E+01  0.51100000000E-03 0.  1.
        -12    1    3    3    0    0  0.10979260103E+02 -0.19636785712E+02 -0.20535315892E+02  0.30460576230E+02  0.00000000000E+00 0.  1.
</event>
<event>
 7    1  0.3986981E-008  0.4614232E+02  0.7816164E-02  0.1320468E+00
        -11   -1    0    0    0    0  0.00000000000E+00  0.00000000000E+00  0.45593999997E+02  0.45594000000E+02  0.51100000000E-03 0.  1.
         11   -1    0    0    0    0 -0.00000000000E+00 -0.00000000000E+00 -0.45593999997E+02  0.45594000000E+02  0.51100000000E-03 0. -1.
    9900012    2    1    2    0    0  0.40761131043E+02 -0.15056010371E+01 -0.19114822706E+02  0.46142322233E+02  0.10000040777E+02 0.  0.
        -12    1    1    2    0    0 -0.40761131043E+02  0.15056010371E+01  0.19114822706E+02  0.45045677767E+02  0.00000000000E+00 0.  1.
         11    1    3    3    0    0  0.48892295110E+01 -0.18629102134E+01 -0.47072445060E+01  0.70379791683E+01  0.51100000000E-03 0. -1.
        -11    1    3    3    0    0  0.47814047611E+01  0.19646753422E+01 -0.27987891325E+01  0.58783502413E+01  0.51100000000E-03 0.  1.
        -12    1    3    3    0    0  0.31090496771E+02 -0.16073661659E+01 -0.11608789068E+02  0.33225992823E+02  0.00000000000E+00 0.  1.
</event>
<event>
 7    1  0.3986981E-008  0.4614232E+02  0.7816164E-02  0.1320468E+00
        -11   -1    0    0    0    0  0.00000000000E+00  0.00000000000E+00  0.45593999997E+02  0.45594000000E+02  0.51100000000E-03 0. -1.
         11   -1    0    0    0    0 -0.00000000000E+00 -0.00000000000E+00 -0.45593999997E+02  0.45594000000E+02  0.51100000000E-03 0.  1.
    9900012    2    1    2    0    0  0.26814115939E+02  0.11788017501E+02  0.34222201382E+02  0.46142320544E+02  0.10000025375E+02 0.  0.
        -12    1    1    2    0    0 -0.26814115939E+02 -0.11788017501E+02 -0.34222201382E+02  0.45045679456E+02  0.00000000000E+00 0.  1.
         11    1    3    3    0    0  0.12791283381E+02  0.20634774554E+01  0.11654392530E+02  0.17426982965E+02  0.51100000000E-03 0. -1.
        -11    1    3    3    0    0  0.35370345924E+01  0.46827763478E+01  0.53902970876E+01  0.79683317567E+01  0.51100000000E-03 0.  1.
         12    1    3    3    0    0  0.10485797965E+02  0.50417636983E+01  0.17177511765E+02  0.20747005822E+02  0.00000000000E+00 0. -1.
</event>
<event>
 7    1  0.3986981E-008  0.4614232E+02  0.7816164E-02  0.1320468E+00
        -11   -1    0    0    0    0  0.00000000000E+00  0.00000000000E+00  0.45593999997E+02  0.45594000000E+02  0.51100000000E-03 0. -1.
         11   -1    0    0    0    0 -0.00000000000E+00 -0.00000000000E+00 -0.45593999997E+02  0.45594000000E+02  0.51100000000E-03 0.  1.
    9900012    2    1    2    0    0  0.36737003353E+02 -0.25976179753E+02  0.21781282028E+01  0.46142316828E+02  0.99999914932E+01 0.  0.
        -12    1    1    2    0    0 -0.36737003353E+02  0.25976179753E+02 -0.21781282028E+01  0.45045683172E+02  0.00000000000E+00 0.  1.
         11    1    3    3    0    0  0.22525970607E+02 -0.16342404382E+02  0.56471040484E+01  0.28396889216E+02  0.51100000000E-03 0. -1.
        -11    1    3    3    0    0  0.30580609245E+01 -0.33939032001E+01 -0.29836794889E+00  0.45781370932E+01  0.51100000000E-03 0.  1.
         12    1    3    3    0    0  0.11152971822E+02 -0.62398721708E+01 -0.31706078967E+01  0.13167290519E+02  0.00000000000E+00 0. -1.
</event>
<event>
 7    1  0.3986981E-008  0.4614232E+02  0.7816164E-02  0.1320468E+00
        -11   -1    0    0    0    0  0.00000000000E+00  0.00000000000E+00  0.45593999997E+02  0.45594000000E+02  0.51100000000E-03 0.  1.
         11   -1    0    0    0    0 -0.00000000000E+00 -0.00000000000E+00 -0.45593999997E+02  0.45594000000E+02  0.51100000000E-03 0. -1.
    9900012    2    1    2    0    0 -0.41154315366E+02 -0.12978251505E+01 -0.18268864500E+02  0.46142318370E+02  0.10000005550E+02 0.  0.
        -12    1    1    2    0    0  0.41154315366E+02  0.12978251505E+01  0.18268864500E+02  0.45045681630E+02  0.00000000000E+00 0.  1.
         11    1    3    3    0    0  0.18427103634E+00  0.65476815188E+00 -0.42022585101E+00  0.79954185289E+00  0.51100000000E-03 0.  1.
        -11    1    3    3    0    0 -0.12405252834E+02  0.11976120153E+00 -0.77504985273E+01  0.14627879830E+02  0.51100000000E-03 0. -1.
        -12    1    3    3    0    0 -0.28933333569E+02 -0.20723545039E+01 -0.10098140122E+02  0.30714896687E+02  0.00000000000E+00 0.  1.
</event>
<event>
 7    1  0.3986981E-008  0.4614232E+02  0.7816164E-02  0.1320468E+00
        -11   -1    0    0    0    0  0.00000000000E+00  0.00000000000E+00  0.45593999997E+02  0.45594000000E+02  0.51100000000E-03 0. -1.
         11   -1    0    0    0    0 -0.00000000000E+00 -0.00000000000E+00 -0.45593999997E+02  0.45594000000E+02  0.51100000000E-03 0.  1.
    9900012    2    1    2    0    0 -0.24763354232E+02  0.37539816050E+02 -0.25791538461E+01  0.46142317228E+02  0.99999951343E+01 0.  0.
        -12    1    1    2    0    0  0.24763354232E+02 -0.37539816050E+02  0.25791538461E+01  0.45045682772E+02  0.00000000000E+00 0.  1.
         11    1    3    3    0    0 -0.16766273286E+01  0.15442892531E+01 -0.10439272457E+01  0.25071284075E+01  0.51100000000E-03 0. -1.
        -11    1    3    3    0    0 -0.63690109861E+01  0.17760689018E+02 -0.84852076388E+00  0.18887201038E+02  0.51100000000E-03 0.  1.
         12    1    3    3    0    0 -0.16717715918E+02  0.18234837779E+02 -0.68670583651E+00  0.24747987782E+02  0.00000000000E+00 0. -1.
</event>
<event>
 7    1  0.3986981E-008  0.4614232E+02  0.7816164E-02  0.1320468E+00
        -11   -1    0    0    0    0  0.00000000000E+00  0.00000000000E+00  0.45593999997E+02  0.45594000000E+02  0.51100000000E-03 0.  1.
         11   -1    0    0    0    0 -0.00000000000E+00 -0.00000000000E+00 -0.45593999997E+02  0.45594000000E+02  0.51100000000E-03 0. -1.
    9900012    2    1    2    0    0  0.17016136407E+02 -0.17624281701E+02 -0.37801445813E+02  0.46142317530E+02  0.99999978889E+01 0.  0.
        -12    1    1    2    0    0 -0.17016136407E+02  0.17624281701E+02  0.37801445813E+02  0.45045682470E+02  0.00000000000E+00 0.  1.
         11    1    3    3    0    0  0.14466346344E+02 -0.15667021975E+02 -0.29403789665E+02  0.36322356766E+02  0.51100000000E-03 0. -1.
        -11    1    3    3    0    0 -0.81147945271E+00 -0.14859459237E+01 -0.26363745654E+01  0.31332100633E+01  0.51100000000E-03 0.  1.
        -12    1    3    3    0    0  0.33612695156E+01 -0.47131380200E+00 -0.57612815829E+01  0.66867507008E+01  0.00000000000E+00 0.  1.
</event>
<event>
 7    1  0.3986981E-008  0.4614232E+02  0.7816164E-02  0.1320468E+00
        -11   -1    0    0    0    0  0.00000000000E+00  0.00000000000E+00  0.45593999997E+02  0.45594000000E+02  0.51100000000E-03 0. -1.
         11   -1    0    0    0    0 -0.00000000000E+00 -0.00000000000E+00 -0.45593999997E+02  0.45594000000E+02  0.51100000000E-03 0.  1.
    9900012    2    1    2    0    0  0.12289986719E+02  0.31761772068E+02  0.29483206514E+02  0.46142318689E+02  0.10000008458E+02 0.  0.
        -12    1    1    2    0    0 -0.12289986719E+02 -0.31761772068E+02 -0.29483206514E+02  0.45045681311E+02  0.00000000000E+00 0.  1.
         11    1    3    3    0    0  0.80738167443E+01  0.10766141760E+02  0.13343057032E+02  0.18950817830E+02  0.51100000000E-03 0. -1.
        -11    1    3    3    0    0  0.17724590215E+01  0.13231470880E+02  0.74628101655E+01  0.15294017408E+02  0.51100000000E-03 0.  1.
        -12    1    3    3    0    0  0.24437109535E+01  0.77641594279E+01  0.86773393163E+01  0.11897483451E+02  0.00000000000E+00 0.  1.
</event>
<event>
 7    1  0.3986981E-008  0.4614232E+02  0.7816164E-02  0.1320468E+00
        -11   -1    0    0    0    0  0.00000000000E+00  0.00000000000E+00  0.45593999997E+02  0.45594000000E+02  0.51100000000E-03 0.  1.
         11   -1    0    0    0    0 -0.00000000000E+00 -0.00000000000E+00 -0.45593999997E+02  0.45594000000E+02  0.51100000000E-03 0. -1.
    9900012    2    1    2    0    0  0.34215438364E+01 -0.22920953098E+02 -0.38626887934E+02  0.46142317359E+02  0.99999963339E+01 0.  0.
        -12    1    1    2    0    0 -0.34215438364E+01  0.22920953098E+02  0.38626887934E+02  0.45045682641E+02  0.00000000000E+00 0.  1.
         11    1    3    3    0    0  0.29449278369E+01 -0.60088407365E+01 -0.58964861601E+01  0.89189302194E+01  0.51100000000E-03 0. -1.
        -11    1    3    3    0    0 -0.17471385614E+01 -0.21428649354E+01 -0.59080412386E+01  0.65229835829E+01  0.51100000000E-03 0.  1.
        -12    1    3    3    0    0  0.22237545609E+01 -0.14769247426E+02 -0.26822360535E+02  0.30700403557E+02  0.00000000000E+00 0.  1.
</event>
<event>
 7    1  0.3986981E-008  0.4614232E+02  0.7816164E-02  0.1320468E+00
        -11   -1    0    0    0    0  0.00000000000E+00  0.00000000000E+00  0.45593999997E+02  0.45594000000E+02  0.51100000000E-03 0.  1.
         11   -1    0    0    0    0 -0.00000000000E+00 -0.00000000000E+00 -0.45593999997E+02  0.45594000000E+02  0.51100000000E-03 0. -1.
    9900012    2    1    2    0    0 -0.18304728830E+02 -0.54946301628E+01 -0.40790432759E+02  0.46142318045E+02  0.10000002589E+02 0.  0.
        -12    1    1    2    0    0  0.18304728830E+02  0.54946301628E+01  0.40790432759E+02  0.45045681955E+02  0.00000000000E+00 0.  1.
         11    1    3    3    0    0  0.51322507776E+00 -0.11355137115E+01 -0.71960431578E+00  0.14389656014E+01  0.51100000000E-03 0. -1.
        -11    1    3    3    0    0 -0.60292959126E+01 -0.10572913795E+01 -0.84441396693E+01  0.10429466395E+02  0.51100000000E-03 0.  1.
         12    1    3    3    0    0 -0.12788657995E+02 -0.33018250718E+01 -0.31626688774E+02  0.34273886049E+02  0.00000000000E+00 0. -1.
</event>
<event>
 7    1  0.3986981E-008  0.4614231E+02  0.7816164E-02  0.1320468E+00
        -11   -1    0    0    0    0  0.00000000000E+00  0.00000000000E+00  0.45593999997E+02  0.45594000000E+02  0.51100000000E-03 0.  1.
         11   -1    0    0    0    0 -0.00000000000E+00 -0.00000000000E+00 -0.45593999997E+02  0.45594000000E+02  0.51100000000E-03 0. -1.
    9900012    2    1    2    0    0  0.29554057413E+02 -0.31555476124E+02 -0.12646085784E+02  0.46142313541E+02  0.99999615138E+01 0.  0.
        -12    1    1    2    0    0 -0.29554057413E+02  0.31555476124E+02  0.12646085784E+02  0.45045686459E+02  0.00000000000E+00 0.  1.
         11    1    3    3    0    0  0.25941767567E+01 -0.18875282396E+01 -0.17927972122E+01  0.36751378213E+01  0.51100000000E-03 0. -1.
        -11    1    3    3    0    0  0.38718230352E+01 -0.11481582858E+01 -0.27597117913E+01  0.48913485356E+01  0.51100000000E-03 0.  1.
        -12    1    3    3    0    0  0.23088057621E+02 -0.28519789598E+02 -0.80935767803E+01  0.37575827184E+02  0.00000000000E+00 0.  1.
</event>
<event>
 7    1  0.3986981E-008  0.4614232E+02  0.7816164E-02  0.1320468E+00
        -11   -1    0    0    0    0  0.00000000000E+00  0.00000000000E+00  0.45593999997E+02  0.45594000000E+02  0.51100000000E-03 0.  1.
         11   -1    0    0    0    0 -0.00000000000E+00 -0.00000000000E+00 -0.45593999997E+02  0.45594000000E+02  0.51100000000E-03 0. -1.
    9900012    2    1    2    0    0 -0.11023147971E+02 -0.17634699106E+02 -0.39957740412E+02  0.46142318491E+02  0.10000006656E+02 0.  0.
        -12    1    1    2    0    0  0.11023147971E+02  0.17634699106E+02  0.39957740412E+02  0.45045681509E+02  0.00000000000E+00 0.  1.
         11    1    3    3    0    0 -0.30856717462E+01 -0.19107508468E+00 -0.83378360922E+01  0.88925469228E+01  0.51100000000E-03 0. -1.
        -11    1    3    3    0    0 -0.84435216742E+00 -0.22262548323E+01 -0.16476716888E+01  0.28955074540E+01  0.51100000000E-03 0.  1.
         12    1    3    3    0    0 -0.70931240578E+01 -0.15217369189E+02 -0.29972232631E+02  0.34354264114E+02  0.00000000000E+00 0. -1.
</event>
<event>
 7    1  0.3986981E-008  0.4614232E+02  0.7816164E-02  0.1320468E+00
        -11   -1    0    0    0    0  0.00000000000E+00  0.00000000000E+00  0.45593999997E+02  0.45594000000E+02  0.51100000000E-03 0.  1.
         11   -1    0    0    0    0 -0.00000000000E+00 -0.00000000000E+00 -0.45593999997E+02  0.45594000000E+02  0.51100000000E-03 0. -1.
    9900012    2    1    2    0    0  0.15625134450E+02 -0.40563890091E+02 -0.11812684463E+02  0.46142317408E+02  0.99999967813E+01 0.  0.
        -12    1    1    2    0    0 -0.15625134450E+02  0.40563890091E+02  0.11812684463E+02  0.45045682592E+02  0.00000000000E+00 0.  1.
         11    1    3    3    0    0  0.32322718055E+01 -0.10699794018E+02 -0.55059489376E+01  0.12459881501E+02  0.51100000000E-03 0. -1.
        -11    1    3    3    0    0  0.97092692592E+01 -0.21251830412E+02 -0.75995879887E+01  0.24569573527E+02  0.51100000000E-03 0.  1.
        -12    1    3    3    0    0  0.26835933856E+01 -0.86122656610E+01  0.12928524630E+01  0.91128623805E+01  0.00000000000E+00 0.  1.
</event>
<event>
 7    1  0.3986981E-008  0.4614232E+02  0.7816164E-02  0.1320468E+00
        -11   -1    0    0    0    0  0.00000000000E+00  0.00000000000E+00  0.45593999997E+02  0.45594000000E+02  0.51100000000E-03 0.  1.
         11   -1    0    0    0    0 -0.00000000000E+00 -0.00000000000E+00 -0.45593999997E+02  0.45594000000E+02  0.51100000000E-03 0. -1.
    9900012    2    1    2    0    0 -0.39066954841E+02  0.22175231709E+02 -0.33385084736E+01  0.46142317624E+02  0.99999987516E+01 0.  0.
        -12    1    1    2    0    0  0.39066954841E+02 -0.22175231709E+02  0.33385084736E+01  0.45045682376E+02  0.00000000000E+00 0.  1.
         11    1    3    3    0    0 -0.33423309374E+02  0.17566258142E+02 -0.50927387385E+01  0.38100223395E+02  0.51100000000E-03 0. -1.
        -11    1    3    3    0    0 -0.30305030585E+01  0.69983228880E+00  0.10770460087E+01  0.32914650820E+01  0.51100000000E-03 0.  1.
        -12    1    3    3    0    0 -0.26131424081E+01  0.39091412781E+01  0.67718425625E+00  0.47506291471E+01  0.00000000000E+00 0.  1.
</event>
<event>
 7    1  0.3986981E-008  0.4614232E+02  0.7816164E-02  0.1320468E+00
        -11   -1    0    0    0    0  0.00000000000E+00  0.00000000000E+00  0.45593999997E+02  0.45594000000E+02  0.51100000000E-03 0. -1.
         11   -1    0    0    0    0 -0.00000000000E+00 -0.00000000000E+00 -0.45593999997E+02  0.45594000000E+02  0.51100000000E-03 0.  1.
    9900012    2    1    2    0    0  0.43360460629E+01  0.36038666550E+02  0.26674459921E+02  0.46142316586E+02  0.99999892807E+01 0.  0.
        -12    1    1    2    0    0 -0.43360460629E+01 -0.36038666550E+02 -0.26674459921E+02  0.45045683414E+02  0.00000000000E+00 0.  1.
         11    1    3    3    0    0 -0.34165370921E+00  0.44370720546E+01  0.42268436147E+01  0.61376333288E+01  0.51100000000E-03 0. -1.
        -11    1    3    3    0    0  0.10379532746E+01  0.27794042558E+02  0.18211116305E+02  0.33245013251E+02  0.51100000000E-03 0.  1.
        -12    1    3    3    0    0  0.36397464975E+01  0.38075519372E+01  0.42365000015E+01  0.67596700055E+01  0.00000000000E+00 0.  1.
</event>
<event>
 7    1  0.3986981E-008  0.4614232E+02  0.7816164E-02  0.1320468E+00
        -11   -1    0    0    0    0  0.00000000000E+00  0.00000000000E+00  0.45593999997E+02  0.45594000000E+02  0.51100000000E-03 0.  1.
         11   -1    0    0    0    0 -0.00000000000E+00 -0.00000000000E+00 -0.45593999997E+02  0.45594000000E+02  0.51100000000E-03 0. -1.
    9900012    2    1    2    0    0 -0.10840624709E+02  0.28825147858E+02 -0.32874081696E+02  0.46142317183E+02  0.99999947263E+01 0.  0.
        -12    1    1    2    0    0  0.10840624709E+02 -0.28825147858E+02  0.32874081696E+02  0.45045682817E+02  0.00000000000E+00 0.  1.
         11    1    3    3    0    0 -0.81167570286E+01  0.20319656947E+02 -0.22164538659E+02  0.31145416635E+02  0.51100000000E-03 0. -1.
        -11    1    3    3    0    0 -0.93992293883E-01  0.73874742282E+01 -0.90846141278E+01  0.11709561227E+02  0.51100000000E-03 0.  1.
         12    1    3    3    0    0 -0.26298753865E+01  0.11180166831E+01 -0.16249289085E+01  0.32873393207E+01  0.00000000000E+00 0. -1.
</event>
<event>
 7    1  0.3986981E-008  0.4614232E+02  0.7816164E-02  0.1320468E+00
        -11   -1    0    0    0    0  0.00000000000E+00  0.00000000000E+00  0.45593999997E+02  0.45594000000E+02  0.51100000000E-03 0. -1.
         11   -1    0    0    0    0 -0.00000000000E+00 -0.00000000000E+00 -0.45593999997E+02  0.45594000000E+02  0.51100000000E-03 0.  1.
    9900012    2    1    2    0    0 -0.42128249647E+02  0.14256238940E+02  0.71472852533E+01  0.46142318148E+02  0.10000003529E+02 0.  0.
        -12    1    1    2    0    0  0.42128249647E+02 -0.14256238940E+02 -0.71472852533E+01  0.45045681852E+02  0.00000000000E+00 0.  1.
         11    1    3    3    0    0 -0.24794228060E+02  0.78808895780E+01  0.69960641145E+01  0.26940806947E+02  0.51100000000E-03 0. -1.
        -11    1    3    3    0    0 -0.16363737884E+02  0.67805247908E+01  0.11514174092E+01  0.17750301301E+02  0.51100000000E-03 0.  1.
         12    1    3    3    0    0 -0.97028370326E+00 -0.40517542923E+00 -0.10001962704E+01  0.14512098996E+01  0.00000000000E+00 0. -1.
</event>
<event>
 7    1  0.3986981E-008  0.4614232E+02  0.7816164E-02  0.1320468E+00
        -11   -1    0    0    0    0  0.00000000000E+00  0.00000000000E+00  0.45593999997E+02  0.45594000000E+02  0.51100000000E-03 0.  1.
         11   -1    0    0    0    0 -0.00000000000E+00 -0.00000000000E+00 -0.45593999997E+02  0.45594000000E+02  0.51100000000E-03 0. -1.
    9900012    2    1    2    0    0 -0.26139292291E+02  0.12420072569E+02 -0.34519453556E+02  0.46142317877E+02  0.10000001057E+02 0.  0.
        -12    1    1    2    0    0  0.26139292291E+02 -0.12420072569E+02  0.34519453556E+02  0.45045682123E+02  0.00000000000E+00 0.  1.
         11    1    3    3    0    0 -0.12520783140E+02  0.11126957522E+02 -0.21031833337E+02  0.26887119740E+02  0.51100000000E-03 0. -1.
        -11    1    3    3    0    0 -0.29389345234E+01 -0.22497114341E+00 -0.31633272166E+01  0.43237237989E+01  0.51100000000E-03 0.  1.
         12    1    3    3    0    0 -0.10679574628E+02  0.15180861914E+01 -0.10324293002E+02  0.14931474338E+02  0.00000000000E+00 0. -1.
</event>
<event>
 7    1  0.3986981E-008  0.4614232E+02  0.7816164E-02  0.1320468E+00
        -11   -1    0    0    0    0  0.00000000000E+00  0.00000000000E+00  0.45593999997E+02  0.45594000000E+02  0.51100000000E-03 0. -1.
         11   -1    0    0    0    0 -0.00000000000E+00 -0.00000000000E+00 -0.45593999997E+02  0.45594000000E+02  0.51100000000E-03 0.  1.
    9900012    2    1    2    0    0 -0.36354094456E+02  0.13981235871E+02 -0.22627822376E+02  0.46142317791E+02  0.10000000272E+02 0.  0.
        -12    1    1    2    0    0  0.36354094456E+02 -0.13981235871E+02  0.22627822376E+02  0.45045682209E+02  0.00000000000E+00 0.  1.
         11    1    3    3    0    0 -0.29733626441E+02  0.12162958180E+02 -0.19757897359E+02  0.37714726585E+02  0.51100000000E-03 0. -1.
        -11    1    3    3    0    0 -0.52341653588E+01 -0.45913278579E+00 -0.20209295432E+01  0.56295156451E+01  0.51100000000E-03 0.  1.
        -12    1    3    3    0    0 -0.13863026559E+01  0.22774104764E+01 -0.84899547397E+00  0.27980755613E+01  0.00000000000E+00 0.  1.
</event>
<event>
 7    1  0.3986981E-008  0.4614233E+02  0.7816164E-02  0.1320468E+00
        -11   -1    0    0    0    0  0.00000000000E+00  0.00000000000E+00  0.45593999997E+02  0.45594000000E+02  0.51100000000E-03 0.  1.
         11   -1    0    0    0    0 -0.00000000000E+00 -0.00000000000E+00 -0.45593999997E+02  0.45594000000E+02  0.51100000000E-03 0. -1.
    9900012    2    1    2    0    0 -0.45696634197E+01 -0.16182031863E+02 -0.41789624558E+02  0.46142326515E+02  0.10000079829E+02 0.  0.
        -12    1    1    2    0    0  0.45696634197E+01  0.16182031863E+02  0.41789624558E+02  0.45045673485E+02  0.00000000000E+00 0.  1.
         11    1    3    3    0    0 -0.11332162516E+01 -0.16643268547E+01 -0.73434050959E+01  0.76144442749E+01  0.51100000000E-03 0. -1.
        -11    1    3    3    0    0 -0.22131490435E+01 -0.15122446274E+02 -0.33624432992E+02  0.36934927972E+02  0.51100000000E-03 0.  1.
        -12    1    3    3    0    0 -0.12232981246E+01  0.60474126535E+00 -0.82178646986E+00  0.15929542686E+01  0.00000000000E+00 0.  1.
</event>
<event>
 7    1  0.3986981E-008  0.4614232E+02  0.7816164E-02  0.1320468E+00
        -11   -1    0    0    0    0  0.00000000000E+00  0.00000000000E+00  0.45593999997E+02  0.45594000000E+02  0.51100000000E-03 0.  1.
         11   -1    0    0    0    0 -0.00000000000E+00 -0.00000000000E+00 -0.45593999997E+02  0.45594000000E+02  0.51100000000E-03 0. -1.
    9900012    2    1    2    0    0  0.18939392922E+00 -0.23367675379E+02 -0.38510119841E+02  0.46142318155E+02  0.10000003591E+02 0.  0.
        -12    1    1    2    0    0 -0.18939392922E+00  0.23367675379E+02  0.38510119841E+02  0.45045681845E+02  0.00000000000E+00 0.  1.
         11    1    3    3    0    0  0.12662464235E+01 -0.73261434521E+00 -0.54203303054E+01  0.56142750791E+01  0.51100000000E-03 0. -1.
        -11    1    3    3    0    0 -0.16435361294E+01 -0.24953353961E+01 -0.24824709781E+01  0.38846585649E+01  0.51100000000E-03 0.  1.
         12    1    3    3    0    0  0.56668363511E+00 -0.20139725638E+02 -0.30607318558E+02  0.36643384511E+02  0.00000000000E+00 0. -1.
</event>
<event>
 7    1  0.3986981E-008  0.4614232E+02  0.7816164E-02  0.1320468E+00
        -11   -1    0    0    0    0  0.00000000000E+00  0.00000000000E+00  0.45593999997E+02  0.45594000000E+02  0.51100000000E-03 0.  1.
         11   -1    0    0    0    0 -0.00000000000E+00 -0.00000000000E+00 -0.45593999997E+02  0.45594000000E+02  0.51100000000E-03 0. -1.
    9900012    2    1    2    0    0  0.27045875888E+02  0.24628192276E+02 -0.26288518589E+02  0.46142317999E+02  0.10000002172E+02 0.  0.
        -12    1    1    2    0    0 -0.27045875888E+02 -0.24628192276E+02  0.26288518589E+02  0.45045682001E+02  0.00000000000E+00 0.  1.
         11    1    3    3    0    0  0.12301101514E+02  0.12057354274E+02 -0.98424730378E+01  0.19838628136E+02  0.51100000000E-03 0. -1.
        -11    1    3    3    0    0  0.63300887717E+01  0.44444564545E+01 -0.25605522570E+01  0.81473704442E+01  0.51100000000E-03 0.  1.
         12    1    3    3    0    0  0.84146856020E+01  0.81263815468E+01 -0.13885493294E+02  0.18156319419E+02  0.00000000000E+00 0. -1.
</event>
<event>
 7    1  0.3986981E-008  0.4614232E+02  0.7816164E-02  0.1320468E+00
        -11   -1    0    0    0    0  0.00000000000E+00  0.00000000000E+00  0.45593999997E+02  0.45594000000E+02  0.51100000000E-03 0. -1.
         11   -1    0    0    0    0 -0.00000000000E+00 -0.00000000000E+00 -0.45593999997E+02  0.45594000000E+02  0.51100000000E-03 0.  1.
    9900012    2    1    2    0    0  0.21040722085E+02  0.35651594029E+02  0.17758528817E+02  0.46142317761E+02  0.99999999961E+01 0.  0.
        -12    1    1    2    0    0 -0.21040722085E+02 -0.35651594029E+02 -0.17758528817E+02  0.45045682239E+02  0.00000000000E+00 0.  1.
         11    1    3    3    0    0  0.75155028652E+01  0.18689819632E+02  0.64106667564E+01  0.21139744315E+02  0.51100000000E-03 0. -1.
        -11    1    3    3    0    0  0.14064781209E+01  0.34970698716E+01  0.29317488227E+00  0.37806917573E+01  0.51100000000E-03 0.  1.
        -12    1    3    3    0    0  0.12118741099E+02  0.13464704526E+02  0.11054687178E+02  0.21221881688E+02  0.00000000000E+00 0.  1.
</event>
<event>
 7    1  0.3986981E-008  0.4614232E+02  0.7816164E-02  0.1320468E+00
        -11   -1    0    0    0    0  0.00000000000E+00  0.00000000000E+00  0.45593999997E+02  0.45594000000E+02  0.51100000000E-03 0. -1.
         11   -1    0    0    0    0 -0.00000000000E+00 -0.00000000000E+00 -0.45593999997E+02  0.45594000000E+02  0.51100000000E-03 0.  1.
    9900012    2    1    2    0    0 -0.25376097319E+02  0.34535129681E+02 -0.13874146325E+02  0.46142318370E+02  0.10000005553E+02 0.  0.
        -12    1    1    2    0    0  0.25376097319E+02 -0.34535129681E+02  0.13874146325E+02  0.45045681630E+02  0.00000000000E+00 0.  1.
         11    1    3    3    0    0 -0.34724737846E+01  0.10213110106E+02 -0.29128511670E+01  0.11173647319E+02  0.51100000000E-03 0. -1.
        -11    1    3    3    0    0 -0.11872100134E+02  0.16561856710E+02 -0.83387040930E+01  0.22017625791E+02  0.51100000000E-03 0.  1.
        -12    1    3    3    0    0 -0.10031523401E+02  0.77601628657E+01 -0.26225910647E+01  0.12951045260E+02  0.00000000000E+00 0.  1.
</event>
<event>
 7    1  0.3986981E-008  0.4614232E+02  0.7816164E-02  0.1320468E+00
        -11   -1    0    0    0    0  0.00000000000E+00  0.00000000000E+00  0.45593999997E+02  0.45594000000E+02  0.51100000000E-03 0. -1.
         11   -1    0    0    0    0 -0.00000000000E+00 -0.00000000000E+00 -0.45593999997E+02  0.45594000000E+02  0.51100000000E-03 0.  1.
    9900012    2    1    2    0    0 -0.28995710330E+02  0.32888510275E+02 -0.10329963375E+02  0.46142317976E+02  0.10000001960E+02 0.  0.
        -12    1    1    2    0    0  0.28995710330E+02 -0.32888510275E+02  0.10329963375E+02  0.45045682024E+02  0.00000000000E+00 0.  1.
         11    1    3    3    0    0 -0.99285182945E+01  0.88158845323E+01 -0.34837906286E+00  0.13282193488E+02  0.51100000000E-03 0. -1.
        -11    1    3    3    0    0 -0.13532886352E+02  0.15646476245E+02 -0.95094437671E+01  0.22767976479E+02  0.51100000000E-03 0.  1.
        -12    1    3    3    0    0 -0.55343056834E+01  0.84261494979E+01 -0.47214054509E+00  0.10092148010E+02  0.00000000000E+00 0.  1.
</event>
<event>
 7    1  0.4141859E-008  0.4614232E+02  0.7816164E-02  0.1320468E+00
        -11   -1    0    0    0    0  0.00000000000E+00  0.00000000000E+00  0.45593999997E+02  0.45594000000E+02  0.51100000000E-03 0. -1.
         11   -1    0    0    0    0 -0.00000000000E+00 -0.00000000000E+00 -0.45593999997E+02  0.45594000000E+02  0.51100000000E-03 0.  1.
    9900012    2    1    2    0    0  0.39806010749E+02 -0.28045510144E+01  0.20898072503E+02  0.46142318381E+02  0.10000005655E+02 0.  0.
        -12    1    1    2    0    0 -0.39806010749E+02  0.28045510144E+01 -0.20898072503E+02  0.45045681619E+02  0.00000000000E+00 0.  1.
         11    1    3    3    0    0  0.17574983226E+02  0.57723930297E+00  0.10472581711E+02  0.20466758623E+02  0.51100000000E-03 0. -1.
        -11    1    3    3    0    0  0.12614190563E+02  0.13594880106E+01  0.47782390990E+01  0.13557196626E+02  0.51100000000E-03 0.  1.
        -12    1    3    3    0    0  0.96168369603E+01 -0.47412783279E+01  0.56472516931E+01  0.12118363132E+02  0.00000000000E+00 0.  1.
</event>
<event>
 7    1  0.3986981E-008  0.4614232E+02  0.7816164E-02  0.1320468E+00
        -11   -1    0    0    0    0  0.00000000000E+00  0.00000000000E+00  0.45593999997E+02  0.45594000000E+02  0.51100000000E-03 0.  1.
         11   -1    0    0    0    0 -0.00000000000E+00 -0.00000000000E+00 -0.45593999997E+02  0.45594000000E+02  0.51100000000E-03 0. -1.
    9900012    2    1    2    0    0 -0.95326491298E+01  0.30272221416E+01 -0.43921270452E+02  0.46142317949E+02  0.10000001713E+02 0.  0.
        -12    1    1    2    0    0  0.95326491298E+01 -0.30272221416E+01  0.43921270452E+02  0.45045682051E+02  0.00000000000E+00 0.  1.
         11    1    3    3    0    0 -0.82511662165E+01 -0.14651413456E+01 -0.29837678791E+02  0.30992183837E+02  0.51100000000E-03 0. -1.
        -11    1    3    3    0    0 -0.69287963007E+00  0.28419906090E-01 -0.45997467570E+01  0.46517266001E+01  0.51100000000E-03 0.  1.
        -12    1    3    3    0    0 -0.58860328324E+00  0.44639435811E+01 -0.94838449037E+01  0.10498407511E+02  0.00000000000E+00 0.  1.
</event>
<event>
 7    1  0.3986981E-008  0.4614232E+02  0.7816164E-02  0.1320468E+00
        -11   -1    0    0    0    0  0.00000000000E+00  0.00000000000E+00  0.45593999997E+02  0.45594000000E+02  0.51100000000E-03 0. -1.
         11   -1    0    0    0    0 -0.00000000000E+00 -0.00000000000E+00 -0.45593999997E+02  0.45594000000E+02  0.51100000000E-03 0.  1.
    9900012    2    1    2    0    0  0.41282016345E+02 -0.80501150503E+01  0.16127746982E+02  0.46142318203E+02  0.10000004031E+02 0.  0.
        -12    1    1    2    0    0 -0.41282016345E+02  0.80501150503E+01 -0.16127746982E+02  0.45045681797E+02  0.00000000000E+00 0.  1.
         11    1    3    3    0    0  0.72728035254E+01 -0.96672784161E+00  0.37476441453E+01  0.82385114395E+01  0.51100000000E-03 0. -1.
        -11    1    3    3    0    0  0.19132425329E+02 -0.11810100226E+01  0.10310008289E+02  0.21765586480E+02  0.51100000000E-03 0.  1.
        -12    1    3    3    0    0  0.14876787491E+02 -0.59023771860E+01  0.20700945479E+01  0.16138220284E+02  0.00000000000E+00 0.  1.
</event>
<event>
 7    1  0.3986981E-008  0.4614232E+02  0.7816164E-02  0.1320468E+00
        -11   -1    0    0    0    0  0.00000000000E+00  0.00000000000E+00  0.45593999997E+02  0.45594000000E+02  0.51100000000E-03 0. -1.
         11   -1    0    0    0    0 -0.00000000000E+00 -0.00000000000E+00 -0.45593999997E+02  0.45594000000E+02  0.51100000000E-03 0.  1.
    9900012    2    1    2    0    0 -0.38739179125E+02  0.14191736913E+02  0.18082685192E+02  0.46142324296E+02  0.10000059588E+02 0.  0.
        -12    1    1    2    0    0  0.38739179125E+02 -0.14191736913E+02 -0.18082685192E+02  0.45045675704E+02  0.00000000000E+00 0.  1.
         11    1    3    3    0    0 -0.15370463582E+02  0.36694840058E+01  0.77537517400E+01  0.17602185373E+02  0.51100000000E-03 0. -1.
        -11    1    3    3    0    0 -0.68222911036E+01  0.49195608145E+00  0.49935334212E+01  0.84688283120E+01  0.51100000000E-03 0.  1.
        -12    1    3    3    0    0 -0.16546424439E+02  0.10030296826E+02  0.53354000304E+01  0.20071310611E+02  0.00000000000E+00 0.  1.
</event>
<event>
 7    1  0.3986981E-008  0.4614232E+02  0.7816164E-02  0.1320468E+00
        -11   -1    0    0    0    0  0.00000000000E+00  0.00000000000E+00  0.45593999997E+02  0.45594000000E+02  0.51100000000E-03 0.  1.
         11   -1    0    0    0    0 -0.00000000000E+00 -0.00000000000E+00 -0.45593999997E+02  0.45594000000E+02  0.51100000000E-03 0. -1.
    9900012    2    1    2    0    0 -0.91757645634E+01 -0.39784603506E+02 -0.19029034036E+02  0.46142317989E+02  0.10000002082E+02 0.  0.
        -12    1    1    2    0    0  0.91757645634E+01  0.39784603506E+02  0.19029034036E+02  0.45045682011E+02  0.00000000000E+00 0.  1.
         11    1    3    3    0    0 -0.18930171892E+01 -0.11733515653E+01 -0.10807144712E+01  0.24755225719E+01  0.51100000000E-03 0. -1.
        -11    1    3    3    0    0 -0.64770373784E+00 -0.25902285663E-01 -0.40495846083E+00  0.76431843922E+00  0.51100000000E-03 0.  1.
         12    1    3    3    0    0 -0.66350436364E+01 -0.38585349655E+02 -0.17543361103E+02  0.42902476978E+02  0.00000000000E+00 0. -1.
</event>
<event>
 7    1  0.3986981E-008  0.4614232E+02  0.7816164E-02  0.1320468E+00
        -11   -1    0    0    0    0  0.00000000000E+00  0.00000000000E+00  0.45593999997E+02  0.45594000000E+02  0.51100000000E-03 0. -1.
         11   -1    0    0    0    0 -0.00000000000E+00 -0.00000000000E+00 -0.45593999997E+02  0.45594000000E+02  0.51100000000E-03 0.  1.
    9900012    2    1    2    0    0 -0.43560320632E+02 -0.14388584903E+00  0.11471319600E+02  0.46142318630E+02  0.10000007926E+02 0.  0.
        -12    1    1    2    0    0  0.43560320632E+02  0.14388584903E+00 -0.11471319600E+02  0.45045681370E+02  0.00000000000E+00 0.  1.
         11    1    3    3    0    0 -0.24980453821E+02 -0.88920807728E+00  0.67484535201E+01  0.25891222244E+02  0.51100000000E-03 0. -1.
        -11    1    3    3    0    0 -0.38724717468E+00 -0.56994136117E+00  0.16047038142E+01  0.17463871627E+01  0.51100000000E-03 0.  1.
         12    1    3    3    0    0 -0.18192619637E+02  0.13152635894E+01  0.31181622653E+01  0.18504709224E+02  0.00000000000E+00 0. -1.
</event>
<event>
 7    1  0.3986981E-008  0.4614232E+02  0.7816164E-02  0.1320468E+00
        -11   -1    0    0    0    0  0.00000000000E+00  0.00000000000E+00  0.45593999997E+02  0.45594000000E+02  0.51100000000E-03 0.  1.
         11   -1    0    0    0    0 -0.00000000000E+00 -0.00000000000E+00 -0.45593999997E+02  0.45594000000E+02  0.51100000000E-03 0. -1.
    9900012    2    1    2    0    0  0.30188817361E+02  0.32038576885E+02 -0.95539737514E+01  0.46142317444E+02  0.99999971064E+01 0.  0.
        -12    1    1    2    0    0 -0.30188817361E+02 -0.32038576885E+02  0.95539737514E+01  0.45045682556E+02  0.00000000000E+00 0.  1.
         11    1    3    3    0    0  0.47493171362E+01  0.69329507233E+01 -0.14025626521E+01  0.85199179131E+01  0.51100000000E-03 0. -1.
        -11    1    3    3    0    0  0.13703645509E+02  0.98733251151E+01 -0.72269872255E+01  0.18371221889E+02  0.51100000000E-03 0.  1.
        -12    1    3    3    0    0  0.11735854716E+02  0.15232301047E+02 -0.92442387382E+00  0.19251177642E+02  0.00000000000E+00 0.  1.
</event>
<event>
 7    1  0.3986981E-008  0.4614232E+02  0.7816164E-02  0.1320468E+00
        -11   -1    0    0    0    0  0.00000000000E+00  0.00000000000E+00  0.45593999997E+02  0.45594000000E+02  0.51100000000E-03 0.  1.
         11   -1    0    0    0    0 -0.00000000000E+00 -0.00000000000E+00 -0.45593999997E+02  0.45594000000E+02  0.51100000000E-03 0. -1.
    9900012    2    1    2    0    0 -0.35082035919E+02 -0.69526793660E+01 -0.27386572036E+02  0.46142319603E+02  0.10000016792E+02 0.  0.
        -12    1    1    2    0    0  0.35082035919E+02  0.69526793660E+01  0.27386572036E+02  0.45045680397E+02  0.00000000000E+00 0.  1.
         11    1    3    3    0    0 -0.92055283431E+01 -0.31505285650E+01 -0.73277148579E+01  0.12180434623E+02  0.51100000000E-03 0. -1.
        -11    1    3    3    0    0 -0.24145636519E+00  0.85437338263E+00 -0.22051600819E+01  0.23771803257E+01  0.51100000000E-03 0.  1.
        -12    1    3    3    0    0 -0.25635051210E+02 -0.46565241837E+01 -0.17853697096E+02  0.31584704653E+02  0.00000000000E+00 0.  1.
</event>
<event>
 7    1  0.3986981E-008  0.4614232E+02  0.7816164E-02  0.1320468E+00
        -11   -1    0    0    0    0  0.00000000000E+00  0.00000000000E+00  0.45593999997E+02  0.45594000000E+02  0.51100000000E-03 0.  1.
         11   -1    0    0    0    0 -0.00000000000E+00 -0.00000000000E+00 -0.45593999997E+02  0.45594000000E+02  0.51100000000E-03 0. -1.
    9900012    2    1    2    0    0 -0.13827196539E+02  0.33279055826E+02 -0.27026404668E+02  0.46142317964E+02  0.10000001850E+02 0.  0.
        -12    1    1    2    0    0  0.13827196539E+02 -0.33279055826E+02  0.27026404668E+02  0.45045682036E+02  0.00000000000E+00 0.  1.
         11    1    3    3    0    0 -0.23087518495E+01  0.13707503059E+02 -0.74100118515E+01  0.15752277649E+02  0.51100000000E-03 0.  1.
        -11    1    3    3    0    0 -0.19719804646E+01  0.18549916239E+01 -0.43753145432E+01  0.51451995579E+01  0.51100000000E-03 0. -1.
         12    1    3    3    0    0 -0.95464642251E+01  0.17716561142E+02 -0.15241078274E+02  0.25244840757E+02  0.00000000000E+00 0. -1.
</event>
<event>
 7    1  0.3986981E-008  0.4614232E+02  0.7816164E-02  0.1320468E+00
        -11   -1    0    0    0    0  0.00000000000E+00  0.00000000000E+00  0.45593999997E+02  0.45594000000E+02  0.51100000000E-03 0.  1.
         11   -1    0    0    0    0 -0.00000000000E+00 -0.00000000000E+00 -0.45593999997E+02  0.45594000000E+02  0.51100000000E-03 0. -1.
    9900012    2    1    2    0    0 -0.27770175100E+02  0.22790860048E+02 -0.27175495796E+02  0.46142317648E+02  0.99999989677E+01 0.  0.
        -12    1    1    2    0    0  0.27770175100E+02 -0.22790860048E+02  0.27175495796E+02  0.45045682352E+02  0.00000000000E+00 0.  1.
         11    1    3    3    0    0 -0.53066791498E+01  0.54851439529E+01 -0.94544896085E+01  0.12150515290E+02  0.51100000000E-03 0. -1.
        -11    1    3    3    0    0 -0.36016786322E+01  0.43100995834E+00 -0.30440069712E+01  0.47353814266E+01  0.51100000000E-03 0.  1.
        -12    1    3    3    0    0 -0.18861817318E+02  0.16874706137E+02 -0.14676999216E+02  0.29256420932E+02  0.00000000000E+00 0.  1.
</event>
<event>
 7    1  0.3986981E-008  0.4614232E+02  0.7816164E-02  0.1320468E+00
        -11   -1    0    0    0    0  0.00000000000E+00  0.00000000000E+00  0.45593999997E+02  0.45594000000E+02  0.51100000000E-03 0.  1.
         11   -1    0    0    0    0 -0.00000000000E+00 -0.00000000000E+00 -0.45593999997E+02  0.45594000000E+02  0.51100000000E-03 0. -1.
    9900012    2    1    2    0    0 -0.18314864927E+02 -0.39616731301E+02 -0.11144225790E+02  0.46142318246E+02  0.10000004418E+02 0.  0.
        -12    1    1    2    0    0  0.18314864927E+02  0.39616731301E+02  0.11144225790E+02  0.45045681754E+02  0.00000000000E+00 0.  1.
         11    1    3    3    0    0 -0.57505561665E+01 -0.10004307436E+02 -0.67812999011E+01  0.13384359981E+02  0.51100000000E-03 0.  1.
        -11    1    3    3    0    0 -0.62655893789E+01 -0.17626311961E+02 -0.44011794175E+01  0.19217566551E+02  0.51100000000E-03 0. -1.
         12    1    3    3    0    0 -0.62987193819E+01 -0.11986111903E+02  0.38253528656E-01  0.13540391713E+02  0.00000000000E+00 0. -1.
</event>
<event>
 7    1  0.3986981E-008  0.4614232E+02  0.7816164E-02  0.1320468E+00
        -11   -1    0    0    0    0  0.00000000000E+00  0.00000000000E+00  0.45593999997E+02  0.45594000000E+02  0.51100000000E-03 0.  1.
         11   -1    0    0    0    0 -0.00000000000E+00 -0.00000000000E+00 -0.45593999997E+02  0.45594000000E+02  0.51100000000E-03 0. -1.
    9900012    2    1    2    0    0 -0.12179745443E+02  0.42404396937E+02 -0.90903410287E+01  0.46142318979E+02  0.10000011105E+02 0.  0.
        -12    1    1    2    0    0  0.12179745443E+02 -0.42404396937E+02  0.90903410287E+01  0.45045681021E+02  0.00000000000E+00 0.  1.
         11    1    3    3    0    0 -0.76377725197E+01  0.23919586397E+02 -0.95152978207E+01  0.26851872846E+02  0.51100000000E-03 0. -1.
        -11    1    3    3    0    0 -0.17189065625E+01  0.24872226275E+01  0.36687850940E+00  0.30455732254E+01  0.51100000000E-03 0.  1.
         12    1    3    3    0    0 -0.28230663605E+01  0.15997587912E+02  0.58078282638E-01  0.16244872907E+02  0.00000000000E+00 0. -1.
</event>
<event>
 7    1  0.3986981E-008  0.4614232E+02  0.7816164E-02  0.1320468E+00
        -11   -1    0    0    0    0  0.00000000000E+00  0.00000000000E+00  0.45593999997E+02  0.45594000000E+02  0.51100000000E-03 0. -1.
         11   -1    0    0    0    0 -0.00000000000E+00 -0.00000000000E+00 -0.45593999997E+02  0.45594000000E+02  0.51100000000E-03 0.  1.
    9900012    2    1    2    0    0 -0.31721677897E+01  0.44933280464E+02  0.22608713579E+00  0.46142318107E+02  0.10000003157E+02 0.  0.
        -12    1    1    2    0    0  0.31721677897E+01 -0.44933280464E+02 -0.22608713579E+00  0.45045681893E+02  0.00000000000E+00 0.  1.
         11    1    3    3    0    0 -0.12540610558E+01  0.30218547988E+02 -0.41691016273E+01  0.30530553881E+02  0.51100000000E-03 0. -1.
        -11    1    3    3    0    0  0.34556372316E+00  0.42697032064E+01  0.15050743216E+01  0.45403775980E+01  0.51100000000E-03 0.  1.
         12    1    3    3    0    0 -0.22636704571E+01  0.10445029270E+02  0.28901144415E+01  0.11071386629E+02  0.00000000000E+00 0. -1.
</event>
<event>
 7    1  0.3986981E-008  0.4614232E+02  0.7816164E-02  0.1320468E+00
        -11   -1    0    0    0    0  0.00000000000E+00  0.00000000000E+00  0.45593999997E+02  0.45594000000E+02  0.51100000000E-03 0.  1.
         11   -1    0    0    0    0 -0.00000000000E+00 -0.00000000000E+00 -0.45593999997E+02  0.45594000000E+02  0.51100000000E-03 0. -1.
    9900012    2    1    2    0    0  0.40482942413E+02  0.11691455577E+02 -0.15923402222E+02  0.46142317652E+02  0.99999990043E+01 0.  0.
        -12    1    1    2    0    0 -0.40482942413E+02 -0.11691455577E+02  0.15923402222E+02  0.45045682348E+02  0.00000000000E+00 0.  1.
         11    1    3    3    0    0  0.10727222739E+01  0.54385897606E+00 -0.23507323801E+01  0.26405413548E+01  0.51100000000E-03 0. -1.
        -11    1    3    3    0    0  0.10767139806E+02  0.55895986817E+00 -0.31029966411E+01  0.11219283585E+02  0.51100000000E-03 0.  1.
         12    1    3    3    0    0  0.28643080332E+02  0.10588636733E+02 -0.10469673201E+02  0.32282492712E+02  0.00000000000E+00 0. -1.
</event>
<event>
 7    1  0.3986981E-008  0.4614232E+02  0.7816164E-02  0.1320468E+00
        -11   -1    0    0    0    0  0.00000000000E+00  0.00000000000E+00  0.45593999997E+02  0.45594000000E+02  0.51100000000E-03 0.  1.
         11   -1    0    0    0    0 -0.00000000000E+00 -0.00000000000E+00 -0.45593999997E+02  0.45594000000E+02  0.51100000000E-03 0. -1.
    9900012    2    1    2    0    0 -0.38992744315E+02  0.31901500217E+01 -0.22327166896E+02  0.46142317099E+02  0.99999939652E+01 0.  0.
        -12    1    1    2    0    0  0.38992744315E+02 -0.31901500217E+01  0.22327166896E+02  0.45045682901E+02  0.00000000000E+00 0.  1.
         11    1    3    3    0    0 -0.52199798562E+00 -0.82935835379E+00 -0.16906914837E+01  0.19541635372E+01  0.51100000000E-03 0.  1.
        -11    1    3    3    0    0 -0.15783346898E+02  0.32916386006E+01 -0.11059265975E+02  0.19551375607E+02  0.51100000000E-03 0. -1.
         12    1    3    3    0    0 -0.22687399432E+02  0.72786977489E+00 -0.95772094370E+01  0.24636777955E+02  0.00000000000E+00 0. -1.
</event>
<event>
 7    1  0.3986981E-008  0.4614232E+02  0.7816164E-02  0.1320468E+00
        -11   -1    0    0    0    0  0.00000000000E+00  0.00000000000E+00  0.45593999997E+02  0.45594000000E+02  0.51100000000E-03 0.  1.
         11   -1    0    0    0    0 -0.00000000000E+00 -0.00000000000E+00 -0.45593999997E+02  0.45594000000E+02  0.51100000000E-03 0. -1.
    9900012    2    1    2    0    0 -0.28922323283E+02  0.25735648843E+02 -0.23028003506E+02  0.46142319287E+02  0.10000013912E+02 0.  0.
        -12    1    1    2    0    0  0.28922323283E+02 -0.25735648843E+02  0.23028003506E+02  0.45045680713E+02  0.00000000000E+00 0.  1.
         11    1    3    3    0    0 -0.47211904663E+01  0.24943499687E+01 -0.39665507392E+01  0.66516874711E+01  0.51100000000E-03 0. -1.
        -11    1    3    3    0    0 -0.21937215185E+02  0.23486414158E+02 -0.18706934912E+02  0.37186052145E+02  0.51100000000E-03 0.  1.
        -12    1    3    3    0    0 -0.22639176320E+01 -0.24511528435E+00 -0.35451785443E+00  0.23045796702E+01  0.00000000000E+00 0.  1.
</event>
<event>
 7    1  0.3986981E-008  0.4614232E+02  0.7816164E-02  0.1320468E+00
        -11   -1    0    0    0    0  0.00000000000E+00  0.00000000000E+00  0.45593999997E+02  0.45594000000E+02  0.51100000000E-03 0. -1.
         11   -1    0    0    0    0 -0.00000000000E+00 -0.00000000000E+00 -0.45593999997E+02  0.45594000000E+02  0.51100000000E-03 0.  1.
    9900012    2    1    2    0    0  0.10015861020E+02 -0.27742822492E+02  0.34046024085E+02  0.46142318434E+02  0.10000006132E+02 0.  0.
        -12    1    1    2    0    0 -0.10015861020E+02  0.27742822492E+02 -0.34046024085E+02  0.45045681566E+02  0.00000000000E+00 0.  1.
         11    1    3    3    0    0  0.51087684968E+01 -0.14289738573E+02  0.15875054666E+02  0.21961637119E+02  0.51100000000E-03 0. -1.
        -11    1    3    3    0    0  0.13438164111E+01 -0.25556158679E+00 -0.88821542012E-01  0.13707821850E+01  0.51100000000E-03 0.  1.
        -12    1    3    3    0    0  0.35632761116E+01 -0.13197522332E+02  0.18259790961E+02  0.22809899130E+02  0.00000000000E+00 0.  1.
</event>
<event>
 7    1  0.3986981E-008  0.4614232E+02  0.7816164E-02  0.1320468E+00
        -11   -1    0    0    0    0  0.00000000000E+00  0.00000000000E+00  0.45593999997E+02  0.45594000000E+02  0.51100000000E-03 0.  1.
         11   -1    0    0    0    0 -0.00000000000E+00 -0.00000000000E+00 -0.45593999997E+02  0.45594000000E+02  0.51100000000E-03 0. -1.
    9900012    2    1    2    0    0 -0.81724980716E+01  0.10024319589E+02 -0.43149006818E+02  0.46142317662E+02  0.99999990955E+01 0.  0.
        -12    1    1    2    0    0  0.81724980716E+01 -0.10024319589E+02  0.43149006818E+02  0.45045682338E+02  0.00000000000E+00 0.  1.
         11    1    3    3    0    0 -0.33802972098E+01  0.45217768708E+01 -0.11874943817E+02  0.13148656441E+02  0.51100000000E-03 0. -1.
        -11    1    3    3    0    0 -0.39145359896E+01  0.19410420394E+01 -0.58249870281E+01  0.72816008096E+01  0.51100000000E-03 0.  1.
        -12    1    3    3    0    0 -0.87766487224E+00  0.35615006784E+01 -0.25449075973E+02  0.25712060411E+02  0.00000000000E+00 0.  1.
</event>
<event>
 7    1  0.3986981E-008  0.4614232E+02  0.7816164E-02  0.1320468E+00
        -11   -1    0    0    0    0  0.00000000000E+00  0.00000000000E+00  0.45593999997E+02  0.45594000000E+02  0.51100000000E-03 0.  1.
         11   -1    0    0    0    0 -0.00000000000E+00 -0.00000000000E+00 -0.45593999997E+02  0.45594000000E+02  0.51100000000E-03 0. -1.
    9900012    2    1    2    0    0  0.33168040813E+02 -0.10204898953E+02 -0.28720283011E+02  0.46142317075E+02  0.99999937391E+01 0.  0.
        -12    1    1    2    0    0 -0.33168040813E+02  0.10204898953E+02  0.28720283011E+02  0.45045682925E+02  0.00000000000E+00 0.  1.
         11    1    3    3    0    0  0.71176309063E+01 -0.33252418100E+01 -0.53841573677E+01  0.95240250752E+01  0.51100000000E-03 0. -1.
        -11    1    3    3    0    0  0.88711691243E+01  0.16183038726E+01 -0.83337187205E+01  0.12278738414E+02  0.51100000000E-03 0.  1.
        -12    1    3    3    0    0  0.17179240782E+02 -0.84979610156E+01 -0.15002406923E+02  0.24339553586E+02  0.00000000000E+00 0.  1.
</event>
<event>
 7    1  0.3986981E-008  0.4614232E+02  0.7816164E-02  0.1320468E+00
        -11   -1    0    0    0    0  0.00000000000E+00  0.00000000000E+00  0.45593999997E+02  0.45594000000E+02  0.51100000000E-03 0.  1.
         11   -1    0    0    0    0 -0.00000000000E+00 -0.00000000000E+00 -0.45593999997E+02  0.45594000000E+02  0.51100000000E-03 0. -1.
    9900012    2    1    2    0    0  0.61942908510E+01  0.45032080306E+01 -0.44389924414E+02  0.46142317508E+02  0.99999976880E+01 0.  0.
        -12    1    1    2    0    0 -0.61942908510E+01 -0.45032080306E+01  0.44389924414E+02  0.45045682492E+02  0.00000000000E+00 0.  1.
         11    1    3    3    0    0  0.97864843161E+00 -0.61412592384E+00 -0.86144565414E+01  0.86915916360E+01  0.51100000000E-03 0. -1.
        -11    1    3    3    0    0 -0.13388160174E+01  0.31650432642E+01 -0.19439891992E+02  0.19741310192E+02  0.51100000000E-03 0.  1.
        -12    1    3    3    0    0  0.65544584368E+01  0.19522906902E+01 -0.16335575881E+02  0.17709415680E+02  0.00000000000E+00 0.  1.
</event>
<event>
 7    1  0.3986981E-008  0.4614232E+02  0.7816164E-02  0.1320468E+00
        -11   -1    0    0    0    0  0.00000000000E+00  0.00000000000E+00  0.45593999997E+02  0.45594000000E+02  0.51100000000E-03 0.  1.
         11   -1    0    0    0    0 -0.00000000000E+00 -0.00000000000E+00 -0.45593999997E+02  0.45594000000E+02  0.51100000000E-03 0. -1.
    9900012    2    1    2    0    0 -0.35077962470E+02 -0.28259646024E+02  0.20590066144E+00  0.46142318304E+02  0.10000004947E+02 0.  0.
        -12    1    1    2    0    0  0.35077962470E+02  0.28259646024E+02 -0.20590066144E+00  0.45045681696E+02  0.00000000000E+00 0.  1.
         11    1    3    3    0    0 -0.25722517017E+02 -0.20998140589E+02  0.42180512670E+01  0.33471805249E+02  0.51100000000E-03 0. -1.
        -11    1    3    3    0    0 -0.57826300726E+01 -0.36245370256E+01 -0.30809549590E+01  0.74878810706E+01  0.51100000000E-03 0.  1.
         12    1    3    3    0    0 -0.35728153802E+01 -0.36369684094E+01 -0.93119564656E+00  0.51826319842E+01  0.00000000000E+00 0. -1.
</event>
<event>
 7    1  0.3986981E-008  0.4614232E+02  0.7816164E-02  0.1320468E+00
        -11   -1    0    0    0    0  0.00000000000E+00  0.00000000000E+00  0.45593999997E+02  0.45594000000E+02  0.51100000000E-03 0. -1.
         11   -1    0    0    0    0 -0.00000000000E+00 -0.00000000000E+00 -0.45593999997E+02  0.45594000000E+02  0.51100000000E-03 0.  1.
    9900012    2    1    2    0    0  0.30577930501E+02 -0.17644011669E+02  0.27978426564E+02  0.46142319469E+02  0.10000015575E+02 0.  0.
        -12    1    1    2    0    0 -0.30577930501E+02  0.17644011669E+02 -0.27978426564E+02  0.45045680531E+02  0.00000000000E+00 0.  1.
         11    1    3    3    0    0  0.13944629897E+02 -0.11430292861E+02  0.15328901100E+02  0.23665998965E+02  0.51100000000E-03 0. -1.
        -11    1    3    3    0    0  0.64113693663E+01 -0.52738436922E+01  0.60596048781E+01  0.10278029771E+02  0.51100000000E-03 0.  1.
        -12    1    3    3    0    0  0.10221931238E+02 -0.93987511617E+00  0.65899205863E+01  0.12198290733E+02  0.00000000000E+00 0.  1.
</event>
<event>
 7    1  0.3986981E-008  0.4614232E+02  0.7816164E-02  0.1320468E+00
        -11   -1    0    0    0    0  0.00000000000E+00  0.00000000000E+00  0.45593999997E+02  0.45594000000E+02  0.51100000000E-03 0. -1.
         11   -1    0    0    0    0 -0.00000000000E+00 -0.00000000000E+00 -0.45593999997E+02  0.45594000000E+02  0.51100000000E-03 0.  1.
    9900012    2    1    2    0    0  0.72804546134E+01  0.28576188539E+02  0.34051577558E+02  0.46142317577E+02  0.99999983205E+01 0.  0.
        -12    1    1    2    0    0 -0.72804546134E+01 -0.28576188539E+02 -0.34051577558E+02  0.45045682423E+02  0.00000000000E+00 0.  1.
         11    1    3    3    0    0 -0.56732572590E+00  0.47866959952E+01  0.46180600958E+01  0.66753873550E+01  0.51100000000E-03 0. -1.
        -11    1    3    3    0    0 -0.16604449920E+01  0.38686173370E+01  0.51027543624E+01  0.66152384701E+01  0.51100000000E-03 0.  1.
        -12    1    3    3    0    0  0.95082253313E+01  0.19920875207E+02  0.24330763100E+02  0.32851691752E+02  0.00000000000E+00 0.  1.
</event>
<event>
 7    1  0.3986981E-008  0.4614232E+02  0.7816164E-02  0.1320468E+00
        -11   -1    0    0    0    0  0.00000000000E+00  0.00000000000E+00  0.45593999997E+02  0.45594000000E+02  0.51100000000E-03 0.  1.
         11   -1    0    0    0    0 -0.00000000000E+00 -0.00000000000E+00 -0.45593999997E+02  0.45594000000E+02  0.51100000000E-03 0. -1.
    9900012    2    1    2    0    0 -0.15060358801E+02  0.13629334433E+02 -0.40206224425E+02  0.46142316002E+02  0.99999839594E+01 0.  0.
        -12    1    1    2    0    0  0.15060358801E+02 -0.13629334433E+02  0.40206224425E+02  0.45045683998E+02  0.00000000000E+00 0.  1.
         11    1    3    3    0    0 -0.62450278241E+00  0.12152985844E+01 -0.71505636869E+01  0.72799392632E+01  0.51100000000E-03 0. -1.
        -11    1    3    3    0    0 -0.29281846841E+01 -0.16235113699E+00 -0.24153498845E+01  0.37992813481E+01  0.51100000000E-03 0.  1.
         12    1    3    3    0    0 -0.11507671334E+02  0.12576386986E+02 -0.30640310854E+02  0.35063095391E+02  0.00000000000E+00 0. -1.
</event>
<event>
 7    1  0.3986981E-008  0.4614232E+02  0.7816164E-02  0.1320468E+00
        -11   -1    0    0    0    0  0.00000000000E+00  0.00000000000E+00  0.45593999997E+02  0.45594000000E+02  0.51100000000E-03 0.  1.
         11   -1    0    0    0    0 -0.00000000000E+00 -0.00000000000E+00 -0.45593999997E+02  0.45594000000E+02  0.51100000000E-03 0. -1.
    9900012    2    1    2    0    0  0.28551965748E+02  0.10634563024E+02 -0.33178376618E+02  0.46142319255E+02  0.10000013622E+02 0.  0.
        -12    1    1    2    0    0 -0.28551965748E+02 -0.10634563024E+02  0.33178376618E+02  0.45045680745E+02  0.00000000000E+00 0.  1.
         11    1    3    3    0    0  0.10519448609E+02  0.23435028324E+00 -0.68418191974E+01  0.12550864882E+02  0.51100000000E-03 0. -1.
        -11    1    3    3    0    0  0.11629092015E+02  0.72777622324E+01 -0.16880001945E+02  0.21751691202E+02  0.51100000000E-03 0.  1.
         12    1    3    3    0    0  0.64034251241E+01  0.31224505080E+01 -0.94565554750E+01  0.11839763171E+02  0.00000000000E+00 0. -1.
</event>
<event>
 7    1  0.3986981E-008  0.4614232E+02  0.7816164E-02  0.1320468E+00
        -11   -1    0    0    0    0  0.00000000000E+00  0.00000000000E+00  0.45593999997E+02  0.45594000000E+02  0.51100000000E-03 0.  1.
         11   -1    0    0    0    0 -0.00000000000E+00 -0.00000000000E+00 -0.45593999997E+02  0.45594000000E+02  0.51100000000E-03 0. -1.
    9900012    2    1    2    0    0  0.27127286270E+02  0.73021074469E+01 -0.35212256936E+02  0.46142317942E+02  0.10000001653E+02 0.  0.
        -12    1    1    2    0    0 -0.27127286270E+02 -0.73021074469E+01  0.35212256936E+02  0.45045682058E+02  0.00000000000E+00 0.  1.
         11    1    3    3    0    0  0.17695469498E+02  0.63021763659E+01 -0.19436857832E+02  0.27030325753E+02  0.51100000000E-03 0. -1.
        -11    1    3    3    0    0  0.94522524914E+01 -0.33018842672E+00 -0.13906838256E+02  0.16818271377E+02  0.51100000000E-03 0.  1.
         12    1    3    3    0    0 -0.20435719181E-01  0.13301195078E+01 -0.18685608477E+01  0.22937208124E+01  0.00000000000E+00 0. -1.
</event>
<event>
 7    1  0.3986981E-008  0.4614232E+02  0.7816164E-02  0.1320468E+00
        -11   -1    0    0    0    0  0.00000000000E+00  0.00000000000E+00  0.45593999997E+02  0.45594000000E+02  0.51100000000E-03 0.  1.
         11   -1    0    0    0    0 -0.00000000000E+00 -0.00000000000E+00 -0.45593999997E+02  0.45594000000E+02  0.51100000000E-03 0. -1.
    9900012    2    1    2    0    0  0.23068242974E+02  0.38285925300E+02 -0.55818941956E+01  0.46142318156E+02  0.10000003603E+02 0.  0.
        -12    1    1    2    0    0 -0.23068242974E+02 -0.38285925300E+02  0.55818941956E+01  0.45045681844E+02  0.00000000000E+00 0.  1.
         11    1    3    3    0    0  0.38580319413E+01  0.19746797217E+01  0.10398784632E+01  0.44570301707E+01  0.51100000000E-03 0. -1.
        -11    1    3    3    0    0  0.75656499510E+00  0.67990151268E+00 -0.32483637679E+00  0.10677900503E+01  0.51100000000E-03 0.  1.
         12    1    3    3    0    0  0.18453646037E+02  0.35631344065E+02 -0.62969362820E+01  0.40617497935E+02  0.00000000000E+00 0. -1.
</event>
<event>
 7    1  0.3986981E-008  0.4614232E+02  0.7816164E-02  0.1320468E+00
        -11   -1    0    0    0    0  0.00000000000E+00  0.00000000000E+00  0.45593999997E+02  0.45594000000E+02  0.51100000000E-03 0. -1.
         11   -1    0    0    0    0 -0.00000000000E+00 -0.00000000000E+00 -0.45593999997E+02  0.45594000000E+02  0.51100000000E-03 0.  1.
    9900012    2    1    2    0    0 -0.28559865729E+02 -0.28090783537E+02 -0.20599888294E+02  0.46142318210E+02  0.10000004097E+02 0.  0.
        -12    1    1    2    0    0  0.28559865729E+02  0.28090783537E+02  0.20599888294E+02  0.45045681790E+02  0.00000000000E+00 0.  1.
         11    1    3    3    0    0 -0.10276365888E+02 -0.13714872569E+02 -0.65912790221E+01  0.18361546363E+02  0.51100000000E-03 0. -1.
        -11    1    3    3    0    0 -0.59499774719E+01 -0.29228810242E+01 -0.14636860600E+01  0.67888027325E+01  0.51100000000E-03 0.  1.
        -12    1    3    3    0    0 -0.12333522369E+02 -0.11453029944E+02 -0.12544923212E+02  0.20991969115E+02  0.00000000000E+00 0.  1.
</event>
<event>
 7    1  0.3986981E-008  0.4614232E+02  0.7816164E-02  0.1320468E+00
        -11   -1    0    0    0    0  0.00000000000E+00  0.00000000000E+00  0.45593999997E+02  0.45594000000E+02  0.51100000000E-03 0.  1.
         11   -1    0    0    0    0 -0.00000000000E+00 -0.00000000000E+00 -0.45593999997E+02  0.45594000000E+02  0.51100000000E-03 0. -1.
    9900012    2    1    2    0    0 -0.17046976537E+02  0.10555628805E+02 -0.40337235207E+02  0.46142320377E+02  0.10000023855E+02 0.  0.
        -12    1    1    2    0    0  0.17046976537E+02 -0.10555628805E+02  0.40337235207E+02  0.45045679623E+02  0.00000000000E+00 0.  1.
         11    1    3    3    0    0 -0.87874090247E+01  0.83581594955E+01 -0.25889528645E+02  0.28589247651E+02  0.51100000000E-03 0. -1.
        -11    1    3    3    0    0 -0.55854184513E+01 -0.22236539219E+00 -0.11869267277E+02  0.13119674218E+02  0.51100000000E-03 0.  1.
        -12    1    3    3    0    0 -0.26741490608E+01  0.24198347012E+01 -0.25784392851E+01  0.44333985076E+01  0.00000000000E+00 0.  1.
</event>
<event>
 7    1  0.3986981E-008  0.4614232E+02  0.7816164E-02  0.1320468E+00
        -11   -1    0    0    0    0  0.00000000000E+00  0.00000000000E+00  0.45593999997E+02  0.45594000000E+02  0.51100000000E-03 0.  1.
         11   -1    0    0    0    0 -0.00000000000E+00 -0.00000000000E+00 -0.45593999997E+02  0.45594000000E+02  0.51100000000E-03 0. -1.
    9900012    2    1    2    0    0  0.38904783038E+02  0.20260720943E+01 -0.22614738372E+02  0.46142317598E+02  0.99999985154E+01 0.  0.
        -12    1    1    2    0    0 -0.38904783038E+02 -0.20260720943E+01  0.22614738372E+02  0.45045682402E+02  0.00000000000E+00 0.  1.
         11    1    3    3    0    0  0.21011123275E+02  0.48253768517E+01 -0.90680579866E+01  0.23387630042E+02  0.51100000000E-03 0. -1.
        -11    1    3    3    0    0  0.40432816363E+01 -0.53258718573E+00 -0.44173853069E+01  0.60120769050E+01  0.51100000000E-03 0.  1.
         12    1    3    3    0    0  0.13850378127E+02 -0.22667175717E+01 -0.91292950785E+01  0.16742610652E+02  0.00000000000E+00 0. -1.
</event>
<event>
 7    1  0.3986981E-008  0.4614232E+02  0.7816164E-02  0.1320468E+00
        -11   -1    0    0    0    0  0.00000000000E+00  0.00000000000E+00  0.45593999997E+02  0.45594000000E+02  0.51100000000E-03 0.  1.
         11   -1    0    0    0    0 -0.00000000000E+00 -0.00000000000E+00 -0.45593999997E+02  0.45594000000E+02  0.51100000000E-03 0. -1.
    9900012    2    1    2    0    0 -0.41455227539E+02  0.60211197303E+01 -0.16562726135E+02  0.46142315743E+02  0.99999816007E+01 0.  0.
        -12    1    1    2    0    0  0.41455227539E+02 -0.60211197303E+01  0.16562726135E+02  0.45045684257E+02  0.00000000000E+00 0.  1.
         11    1    3    3    0    0 -0.13578896080E+02  0.17892631344E+01 -0.19651601785E+01  0.13836536275E+02  0.51100000000E-03 0. -1.
        -11    1    3    3    0    0 -0.17256473150E+02  0.14459660184E+01 -0.58848135734E+01  0.18289552055E+02  0.51100000000E-03 0.  1.
        -12    1    3    3    0    0 -0.10619858309E+02  0.27858905776E+01 -0.87127523826E+01  0.14016227413E+02  0.00000000000E+00 0.  1.
</event>
<event>
 7    1  0.3986981E-008  0.4614232E+02  0.7816164E-02  0.1320468E+00
        -11   -1    0    0    0    0  0.00000000000E+00  0.00000000000E+00  0.45593999997E+02  0.45594000000E+02  0.51100000000E-03 0.  1.
         11   -1    0    0    0    0 -0.00000000000E+00 -0.00000000000E+00 -0.45593999997E+02  0.45594000000E+02  0.51100000000E-03 0. -1.
    9900012    2    1    2    0    0 -0.12630850637E+02 -0.91871749569E+01 -0.42251282956E+02  0.46142317821E+02  0.10000000547E+02 0.  0.
        -12    1    1    2    0    0  0.12630850637E+02  0.91871749569E+01  0.42251282956E+02  0.45045682179E+02  0.00000000000E+00 0.  1.
         11    1    3    3    0    0 -0.73458175759E+01 -0.49461744124E+01 -0.21354869960E+02  0.23118307647E+02  0.51100000000E-03 0. -1.
        -11    1    3    3    0    0 -0.95677349822E+00  0.18741067299E+01 -0.58205576250E+01  0.61892312034E+01  0.51100000000E-03 0.  1.
        -12    1    3    3    0    0 -0.43282595632E+01 -0.61151072744E+01 -0.15075855371E+02  0.16834778971E+02  0.00000000000E+00 0.  1.
</event>
<event>
 7    1  0.3986981E-008  0.4614231E+02  0.7816164E-02  0.1320468E+00
        -11   -1    0    0    0    0  0.00000000000E+00  0.00000000000E+00  0.45593999997E+02  0.45594000000E+02  0.51100000000E-03 0.  1.
         11   -1    0    0    0    0 -0.00000000000E+00 -0.00000000000E+00 -0.45593999997E+02  0.45594000000E+02  0.51100000000E-03 0. -1.
    9900012    2    1    2    0    0  0.11359077601E+02 -0.17124001053E+02 -0.40085579763E+02  0.46142314735E+02  0.99999724097E+01 0.  0.
        -12    1    1    2    0    0 -0.11359077601E+02  0.17124001053E+02  0.40085579763E+02  0.45045685265E+02  0.00000000000E+00 0.  1.
         11    1    3    3    0    0  0.86513292991E+01 -0.77838005813E+01 -0.16837778476E+02  0.20468117510E+02  0.51100000000E-03 0. -1.
        -11    1    3    3    0    0  0.18703260411E+01 -0.16717580989E+01 -0.25122947664E+01  0.35502844810E+01  0.51100000000E-03 0.  1.
        -12    1    3    3    0    0  0.83742226119E+00 -0.76684423727E+01 -0.20735506520E+02  0.22123912744E+02  0.00000000000E+00 0.  1.
</event>
<event>
 7    1  0.3986981E-008  0.4614232E+02  0.7816164E-02  0.1320468E+00
        -11   -1    0    0    0    0  0.00000000000E+00  0.00000000000E+00  0.45593999997E+02  0.45594000000E+02  0.51100000000E-03 0.  1.
         11   -1    0    0    0    0 -0.00000000000E+00 -0.00000000000E+00 -0.45593999997E+02  0.45594000000E+02  0.51100000000E-03 0. -1.
    9900012    2    1    2    0    0  0.66831485749E+01  0.16405207501E+02 -0.41416400313E+02  0.46142317378E+02  0.99999965038E+01 0.  0.
        -12    1    1    2    0    0 -0.66831485749E+01 -0.16405207501E+02  0.41416400313E+02  0.45045682622E+02  0.00000000000E+00 0.  1.
         11    1    3    3    0    0  0.28827124265E+01  0.53774257281E+01 -0.17514047717E+02  0.18546390649E+02  0.51100000000E-03 0. -1.
        -11    1    3    3    0    0 -0.60032069662E+00  0.66191743271E+01 -0.17231706543E+02  0.18469043406E+02  0.51100000000E-03 0.  1.
        -12    1    3    3    0    0  0.44007568450E+01  0.44086074458E+01 -0.66706460534E+01  0.91268833229E+01  0.00000000000E+00 0.  1.
</event>
<event>
 7    1  0.3986981E-008  0.4614231E+02  0.7816164E-02  0.1320468E+00
        -11   -1    0    0    0    0  0.00000000000E+00  0.00000000000E+00  0.45593999997E+02  0.45594000000E+02  0.51100000000E-03 0.  1.
         11   -1    0    0    0    0 -0.00000000000E+00 -0.00000000000E+00 -0.45593999997E+02  0.45594000000E+02  0.51100000000E-03 0. -1.
    9900012    2    1    2    0    0  0.42281155852E+02 -0.10021407630E+02 -0.11873881409E+02  0.46142314183E+02  0.99999673700E+01 0.  0.
        -12    1    1    2    0    0 -0.42281155852E+02  0.10021407630E+02  0.11873881409E+02  0.45045685817E+02  0.00000000000E+00 0.  1.
         11    1    3    3    0    0  0.34702796500E+02 -0.96977716202E+01 -0.10232944242E+02  0.37457229041E+02  0.51100000000E-03 0. -1.
        -11    1    3    3    0    0  0.79855858028E+01 -0.64149498201E+00 -0.15690067281E+01  0.81635089759E+01  0.51100000000E-03 0.  1.
        -12    1    3    3    0    0 -0.40722645122E+00  0.31785897217E+00 -0.71930439250E-01  0.52157616592E+00  0.00000000000E+00 0.  1.
</event>
<event>
 7    1  0.3986981E-008  0.4614232E+02  0.7816164E-02  0.1320468E+00
        -11   -1    0    0    0    0  0.00000000000E+00  0.00000000000E+00  0.45593999997E+02  0.45594000000E+02  0.51100000000E-03 0.  1.
         11   -1    0    0    0    0 -0.00000000000E+00 -0.00000000000E+00 -0.45593999997E+02  0.45594000000E+02  0.51100000000E-03 0. -1.
    9900012    2    1    2    0    0 -0.13937732206E+02  0.24145685720E+02 -0.35381338392E+02  0.46142316252E+02  0.99999862355E+01 0.  0.
        -12    1    1    2    0    0  0.13937732206E+02 -0.24145685720E+02  0.35381338392E+02  0.45045683748E+02  0.00000000000E+00 0.  1.
         11    1    3    3    0    0 -0.14756580574E+01  0.45882727782E+01 -0.73270856737E+01  0.87701766528E+01  0.51100000000E-03 0. -1.
        -11    1    3    3    0    0 -0.48667067130E+01  0.11411994828E+02 -0.20336870571E+02  0.23822400489E+02  0.51100000000E-03 0.  1.
        -12    1    3    3    0    0 -0.75953674359E+01  0.81454181134E+01 -0.77173821475E+01  0.13549739110E+02  0.00000000000E+00 0.  1.
</event>
<event>
 7    1  0.3986981E-008  0.4614232E+02  0.7816164E-02  0.1320468E+00
        -11   -1    0    0    0    0  0.00000000000E+00  0.00000000000E+00  0.45593999997E+02  0.45594000000E+02  0.51100000000E-03 0.  1.
         11   -1    0    0    0    0 -0.00000000000E+00 -0.00000000000E+00 -0.45593999997E+02  0.45594000000E+02  0.51100000000E-03 0. -1.
    9900012    2    1    2    0    0  0.34257348973E+02 -0.75033903510E+01 -0.28270950612E+02  0.46142317922E+02  0.10000001467E+02 0.  0.
        -12    1    1    2    0    0 -0.34257348973E+02  0.75033903510E+01  0.28270950612E+02  0.45045682078E+02  0.00000000000E+00 0.  1.
         11    1    3    3    0    0  0.21528024305E+02 -0.90907383400E+00 -0.14879048960E+02  0.26185269598E+02  0.51100000000E-03 0.  1.
        -11    1    3    3    0    0  0.51129222857E+01 -0.97007184930E+00 -0.60200259025E+01  0.79576206129E+01  0.51100000000E-03 0. -1.
        -12    1    3    3    0    0  0.76164023820E+01 -0.56242446677E+01 -0.73718757487E+01  0.11999427711E+02  0.00000000000E+00 0.  1.
</event>
<event>
 7    1  0.3986981E-008  0.4614232E+02  0.7816164E-02  0.1320468E+00
        -11   -1    0    0    0    0  0.00000000000E+00  0.00000000000E+00  0.45593999997E+02  0.45594000000E+02  0.51100000000E-03 0.  1.
         11   -1    0    0    0    0 -0.00000000000E+00 -0.00000000000E+00 -0.45593999997E+02  0.45594000000E+02  0.51100000000E-03 0. -1.
    9900012    2    1    2    0    0  0.15911762083E+02 -0.34304942954E+02 -0.24476524105E+02  0.46142317455E+02  0.99999972083E+01 0.  0.
        -12    1    1    2    0    0 -0.15911762083E+02  0.34304942954E+02  0.24476524105E+02  0.45045682545E+02  0.00000000000E+00 0.  1.
         11    1    3    3    0    0  0.37863393804E+01 -0.14395940704E+02 -0.81875695598E+01  0.16988695365E+02  0.51100000000E-03 0. -1.
        -11    1    3    3    0    0  0.26885892999E+01 -0.71520285207E+01 -0.22457943385E+01  0.79638945784E+01  0.51100000000E-03 0.  1.
         12    1    3    3    0    0  0.94368334024E+01 -0.12756973730E+02 -0.14043160207E+02  0.21189727511E+02  0.00000000000E+00 0. -1.
</event>
<event>
 7    1  0.3986981E-008  0.4614232E+02  0.7816164E-02  0.1320468E+00
        -11   -1    0    0    0    0  0.00000000000E+00  0.00000000000E+00  0.45593999997E+02  0.45594000000E+02  0.51100000000E-03 0.  1.
         11   -1    0    0    0    0 -0.00000000000E+00 -0.00000000000E+00 -0.45593999997E+02  0.45594000000E+02  0.51100000000E-03 0. -1.
    9900012    2    1    2    0    0  0.23473536655E+01 -0.73814568639E+01 -0.44374739298E+02  0.46142318049E+02  0.10000002626E+02 0.  0.
        -12    1    1    2    0    0 -0.23473536655E+01  0.73814568639E+01  0.44374739298E+02  0.45045681951E+02  0.00000000000E+00 0.  1.
         11    1    3    3    0    0 -0.10332788115E+01 -0.31833012639E+01 -0.13019708817E+02  0.13442986647E+02  0.51100000000E-03 0. -1.
        -11    1    3    3    0    0  0.23127508261E+00 -0.40017253266E+01 -0.27137921464E+02  0.27432354536E+02  0.51100000000E-03 0.  1.
        -12    1    3    3    0    0  0.31493573944E+01 -0.19643027337E+00 -0.42171090167E+01  0.52669768661E+01  0.00000000000E+00 0.  1.
</event>
<event>
 7    1  0.3986981E-008  0.4614232E+02  0.7816164E-02  0.1320468E+00
        -11   -1    0    0    0    0  0.00000000000E+00  0.00000000000E+00  0.45593999997E+02  0.45594000000E+02  0.51100000000E-03 0.  1.
         11   -1    0    0    0    0 -0.00000000000E+00 -0.00000000000E+00 -0.45593999997E+02  0.45594000000E+02  0.51100000000E-03 0. -1.
    9900012    2    1    2    0    0 -0.16833607779E+02 -0.19854055858E+02 -0.36763562321E+02  0.46142318749E+02  0.10000009005E+02 0.  0.
        -12    1    1    2    0    0  0.16833607779E+02  0.19854055858E+02  0.36763562321E+02  0.45045681251E+02  0.00000000000E+00 0.  1.
         11    1    3    3    0    0 -0.23126830906E+01 -0.47655653977E+01 -0.37960097809E+01  0.65168095841E+01  0.51100000000E-03 0. -1.
        -11    1    3    3    0    0 -0.10058571323E+01  0.39893419524E+00 -0.48566784972E+00  0.11860735998E+01  0.51100000000E-03 0.  1.
         12    1    3    3    0    0 -0.13515067556E+02 -0.15487424656E+02 -0.32481884690E+02  0.38439435565E+02  0.00000000000E+00 0. -1.
</event>
<event>
 7    1  0.3986981E-008  0.4614232E+02  0.7816164E-02  0.1320468E+00
        -11   -1    0    0    0    0  0.00000000000E+00  0.00000000000E+00  0.45593999997E+02  0.45594000000E+02  0.51100000000E-03 0.  1.
         11   -1    0    0    0    0 -0.00000000000E+00 -0.00000000000E+00 -0.45593999997E+02  0.45594000000E+02  0.51100000000E-03 0. -1.
    9900012    2    1    2    0    0  0.92293055006E+01  0.39284803935E+02 -0.20015931809E+02  0.46142318449E+02  0.10000006273E+02 0.  0.
        -12    1    1    2    0    0 -0.92293055006E+01 -0.39284803935E+02  0.20015931809E+02  0.45045681551E+02  0.00000000000E+00 0.  1.
         11    1    3    3    0    0  0.84334663265E+01  0.30513906977E+02 -0.14140959817E+02  0.34672591741E+02  0.51100000000E-03 0. -1.
        -11    1    3    3    0    0  0.18405830132E+01  0.19405212354E+01 -0.29048591926E+01  0.39486169330E+01  0.51100000000E-03 0.  1.
         12    1    3    3    0    0 -0.10447438391E+01  0.68303757227E+01 -0.29701127992E+01  0.75211097747E+01  0.00000000000E+00 0. -1.
</event>
<event>
 7    1  0.3986981E-008  0.4614232E+02  0.7816164E-02  0.1320468E+00
        -11   -1    0    0    0    0  0.00000000000E+00  0.00000000000E+00  0.45593999997E+02  0.45594000000E+02  0.51100000000E-03 0.  1.
         11   -1    0    0    0    0 -0.00000000000E+00 -0.00000000000E+00 -0.45593999997E+02  0.45594000000E+02  0.51100000000E-03 0. -1.
    9900012    2    1    2    0    0  0.25564159972E+02  0.37042538860E+02 -0.18540893832E+01  0.46142316436E+02  0.99999879182E+01 0.  0.
        -12    1    1    2    0    0 -0.25564159972E+02 -0.37042538860E+02  0.18540893832E+01  0.45045683564E+02  0.00000000000E+00 0.  1.
         11    1    3    3    0    0  0.93412966902E+01  0.85906173119E+01  0.21197096006E+01  0.12866689501E+02  0.51100000000E-03 0. -1.
        -11    1    3    3    0    0  0.93705388450E+01  0.20466319873E+02 -0.24260923196E+01  0.22639858029E+02  0.51100000000E-03 0.  1.
         12    1    3    3    0    0  0.68523244369E+01  0.79856016755E+01 -0.15477066642E+01  0.10635768906E+02  0.00000000000E+00 0. -1.
</event>
<event>
 7    1  0.4022995E-008  0.4614232E+02  0.7816164E-02  0.1320468E+00
        -11   -1    0    0    0    0  0.00000000000E+00  0.00000000000E+00  0.45593999997E+02  0.45594000000E+02  0.51100000000E-03 0. -1.
         11   -1    0    0    0    0 -0.00000000000E+00 -0.00000000000E+00 -0.45593999997E+02  0.45594000000E+02  0.51100000000E-03 0.  1.
    9900012    2    1    2    0    0 -0.43917064851E+02  0.32739380244E+01 -0.94702777338E+01  0.46142318568E+02  0.10000007358E+02 0.  0.
        -12    1    1    2    0    0  0.43917064851E+02 -0.32739380244E+01  0.94702777338E+01  0.45045681432E+02  0.00000000000E+00 0.  1.
         11    1    3    3    0    0 -0.17998015873E+02  0.82536457234E+00 -0.56870925703E+01  0.18893195182E+02  0.51100000000E-03 0. -1.
        -11    1    3    3    0    0 -0.63545324784E+01 -0.11927229320E+01 -0.34882198598E+01  0.73464514606E+01  0.51100000000E-03 0.  1.
        -12    1    3    3    0    0 -0.19564516500E+02  0.36412963840E+01 -0.29496530370E+00  0.19902671925E+02  0.00000000000E+00 0.  1.
</event>
<event>
 7    1  0.3986981E-008  0.4614232E+02  0.7816164E-02  0.1320468E+00
        -11   -1    0    0    0    0  0.00000000000E+00  0.00000000000E+00  0.45593999997E+02  0.45594000000E+02  0.51100000000E-03 0.  1.
         11   -1    0    0    0    0 -0.00000000000E+00 -0.00000000000E+00 -0.45593999997E+02  0.45594000000E+02  0.51100000000E-03 0. -1.
    9900012    2    1    2    0    0 -0.14218239028E+01 -0.95318803283E+00 -0.45013146983E+02  0.46142317055E+02  0.99999935633E+01 0.  0.
        -12    1    1    2    0    0  0.14218239028E+01  0.95318803283E+00  0.45013146983E+02  0.45045682945E+02  0.00000000000E+00 0.  1.
         11    1    3    3    0    0 -0.56142298945E+00 -0.18081875151E+01 -0.14448675133E+02  0.14572197886E+02  0.51100000000E-03 0. -1.
        -11    1    3    3    0    0  0.31739891738E+01 -0.48975302667E+00 -0.82305415428E+01  0.88349238623E+01  0.51100000000E-03 0.  1.
        -12    1    3    3    0    0 -0.40343900872E+01  0.13447525090E+01 -0.22333930307E+02  0.22735195307E+02  0.00000000000E+00 0.  1.
</event>
<event>
 7    1  0.3986981E-008  0.4614232E+02  0.7816164E-02  0.1320468E+00
        -11   -1    0    0    0    0  0.00000000000E+00  0.00000000000E+00  0.45593999997E+02  0.45594000000E+02  0.51100000000E-03 0.  1.
         11   -1    0    0    0    0 -0.00000000000E+00 -0.00000000000E+00 -0.45593999997E+02  0.45594000000E+02  0.51100000000E-03 0. -1.
    9900012    2    1    2    0    0  0.35233405021E+02 -0.15841381074E+02 -0.23168325598E+02  0.46142317691E+02  0.99999993569E+01 0.  0.
        -12    1    1    2    0    0 -0.35233405021E+02  0.15841381074E+02  0.23168325598E+02  0.45045682309E+02  0.00000000000E+00 0.  1.
         11    1    3    3    0    0  0.68677983419E+01 -0.24309147618E+01 -0.43896790324E+01  0.85056030305E+01  0.51100000000E-03 0. -1.
        -11    1    3    3    0    0  0.20005983068E+02 -0.13691745342E+02 -0.13545582375E+02  0.27770236786E+02  0.51100000000E-03 0.  1.
        -12    1    3    3    0    0  0.83596236117E+01  0.28127902949E+00 -0.52330641898E+01  0.98664778739E+01  0.00000000000E+00 0.  1.
</event>
<event>
 7    1  0.3986981E-008  0.4614232E+02  0.7816164E-02  0.1320468E+00
        -11   -1    0    0    0    0  0.00000000000E+00  0.00000000000E+00  0.45593999997E+02  0.45594000000E+02  0.51100000000E-03 0.  1.
         11   -1    0    0    0    0 -0.00000000000E+00 -0.00000000000E+00 -0.45593999997E+02  0.45594000000E+02  0.51100000000E-03 0. -1.
    9900012    2    1    2    0    0  0.72160374298E+01  0.39371937720E+02 -0.20661382487E+02  0.46142318717E+02  0.10000008714E+02 0.  0.
        -12    1    1    2    0    0 -0.72160374298E+01 -0.39371937720E+02  0.20661382487E+02  0.45045681283E+02  0.00000000000E+00 0.  1.
         11    1    3    3    0    0  0.47447898071E+01  0.17564591413E+02 -0.84404143109E+01  0.20056632215E+02  0.51100000000E-03 0. -1.
        -11    1    3    3    0    0 -0.18809743295E+01  0.53408566962E+01 -0.11679845961E+01  0.57816090282E+01  0.51100000000E-03 0.  1.
        -12    1    3    3    0    0  0.43522219522E+01  0.16466489611E+02 -0.11052983580E+02  0.20304077474E+02  0.00000000000E+00 0.  1.
</event>
<event>
 7    1  0.3986981E-008  0.4614232E+02  0.7816164E-02  0.1320468E+00
        -11   -1    0    0    0    0  0.00000000000E+00  0.00000000000E+00  0.45593999997E+02  0.45594000000E+02  0.51100000000E-03 0.  1.
         11   -1    0    0    0    0 -0.00000000000E+00 -0.00000000000E+00 -0.45593999997E+02  0.45594000000E+02  0.51100000000E-03 0. -1.
    9900012    2    1    2    0    0 -0.15888644552E+02  0.81074024128E+01 -0.41363444480E+02  0.46142317201E+02  0.99999948940E+01 0.  0.
        -12    1    1    2    0    0  0.15888644552E+02 -0.81074024128E+01  0.41363444480E+02  0.45045682799E+02  0.00000000000E+00 0.  1.
         11    1    3    3    0    0 -0.22913861208E+01  0.25227783478E+01 -0.84159487193E+01  0.90798157499E+01  0.51100000000E-03 0. -1.
        -11    1    3    3    0    0 -0.12154068089E+02  0.69500702768E+01 -0.31852944833E+02  0.34794179725E+02  0.51100000000E-03 0.  1.
        -12    1    3    3    0    0 -0.14431903415E+01 -0.13654462117E+01 -0.10945509279E+01  0.22683217260E+01  0.00000000000E+00 0.  1.
</event>
<event>
 7    1  0.3986981E-008  0.4614232E+02  0.7816164E-02  0.1320468E+00
        -11   -1    0    0    0    0  0.00000000000E+00  0.00000000000E+00  0.45593999997E+02  0.45594000000E+02  0.51100000000E-03 0.  1.
         11   -1    0    0    0    0 -0.00000000000E+00 -0.00000000000E+00 -0.45593999997E+02  0.45594000000E+02  0.51100000000E-03 0. -1.
    9900012    2    1    2    0    0 -0.18514676273E+02  0.40778052311E+02  0.48446628550E+01  0.46142317122E+02  0.99999941759E+01 0.  0.
        -12    1    1    2    0    0  0.18514676273E+02 -0.40778052311E+02 -0.48446628550E+01  0.45045682878E+02  0.00000000000E+00 0.  1.
         11    1    3    3    0    0 -0.13241233468E+01  0.52389654452E+01  0.26824570420E+01  0.60328797118E+01  0.51100000000E-03 0. -1.
        -11    1    3    3    0    0 -0.90891703407E+01  0.12149140816E+02 -0.71436558902E+00  0.15189633258E+02  0.51100000000E-03 0.  1.
         12    1    3    3    0    0 -0.81013825852E+01  0.23389946049E+02  0.28765714020E+01  0.24919804153E+02  0.00000000000E+00 0. -1.
</event>
<event>
 7    1  0.3986981E-008  0.4614232E+02  0.7816164E-02  0.1320468E+00
        -11   -1    0    0    0    0  0.00000000000E+00  0.00000000000E+00  0.45593999997E+02  0.45594000000E+02  0.51100000000E-03 0. -1.
         11   -1    0    0    0    0 -0.00000000000E+00 -0.00000000000E+00 -0.45593999997E+02  0.45594000000E+02  0.51100000000E-03 0.  1.
    9900012    2    1    2    0    0 -0.42052892641E+02 -0.15703559036E+02  0.37504613088E+01  0.46142317566E+02  0.99999982217E+01 0.  0.
        -12    1    1    2    0    0  0.42052892641E+02  0.15703559036E+02 -0.37504613088E+01  0.45045682434E+02  0.00000000000E+00 0.  1.
         11    1    3    3    0    0 -0.16844967548E+02 -0.56692058361E+01 -0.41575501509E+00  0.17778236105E+02  0.51100000000E-03 0. -1.
        -11    1    3    3    0    0 -0.54501089141E+01 -0.22698298412E+01  0.40060902203E+01  0.71347441298E+01  0.51100000000E-03 0.  1.
        -12    1    3    3    0    0 -0.19757816179E+02 -0.77645233586E+01  0.16012610356E+00  0.21229337331E+02  0.00000000000E+00 0.  1.
</event>
<event>
 7    1  0.3986981E-008  0.4614232E+02  0.7816164E-02  0.1320468E+00
        -11   -1    0    0    0    0  0.00000000000E+00  0.00000000000E+00  0.45593999997E+02  0.45594000000E+02  0.51100000000E-03 0. -1.
         11   -1    0    0    0    0 -0.00000000000E+00 -0.00000000000E+00 -0.45593999997E+02  0.45594000000E+02  0.51100000000E-03 0.  1.
    9900012    2    1    2    0    0 -0.22163838871E+02  0.39214728014E+02  0.28671058012E+00  0.46142324851E+02  0.10000064649E+02 0.  0.
        -12    1    1    2    0    0  0.22163838871E+02 -0.39214728014E+02 -0.28671058012E+00  0.45045675149E+02  0.00000000000E+00 0.  1.
         11    1    3    3    0    0 -0.36700027299E+01  0.15938718888E+01  0.11581188327E+01  0.41654035972E+01  0.51100000000E-03 0. -1.
        -11    1    3    3    0    0 -0.35414996003E+01  0.71429691854E+01 -0.94672607541E+00  0.80287308290E+01  0.51100000000E-03 0.  1.
         12    1    3    3    0    0 -0.14952336540E+02  0.30477886940E+02  0.75317822797E-01  0.33948190425E+02  0.00000000000E+00 0. -1.
</event>
<event>
 7    1  0.3986981E-008  0.4614232E+02  0.7816164E-02  0.1320468E+00
        -11   -1    0    0    0    0  0.00000000000E+00  0.00000000000E+00  0.45593999997E+02  0.45594000000E+02  0.51100000000E-03 0.  1.
         11   -1    0    0    0    0 -0.00000000000E+00 -0.00000000000E+00 -0.45593999997E+02  0.45594000000E+02  0.51100000000E-03 0. -1.
    9900012    2    1    2    0    0 -0.28703006596E-01 -0.45040733747E+02 -0.66716815153E+00  0.46142316148E+02  0.99999852925E+01 0.  0.
        -12    1    1    2    0    0  0.28703006596E-01  0.45040733747E+02  0.66716815153E+00  0.45045683852E+02  0.00000000000E+00 0.  1.
         11    1    3    3    0    0 -0.10835963834E+01 -0.51658837512E+01  0.22480954496E+01  0.57371133390E+01  0.51100000000E-03 0.  1.
        -11    1    3    3    0    0 -0.21529435830E+01 -0.20675534959E+02 -0.24814889244E+01  0.20934915797E+02  0.51100000000E-03 0. -1.
         12    1    3    3    0    0  0.32078369598E+01 -0.19199315037E+02 -0.43377467672E+00  0.19470287012E+02  0.00000000000E+00 0. -1.
</event>
<event>
 7    1  0.3986981E-008  0.4614232E+02  0.7816164E-02  0.1320468E+00
        -11   -1    0    0    0    0  0.00000000000E+00  0.00000000000E+00  0.45593999997E+02  0.45594000000E+02  0.51100000000E-03 0.  1.
         11   -1    0    0    0    0 -0.00000000000E+00 -0.00000000000E+00 -0.45593999997E+02  0.45594000000E+02  0.51100000000E-03 0. -1.
    9900012    2    1    2    0    0 -0.43534195703E+02  0.11287252006E+02 -0.25466447273E+01  0.46142315937E+02  0.99999833648E+01 0.  0.
        -12    1    1    2    0    0  0.43534195703E+02 -0.11287252006E+02  0.25466447273E+01  0.45045684063E+02  0.00000000000E+00 0.  1.
         11    1    3    3    0    0 -0.17022219069E+02  0.25066562991E+01 -0.11518296463E+01  0.17244302817E+02  0.51100000000E-03 0. -1.
        -11    1    3    3    0    0 -0.21013014918E+02  0.98845076948E+01 -0.16770710038E+01  0.23282243357E+02  0.51100000000E-03 0.  1.
        -12    1    3    3    0    0 -0.54989617157E+01 -0.11039119878E+01  0.28225592273E+00  0.56157697632E+01  0.00000000000E+00 0.  1.
</event>
<event>
 7    1  0.3986981E-008  0.4614233E+02  0.7816164E-02  0.1320468E+00
        -11   -1    0    0    0    0  0.00000000000E+00  0.00000000000E+00  0.45593999997E+02  0.45594000000E+02  0.51100000000E-03 0. -1.
         11   -1    0    0    0    0 -0.00000000000E+00 -0.00000000000E+00 -0.45593999997E+02  0.45594000000E+02  0.51100000000E-03 0.  1.
    9900012    2    1    2    0    0  0.73009941489E+01 -0.10883133245E+02  0.43097157662E+02  0.46142333135E+02  0.10000140192E+02 0.  0.
        -12    1    1    2    0    0 -0.73009941489E+01  0.10883133245E+02 -0.43097157662E+02  0.45045666865E+02  0.00000000000E+00 0.  1.
         11    1    3    3    0    0  0.19709332596E+00 -0.53460067302E+01  0.27439432085E+02  0.27956056001E+02  0.51100000000E-03 0. -1.
        -11    1    3    3    0    0  0.42211662532E+01 -0.20189790210E+01  0.85832910328E+01  0.97758583275E+01  0.51100000000E-03 0.  1.
         12    1    3    3    0    0  0.28827345697E+01 -0.35181474936E+01  0.70744345443E+01  0.84104188069E+01  0.00000000000E+00 0. -1.
</event>
<event>
 7    1  0.3986981E-008  0.4614233E+02  0.7816164E-02  0.1320468E+00
        -11   -1    0    0    0    0  0.00000000000E+00  0.00000000000E+00  0.45593999997E+02  0.45594000000E+02  0.51100000000E-03 0.  1.
         11   -1    0    0    0    0 -0.00000000000E+00 -0.00000000000E+00 -0.45593999997E+02  0.45594000000E+02  0.51100000000E-03 0. -1.
    9900012    2    1    2    0    0 -0.12352451108E+02  0.33959969162E+02 -0.26893311308E+02  0.46142325990E+02  0.10000075040E+02 0.  0.
        -12    1    1    2    0    0  0.12352451108E+02 -0.33959969162E+02  0.26893311308E+02  0.45045674010E+02  0.00000000000E+00 0.  1.
         11    1    3    3    0    0 -0.16706338861E+01  0.24374037463E+01 -0.25018438947E+01  0.38718442297E+01  0.51100000000E-03 0. -1.
        -11    1    3    3    0    0 -0.11786010596E+01 -0.31549308641E+00 -0.38562992324E+00  0.12795886230E+01  0.51100000000E-03 0.  1.
         12    1    3    3    0    0 -0.95032161625E+01  0.31838058502E+02 -0.24005837490E+02  0.40990893138E+02  0.00000000000E+00 0. -1.
</event>
<event>
 7    1  0.3986981E-008  0.4614232E+02  0.7816164E-02  0.1320468E+00
        -11   -1    0    0    0    0  0.00000000000E+00  0.00000000000E+00  0.45593999997E+02  0.45594000000E+02  0.51100000000E-03 0. -1.
         11   -1    0    0    0    0 -0.00000000000E+00 -0.00000000000E+00 -0.45593999997E+02  0.45594000000E+02  0.51100000000E-03 0.  1.
    9900012    2    1    2    0    0  0.30240247627E+02 -0.33145534831E+02 -0.40018084821E+01  0.46142317333E+02  0.99999960972E+01 0.  0.
        -12    1    1    2    0    0 -0.30240247627E+02  0.33145534831E+02  0.40018084821E+01  0.45045682667E+02  0.00000000000E+00 0.  1.
         11    1    3    3    0    0  0.11920114509E+02 -0.18865459719E+02  0.19553441148E+00  0.22316651502E+02  0.51100000000E-03 0. -1.
        -11    1    3    3    0    0  0.55173671818E+01 -0.26003216917E+01 -0.62522996665E+00  0.61313886104E+01  0.51100000000E-03 0.  1.
         12    1    3    3    0    0  0.12802765937E+02 -0.11679753421E+02 -0.35721129269E+01  0.17694277221E+02  0.00000000000E+00 0. -1.
</event>
<event>
 7    1  0.3986981E-008  0.4614231E+02  0.7816164E-02  0.1320468E+00
        -11   -1    0    0    0    0  0.00000000000E+00  0.00000000000E+00  0.45593999997E+02  0.45594000000E+02  0.51100000000E-03 0.  1.
         11   -1    0    0    0    0 -0.00000000000E+00 -0.00000000000E+00 -0.45593999997E+02  0.45594000000E+02  0.51100000000E-03 0. -1.
    9900012    2    1    2    0    0 -0.24622762717E+02  0.16891341866E+02 -0.33727084813E+02  0.46142310707E+02  0.99999356759E+01 0.  0.
        -12    1    1    2    0    0  0.24622762717E+02 -0.16891341866E+02  0.33727084813E+02  0.45045689293E+02  0.00000000000E+00 0.  1.
         11    1    3    3    0    0 -0.50845930871E+01  0.61091684727E+01 -0.66361699252E+01  0.10354408618E+02  0.51100000000E-03 0. -1.
        -11    1    3    3    0    0 -0.10042672114E+02  0.93254556813E+01 -0.17308869567E+02  0.22077507848E+02  0.51100000000E-03 0.  1.
        -12    1    3    3    0    0 -0.94954975163E+01  0.14567177123E+01 -0.97820453211E+01  0.13710394241E+02  0.00000000000E+00 0.  1.
</event>
<event>
 7    1  0.3986981E-008  0.4614232E+02  0.7816164E-02  0.1320468E+00
        -11   -1    0    0    0    0  0.00000000000E+00  0.00000000000E+00  0.45593999997E+02  0.45594000000E+02  0.51100000000E-03 0. -1.
         11   -1    0    0    0    0 -0.00000000000E+00 -0.00000000000E+00 -0.45593999997E+02  0.45594000000E+02  0.51100000000E-03 0.  1.
    9900012    2    1    2    0    0 -0.65143712782E+01 -0.16407817815E+02  0.41442249966E+02  0.46142316512E+02  0.99999886123E+01 0.  0.
        -12    1    1    2    0    0  0.65143712782E+01  0.16407817815E+02 -0.41442249966E+02  0.45045683488E+02  0.00000000000E+00 0.  1.
         11    1    3    3    0    0 -0.41457086902E+01 -0.48648731164E+01  0.10577133674E+02  0.12358383713E+02  0.51100000000E-03 0. -1.
        -11    1    3    3    0    0 -0.23467136621E+01 -0.72503168950E+01  0.10515778947E+02  0.12986753529E+02  0.51100000000E-03 0.  1.
         12    1    3    3    0    0 -0.21948925867E-01 -0.42926278035E+01  0.20349337345E+02  0.20797179270E+02  0.00000000000E+00 0. -1.
</event>
<event>
 7    1  0.3986981E-008  0.4614232E+02  0.7816164E-02  0.1320468E+00
        -11   -1    0    0    0    0  0.00000000000E+00  0.00000000000E+00  0.45593999997E+02  0.45594000000E+02  0.51100000000E-03 0.  1.
         11   -1    0    0    0    0 -0.00000000000E+00 -0.00000000000E+00 -0.45593999997E+02  0.45594000000E+02  0.51100000000E-03 0. -1.
    9900012    2    1    2    0    0 -0.11134579940E+02 -0.43646898744E+02  0.28785298788E+00  0.46142317634E+02  0.99999988450E+01 0.  0.
        -12    1    1    2    0    0  0.11134579940E+02  0.43646898744E+02 -0.28785298788E+00  0.45045682366E+02  0.00000000000E+00 0.  1.
         11    1    3    3    0    0 -0.57964348294E+01 -0.16310747412E+02 -0.15341093234E+01  0.17377935135E+02  0.51100000000E-03 0. -1.
        -11    1    3    3    0    0 -0.35285103921E+01 -0.68135232770E+01 -0.17109233352E+01  0.78614085223E+01  0.51100000000E-03 0.  1.
        -12    1    3    3    0    0 -0.18096347182E+01 -0.20522628055E+02  0.35328856465E+01  0.20902973978E+02  0.00000000000E+00 0.  1.
</event>
<event>
 7    1  0.3986981E-008  0.4614232E+02  0.7816164E-02  0.1320468E+00
        -11   -1    0    0    0    0  0.00000000000E+00  0.00000000000E+00  0.45593999997E+02  0.45594000000E+02  0.51100000000E-03 0.  1.
         11   -1    0    0    0    0 -0.00000000000E+00 -0.00000000000E+00 -0.45593999997E+02  0.45594000000E+02  0.51100000000E-03 0. -1.
    9900012    2    1    2    0    0 -0.54566857737E+01  0.41102481859E+02 -0.17604662193E+02  0.46142316905E+02  0.99999921920E+01 0.  0.
        -12    1    1    2    0    0  0.54566857737E+01 -0.41102481859E+02  0.17604662193E+02  0.45045683095E+02  0.00000000000E+00 0.  1.
         11    1    3    3    0    0 -0.22139061235E+01  0.52225193034E+01 -0.41801820451E+00  0.56877788000E+01  0.51100000000E-03 0. -1.
        -11    1    3    3    0    0  0.13860961174E+01  0.15594617446E+02 -0.92562983408E+01  0.18187699552E+02  0.51100000000E-03 0.  1.
         12    1    3    3    0    0 -0.46288757676E+01  0.20285345109E+02 -0.79303456481E+01  0.22266838553E+02  0.00000000000E+00 0. -1.
</event>
<event>
 7    1  0.3986981E-008  0.4614232E+02  0.7816164E-02  0.1320468E+00
        -11   -1    0    0    0    0  0.00000000000E+00  0.00000000000E+00  0.45593999997E+02  0.45594000000E+02  0.51100000000E-03 0.  1.
         11   -1    0    0    0    0 -0.00000000000E+00 -0.00000000000E+00 -0.45593999997E+02  0.45594000000E+02  0.51100000000E-03 0. -1.
    9900012    2    1    2    0    0 -0.11860496178E+02 -0.11651628047E+02 -0.41865041459E+02  0.46142317609E+02  0.99999986107E+01 0.  0.
        -12    1    1    2    0    0  0.11860496178E+02  0.11651628047E+02  0.41865041459E+02  0.45045682391E+02  0.00000000000E+00 0.  1.
         11    1    3    3    0    0 -0.48339773392E+01 -0.64569327635E+01 -0.13821036519E+02  0.16002511314E+02  0.51100000000E-03 0. -1.
        -11    1    3    3    0    0  0.13492808476E+01 -0.76409139971E+00 -0.45504151273E+01  0.48073560888E+01  0.51100000000E-03 0.  1.
        -12    1    3    3    0    0 -0.83757996862E+01 -0.44306038841E+01 -0.23493589813E+02  0.25332450206E+02  0.00000000000E+00 0.  1.
</event>
<event>
 7    1  0.3986981E-008  0.4614232E+02  0.7816164E-02  0.1320468E+00
        -11   -1    0    0    0    0  0.00000000000E+00  0.00000000000E+00  0.45593999997E+02  0.45594000000E+02  0.51100000000E-03 0. -1.
         11   -1    0    0    0    0 -0.00000000000E+00 -0.00000000000E+00 -0.45593999997E+02  0.45594000000E+02  0.51100000000E-03 0.  1.
    9900012    2    1    2    0    0  0.25656168890E+00  0.41978482548E+02  0.16335693778E+02  0.46142315278E+02  0.99999773539E+01 0.  0.
        -12    1    1    2    0    0 -0.25656168890E+00 -0.41978482548E+02 -0.16335693778E+02  0.45045684722E+02  0.00000000000E+00 0.  1.
         11    1    3    3    0    0  0.29725642524E+00  0.88806678495E+01  0.55727837941E+01  0.10488591055E+02  0.51100000000E-03 0. -1.
        -11    1    3    3    0    0 -0.65224979798E+00  0.38308448457E+01 -0.11448744646E+01  0.40511158748E+01  0.51100000000E-03 0.  1.
         12    1    3    3    0    0  0.61155506164E+00  0.29266969852E+02  0.11907784448E+02  0.31602608348E+02  0.00000000000E+00 0. -1.
</event>
<event>
 7    1  0.3986981E-008  0.4614232E+02  0.7816164E-02  0.1320468E+00
        -11   -1    0    0    0    0  0.00000000000E+00  0.00000000000E+00  0.45593999997E+02  0.45594000000E+02  0.51100000000E-03 0. -1.
         11   -1    0    0    0    0 -0.00000000000E+00 -0.00000000000E+00 -0.45593999997E+02  0.45594000000E+02  0.51100000000E-03 0.  1.
    9900012    2    1    2    0    0  0.13549435925E+02 -0.41364247942E+02 -0.11598509422E+02  0.46142316050E+02  0.99999843972E+01 0.  0.
        -12    1    1    2    0    0 -0.13549435925E+02  0.41364247942E+02  0.11598509422E+02  0.45045683950E+02  0.00000000000E+00 0.  1.
         11    1    3    3    0    0 -0.50809974322E+00 -0.10840386940E+01 -0.14700663587E+01  0.18958904502E+01  0.51100000000E-03 0. -1.
        -11    1    3    3    0    0  0.27336592647E+01 -0.40249405344E+01 -0.26298622772E+01  0.55307517698E+01  0.51100000000E-03 0.  1.
         12    1    3    3    0    0  0.11323876404E+02 -0.36255268714E+02 -0.74985807862E+01  0.38715673830E+02  0.00000000000E+00 0. -1.
</event>
<event>
 7    1  0.3986981E-008  0.4614232E+02  0.7816164E-02  0.1320468E+00
        -11   -1    0    0    0    0  0.00000000000E+00  0.00000000000E+00  0.45593999997E+02  0.45594000000E+02  0.51100000000E-03 0.  1.
         11   -1    0    0    0    0 -0.00000000000E+00 -0.00000000000E+00 -0.45593999997E+02  0.45594000000E+02  0.51100000000E-03 0. -1.
    9900012    2    1    2    0    0  0.18016756991E+02  0.22256601243E+02 -0.34772886983E+02  0.46142317627E+02  0.99999987732E+01 0.  0.
        -12    1    1    2    0    0 -0.18016756991E+02 -0.22256601243E+02  0.34772886983E+02  0.45045682373E+02  0.00000000000E+00 0.  1.
         11    1    3    3    0    0  0.20666215766E+01  0.28601398017E+01 -0.77288332173E+01  0.84962454995E+01  0.51100000000E-03 0. -1.
        -11    1    3    3    0    0  0.65331508513E+01  0.12362760047E+02 -0.11183711379E+02  0.17905175131E+02  0.51100000000E-03 0.  1.
        -12    1    3    3    0    0  0.94169845628E+01  0.70337013942E+01 -0.15860342387E+02  0.19740896996E+02  0.00000000000E+00 0.  1.
</event>
<event>
 7    1  0.3986981E-008  0.4614232E+02  0.7816164E-02  0.1320468E+00
        -11   -1    0    0    0    0  0.00000000000E+00  0.00000000000E+00  0.45593999997E+02  0.45594000000E+02  0.51100000000E-03 0. -1.
         11   -1    0    0    0    0 -0.00000000000E+00 -0.00000000000E+00 -0.45593999997E+02  0.45594000000E+02  0.51100000000E-03 0.  1.
    9900012    2    1    2    0    0 -0.42432088999E+02 -0.46911988603E+01  0.14374423486E+02  0.46142316809E+02  0.99999913222E+01 0.  0.
        -12    1    1    2    0    0  0.42432088999E+02  0.46911988603E+01 -0.14374423486E+02  0.45045683191E+02  0.00000000000E+00 0.  1.
         11    1    3    3    0    0 -0.22685981744E+00  0.13919681228E+00  0.36311121760E+00  0.45021233522E+00  0.51100000000E-03 0. -1.
        -11    1    3    3    0    0 -0.21061928096E+02 -0.67032544984E+01  0.51777504960E+01  0.22701267287E+02  0.51100000000E-03 0.  1.
         12    1    3    3    0    0 -0.21143301086E+02  0.18728588258E+01  0.88335617727E+01  0.22990837187E+02  0.00000000000E+00 0. -1.
</event>
<event>
 7    1  0.3986981E-008  0.4614232E+02  0.7816164E-02  0.1320468E+00
        -11   -1    0    0    0    0  0.00000000000E+00  0.00000000000E+00  0.45593999997E+02  0.45594000000E+02  0.51100000000E-03 0.  1.
         11   -1    0    0    0    0 -0.00000000000E+00 -0.00000000000E+00 -0.45593999997E+02  0.45594000000E+02  0.51100000000E-03 0. -1.
    9900012    2    1    2    0    0 -0.15921881870E+02  0.96767386228E+01 -0.41011801260E+02  0.46142318351E+02  0.10000005379E+02 0.  0.
        -12    1    1    2    0    0  0.15921881870E+02 -0.96767386228E+01  0.41011801260E+02  0.45045681649E+02  0.00000000000E+00 0.  1.
         11    1    3    3    0    0 -0.89632250637E+01  0.31466562424E+01 -0.20014407615E+02  0.22154398243E+02  0.51100000000E-03 0. -1.
        -11    1    3    3    0    0 -0.66228773721E+01  0.23841244342E+01 -0.16040862162E+02  0.17517300396E+02  0.51100000000E-03 0.  1.
        -12    1    3    3    0    0 -0.33577943414E+00  0.41459579463E+01 -0.49565314825E+01  0.64706197120E+01  0.00000000000E+00 0.  1.
</event>
<event>
 7    1  0.3986981E-008  0.4614232E+02  0.7816164E-02  0.1320468E+00
        -11   -1    0    0    0    0  0.00000000000E+00  0.00000000000E+00  0.45593999997E+02  0.45594000000E+02  0.51100000000E-03 0.  1.
         11   -1    0    0    0    0 -0.00000000000E+00 -0.00000000000E+00 -0.45593999997E+02  0.45594000000E+02  0.51100000000E-03 0. -1.
    9900012    2    1    2    0    0  0.37940993548E+01 -0.37227553919E+02 -0.25076434100E+02  0.46142317545E+02  0.99999980299E+01 0.  0.
        -12    1    1    2    0    0 -0.37940993548E+01  0.37227553919E+02  0.25076434100E+02  0.45045682455E+02  0.00000000000E+00 0.  1.
         11    1    3    3    0    0  0.23639785131E+01 -0.10150824517E+02 -0.44622577753E+01  0.11337520783E+02  0.51100000000E-03 0. -1.
        -11    1    3    3    0    0 -0.21304100688E+01 -0.67680799583E+01 -0.77253699117E+01  0.10489370520E+02  0.51100000000E-03 0.  1.
        -12    1    3    3    0    0  0.35605309105E+01 -0.20308649443E+02 -0.12888806413E+02  0.24315426242E+02  0.00000000000E+00 0.  1.
</event>
<event>
 7    1  0.3986981E-008  0.4614232E+02  0.7816164E-02  0.1320468E+00
        -11   -1    0    0    0    0  0.00000000000E+00  0.00000000000E+00  0.45593999997E+02  0.45594000000E+02  0.51100000000E-03 0.  1.
         11   -1    0    0    0    0 -0.00000000000E+00 -0.00000000000E+00 -0.45593999997E+02  0.45594000000E+02  0.51100000000E-03 0. -1.
    9900012    2    1    2    0    0 -0.21786403439E+02 -0.39295485732E+02 -0.32141810249E+01  0.46142317262E+02  0.99999954443E+01 0.  0.
        -12    1    1    2    0    0  0.21786403439E+02  0.39295485732E+02  0.32141810249E+01  0.45045682738E+02  0.00000000000E+00 0.  1.
         11    1    3    3    0    0 -0.87090299424E+01 -0.11371513437E+02 -0.15759104074E+01  0.14409788835E+02  0.51100000000E-03 0. -1.
        -11    1    3    3    0    0 -0.82546057765E+01 -0.10166125065E+02  0.10442420241E+01  0.13136934841E+02  0.51100000000E-03 0.  1.
        -12    1    3    3    0    0 -0.48227677201E+01 -0.17757847230E+02 -0.26825126416E+01  0.18595593585E+02  0.00000000000E+00 0.  1.
</event>
<event>
 7    1  0.3986981E-008  0.4614232E+02  0.7816164E-02  0.1320468E+00
        -11   -1    0    0    0    0  0.00000000000E+00  0.00000000000E+00  0.45593999997E+02  0.45594000000E+02  0.51100000000E-03 0.  1.
         11   -1    0    0    0    0 -0.00000000000E+00 -0.00000000000E+00 -0.45593999997E+02  0.45594000000E+02  0.51100000000E-03 0. -1.
    9900012    2    1    2    0    0  0.23047413418E+02  0.32582560476E+02 -0.20887962169E+02  0.46142317898E+02  0.10000001252E+02 0.  0.
        -12    1    1    2    0    0 -0.23047413418E+02 -0.32582560476E+02  0.20887962169E+02  0.45045682102E+02  0.00000000000E+00 0.  1.
         11    1    3    3    0    0  0.18482309516E+02  0.27770002139E+02 -0.15393924208E+02  0.36738830774E+02  0.51100000000E-03 0. -1.
        -11    1    3    3    0    0  0.32369462129E+01  0.45497694434E+01 -0.57616432438E+01  0.80233880564E+01  0.51100000000E-03 0.  1.
         12    1    3    3    0    0  0.13281576895E+01  0.26278889317E+00  0.26760528293E+00  0.13800990682E+01  0.00000000000E+00 0. -1.
</event>
<event>
 7    1  0.3986981E-008  0.4614231E+02  0.7816164E-02  0.1320468E+00
        -11   -1    0    0    0    0  0.00000000000E+00  0.00000000000E+00  0.45593999997E+02  0.45594000000E+02  0.51100000000E-03 0.  1.
         11   -1    0    0    0    0 -0.00000000000E+00 -0.00000000000E+00 -0.45593999997E+02  0.45594000000E+02  0.51100000000E-03 0. -1.
    9900012    2    1    2    0    0  0.18488815750E+02  0.10900881369E+02 -0.39603641557E+02  0.46142312670E+02  0.99999535712E+01 0.  0.
        -12    1    1    2    0    0 -0.18488815750E+02 -0.10900881369E+02  0.39603641557E+02  0.45045687330E+02  0.00000000000E+00 0.  1.
         11    1    3    3    0    0  0.87440956231E+01  0.45837482211E+01 -0.21033332865E+02  0.23235125299E+02  0.51100000000E-03 0. -1.
        -11    1    3    3    0    0  0.67550728688E+00  0.34321677922E+01 -0.77134808226E+01  0.84695851439E+01  0.51100000000E-03 0.  1.
         12    1    3    3    0    0  0.90692128401E+01  0.28849653556E+01 -0.10856827870E+02  0.14437602226E+02  0.00000000000E+00 0. -1.
</event>
<event>
 7    1  0.3986981E-008  0.4614232E+02  0.7816164E-02  0.1320468E+00
        -11   -1    0    0    0    0  0.00000000000E+00  0.00000000000E+00  0.45593999997E+02  0.45594000000E+02  0.51100000000E-03 0. -1.
         11   -1    0    0    0    0 -0.00000000000E+00 -0.00000000000E+00 -0.45593999997E+02  0.45594000000E+02  0.51100000000E-03 0.  1.
    9900012    2    1    2    0    0 -0.11404232825E+02  0.27946052349E+02  0.33437629761E+02  0.46142318162E+02  0.10000003654E+02 0.  0.
        -12    1    1    2    0    0  0.11404232825E+02 -0.27946052349E+02 -0.33437629761E+02  0.45045681838E+02  0.00000000000E+00 0.  1.
         11    1    3    3    0    0 -0.11106937942E+01  0.47676030801E+01  0.31663955445E+01  0.58300721127E+01  0.51100000000E-03 0. -1.
        -11    1    3    3    0    0 -0.33116742784E+01  0.11724491749E+01  0.45697753824E+01  0.57640845674E+01  0.51100000000E-03 0.  1.
         12    1    3    3    0    0 -0.69818647525E+01  0.22006000094E+02  0.25701458834E+02  0.34548161482E+02  0.00000000000E+00 0. -1.
</event>
<event>
 7    1  0.3986981E-008  0.4614232E+02  0.7816164E-02  0.1320468E+00
        -11   -1    0    0    0    0  0.00000000000E+00  0.00000000000E+00  0.45593999997E+02  0.45594000000E+02  0.51100000000E-03 0. -1.
         11   -1    0    0    0    0 -0.00000000000E+00 -0.00000000000E+00 -0.45593999997E+02  0.45594000000E+02  0.51100000000E-03 0.  1.
    9900012    2    1    2    0    0  0.42310958763E+02 -0.50183920074E+01 -0.14618891678E+02  0.46142317813E+02  0.10000000478E+02 0.  0.
        -12    1    1    2    0    0 -0.42310958763E+02  0.50183920074E+01  0.14618891678E+02  0.45045682187E+02  0.00000000000E+00 0.  1.
         11    1    3    3    0    0  0.10582438704E+02  0.16858509282E+01 -0.61089486245E+01  0.12334883698E+02  0.51100000000E-03 0.  1.
        -11    1    3    3    0    0  0.12185367370E+02 -0.12719641692E+01 -0.14846582404E+01  0.12341202581E+02  0.51100000000E-03 0. -1.
        -12    1    3    3    0    0  0.19543152688E+02 -0.54322787664E+01 -0.70252848131E+01  0.21466231534E+02  0.00000000000E+00 0.  1.
</event>
<event>
 7    1  0.3986981E-008  0.4614232E+02  0.7816164E-02  0.1320468E+00
        -11   -1    0    0    0    0  0.00000000000E+00  0.00000000000E+00  0.45593999997E+02  0.45594000000E+02  0.51100000000E-03 0.  1.
         11   -1    0    0    0    0 -0.00000000000E+00 -0.00000000000E+00 -0.45593999997E+02  0.45594000000E+02  0.51100000000E-03 0. -1.
    9900012    2    1    2    0    0 -0.73556123921E+01  0.24067535185E+02 -0.37359898443E+02  0.46142319905E+02  0.10000019551E+02 0.  0.
        -12    1    1    2    0    0  0.73556123921E+01 -0.24067535185E+02  0.37359898443E+02  0.45045680095E+02  0.00000000000E+00 0.  1.
         11    1    3    3    0    0 -0.12621777026E+01  0.11548549333E+02 -0.15179104140E+02  0.19114583097E+02  0.51100000000E-03 0. -1.
        -11    1    3    3    0    0 -0.26078361316E+01  0.46165748818E+01 -0.14609833577E+02  0.15542226686E+02  0.51100000000E-03 0.  1.
        -12    1    3    3    0    0 -0.34855985579E+01  0.79024109702E+01 -0.75709607259E+01  0.11485510122E+02  0.00000000000E+00 0.  1.
</event>
<event>
 7    1  0.3986981E-008  0.4614231E+02  0.7816164E-02  0.1320468E+00
        -11   -1    0    0    0    0  0.00000000000E+00  0.00000000000E+00  0.45593999997E+02  0.45594000000E+02  0.51100000000E-03 0. -1.
         11   -1    0    0    0    0 -0.00000000000E+00 -0.00000000000E+00 -0.45593999997E+02  0.45594000000E+02  0.51100000000E-03 0.  1.
    9900012    2    1    2    0    0  0.96706439830E+01  0.21233854930E+02  0.38532016199E+02  0.46142309611E+02  0.99999256811E+01 0.  0.
        -12    1    1    2    0    0 -0.96706439830E+01 -0.21233854930E+02 -0.38532016199E+02  0.45045690389E+02  0.00000000000E+00 0.  1.
         11    1    3    3    0    0  0.18180338812E+01  0.22300711221E+01  0.19705652234E+01  0.34873474108E+01  0.51100000000E-03 0. -1.
        -11    1    3    3    0    0  0.16131108609E+01  0.17575619954E+01  0.89242589967E+00  0.25470718609E+01  0.51100000000E-03 0.  1.
         12    1    3    3    0    0  0.62394992409E+01  0.17246221812E+02  0.35669025076E+02  0.40107890339E+02  0.00000000000E+00 0. -1.
</event>
<event>
 7    1  0.3986981E-008  0.4614232E+02  0.7816164E-02  0.1320468E+00
        -11   -1    0    0    0    0  0.00000000000E+00  0.00000000000E+00  0.45593999997E+02  0.45594000000E+02  0.51100000000E-03 0.  1.
         11   -1    0    0    0    0 -0.00000000000E+00 -0.00000000000E+00 -0.45593999997E+02  0.45594000000E+02  0.51100000000E-03 0. -1.
    9900012    2    1    2    0    0 -0.33924862729E+02  0.29554868235E+02  0.21741973805E+01  0.46142315613E+02  0.99999804141E+01 0.  0.
        -12    1    1    2    0    0  0.33924862729E+02 -0.29554868235E+02 -0.21741973805E+01  0.45045684387E+02  0.00000000000E+00 0.  1.
         11    1    3    3    0    0 -0.13630659542E+02  0.79178664401E+01 -0.25641672415E+00  0.15765571297E+02  0.51100000000E-03 0. -1.
        -11    1    3    3    0    0 -0.32032472381E+01  0.72653026593E+01  0.96071695534E+00  0.79980243141E+01  0.51100000000E-03 0.  1.
         12    1    3    3    0    0 -0.17090955949E+02  0.14371699136E+02  0.14698971494E+01  0.22378720002E+02  0.00000000000E+00 0. -1.
</event>
<event>
 7    1  0.3986981E-008  0.4614232E+02  0.7816164E-02  0.1320468E+00
        -11   -1    0    0    0    0  0.00000000000E+00  0.00000000000E+00  0.45593999997E+02  0.45594000000E+02  0.51100000000E-03 0.  1.
         11   -1    0    0    0    0 -0.00000000000E+00 -0.00000000000E+00 -0.45593999997E+02  0.45594000000E+02  0.51100000000E-03 0. -1.
    9900012    2    1    2    0    0 -0.27840878346E+01 -0.15807413543E+02 -0.42089051279E+02  0.46142315351E+02  0.99999780212E+01 0.  0.
        -12    1    1    2    0    0  0.27840878346E+01  0.15807413543E+02  0.42089051279E+02  0.45045684649E+02  0.00000000000E+00 0.  1.
         11    1    3    3    0    0  0.12482243152E+00 -0.20612190895E+01 -0.22139995855E+01  0.30275401236E+01  0.51100000000E-03 0. -1.
        -11    1    3    3    0    0 -0.24802078929E+01 -0.10466767005E+02 -0.37580009003E+02  0.39089150920E+02  0.51100000000E-03 0.  1.
        -12    1    3    3    0    0 -0.42870237329E+00 -0.32794274480E+01 -0.22950426898E+01  0.40256243068E+01  0.00000000000E+00 0.  1.
</event>
<event>
 7    1  0.3986981E-008  0.4614231E+02  0.7816164E-02  0.1320468E+00
        -11   -1    0    0    0    0  0.00000000000E+00  0.00000000000E+00  0.45593999997E+02  0.45594000000E+02  0.51100000000E-03 0.  1.
         11   -1    0    0    0    0 -0.00000000000E+00 -0.00000000000E+00 -0.45593999997E+02  0.45594000000E+02  0.51100000000E-03 0. -1.
    9900012    2    1    2    0    0 -0.44008553250E+02 -0.88191916749E+01 -0.38187528371E+01  0.46142314588E+02  0.99999710683E+01 0.  0.
        -12    1    1    2    0    0  0.44008553250E+02  0.88191916749E+01  0.38187528371E+01  0.45045685412E+02  0.00000000000E+00 0.  1.
         11    1    3    3    0    0 -0.80541398624E+01 -0.91643445946E+00 -0.37505316706E+01  0.89317136718E+01  0.51100000000E-03 0. -1.
        -11    1    3    3    0    0 -0.61167085181E+01 -0.34992627389E+01 -0.18969988891E+00  0.70494644563E+01  0.51100000000E-03 0.  1.
        -12    1    3    3    0    0 -0.29837704870E+02 -0.44034944765E+01  0.12147872243E+00  0.30161136460E+02  0.00000000000E+00 0.  1.
</event>
<event>
 7    1  0.3986981E-008  0.4614232E+02  0.7816164E-02  0.1320468E+00
        -11   -1    0    0    0    0  0.00000000000E+00  0.00000000000E+00  0.45593999997E+02  0.45594000000E+02  0.51100000000E-03 0.  1.
         11   -1    0    0    0    0 -0.00000000000E+00 -0.00000000000E+00 -0.45593999997E+02  0.45594000000E+02  0.51100000000E-03 0. -1.
    9900012    2    1    2    0    0 -0.32450884600E+02 -0.21659440676E+02 -0.22514933976E+02  0.46142317258E+02  0.99999954153E+01 0.  0.
        -12    1    1    2    0    0  0.32450884600E+02  0.21659440676E+02  0.22514933976E+02  0.45045682742E+02  0.00000000000E+00 0.  1.
         11    1    3    3    0    0 -0.52385296853E+00 -0.24121955580E+00 -0.14712781773E+01  0.15802748315E+01  0.51100000000E-03 0.  1.
        -11    1    3    3    0    0 -0.25793460351E+02 -0.17361185126E+02 -0.13105978088E+02  0.33741369382E+02  0.51100000000E-03 0. -1.
         12    1    3    3    0    0 -0.61335712805E+01 -0.40570359940E+01 -0.79376777105E+01  0.10820673045E+02  0.00000000000E+00 0. -1.
</event>
<event>
 7    1  0.3986981E-008  0.4614232E+02  0.7816164E-02  0.1320468E+00
        -11   -1    0    0    0    0  0.00000000000E+00  0.00000000000E+00  0.45593999997E+02  0.45594000000E+02  0.51100000000E-03 0. -1.
         11   -1    0    0    0    0 -0.00000000000E+00 -0.00000000000E+00 -0.45593999997E+02  0.45594000000E+02  0.51100000000E-03 0.  1.
    9900012    2    1    2    0    0  0.42817679853E+02  0.11025392183E+02  0.86139708028E+01  0.46142317923E+02  0.10000001480E+02 0.  0.
        -12    1    1    2    0    0 -0.42817679853E+02 -0.11025392183E+02 -0.86139708028E+01  0.45045682077E+02  0.00000000000E+00 0.  1.
         11    1    3    3    0    0  0.96417225477E+01  0.29366252264E+01  0.27681297454E+01  0.10452230573E+02  0.51100000000E-03 0. -1.
        -11    1    3    3    0    0  0.71174723402E+01 -0.81712909799E+00 -0.12015883385E+01  0.72642912436E+01  0.51100000000E-03 0.  1.
        -12    1    3    3    0    0  0.26058484965E+02  0.89058960551E+01  0.70474293958E+01  0.28425796107E+02  0.00000000000E+00 0.  1.
</event>
<event>
 7    1  0.3986981E-008  0.4614232E+02  0.7816164E-02  0.1320468E+00
        -11   -1    0    0    0    0  0.00000000000E+00  0.00000000000E+00  0.45593999997E+02  0.45594000000E+02  0.51100000000E-03 0.  1.
         11   -1    0    0    0    0 -0.00000000000E+00 -0.00000000000E+00 -0.45593999997E+02  0.45594000000E+02  0.51100000000E-03 0. -1.
    9900012    2    1    2    0    0 -0.54890047927E+01  0.11725494053E+02 -0.43145070492E+02  0.46142317719E+02  0.99999996115E+01 0.  0.
        -12    1    1    2    0    0  0.54890047927E+01 -0.11725494053E+02  0.43145070492E+02  0.45045682281E+02  0.00000000000E+00 0.  1.
         11    1    3    3    0    0 -0.16226536938E+01  0.49942561013E+00 -0.15907552139E+02  0.15997895057E+02  0.51100000000E-03 0. -1.
        -11    1    3    3    0    0  0.77518148721E+00  0.12736592693E+01 -0.66078802973E+01  0.67740088985E+01  0.51100000000E-03 0.  1.
        -12    1    3    3    0    0 -0.46415325861E+01  0.99524091737E+01 -0.20629638056E+02  0.23370413763E+02  0.00000000000E+00 0.  1.
</event>
<event>
 7    1  0.3986981E-008  0.4614232E+02  0.7816164E-02  0.1320468E+00
        -11   -1    0    0    0    0  0.00000000000E+00  0.00000000000E+00  0.45593999997E+02  0.45594000000E+02  0.51100000000E-03 0.  1.
         11   -1    0    0    0    0 -0.00000000000E+00 -0.00000000000E+00 -0.45593999997E+02  0.45594000000E+02  0.51100000000E-03 0. -1.
    9900012    2    1    2    0    0  0.50787396446E+01  0.29824421962E+02 -0.33373997954E+02  0.46142317841E+02  0.10000000724E+02 0.  0.
        -12    1    1    2    0    0 -0.50787396446E+01 -0.29824421962E+02  0.33373997954E+02  0.45045682159E+02  0.00000000000E+00 0.  1.
         11    1    3    3    0    0  0.77478684989E+00  0.17123325738E+02 -0.13684438935E+02  0.21933363815E+02  0.51100000000E-03 0. -1.
        -11    1    3    3    0    0  0.89989751442E+00  0.77300112483E+00 -0.35660922715E+00  0.12387561009E+01  0.51100000000E-03 0.  1.
         12    1    3    3    0    0  0.34040552803E+01  0.11928095099E+02 -0.19332949792E+02  0.22970197925E+02  0.00000000000E+00 0. -1.
</event>
<event>
 7    1  0.3986981E-008  0.4614232E+02  0.7816164E-02  0.1320468E+00
        -11   -1    0    0    0    0  0.00000000000E+00  0.00000000000E+00  0.45593999997E+02  0.45594000000E+02  0.51100000000E-03 0.  1.
         11   -1    0    0    0    0 -0.00000000000E+00 -0.00000000000E+00 -0.45593999997E+02  0.45594000000E+02  0.51100000000E-03 0. -1.
    9900012    2    1    2    0    0  0.34516973762E+02 -0.21744374070E+02  0.19101680312E+02  0.46142317942E+02  0.10000001646E+02 0.  0.
        -12    1    1    2    0    0 -0.34516973762E+02  0.21744374070E+02 -0.19101680312E+02  0.45045682058E+02  0.00000000000E+00 0.  1.
         11    1    3    3    0    0  0.19058152330E+02 -0.14114692384E+02  0.70264161534E+01  0.24734757641E+02  0.51100000000E-03 0. -1.
        -11    1    3    3    0    0  0.82648831786E+00 -0.62269217245E+00 -0.21181069312E+00  0.10562634671E+01  0.51100000000E-03 0.  1.
         12    1    3    3    0    0  0.14632333114E+02 -0.70069895133E+01  0.12287074852E+02  0.20351296834E+02  0.00000000000E+00 0. -1.
</event>
<event>
 7    1  0.3986981E-008  0.4614232E+02  0.7816164E-02  0.1320468E+00
        -11   -1    0    0    0    0  0.00000000000E+00  0.00000000000E+00  0.45593999997E+02  0.45594000000E+02  0.51100000000E-03 0. -1.
         11   -1    0    0    0    0 -0.00000000000E+00 -0.00000000000E+00 -0.45593999997E+02  0.45594000000E+02  0.51100000000E-03 0.  1.
    9900012    2    1    2    0    0 -0.43433356349E+02 -0.11552056067E+02 -0.30343092152E+01  0.46142317904E+02  0.10000001304E+02 0.  0.
        -12    1    1    2    0    0  0.43433356349E+02  0.11552056067E+02  0.30343092152E+01  0.45045682096E+02  0.00000000000E+00 0.  1.
         11    1    3    3    0    0 -0.19640855509E+02 -0.29357769476E+01 -0.17028743159E+01  0.19931928472E+02  0.51100000000E-03 0. -1.
        -11    1    3    3    0    0 -0.22143278537E+01  0.10917349162E+01 -0.58498788654E+00  0.25371921606E+01  0.51100000000E-03 0.  1.
        -12    1    3    3    0    0 -0.21578172986E+02 -0.97080140356E+01 -0.74644701280E+00  0.23673197272E+02  0.00000000000E+00 0.  1.
</event>
<event>
 7    1  0.3986981E-008  0.4614232E+02  0.7816164E-02  0.1320468E+00
        -11   -1    0    0    0    0  0.00000000000E+00  0.00000000000E+00  0.45593999997E+02  0.45594000000E+02  0.51100000000E-03 0.  1.
         11   -1    0    0    0    0 -0.00000000000E+00 -0.00000000000E+00 -0.45593999997E+02  0.45594000000E+02  0.51100000000E-03 0. -1.
    9900012    2    1    2    0    0  0.11724341672E+02  0.32161845076E+02 -0.29279159077E+02  0.46142316271E+02  0.99999864159E+01 0.  0.
        -12    1    1    2    0    0 -0.11724341672E+02 -0.32161845076E+02  0.29279159077E+02  0.45045683729E+02  0.00000000000E+00 0.  1.
         11    1    3    3    0    0  0.43942902284E+01  0.88634736282E+01 -0.10898069558E+02  0.14718657266E+02  0.51100000000E-03 0. -1.
        -11    1    3    3    0    0  0.51963899722E+01  0.22669382779E+02 -0.16595496208E+02  0.28571207167E+02  0.51100000000E-03 0.  1.
        -12    1    3    3    0    0  0.21336614709E+01  0.62898866889E+00 -0.17855933114E+01  0.28524518386E+01  0.00000000000E+00 0.  1.
</event>
<event>
 7    1  0.3986981E-008  0.4614231E+02  0.7816164E-02  0.1320468E+00
        -11   -1    0    0    0    0  0.00000000000E+00  0.00000000000E+00  0.45593999997E+02  0.45594000000E+02  0.51100000000E-03 0.  1.
         11   -1    0    0    0    0 -0.00000000000E+00 -0.00000000000E+00 -0.45593999997E+02  0.45594000000E+02  0.51100000000E-03 0. -1.
    9900012    2    1    2    0    0  0.40539339610E+02 -0.19320037503E+02 -0.35230820680E+01  0.46142311945E+02  0.99999469616E+01 0.  0.
        -12    1    1    2    0    0 -0.40539339610E+02  0.19320037503E+02  0.35230820680E+01  0.45045688055E+02  0.00000000000E+00 0.  1.
         11    1    3    3    0    0  0.19728442251E+02 -0.10154882463E+02 -0.48278829167E+01  0.22707741526E+02  0.51100000000E-03 0. -1.
        -11    1    3    3    0    0  0.10743725228E+02 -0.36275836245E+01 -0.19197797236E+01  0.11500980357E+02  0.51100000000E-03 0.  1.
         12    1    3    3    0    0  0.10067172131E+02 -0.55375714161E+01  0.32245805723E+01  0.11933590062E+02  0.00000000000E+00 0. -1.
</event>
<event>
 7    1  0.3986981E-008  0.4614232E+02  0.7816164E-02  0.1320468E+00
        -11   -1    0    0    0    0  0.00000000000E+00  0.00000000000E+00  0.45593999997E+02  0.45594000000E+02  0.51100000000E-03 0. -1.
         11   -1    0    0    0    0 -0.00000000000E+00 -0.00000000000E+00 -0.45593999997E+02  0.45594000000E+02  0.51100000000E-03 0.  1.
    9900012    2    1    2    0    0  0.31067615429E+02  0.29643532037E+02  0.13608003644E+02  0.46142317818E+02  0.10000000517E+02 0.  0.
        -12    1    1    2    0    0 -0.31067615429E+02 -0.29643532037E+02 -0.13608003644E+02  0.45045682182E+02  0.00000000000E+00 0.  1.
         11    1    3    3    0    0  0.99521087798E+01  0.98703004130E+01  0.53689098076E+01  0.15009746573E+02  0.51100000000E-03 0. -1.
        -11    1    3    3    0    0  0.17102464306E+02  0.18837262714E+02  0.89094546102E+01  0.26957654454E+02  0.51100000000E-03 0.  1.
        -12    1    3    3    0    0  0.40130423429E+01  0.93596890944E+00 -0.67036077338E+00  0.41749167910E+01  0.00000000000E+00 0.  1.
</event>
<event>
 7    1  0.3986981E-008  0.4614232E+02  0.7816164E-02  0.1320468E+00
        -11   -1    0    0    0    0  0.00000000000E+00  0.00000000000E+00  0.45593999997E+02  0.45594000000E+02  0.51100000000E-03 0.  1.
         11   -1    0    0    0    0 -0.00000000000E+00 -0.00000000000E+00 -0.45593999997E+02  0.45594000000E+02  0.51100000000E-03 0. -1.
    9900012    2    1    2    0    0  0.18054535656E+02  0.11695212499E+02 -0.39577383222E+02  0.46142317457E+02  0.99999972225E+01 0.  0.
        -12    1    1    2    0    0 -0.18054535656E+02 -0.11695212499E+02  0.39577383222E+02  0.45045682543E+02  0.00000000000E+00 0.  1.
         11    1    3    3    0    0  0.88523293366E+01  0.43884523962E+01 -0.16541995352E+02  0.19268104722E+02  0.51100000000E-03 0. -1.
        -11    1    3    3    0    0  0.23131348667E+01  0.64400530087E+01 -0.12636546205E+02  0.14370357543E+02  0.51100000000E-03 0.  1.
        -12    1    3    3    0    0  0.68890714524E+01  0.86670709384E+00 -0.10398841665E+02  0.12503855191E+02  0.00000000000E+00 0.  1.
</event>
<event>
 7    1  0.3986981E-008  0.4614232E+02  0.7816164E-02  0.1320468E+00
        -11   -1    0    0    0    0  0.00000000000E+00  0.00000000000E+00  0.45593999997E+02  0.45594000000E+02  0.51100000000E-03 0.  1.
         11   -1    0    0    0    0 -0.00000000000E+00 -0.00000000000E+00 -0.45593999997E+02  0.45594000000E+02  0.51100000000E-03 0. -1.
    9900012    2    1    2    0    0  0.16679959441E+02  0.39637414045E+02  0.13407754643E+02  0.46142317369E+02  0.99999964208E+01 0.  0.
        -12    1    1    2    0    0 -0.16679959441E+02 -0.39637414045E+02 -0.13407754643E+02  0.45045682631E+02  0.00000000000E+00 0.  1.
         11    1    3    3    0    0  0.42380325813E+01  0.51159487633E+01  0.37006998741E+00  0.66536308859E+01  0.51100000000E-03 0.  1.
        -11    1    3    3    0    0  0.12173345018E+02  0.32002503224E+02  0.10292182931E+02  0.35753035833E+02  0.51100000000E-03 0. -1.
         12    1    3    3    0    0  0.26858184217E+00  0.25189620582E+01  0.27455017252E+01  0.37356506501E+01  0.00000000000E+00 0. -1.
</event>
<event>
 7    1  0.3986981E-008  0.4614232E+02  0.7816164E-02  0.1320468E+00
        -11   -1    0    0    0    0  0.00000000000E+00  0.00000000000E+00  0.45593999997E+02  0.45594000000E+02  0.51100000000E-03 0.  1.
         11   -1    0    0    0    0 -0.00000000000E+00 -0.00000000000E+00 -0.45593999997E+02  0.45594000000E+02  0.51100000000E-03 0. -1.
    9900012    2    1    2    0    0  0.35967988482E+02 -0.18849094007E+02 -0.19496896045E+02  0.46142317680E+02  0.99999992589E+01 0.  0.
        -12    1    1    2    0    0 -0.35967988482E+02  0.18849094007E+02  0.19496896045E+02  0.45045682320E+02  0.00000000000E+00 0.  1.
         11    1    3    3    0    0  0.29129128905E+01 -0.31565729861E+01 -0.33243841901E+01  0.54314404193E+01  0.51100000000E-03 0. -1.
        -11    1    3    3    0    0  0.27438805339E+02 -0.15143006249E+02 -0.15687291372E+02  0.35046965454E+02  0.51100000000E-03 0.  1.
        -12    1    3    3    0    0  0.56162702529E+01 -0.54951477144E+00 -0.48522048261E+00  0.56639118067E+01  0.00000000000E+00 0.  1.
</event>
<event>
 7    1  0.3986981E-008  0.4614232E+02  0.7816164E-02  0.1320468E+00
        -11   -1    0    0    0    0  0.00000000000E+00  0.00000000000E+00  0.45593999997E+02  0.45594000000E+02  0.51100000000E-03 0.  1.
         11   -1    0    0    0    0 -0.00000000000E+00 -0.00000000000E+00 -0.45593999997E+02  0.45594000000E+02  0.51100000000E-03 0. -1.
    9900012    2    1    2    0    0 -0.30704908371E+01  0.37049047667E+02 -0.25437249900E+02  0.46142317305E+02  0.99999958426E+01 0.  0.
        -12    1    1    2    0    0  0.30704908371E+01 -0.37049047667E+02  0.25437249900E+02  0.45045682695E+02  0.00000000000E+00 0.  1.
         11    1    3    3    0    0 -0.47441181640E+01  0.22627048399E+02 -0.17807511610E+02  0.29182142594E+02  0.51100000000E-03 0. -1.
        -11    1    3    3    0    0  0.34886305283E-01  0.62062581151E+00  0.55294299171E+00  0.83194931661E+00  0.51100000000E-03 0.  1.
         12    1    3    3    0    0  0.16387410217E+01  0.13801373456E+02 -0.81826812819E+01  0.16128225394E+02  0.00000000000E+00 0. -1.
</event>
<event>
 7    1  0.3986981E-008  0.4614232E+02  0.7816164E-02  0.1320468E+00
        -11   -1    0    0    0    0  0.00000000000E+00  0.00000000000E+00  0.45593999997E+02  0.45594000000E+02  0.51100000000E-03 0.  1.
         11   -1    0    0    0    0 -0.00000000000E+00 -0.00000000000E+00 -0.45593999997E+02  0.45594000000E+02  0.51100000000E-03 0. -1.
    9900012    2    1    2    0    0  0.17720733240E+02  0.10930739396E+02 -0.39945062510E+02  0.46142317973E+02  0.10000001934E+02 0.  0.
        -12    1    1    2    0    0 -0.17720733240E+02 -0.10930739396E+02  0.39945062510E+02  0.45045682027E+02  0.00000000000E+00 0.  1.
         11    1    3    3    0    0  0.87448704437E+01  0.79805494236E+01 -0.16089366263E+02  0.19975726149E+02  0.51100000000E-03 0. -1.
        -11    1    3    3    0    0  0.46923884133E+00 -0.24015538176E+00  0.10836436276E+00  0.53814755768E+00  0.51100000000E-03 0.  1.
        -12    1    3    3    0    0  0.85066239553E+01  0.31903453538E+01 -0.23964060610E+02  0.25628444267E+02  0.00000000000E+00 0.  1.
</event>
<event>
 7    1  0.3986981E-008  0.4614231E+02  0.7816164E-02  0.1320468E+00
        -11   -1    0    0    0    0  0.00000000000E+00  0.00000000000E+00  0.45593999997E+02  0.45594000000E+02  0.51100000000E-03 0. -1.
         11   -1    0    0    0    0 -0.00000000000E+00 -0.00000000000E+00 -0.45593999997E+02  0.45594000000E+02  0.51100000000E-03 0.  1.
    9900012    2    1    2    0    0  0.17163403694E+02  0.34620717114E+02  0.23150323462E+02  0.46142312567E+02  0.99999526394E+01 0.  0.
        -12    1    1    2    0    0 -0.17163403694E+02 -0.34620717114E+02 -0.23150323462E+02  0.45045687433E+02  0.00000000000E+00 0.  1.
         11    1    3    3    0    0  0.58803115314E+01  0.16644362142E+02  0.96358047904E+01  0.20111230421E+02  0.51100000000E-03 0. -1.
        -11    1    3    3    0    0  0.36575710921E+01  0.13483535030E+01  0.31043931011E+01  0.49832860896E+01  0.51100000000E-03 0.  1.
        -12    1    3    3    0    0  0.76255210708E+01  0.16628001469E+02  0.10410125570E+02  0.21047796057E+02  0.00000000000E+00 0.  1.
</event>
<event>
 7    1  0.3986981E-008  0.4614233E+02  0.7816164E-02  0.1320468E+00
        -11   -1    0    0    0    0  0.00000000000E+00  0.00000000000E+00  0.45593999997E+02  0.45594000000E+02  0.51100000000E-03 0. -1.
         11   -1    0    0    0    0 -0.00000000000E+00 -0.00000000000E+00 -0.45593999997E+02  0.45594000000E+02  0.51100000000E-03 0.  1.
    9900012    2    1    2    0    0 -0.17598993198E+02 -0.22757560564E+02  0.34662389689E+02  0.46142330026E+02  0.10000111839E+02 0.  0.
        -12    1    1    2    0    0  0.17598993198E+02  0.22757560564E+02 -0.34662389689E+02  0.45045669974E+02  0.00000000000E+00 0.  1.
         11    1    3    3    0    0 -0.13156877154E+02 -0.10775619312E+02  0.18279989646E+02  0.24967487053E+02  0.51100000000E-03 0. -1.
        -11    1    3    3    0    0 -0.25480212720E+01 -0.59786338071E+01  0.51237265045E+01  0.82758110271E+01  0.51100000000E-03 0.  1.
         12    1    3    3    0    0 -0.18940947721E+01 -0.60033074458E+01  0.11258673538E+02  0.12899031946E+02  0.00000000000E+00 0. -1.
</event>
<event>
 7    1  0.3986981E-008  0.4614232E+02  0.7816164E-02  0.1320468E+00
        -11   -1    0    0    0    0  0.00000000000E+00  0.00000000000E+00  0.45593999997E+02  0.45594000000E+02  0.51100000000E-03 0.  1.
         11   -1    0    0    0    0 -0.00000000000E+00 -0.00000000000E+00 -0.45593999997E+02  0.45594000000E+02  0.51100000000E-03 0. -1.
    9900012    2    1    2    0    0  0.40798884191E+02  0.10668964400E+02 -0.15834690605E+02  0.46142321193E+02  0.10000031294E+02 0.  0.
        -12    1    1    2    0    0 -0.40798884191E+02 -0.10668964400E+02  0.15834690605E+02  0.45045678807E+02  0.00000000000E+00 0.  1.
         11    1    3    3    0    0  0.40869607893E+01  0.69812553980E+00 -0.45715875370E+01  0.61717129415E+01  0.51100000000E-03 0. -1.
        -11    1    3    3    0    0  0.61601627128E+00 -0.46982042293E+00 -0.19554580731E+00  0.79902797207E+00  0.51100000000E-03 0.  1.
         12    1    3    3    0    0  0.36095907131E+02  0.10440659283E+02 -0.11067557261E+02  0.39171580279E+02  0.00000000000E+00 0. -1.
</event>
<event>
 7    1  0.3986981E-008  0.4614232E+02  0.7816164E-02  0.1320468E+00
        -11   -1    0    0    0    0  0.00000000000E+00  0.00000000000E+00  0.45593999997E+02  0.45594000000E+02  0.51100000000E-03 0.  1.
         11   -1    0    0    0    0 -0.00000000000E+00 -0.00000000000E+00 -0.45593999997E+02  0.45594000000E+02  0.51100000000E-03 0. -1.
    9900012    2    1    2    0    0  0.10980884776E+01  0.33840720330E+02 -0.29710492845E+02  0.46142317234E+02  0.99999951906E+01 0.  0.
        -12    1    1    2    0    0 -0.10980884776E+01 -0.33840720330E+02  0.29710492845E+02  0.45045682766E+02  0.00000000000E+00 0.  1.
         11    1    3    3    0    0  0.45522482641E+01  0.11563474499E+02 -0.99793813190E+01  0.15938160450E+02  0.51100000000E-03 0. -1.
        -11    1    3    3    0    0 -0.11336602262E+01  0.63189391823E+01 -0.34483510506E+01  0.72873385490E+01  0.51100000000E-03 0.  1.
        -12    1    3    3    0    0 -0.23204995603E+01  0.15958306649E+02 -0.16282760476E+02  0.22916818235E+02  0.00000000000E+00 0.  1.
</event>
<event>
 7    1  0.3986981E-008  0.4614232E+02  0.7816164E-02  0.1320468E+00
        -11   -1    0    0    0    0  0.00000000000E+00  0.00000000000E+00  0.45593999997E+02  0.45594000000E+02  0.51100000000E-03 0.  1.
         11   -1    0    0    0    0 -0.00000000000E+00 -0.00000000000E+00 -0.45593999997E+02  0.45594000000E+02  0.51100000000E-03 0. -1.
    9900012    2    1    2    0    0  0.86591538173E+01  0.13737762157E+02 -0.42016738937E+02  0.46142318689E+02  0.10000008459E+02 0.  0.
        -12    1    1    2    0    0 -0.86591538173E+01 -0.13737762157E+02  0.42016738937E+02  0.45045681311E+02  0.00000000000E+00 0.  1.
         11    1    3    3    0    0 -0.13458358528E+01  0.45612246759E+01 -0.11885485153E+02  0.12801593739E+02  0.51100000000E-03 0. -1.
        -11    1    3    3    0    0  0.27534336346E+00 -0.32434884999E+00 -0.25935921611E+01  0.26282573511E+01  0.51100000000E-03 0.  1.
        -12    1    3    3    0    0  0.97296463066E+01  0.95008863310E+01 -0.27537661623E+02  0.30712467598E+02  0.00000000000E+00 0.  1.
</event>
<event>
 7    1  0.3986981E-008  0.4614232E+02  0.7816164E-02  0.1320468E+00
        -11   -1    0    0    0    0  0.00000000000E+00  0.00000000000E+00  0.45593999997E+02  0.45594000000E+02  0.51100000000E-03 0. -1.
         11   -1    0    0    0    0 -0.00000000000E+00 -0.00000000000E+00 -0.45593999997E+02  0.45594000000E+02  0.51100000000E-03 0.  1.
    9900012    2    1    2    0    0 -0.43185548456E+02 -0.10209057429E+02 -0.77393192111E+01  0.46142317511E+02  0.99999977180E+01 0.  0.
        -12    1    1    2    0    0  0.43185548456E+02  0.10209057429E+02  0.77393192111E+01  0.45045682489E+02  0.00000000000E+00 0.  1.
         11    1    3    3    0    0 -0.10577459931E+01 -0.22574254904E+01  0.10860603352E+00  0.24953140007E+01  0.51100000000E-03 0. -1.
        -11    1    3    3    0    0 -0.15890667973E+02 -0.32975516148E+01 -0.40895953653E+01  0.16736545815E+02  0.51100000000E-03 0.  1.
         12    1    3    3    0    0 -0.26237134490E+02 -0.46540803233E+01 -0.37583298793E+01  0.26910457696E+02  0.00000000000E+00 0. -1.
</event>
<event>
 7    1  0.3986981E-008  0.4614232E+02  0.7816164E-02  0.1320468E+00
        -11   -1    0    0    0    0  0.00000000000E+00  0.00000000000E+00  0.45593999997E+02  0.45594000000E+02  0.51100000000E-03 0. -1.
         11   -1    0    0    0    0 -0.00000000000E+00 -0.00000000000E+00 -0.45593999997E+02  0.45594000000E+02  0.51100000000E-03 0.  1.
    9900012    2    1    2    0    0  0.37598855027E+01  0.19975583064E+02  0.40198915276E+02  0.46142318219E+02  0.10000004177E+02 0.  0.
        -12    1    1    2    0    0 -0.37598855027E+01 -0.19975583064E+02 -0.40198915276E+02  0.45045681781E+02  0.00000000000E+00 0.  1.
         11    1    3    3    0    0 -0.87857530294E-01  0.10889240455E+02  0.20415711841E+02  0.23138378657E+02  0.51100000000E-03 0. -1.
        -11    1    3    3    0    0 -0.22062941986E+00  0.74906407476E+00 -0.33510580350E+00  0.84974730930E+00  0.51100000000E-03 0.  1.
        -12    1    3    3    0    0  0.40683724529E+01  0.83372785345E+01  0.20118309238E+02  0.22154192253E+02  0.00000000000E+00 0.  1.
</event>
<event>
 7    1  0.3986981E-008  0.4614232E+02  0.7816164E-02  0.1320468E+00
        -11   -1    0    0    0    0  0.00000000000E+00  0.00000000000E+00  0.45593999997E+02  0.45594000000E+02  0.51100000000E-03 0. -1.
         11   -1    0    0    0    0 -0.00000000000E+00 -0.00000000000E+00 -0.45593999997E+02  0.45594000000E+02  0.51100000000E-03 0.  1.
    9900012    2    1    2    0    0 -0.37237959836E+02 -0.25199518230E+02  0.27261892759E+01  0.46142317857E+02  0.10000000875E+02 0.  0.
        -12    1    1    2    0    0  0.37237959836E+02  0.25199518230E+02 -0.27261892759E+01  0.45045682143E+02  0.00000000000E+00 0.  1.
         11    1    3    3    0    0 -0.10890978125E+02 -0.60275239096E+01 -0.35758673040E+01  0.12951111004E+02  0.51100000000E-03 0. -1.
        -11    1    3    3    0    0 -0.47776284922E+01 -0.36911738837E+01  0.11243570462E+01  0.61412277012E+01  0.51100000000E-03 0.  1.
         12    1    3    3    0    0 -0.21569353219E+02 -0.15480820437E+02  0.51776995337E+01  0.27049979152E+02  0.00000000000E+00 0. -1.
</event>
<event>
 7    1  0.3986981E-008  0.4614232E+02  0.7816164E-02  0.1320468E+00
        -11   -1    0    0    0    0  0.00000000000E+00  0.00000000000E+00  0.45593999997E+02  0.45594000000E+02  0.51100000000E-03 0.  1.
         11   -1    0    0    0    0 -0.00000000000E+00 -0.00000000000E+00 -0.45593999997E+02  0.45594000000E+02  0.51100000000E-03 0. -1.
    9900012    2    1    2    0    0 -0.56749762958E+01  0.20030517081E+02 -0.39946045510E+02  0.46142317383E+02  0.99999965554E+01 0.  0.
        -12    1    1    2    0    0  0.56749762958E+01 -0.20030517081E+02  0.39946045510E+02  0.45045682617E+02  0.00000000000E+00 0.  1.
         11    1    3    3    0    0  0.66157737300E-02 -0.60446879665E+00 -0.80617115625E+00  0.10076400592E+01  0.51100000000E-03 0. -1.
        -11    1    3    3    0    0  0.12212382211E+01  0.44412195726E+01 -0.11218285630E+02  0.12127068352E+02  0.51100000000E-03 0.  1.
         12    1    3    3    0    0 -0.69028302906E+01  0.16193766305E+02 -0.27921588724E+02  0.33007608972E+02  0.00000000000E+00 0. -1.
</event>
<event>
 7    1  0.3986981E-008  0.4614232E+02  0.7816164E-02  0.1320468E+00
        -11   -1    0    0    0    0  0.00000000000E+00  0.00000000000E+00  0.45593999997E+02  0.45594000000E+02  0.51100000000E-03 0.  1.
         11   -1    0    0    0    0 -0.00000000000E+00 -0.00000000000E+00 -0.45593999997E+02  0.45594000000E+02  0.51100000000E-03 0. -1.
    9900012    2    1    2    0    0 -0.11368519312E+02  0.41647419569E+02  0.12859340936E+02  0.46142318327E+02  0.10000005159E+02 0.  0.
        -12    1    1    2    0    0  0.11368519312E+02 -0.41647419569E+02 -0.12859340936E+02  0.45045681673E+02  0.00000000000E+00 0.  1.
         11    1    3    3    0    0 -0.62402536144E+01  0.20847475303E+02  0.73278029663E+01  0.22962027093E+02  0.51100000000E-03 0. -1.
        -11    1    3    3    0    0 -0.42987028685E+01  0.95131591740E+01  0.56340191741E+01  0.11862597360E+02  0.51100000000E-03 0.  1.
        -12    1    3    3    0    0 -0.82956282918E+00  0.11286785092E+02 -0.10248120438E+00  0.11317693873E+02  0.00000000000E+00 0.  1.
</event>
<event>
 7    1  0.3986981E-008  0.4614232E+02  0.7816164E-02  0.1320468E+00
        -11   -1    0    0    0    0  0.00000000000E+00  0.00000000000E+00  0.45593999997E+02  0.45594000000E+02  0.51100000000E-03 0.  1.
         11   -1    0    0    0    0 -0.00000000000E+00 -0.00000000000E+00 -0.45593999997E+02  0.45594000000E+02  0.51100000000E-03 0. -1.
    9900012    2    1    2    0    0 -0.38845512397E+02 -0.13961972785E+02 -0.18033391104E+02  0.46142315277E+02  0.99999773472E+01 0.  0.
        -12    1    1    2    0    0  0.38845512397E+02  0.13961972785E+02  0.18033391104E+02  0.45045684723E+02  0.00000000000E+00 0.  1.
         11    1    3    3    0    0 -0.56475019698E+01 -0.17456142716E+01 -0.44869154853E+01  0.74211763567E+01  0.51100000000E-03 0. -1.
        -11    1    3    3    0    0 -0.43519671658E+01 -0.11249417254E+01  0.93556501869E+00  0.45913390490E+01  0.51100000000E-03 0.  1.
         12    1    3    3    0    0 -0.28846043261E+02 -0.11091416788E+02 -0.14482040638E+02  0.34129799871E+02  0.00000000000E+00 0. -1.
</event>
<event>
 7    1  0.3986981E-008  0.4614232E+02  0.7816164E-02  0.1320468E+00
        -11   -1    0    0    0    0  0.00000000000E+00  0.00000000000E+00  0.45593999997E+02  0.45594000000E+02  0.51100000000E-03 0.  1.
         11   -1    0    0    0    0 -0.00000000000E+00 -0.00000000000E+00 -0.45593999997E+02  0.45594000000E+02  0.51100000000E-03 0. -1.
    9900012    2    1    2    0    0 -0.43375553907E+01  0.33344465441E+02 -0.29974083770E+02  0.46142318074E+02  0.10000002855E+02 0.  0.
        -12    1    1    2    0    0  0.43375553907E+01 -0.33344465441E+02  0.29974083770E+02  0.45045681926E+02  0.00000000000E+00 0.  1.
         11    1    3    3    0    0  0.55162289128E+00 -0.22693822400E+00 -0.10985118513E+00  0.60651159568E+00  0.51100000000E-03 0. -1.
        -11    1    3    3    0    0 -0.45413113123E+01  0.13447878184E+02 -0.11097463311E+02  0.18017286929E+02  0.51100000000E-03 0.  1.
         12    1    3    3    0    0 -0.34786696969E+00  0.20123525481E+02 -0.18766769274E+02  0.27518519549E+02  0.00000000000E+00 0. -1.
</event>
<event>
 7    1  0.3986981E-008  0.4614232E+02  0.7816164E-02  0.1320468E+00
        -11   -1    0    0    0    0  0.00000000000E+00  0.00000000000E+00  0.45593999997E+02  0.45594000000E+02  0.51100000000E-03 0.  1.
         11   -1    0    0    0    0 -0.00000000000E+00 -0.00000000000E+00 -0.45593999997E+02  0.45594000000E+02  0.51100000000E-03 0. -1.
    9900012    2    1    2    0    0 -0.13457239899E+02 -0.22484664164E+02 -0.36639542826E+02  0.46142317335E+02  0.99999961121E+01 0.  0.
        -12    1    1    2    0    0  0.13457239899E+02  0.22484664164E+02  0.36639542826E+02  0.45045682665E+02  0.00000000000E+00 0.  1.
         11    1    3    3    0    0 -0.84319104417E+01 -0.18393271708E+02 -0.27200032242E+02  0.33900609317E+02  0.51100000000E-03 0. -1.
        -11    1    3    3    0    0 -0.52302184087E+01 -0.35797822698E+01 -0.97349990637E+01  0.11616377780E+02  0.51100000000E-03 0.  1.
        -12    1    3    3    0    0  0.20488895089E+00 -0.51161018559E+00  0.29548847972E+00  0.62533023743E+00  0.00000000000E+00 0.  1.
</event>
<event>
 7    1  0.3986981E-008  0.4614232E+02  0.7816164E-02  0.1320468E+00
        -11   -1    0    0    0    0  0.00000000000E+00  0.00000000000E+00  0.45593999997E+02  0.45594000000E+02  0.51100000000E-03 0.  1.
         11   -1    0    0    0    0 -0.00000000000E+00 -0.00000000000E+00 -0.45593999997E+02  0.45594000000E+02  0.51100000000E-03 0. -1.
    9900012    2    1    2    0    0  0.22844132680E+01 -0.24683910409E+02 -0.37611160651E+02  0.46142318935E+02  0.10000010706E+02 0.  0.
        -12    1    1    2    0    0 -0.22844132680E+01  0.24683910409E+02  0.37611160651E+02  0.45045681065E+02  0.00000000000E+00 0.  1.
         11    1    3    3    0    0 -0.63437439055E+00 -0.10078237643E+02 -0.16268004750E+02  0.19147357094E+02  0.51100000000E-03 0. -1.
        -11    1    3    3    0    0 -0.22207054773E+01 -0.70152571612E+01 -0.92236474160E+01  0.11799196488E+02  0.51100000000E-03 0.  1.
         12    1    3    3    0    0  0.51394931359E+01 -0.75904156054E+01 -0.12119508485E+02  0.15195765353E+02  0.00000000000E+00 0. -1.
</event>
<event>
 7    1  0.3986981E-008  0.4614232E+02  0.7816164E-02  0.1320468E+00
        -11   -1    0    0    0    0  0.00000000000E+00  0.00000000000E+00  0.45593999997E+02  0.45594000000E+02  0.51100000000E-03 0. -1.
         11   -1    0    0    0    0 -0.00000000000E+00 -0.00000000000E+00 -0.45593999997E+02  0.45594000000E+02  0.51100000000E-03 0.  1.
    9900012    2    1    2    0    0 -0.40588251730E+02  0.11807408002E+02 -0.15565744407E+02  0.46142318063E+02  0.10000002754E+02 0.  0.
        -12    1    1    2    0    0  0.40588251730E+02 -0.11807408002E+02  0.15565744407E+02  0.45045681937E+02  0.00000000000E+00 0.  1.
         11    1    3    3    0    0 -0.14244869915E+02  0.63580325337E+01 -0.91636111956E+01  0.18091784517E+02  0.51100000000E-03 0.  1.
        -11    1    3    3    0    0 -0.49006421474E+00 -0.41226079068E+00  0.29964100099E+00  0.70704093565E+00  0.51100000000E-03 0. -1.
        -12    1    3    3    0    0 -0.25853317600E+02  0.58616362594E+01 -0.67017742123E+01  0.27343492611E+02  0.00000000000E+00 0.  1.
</event>
<event>
 7    1  0.3986981E-008  0.4614232E+02  0.7816164E-02  0.1320468E+00
        -11   -1    0    0    0    0  0.00000000000E+00  0.00000000000E+00  0.45593999997E+02  0.45594000000E+02  0.51100000000E-03 0. -1.
         11   -1    0    0    0    0 -0.00000000000E+00 -0.00000000000E+00 -0.45593999997E+02  0.45594000000E+02  0.51100000000E-03 0.  1.
    9900012    2    1    2    0    0  0.36001995961E+02 -0.20595668437E+02  0.17572368267E+02  0.46142318764E+02  0.10000009143E+02 0.  0.
        -12    1    1    2    0    0 -0.36001995961E+02  0.20595668437E+02 -0.17572368267E+02  0.45045681236E+02  0.00000000000E+00 0.  1.
         11    1    3    3    0    0  0.32599818705E+01  0.45326116550E+00  0.15336601867E+00  0.32949125750E+01  0.51100000000E-03 0. -1.
        -11    1    3    3    0    0  0.25445190167E+02 -0.14224920772E+02  0.12675785152E+02  0.31788073284E+02  0.51100000000E-03 0.  1.
        -12    1    3    3    0    0  0.72968239230E+01 -0.68240088301E+01  0.47432170967E+01  0.11059332905E+02  0.00000000000E+00 0.  1.
</event>
<event>
 7    1  0.3986981E-008  0.4614232E+02  0.7816164E-02  0.1320468E+00
        -11   -1    0    0    0    0  0.00000000000E+00  0.00000000000E+00  0.45593999997E+02  0.45594000000E+02  0.51100000000E-03 0. -1.
         11   -1    0    0    0    0 -0.00000000000E+00 -0.00000000000E+00 -0.45593999997E+02  0.45594000000E+02  0.51100000000E-03 0.  1.
    9900012    2    1    2    0    0  0.14526921714E+02  0.98490673298E+00  0.42627595409E+02  0.46142318897E+02  0.10000010355E+02 0.  0.
        -12    1    1    2    0    0 -0.14526921714E+02 -0.98490673298E+00 -0.42627595409E+02  0.45045681103E+02  0.00000000000E+00 0.  1.
         11    1    3    3    0    0  0.31969892153E+01 -0.13467097182E+01  0.19571445689E+02  0.19876515131E+02  0.51100000000E-03 0. -1.
        -11    1    3    3    0    0  0.51253498171E+00 -0.25226035382E+00 -0.97528974887E-01  0.57951665692E+00  0.51100000000E-03 0.  1.
         12    1    3    3    0    0  0.10817397517E+02  0.25838768050E+01  0.23153678694E+02  0.25686287109E+02  0.00000000000E+00 0. -1.
</event>
<event>
 7    1  0.3986981E-008  0.4614232E+02  0.7816164E-02  0.1320468E+00
        -11   -1    0    0    0    0  0.00000000000E+00  0.00000000000E+00  0.45593999997E+02  0.45594000000E+02  0.51100000000E-03 0. -1.
         11   -1    0    0    0    0 -0.00000000000E+00 -0.00000000000E+00 -0.45593999997E+02  0.45594000000E+02  0.51100000000E-03 0.  1.
    9900012    2    1    2    0    0  0.32258204322E+02  0.19686942870E+02  0.24514200344E+02  0.46142317807E+02  0.10000000423E+02 0.  0.
        -12    1    1    2    0    0 -0.32258204322E+02 -0.19686942870E+02 -0.24514200344E+02  0.45045682193E+02  0.00000000000E+00 0.  1.
         11    1    3    3    0    0  0.19965948844E+02  0.12624780002E+02  0.16594724405E+02  0.28868825083E+02  0.51100000000E-03 0. -1.
        -11    1    3    3    0    0  0.30934717897E+01  0.10702819768E+00  0.40751517360E+01  0.51174099583E+01  0.51100000000E-03 0.  1.
         12    1    3    3    0    0  0.91987836882E+01  0.69551346710E+01  0.38443242031E+01  0.12156082766E+02  0.00000000000E+00 0. -1.
</event>
<event>
 7    1  0.3986981E-008  0.4614232E+02  0.7816164E-02  0.1320468E+00
        -11   -1    0    0    0    0  0.00000000000E+00  0.00000000000E+00  0.45593999997E+02  0.45594000000E+02  0.51100000000E-03 0.  1.
         11   -1    0    0    0    0 -0.00000000000E+00 -0.00000000000E+00 -0.45593999997E+02  0.45594000000E+02  0.51100000000E-03 0. -1.
    9900012    2    1    2    0    0  0.16910359927E+02 -0.30314421705E+02 -0.28708694501E+02  0.46142316787E+02  0.99999911186E+01 0.  0.
        -12    1    1    2    0    0 -0.16910359927E+02  0.30314421705E+02  0.28708694501E+02  0.45045683213E+02  0.00000000000E+00 0.  1.
         11    1    3    3    0    0  0.13604982287E+00 -0.47860145756E+00  0.51657855070E-01  0.50023764812E+00  0.51100000000E-03 0.  1.
        -11    1    3    3    0    0  0.69708070839E+01 -0.17470322166E+02 -0.20532115712E+02  0.27845503835E+02  0.51100000000E-03 0. -1.
         12    1    3    3    0    0  0.98035030198E+01 -0.12365498082E+02 -0.82282366445E+01  0.17796575304E+02  0.00000000000E+00 0. -1.
</event>
<event>
 7    1  0.3986981E-008  0.4614231E+02  0.7816164E-02  0.1320468E+00
        -11   -1    0    0    0    0  0.00000000000E+00  0.00000000000E+00  0.45593999997E+02  0.45594000000E+02  0.51100000000E-03 0.  1.
         11   -1    0    0    0    0 -0.00000000000E+00 -0.00000000000E+00 -0.45593999997E+02  0.45594000000E+02  0.51100000000E-03 0. -1.
    9900012    2    1    2    0    0 -0.51412745627E+01 -0.12135154306E+02 -0.43074583377E+02  0.46142307561E+02  0.99999069905E+01 0.  0.
        -12    1    1    2    0    0  0.51412745627E+01  0.12135154306E+02  0.43074583377E+02  0.45045692439E+02  0.00000000000E+00 0.  1.
         11    1    3    3    0    0 -0.19771071669E+01 -0.41075607476E+01 -0.11303439060E+02  0.12188057388E+02  0.51100000000E-03 0. -1.
        -11    1    3    3    0    0 -0.13127465471E+01 -0.77975264764E+01 -0.13945757613E+02  0.16031496446E+02  0.51100000000E-03 0.  1.
         12    1    3    3    0    0 -0.18514208488E+01 -0.23006708239E+00 -0.17825386704E+02  0.17922753727E+02  0.00000000000E+00 0. -1.
</event>
<event>
 7    1  0.3986981E-008  0.4614232E+02  0.7816164E-02  0.1320468E+00
        -11   -1    0    0    0    0  0.00000000000E+00  0.00000000000E+00  0.45593999997E+02  0.45594000000E+02  0.51100000000E-03 0.  1.
         11   -1    0    0    0    0 -0.00000000000E+00 -0.00000000000E+00 -0.45593999997E+02  0.45594000000E+02  0.51100000000E-03 0. -1.
    9900012    2    1    2    0    0 -0.10320548991E+02 -0.31032644999E+02 -0.30977003395E+02  0.46142317338E+02  0.99999961459E+01 0.  0.
        -12    1    1    2    0    0  0.10320548991E+02  0.31032644999E+02  0.30977003395E+02  0.45045682662E+02  0.00000000000E+00 0.  1.
         11    1    3    3    0    0 -0.10446670696E-01 -0.57790490441E+01 -0.10132187172E+02  0.11664421723E+02  0.51100000000E-03 0. -1.
        -11    1    3    3    0    0 -0.41257194467E+01 -0.11963539742E+02 -0.78742226218E+01  0.14904738383E+02  0.51100000000E-03 0.  1.
         12    1    3    3    0    0 -0.61843828734E+01 -0.13290056213E+02 -0.12970593602E+02  0.19573157232E+02  0.00000000000E+00 0. -1.
</event>
<event>
 7    1  0.3986981E-008  0.4614232E+02  0.7816164E-02  0.1320468E+00
        -11   -1    0    0    0    0  0.00000000000E+00  0.00000000000E+00  0.45593999997E+02  0.45594000000E+02  0.51100000000E-03 0.  1.
         11   -1    0    0    0    0 -0.00000000000E+00 -0.00000000000E+00 -0.45593999997E+02  0.45594000000E+02  0.51100000000E-03 0. -1.
    9900012    2    1    2    0    0  0.30804289466E+01  0.47786119890E+01 -0.44685445475E+02  0.46142320825E+02  0.10000027941E+02 0.  0.
        -12    1    1    2    0    0 -0.30804289466E+01 -0.47786119890E+01  0.44685445475E+02  0.45045679175E+02  0.00000000000E+00 0.  1.
         11    1    3    3    0    0 -0.89315511131E+00  0.18645759092E+01 -0.25016927087E+02  0.25102211267E+02  0.51100000000E-03 0.  1.
        -11    1    3    3    0    0  0.15406223501E+01  0.38947965892E+01 -0.74830669224E+01  0.85755028146E+01  0.51100000000E-03 0. -1.
        -12    1    3    3    0    0  0.24329617078E+01 -0.98076050935E+00 -0.12185451466E+02  0.12464606743E+02  0.00000000000E+00 0.  1.
</event>
<event>
 7    1  0.3986981E-008  0.4614232E+02  0.7816164E-02  0.1320468E+00
        -11   -1    0    0    0    0  0.00000000000E+00  0.00000000000E+00  0.45593999997E+02  0.45594000000E+02  0.51100000000E-03 0.  1.
         11   -1    0    0    0    0 -0.00000000000E+00 -0.00000000000E+00 -0.45593999997E+02  0.45594000000E+02  0.51100000000E-03 0. -1.
    9900012    2    1    2    0    0  0.21471609315E+02 -0.24558142654E+02 -0.31064145569E+02  0.46142317442E+02  0.99999970900E+01 0.  0.
        -12    1    1    2    0    0 -0.21471609315E+02  0.24558142654E+02  0.31064145569E+02  0.45045682558E+02  0.00000000000E+00 0.  1.
         11    1    3    3    0    0  0.53640904426E+01 -0.46522439957E+01 -0.33696653258E+01  0.78594837707E+01  0.51100000000E-03 0.  1.
        -11    1    3    3    0    0  0.12940047767E+02 -0.19243394101E+02 -0.24046099601E+02  0.33406106612E+02  0.51100000000E-03 0. -1.
         12    1    3    3    0    0  0.31674711060E+01 -0.66250455706E+00 -0.36483806424E+01  0.48767270589E+01  0.00000000000E+00 0. -1.
</event>
<event>
 7    1  0.3986981E-008  0.4614232E+02  0.7816164E-02  0.1320468E+00
        -11   -1    0    0    0    0  0.00000000000E+00  0.00000000000E+00  0.45593999997E+02  0.45594000000E+02  0.51100000000E-03 0. -1.
         11   -1    0    0    0    0 -0.00000000000E+00 -0.00000000000E+00 -0.45593999997E+02  0.45594000000E+02  0.51100000000E-03 0.  1.
    9900012    2    1    2    0    0 -0.24468712252E+02 -0.35357887259E+02 -0.13424432761E+02  0.46142318013E+02  0.10000002296E+02 0.  0.
        -12    1    1    2    0    0  0.24468712252E+02  0.35357887259E+02  0.13424432761E+02  0.45045681987E+02  0.00000000000E+00 0.  1.
         11    1    3    3    0    0 -0.14062214760E+02 -0.21356332764E+02 -0.12522362859E+02  0.28471887975E+02  0.51100000000E-03 0. -1.
        -11    1    3    3    0    0 -0.45620010199E+01 -0.77741924515E+01 -0.13692405194E+01  0.91172770848E+01  0.51100000000E-03 0.  1.
        -12    1    3    3    0    0 -0.58444964726E+01 -0.62273620443E+01  0.46717061710E+00  0.85531529528E+01  0.00000000000E+00 0.  1.
</event>
<event>
 7    1  0.3986981E-008  0.4614232E+02  0.7816164E-02  0.1320468E+00
        -11   -1    0    0    0    0  0.00000000000E+00  0.00000000000E+00  0.45593999997E+02  0.45594000000E+02  0.51100000000E-03 0.  1.
         11   -1    0    0    0    0 -0.00000000000E+00 -0.00000000000E+00 -0.45593999997E+02  0.45594000000E+02  0.51100000000E-03 0. -1.
    9900012    2    1    2    0    0 -0.11623719285E+02  0.23638797308E+02 -0.36540523869E+02  0.46142317934E+02  0.10000001577E+02 0.  0.
        -12    1    1    2    0    0  0.11623719285E+02 -0.23638797308E+02  0.36540523869E+02  0.45045682066E+02  0.00000000000E+00 0.  1.
         11    1    3    3    0    0 -0.49356330523E+01  0.13210972639E+02 -0.15703145038E+02  0.21106374299E+02  0.51100000000E-03 0. -1.
        -11    1    3    3    0    0 -0.52287761909E+01  0.25576003934E+01 -0.98646710296E+01  0.11453958050E+02  0.51100000000E-03 0.  1.
        -12    1    3    3    0    0 -0.14593100413E+01  0.78702242749E+01 -0.10972707802E+02  0.13581985585E+02  0.00000000000E+00 0.  1.
</event>
<event>
 7    1  0.3986981E-008  0.4614232E+02  0.7816164E-02  0.1320468E+00
        -11   -1    0    0    0    0  0.00000000000E+00  0.00000000000E+00  0.45593999997E+02  0.45594000000E+02  0.51100000000E-03 0.  1.
         11   -1    0    0    0    0 -0.00000000000E+00 -0.00000000000E+00 -0.45593999997E+02  0.45594000000E+02  0.51100000000E-03 0. -1.
    9900012    2    1    2    0    0 -0.25832904645E+02  0.33932311664E+02 -0.14504232482E+02  0.46142317664E+02  0.99999991101E+01 0.  0.
        -12    1    1    2    0    0  0.25832904645E+02 -0.33932311664E+02  0.14504232482E+02  0.45045682336E+02  0.00000000000E+00 0.  1.
         11    1    3    3    0    0 -0.14756786299E+02  0.20220451556E+02 -0.50152439663E+01  0.25530023019E+02  0.51100000000E-03 0. -1.
        -11    1    3    3    0    0 -0.46643417391E+01  0.92382347643E+01 -0.41764133993E+01  0.11159905670E+02  0.51100000000E-03 0.  1.
         12    1    3    3    0    0 -0.64117766063E+01  0.44736253435E+01 -0.53125751167E+01  0.94523889750E+01  0.00000000000E+00 0. -1.
</event>
<event>
 7    1  0.3986981E-008  0.4614232E+02  0.7816164E-02  0.1320468E+00
        -11   -1    0    0    0    0  0.00000000000E+00  0.00000000000E+00  0.45593999997E+02  0.45594000000E+02  0.51100000000E-03 0. -1.
         11   -1    0    0    0    0 -0.00000000000E+00 -0.00000000000E+00 -0.45593999997E+02  0.45594000000E+02  0.51100000000E-03 0.  1.
    9900012    2    1    2    0    0 -0.18050629133E+02 -0.60878628511E+01  0.40819433290E+02  0.46142318516E+02  0.10000006886E+02 0.  0.
        -12    1    1    2    0    0  0.18050629133E+02  0.60878628511E+01 -0.40819433290E+02  0.45045681484E+02  0.00000000000E+00 0.  1.
         11    1    3    3    0    0 -0.26908099927E+01 -0.34523328137E+01  0.15879032019E+02  0.16471269483E+02  0.51100000000E-03 0. -1.
        -11    1    3    3    0    0 -0.47115886161E+01 -0.65535613736E+00  0.45499343442E+01  0.65825877701E+01  0.51100000000E-03 0.  1.
         12    1    3    3    0    0 -0.10648230524E+02 -0.19801739001E+01  0.20390466927E+02  0.23088461263E+02  0.00000000000E+00 0. -1.
</event>
<event>
 7    1  0.3986981E-008  0.4614232E+02  0.7816164E-02  0.1320468E+00
        -11   -1    0    0    0    0  0.00000000000E+00  0.00000000000E+00  0.45593999997E+02  0.45594000000E+02  0.51100000000E-03 0.  1.
         11   -1    0    0    0    0 -0.00000000000E+00 -0.00000000000E+00 -0.45593999997E+02  0.45594000000E+02  0.51100000000E-03 0. -1.
    9900012    2    1    2    0    0  0.29008114359E+02 -0.32556962491E+02 -0.11299875756E+02  0.46142315441E+02  0.99999788445E+01 0.  0.
        -12    1    1    2    0    0 -0.29008114359E+02  0.32556962491E+02  0.11299875756E+02  0.45045684559E+02  0.00000000000E+00 0.  1.
         11    1    3    3    0    0  0.27076524025E+01 -0.25125331057E+01 -0.35120542267E+01  0.50969333223E+01  0.51100000000E-03 0. -1.
        -11    1    3    3    0    0  0.50665320315E+01 -0.93033634224E+01 -0.14341601991E+01  0.10690141886E+02  0.51100000000E-03 0.  1.
        -12    1    3    3    0    0  0.21233929925E+02 -0.20741065963E+02 -0.63536613304E+01  0.30355240233E+02  0.00000000000E+00 0.  1.
</event>
<event>
 7    1  0.3986981E-008  0.4614232E+02  0.7816164E-02  0.1320468E+00
        -11   -1    0    0    0    0  0.00000000000E+00  0.00000000000E+00  0.45593999997E+02  0.45594000000E+02  0.51100000000E-03 0.  1.
         11   -1    0    0    0    0 -0.00000000000E+00 -0.00000000000E+00 -0.45593999997E+02  0.45594000000E+02  0.51100000000E-03 0. -1.
    9900012    2    1    2    0    0  0.28176925905E+02 -0.53100044117E+01 -0.34741591240E+02  0.46142318052E+02  0.10000002651E+02 0.  0.
        -12    1    1    2    0    0 -0.28176925905E+02  0.53100044117E+01  0.34741591240E+02  0.45045681948E+02  0.00000000000E+00 0.  1.
         11    1    3    3    0    0  0.20300901279E+02 -0.51797645574E+01 -0.26473563196E+02  0.33761014530E+02  0.51100000000E-03 0. -1.
        -11    1    3    3    0    0  0.17224180517E+01  0.19233053937E+01 -0.14124492152E+01  0.29429306192E+01  0.51100000000E-03 0.  1.
        -12    1    3    3    0    0  0.61536065744E+01 -0.20535452480E+01 -0.68555788291E+01  0.94383729022E+01  0.00000000000E+00 0.  1.
</event>
<event>
 7    1  0.3986981E-008  0.4614232E+02  0.7816164E-02  0.1320468E+00
        -11   -1    0    0    0    0  0.00000000000E+00  0.00000000000E+00  0.45593999997E+02  0.45594000000E+02  0.51100000000E-03 0.  1.
         11   -1    0    0    0    0 -0.00000000000E+00 -0.00000000000E+00 -0.45593999997E+02  0.45594000000E+02  0.51100000000E-03 0. -1.
    9900012    2    1    2    0    0  0.26815205616E+02 -0.30722535481E+02 -0.19135936441E+02  0.46142317608E+02  0.99999986064E+01 0.  0.
        -12    1    1    2    0    0 -0.26815205616E+02  0.30722535481E+02  0.19135936441E+02  0.45045682392E+02  0.00000000000E+00 0.  1.
         11    1    3    3    0    0  0.18942447353E+02 -0.19097585069E+02 -0.15350567727E+02  0.30970534335E+02  0.51100000000E-03 0. -1.
        -11    1    3    3    0    0  0.70023437891E+01 -0.11211995905E+02 -0.45090367823E+01  0.13966856614E+02  0.51100000000E-03 0.  1.
        -12    1    3    3    0    0  0.87041447420E+00 -0.41295450799E+00  0.72366806798E+00  0.12049266597E+01  0.00000000000E+00 0.  1.
</event>
<event>
 7    1  0.3986981E-008  0.4614231E+02  0.7816164E-02  0.1320468E+00
        -11   -1    0    0    0    0  0.00000000000E+00  0.00000000000E+00  0.45593999997E+02  0.45594000000E+02  0.51100000000E-03 0.  1.
         11   -1    0    0    0    0 -0.00000000000E+00 -0.00000000000E+00 -0.45593999997E+02  0.45594000000E+02  0.51100000000E-03 0. -1.
    9900012    2    1    2    0    0  0.24160075705E+02  0.72739571477E+01 -0.37316136866E+02  0.46142314510E+02  0.99999703557E+01 0.  0.
        -12    1    1    2    0    0 -0.24160075705E+02 -0.72739571477E+01  0.37316136866E+02  0.45045685490E+02  0.00000000000E+00 0.  1.
         11    1    3    3    0    0  0.68277776938E+00  0.12168193513E+01 -0.70570326477E-01  0.13970738163E+01  0.51100000000E-03 0. -1.
        -11    1    3    3    0    0  0.68591395388E+01  0.30531374657E+01 -0.79796632764E+01  0.10956480724E+02  0.51100000000E-03 0.  1.
         12    1    3    3    0    0  0.16618158397E+02  0.30040003307E+01 -0.29265903263E+02  0.33788759970E+02  0.00000000000E+00 0. -1.
</event>
<event>
 7    1  0.3986981E-008  0.4614232E+02  0.7816164E-02  0.1320468E+00
        -11   -1    0    0    0    0  0.00000000000E+00  0.00000000000E+00  0.45593999997E+02  0.45594000000E+02  0.51100000000E-03 0.  1.
         11   -1    0    0    0    0 -0.00000000000E+00 -0.00000000000E+00 -0.45593999997E+02  0.45594000000E+02  0.51100000000E-03 0. -1.
    9900012    2    1    2    0    0  0.37690982074E+02 -0.22491341260E+01 -0.24565112149E+02  0.46142317977E+02  0.10000001968E+02 0.  0.
        -12    1    1    2    0    0 -0.37690982074E+02  0.22491341260E+01  0.24565112149E+02  0.45045682023E+02  0.00000000000E+00 0.  1.
         11    1    3    3    0    0  0.17782679266E+02  0.48203335396E+00 -0.11252773933E+02  0.21049488343E+02  0.51100000000E-03 0. -1.
        -11    1    3    3    0    0  0.70865219989E+01  0.97165141619E+00 -0.15844240975E+01  0.73262064193E+01  0.51100000000E-03 0.  1.
        -12    1    3    3    0    0  0.12821780809E+02 -0.37028188962E+01 -0.11727914119E+02  0.17766623215E+02  0.00000000000E+00 0.  1.
</event>
<event>
 7    1  0.3986981E-008  0.4614232E+02  0.7816164E-02  0.1320468E+00
        -11   -1    0    0    0    0  0.00000000000E+00  0.00000000000E+00  0.45593999997E+02  0.45594000000E+02  0.51100000000E-03 0. -1.
         11   -1    0    0    0    0 -0.00000000000E+00 -0.00000000000E+00 -0.45593999997E+02  0.45594000000E+02  0.51100000000E-03 0.  1.
    9900012    2    1    2    0    0 -0.21308913840E+02  0.39414962753E+02  0.46372869828E+01  0.46142317317E+02  0.99999959460E+01 0.  0.
        -12    1    1    2    0    0  0.21308913840E+02 -0.39414962753E+02 -0.46372869828E+01  0.45045682683E+02  0.00000000000E+00 0.  1.
         11    1    3    3    0    0 -0.10243661426E+02  0.12605501937E+02  0.27660080365E+01  0.16476713240E+02  0.51100000000E-03 0. -1.
        -11    1    3    3    0    0 -0.38448715827E+01  0.72027484097E+01  0.31051641750E+01  0.87352542582E+01  0.51100000000E-03 0.  1.
         12    1    3    3    0    0 -0.72203808311E+01  0.19606712407E+02 -0.12338852287E+01  0.20930349818E+02  0.00000000000E+00 0. -1.
</event>
<event>
 7    1  0.3986981E-008  0.4614232E+02  0.7816164E-02  0.1320468E+00
        -11   -1    0    0    0    0  0.00000000000E+00  0.00000000000E+00  0.45593999997E+02  0.45594000000E+02  0.51100000000E-03 0.  1.
         11   -1    0    0    0    0 -0.00000000000E+00 -0.00000000000E+00 -0.45593999997E+02  0.45594000000E+02  0.51100000000E-03 0. -1.
    9900012    2    1    2    0    0 -0.22328047710E+02  0.16172459308E+02 -0.35623352480E+02  0.46142318781E+02  0.10000009299E+02 0.  0.
        -12    1    1    2    0    0  0.22328047710E+02 -0.16172459308E+02  0.35623352480E+02  0.45045681219E+02  0.00000000000E+00 0.  1.
         11    1    3    3    0    0 -0.10087441757E+02  0.42422424109E+01 -0.19312582699E+02  0.22197498793E+02  0.51100000000E-03 0. -1.
        -11    1    3    3    0    0 -0.10653855624E+01  0.30536454079E+01 -0.35200972348E+01  0.47802595617E+01  0.51100000000E-03 0.  1.
         12    1    3    3    0    0 -0.11175220390E+02  0.88765714895E+01 -0.12790672546E+02  0.19164560427E+02  0.00000000000E+00 0. -1.
</event>
<event>
 7    1  0.3986981E-008  0.4614232E+02  0.7816164E-02  0.1320468E+00
        -11   -1    0    0    0    0  0.00000000000E+00  0.00000000000E+00  0.45593999997E+02  0.45594000000E+02  0.51100000000E-03 0. -1.
         11   -1    0    0    0    0 -0.00000000000E+00 -0.00000000000E+00 -0.45593999997E+02  0.45594000000E+02  0.51100000000E-03 0.  1.
    9900012    2    1    2    0    0 -0.28594509849E+02  0.32140344032E+02  0.13359099191E+02  0.46142320526E+02  0.10000025214E+02 0.  0.
        -12    1    1    2    0    0  0.28594509849E+02 -0.32140344032E+02 -0.13359099191E+02  0.45045679474E+02  0.00000000000E+00 0.  1.
         11    1    3    3    0    0 -0.10087018584E+02  0.94904474323E+01  0.89366269305E+01  0.16482713294E+02  0.51100000000E-03 0. -1.
        -11    1    3    3    0    0 -0.52774549362E+01  0.74324310221E+01  0.59329165132E+00  0.91347992176E+01  0.51100000000E-03 0.  1.
         12    1    3    3    0    0 -0.13230036329E+02  0.15217465578E+02  0.38291806096E+01  0.20524808014E+02  0.00000000000E+00 0. -1.
</event>
<event>
 7    1  0.3986981E-008  0.4614232E+02  0.7816164E-02  0.1320468E+00
        -11   -1    0    0    0    0  0.00000000000E+00  0.00000000000E+00  0.45593999997E+02  0.45594000000E+02  0.51100000000E-03 0.  1.
         11   -1    0    0    0    0 -0.00000000000E+00 -0.00000000000E+00 -0.45593999997E+02  0.45594000000E+02  0.51100000000E-03 0. -1.
    9900012    2    1    2    0    0  0.30871528518E+02 -0.62287896265E+01 -0.32206589368E+02  0.46142317722E+02  0.99999996398E+01 0.  0.
        -12    1    1    2    0    0 -0.30871528518E+02  0.62287896265E+01  0.32206589368E+02  0.45045682278E+02  0.00000000000E+00 0.  1.
         11    1    3    3    0    0  0.99659495569E+01 -0.25283690448E+00 -0.12318520620E+02  0.15847082621E+02  0.51100000000E-03 0. -1.
        -11    1    3    3    0    0  0.17368264878E+02 -0.47013925315E+01 -0.12207019041E+02  0.21743298524E+02  0.51100000000E-03 0.  1.
        -12    1    3    3    0    0  0.35373140828E+01 -0.12745601906E+01 -0.76810497071E+01  0.85519365761E+01  0.00000000000E+00 0.  1.
</event>
<event>
 7    1  0.3986981E-008  0.4614232E+02  0.7816164E-02  0.1320468E+00
        -11   -1    0    0    0    0  0.00000000000E+00  0.00000000000E+00  0.45593999997E+02  0.45594000000E+02  0.51100000000E-03 0. -1.
         11   -1    0    0    0    0 -0.00000000000E+00 -0.00000000000E+00 -0.45593999997E+02  0.45594000000E+02  0.51100000000E-03 0.  1.
    9900012    2    1    2    0    0 -0.43956844927E+01  0.25309469692E+02  0.37003003218E+02  0.46142317128E+02  0.99999942274E+01 0.  0.
        -12    1    1    2    0    0  0.43956844927E+01 -0.25309469692E+02 -0.37003003218E+02  0.45045682872E+02  0.00000000000E+00 0.  1.
         11    1    3    3    0    0 -0.30515598942E+01  0.35811016937E+01  0.70523919860E+01  0.84777674014E+01  0.51100000000E-03 0. -1.
        -11    1    3    3    0    0 -0.12772802041E+01  0.14878379992E+02  0.14739807990E+02  0.20982363446E+02  0.51100000000E-03 0.  1.
        -12    1    3    3    0    0 -0.66844394417E-01  0.68499880062E+01  0.15210803241E+02  0.16682186281E+02  0.00000000000E+00 0.  1.
</event>
<event>
 7    1  0.3986981E-008  0.4614232E+02  0.7816164E-02  0.1320468E+00
        -11   -1    0    0    0    0  0.00000000000E+00  0.00000000000E+00  0.45593999997E+02  0.45594000000E+02  0.51100000000E-03 0.  1.
         11   -1    0    0    0    0 -0.00000000000E+00 -0.00000000000E+00 -0.45593999997E+02  0.45594000000E+02  0.51100000000E-03 0. -1.
    9900012    2    1    2    0    0 -0.14157757181E+02  0.16020688115E+01 -0.42732947110E+02  0.46142317836E+02  0.10000000685E+02 0.  0.
        -12    1    1    2    0    0  0.14157757181E+02 -0.16020688115E+01  0.42732947110E+02  0.45045682164E+02  0.00000000000E+00 0.  1.
         11    1    3    3    0    0 -0.63154499741E+00 -0.24289397122E+01 -0.45363146183E+01  0.51842789071E+01  0.51100000000E-03 0. -1.
        -11    1    3    3    0    0 -0.35344993814E+01  0.25011405571E+01 -0.15864864225E+02  0.16445130194E+02  0.51100000000E-03 0.  1.
        -12    1    3    3    0    0 -0.99917128027E+01  0.15298679667E+01 -0.22331768267E+02  0.24512908735E+02  0.00000000000E+00 0.  1.
</event>
<event>
 7    1  0.3986981E-008  0.4614232E+02  0.7816164E-02  0.1320468E+00
        -11   -1    0    0    0    0  0.00000000000E+00  0.00000000000E+00  0.45593999997E+02  0.45594000000E+02  0.51100000000E-03 0. -1.
         11   -1    0    0    0    0 -0.00000000000E+00 -0.00000000000E+00 -0.45593999997E+02  0.45594000000E+02  0.51100000000E-03 0.  1.
    9900012    2    1    2    0    0 -0.52312420811E+01 -0.44479845477E+02  0.48260709355E+01  0.46142317543E+02  0.99999980126E+01 0.  0.
        -12    1    1    2    0    0  0.52312420811E+01  0.44479845477E+02 -0.48260709355E+01  0.45045682457E+02  0.00000000000E+00 0.  1.
         11    1    3    3    0    0 -0.19002436266E+00 -0.19128947067E+02 -0.18177698597E+01  0.19216061320E+02  0.51100000000E-03 0. -1.
        -11    1    3    3    0    0 -0.48649843137E+01 -0.20500024051E+02  0.41697578341E+01  0.21478033874E+02  0.51100000000E-03 0.  1.
         12    1    3    3    0    0 -0.17623340476E+00 -0.48508743594E+01  0.24740829611E+01  0.54482223488E+01  0.00000000000E+00 0. -1.
</event>
<event>
 7    1  0.3986981E-008  0.4614232E+02  0.7816164E-02  0.1320468E+00
        -11   -1    0    0    0    0  0.00000000000E+00  0.00000000000E+00  0.45593999997E+02  0.45594000000E+02  0.51100000000E-03 0.  1.
         11   -1    0    0    0    0 -0.00000000000E+00 -0.00000000000E+00 -0.45593999997E+02  0.45594000000E+02  0.51100000000E-03 0. -1.
    9900012    2    1    2    0    0  0.51362713285E+01  0.44728370029E+02 -0.14509731255E+01  0.46142315505E+02  0.99999794257E+01 0.  0.
        -12    1    1    2    0    0 -0.51362713285E+01 -0.44728370029E+02  0.14509731255E+01  0.45045684495E+02  0.00000000000E+00 0.  1.
         11    1    3    3    0    0 -0.11081546138E+01  0.28957640801E+01 -0.15580557812E+01  0.34700135928E+01  0.51100000000E-03 0. -1.
        -11    1    3    3    0    0  0.17753918690E+01  0.28378680869E+01  0.69066688600E+00  0.34179719975E+01  0.51100000000E-03 0.  1.
         12    1    3    3    0    0  0.44690340733E+01  0.38994737862E+02 -0.58358423033E+00  0.39254329915E+02  0.00000000000E+00 0. -1.
</event>
<event>
 7    1  0.3986981E-008  0.4614232E+02  0.7816164E-02  0.1320468E+00
        -11   -1    0    0    0    0  0.00000000000E+00  0.00000000000E+00  0.45593999997E+02  0.45594000000E+02  0.51100000000E-03 0.  1.
         11   -1    0    0    0    0 -0.00000000000E+00 -0.00000000000E+00 -0.45593999997E+02  0.45594000000E+02  0.51100000000E-03 0. -1.
    9900012    2    1    2    0    0  0.10222092656E+02  0.25365413900E+02 -0.35794104136E+02  0.46142319947E+02  0.10000019932E+02 0.  0.
        -12    1    1    2    0    0 -0.10222092656E+02 -0.25365413900E+02  0.35794104136E+02  0.45045680053E+02  0.00000000000E+00 0.  1.
         11    1    3    3    0    0  0.27532914120E+01  0.17374951741E+02 -0.25194936445E+02  0.30728722465E+02  0.51100000000E-03 0. -1.
        -11    1    3    3    0    0  0.33354015318E+01  0.34257093009E+01 -0.30496181996E+01  0.56710280388E+01  0.51100000000E-03 0.  1.
         12    1    3    3    0    0  0.41333997124E+01  0.45647528575E+01 -0.75495494911E+01  0.97425694430E+01  0.00000000000E+00 0. -1.
</event>
<event>
 7    1  0.3986981E-008  0.4614231E+02  0.7816164E-02  0.1320468E+00
        -11   -1    0    0    0    0  0.00000000000E+00  0.00000000000E+00  0.45593999997E+02  0.45594000000E+02  0.51100000000E-03 0. -1.
         11   -1    0    0    0    0 -0.00000000000E+00 -0.00000000000E+00 -0.45593999997E+02  0.45594000000E+02  0.51100000000E-03 0.  1.
    9900012    2    1    2    0    0 -0.84046893516E+00  0.30203532849E+01  0.44936453178E+02  0.46142314899E+02  0.99999739046E+01 0.  0.
        -12    1    1    2    0    0  0.84046893516E+00 -0.30203532849E+01 -0.44936453178E+02  0.45045685101E+02  0.00000000000E+00 0.  1.
         11    1    3    3    0    0 -0.35307500405E+01  0.46509026083E+01  0.23698168285E+02  0.24406971776E+02  0.51100000000E-03 0. -1.
        -11    1    3    3    0    0 -0.68691723408E+00 -0.46523905631E+00  0.19525794194E+01  0.21215252335E+01  0.51100000000E-03 0.  1.
        -12    1    3    3    0    0  0.33771983394E+01 -0.11653102671E+01  0.19285705473E+02  0.19613817890E+02  0.00000000000E+00 0.  1.
</event>
<event>
 7    1  0.3986981E-008  0.4614232E+02  0.7816164E-02  0.1320468E+00
        -11   -1    0    0    0    0  0.00000000000E+00  0.00000000000E+00  0.45593999997E+02  0.45594000000E+02  0.51100000000E-03 0.  1.
         11   -1    0    0    0    0 -0.00000000000E+00 -0.00000000000E+00 -0.45593999997E+02  0.45594000000E+02  0.51100000000E-03 0. -1.
    9900012    2    1    2    0    0 -0.24990884086E+02  0.22065075281E+02 -0.30293590235E+02  0.46142318255E+02  0.10000004499E+02 0.  0.
        -12    1    1    2    0    0  0.24990884086E+02 -0.22065075281E+02  0.30293590235E+02  0.45045681745E+02  0.00000000000E+00 0.  1.
         11    1    3    3    0    0 -0.19519603676E+02  0.16827954312E+02 -0.21907484177E+02  0.33825032701E+02  0.51100000000E-03 0. -1.
        -11    1    3    3    0    0 -0.11651117004E+00 -0.45932039773E+00  0.35341957936E+00  0.59114781630E+00  0.51100000000E-03 0.  1.
        -12    1    3    3    0    0 -0.53547692401E+01  0.56964413673E+01 -0.87395256379E+01  0.11726137738E+02  0.00000000000E+00 0.  1.
</event>
<event>
 7    1  0.3986981E-008  0.4614232E+02  0.7816164E-02  0.1320468E+00
        -11   -1    0    0    0    0  0.00000000000E+00  0.00000000000E+00  0.45593999997E+02  0.45594000000E+02  0.51100000000E-03 0.  1.
         11   -1    0    0    0    0 -0.00000000000E+00 -0.00000000000E+00 -0.45593999997E+02  0.45594000000E+02  0.51100000000E-03 0. -1.
    9900012    2    1    2    0    0 -0.44109478451E+02  0.43497548221E+01  0.80341099863E+01  0.46142318970E+02  0.10000011022E+02 0.  0.
        -12    1    1    2    0    0  0.44109478451E+02 -0.43497548221E+01 -0.80341099863E+01  0.45045681030E+02  0.00000000000E+00 0.  1.
         11    1    3    3    0    0 -0.17935240163E+02  0.10506669596E+01  0.20854075738E+01  0.18086615653E+02  0.51100000000E-03 0. -1.
        -11    1    3    3    0    0 -0.31133093925E+01 -0.15457172224E+01  0.24039777044E+01  0.42262330945E+01  0.51100000000E-03 0.  1.
        -12    1    3    3    0    0 -0.23060928895E+02  0.48448050850E+01  0.35447247081E+01  0.23829470222E+02  0.00000000000E+00 0.  1.
</event>
<event>
 7    1  0.3986981E-008  0.4614232E+02  0.7816164E-02  0.1320468E+00
        -11   -1    0    0    0    0  0.00000000000E+00  0.00000000000E+00  0.45593999997E+02  0.45594000000E+02  0.51100000000E-03 0. -1.
         11   -1    0    0    0    0 -0.00000000000E+00 -0.00000000000E+00 -0.45593999997E+02  0.45594000000E+02  0.51100000000E-03 0.  1.
    9900012    2    1    2    0    0  0.35132754310E+01 -0.60813950874E+01  0.44494797609E+02  0.46142317801E+02  0.10000000367E+02 0.  0.
        -12    1    1    2    0    0 -0.35132754310E+01  0.60813950874E+01 -0.44494797609E+02  0.45045682199E+02  0.00000000000E+00 0.  1.
         11    1    3    3    0    0  0.36629888323E+00 -0.10881087426E+01  0.11339058533E+02  0.11397034885E+02  0.51100000000E-03 0. -1.
        -11    1    3    3    0    0  0.26942685512E+01  0.11501648082E+01  0.20063288096E+02  0.20276032442E+02  0.51100000000E-03 0.  1.
        -12    1    3    3    0    0  0.45270799659E+00 -0.61434511530E+01  0.13092450981E+02  0.14469250474E+02  0.00000000000E+00 0.  1.
</event>
<event>
 7    1  0.3986981E-008  0.4614232E+02  0.7816164E-02  0.1320468E+00
        -11   -1    0    0    0    0  0.00000000000E+00  0.00000000000E+00  0.45593999997E+02  0.45594000000E+02  0.51100000000E-03 0.  1.
         11   -1    0    0    0    0 -0.00000000000E+00 -0.00000000000E+00 -0.45593999997E+02  0.45594000000E+02  0.51100000000E-03 0. -1.
    9900012    2    1    2    0    0 -0.34195836412E+02 -0.28058757856E+02  0.85126023526E+01  0.46142317420E+02  0.99999968864E+01 0.  0.
        -12    1    1    2    0    0  0.34195836412E+02  0.28058757856E+02 -0.85126023526E+01  0.45045682580E+02  0.00000000000E+00 0.  1.
         11    1    3    3    0    0 -0.90869606550E+01 -0.59220919267E+01 -0.88606775817E+00  0.10882515475E+02  0.51100000000E-03 0.  1.
        -11    1    3    3    0    0 -0.21190898148E+02 -0.18225622565E+02  0.54938443358E+01  0.28485255977E+02  0.51100000000E-03 0. -1.
        -12    1    3    3    0    0 -0.39179776089E+01 -0.39110433637E+01  0.39048257750E+01  0.67745459678E+01  0.00000000000E+00 0.  1.
</event>
<event>
 7    1  0.3986981E-008  0.4614232E+02  0.7816164E-02  0.1320468E+00
        -11   -1    0    0    0    0  0.00000000000E+00  0.00000000000E+00  0.45593999997E+02  0.45594000000E+02  0.51100000000E-03 0.  1.
         11   -1    0    0    0    0 -0.00000000000E+00 -0.00000000000E+00 -0.45593999997E+02  0.45594000000E+02  0.51100000000E-03 0. -1.
    9900012    2    1    2    0    0 -0.35787606652E+01 -0.43985832349E+02 -0.90306442359E+01  0.46142317514E+02  0.99999977447E+01 0.  0.
        -12    1    1    2    0    0  0.35787606652E+01  0.43985832349E+02  0.90306442359E+01  0.45045682486E+02  0.00000000000E+00 0.  1.
         11    1    3    3    0    0 -0.28346437776E+01 -0.14337820072E+02 -0.44490298477E+01  0.15277504921E+02  0.51100000000E-03 0. -1.
        -11    1    3    3    0    0 -0.38768582012E+01 -0.12851849346E+02 -0.15657445075E+01  0.13514866527E+02  0.51100000000E-03 0.  1.
         12    1    3    3    0    0  0.31327413136E+01 -0.16796162931E+02 -0.30158698807E+01  0.17349946066E+02  0.00000000000E+00 0. -1.
</event>
<event>
 7    1  0.3986981E-008  0.4614232E+02  0.7816164E-02  0.1320468E+00
        -11   -1    0    0    0    0  0.00000000000E+00  0.00000000000E+00  0.45593999997E+02  0.45594000000E+02  0.51100000000E-03 0. -1.
         11   -1    0    0    0    0 -0.00000000000E+00 -0.00000000000E+00 -0.45593999997E+02  0.45594000000E+02  0.51100000000E-03 0.  1.
    9900012    2    1    2    0    0  0.43306799213E+02 -0.74744916845E+01 -0.98877010651E+01  0.46142317450E+02  0.99999971670E+01 0.  0.
        -12    1    1    2    0    0 -0.43306799213E+02  0.74744916845E+01  0.98877010651E+01  0.45045682550E+02  0.00000000000E+00 0.  1.
         11    1    3    3    0    0  0.26791059013E+01 -0.89557974302E+00  0.59852108151E-01  0.28254652789E+01  0.51100000000E-03 0. -1.
        -11    1    3    3    0    0  0.75771644238E+01 -0.44390031413E+01 -0.40725809046E+01  0.96800870388E+01  0.51100000000E-03 0.  1.
         12    1    3    3    0    0  0.33050528888E+02 -0.21399088002E+01 -0.58749722687E+01  0.33636765133E+02  0.00000000000E+00 0. -1.
</event>
<event>
 7    1  0.3986981E-008  0.4614232E+02  0.7816164E-02  0.1320468E+00
        -11   -1    0    0    0    0  0.00000000000E+00  0.00000000000E+00  0.45593999997E+02  0.45594000000E+02  0.51100000000E-03 0. -1.
         11   -1    0    0    0    0 -0.00000000000E+00 -0.00000000000E+00 -0.45593999997E+02  0.45594000000E+02  0.51100000000E-03 0.  1.
    9900012    2    1    2    0    0 -0.33345399779E+02  0.28816380863E+02  0.93173996274E+01  0.46142318428E+02  0.10000006085E+02 0.  0.
        -12    1    1    2    0    0  0.33345399779E+02 -0.28816380863E+02 -0.93173996274E+01  0.45045681572E+02  0.00000000000E+00 0.  1.
         11    1    3    3    0    0 -0.16160927492E+02  0.85741351089E+01  0.21221735337E+01  0.18417247108E+02  0.51100000000E-03 0.  1.
        -11    1    3    3    0    0 -0.11825260901E+02  0.11386303182E+02  0.40846810217E+01  0.16916539683E+02  0.51100000000E-03 0. -1.
        -12    1    3    3    0    0 -0.53592113850E+01  0.88559425718E+01  0.31105450720E+01  0.10808531637E+02  0.00000000000E+00 0.  1.
</event>
<event>
 7    1  0.3986981E-008  0.4614232E+02  0.7816164E-02  0.1320468E+00
        -11   -1    0    0    0    0  0.00000000000E+00  0.00000000000E+00  0.45593999997E+02  0.45594000000E+02  0.51100000000E-03 0. -1.
         11   -1    0    0    0    0 -0.00000000000E+00 -0.00000000000E+00 -0.45593999997E+02  0.45594000000E+02  0.51100000000E-03 0.  1.
    9900012    2    1    2    0    0 -0.35325086756E+02  0.26434511740E+02  0.90812039917E+01  0.46142318396E+02  0.10000005788E+02 0.  0.
        -12    1    1    2    0    0  0.35325086756E+02 -0.26434511740E+02 -0.90812039917E+01  0.45045681604E+02  0.00000000000E+00 0.  1.
         11    1    3    3    0    0  0.35939879142E+00  0.12014233120E+01  0.58686739440E+00  0.13845573536E+01  0.51100000000E-03 0. -1.
        -11    1    3    3    0    0 -0.84943600298E+01  0.44520462591E+01  0.33081421185E+01  0.10144884068E+02  0.51100000000E-03 0.  1.
         12    1    3    3    0    0 -0.27190125518E+02  0.20781042169E+02  0.51861944788E+01  0.34612876975E+02  0.00000000000E+00 0. -1.
</event>
<event>
 7    1  0.3986981E-008  0.4614232E+02  0.7816164E-02  0.1320468E+00
        -11   -1    0    0    0    0  0.00000000000E+00  0.00000000000E+00  0.45593999997E+02  0.45594000000E+02  0.51100000000E-03 0. -1.
         11   -1    0    0    0    0 -0.00000000000E+00 -0.00000000000E+00 -0.45593999997E+02  0.45594000000E+02  0.51100000000E-03 0.  1.
    9900012    2    1    2    0    0  0.34598662455E+02  0.10233837396E+02  0.26968771818E+02  0.46142317356E+02  0.99999963035E+01 0.  0.
        -12    1    1    2    0    0 -0.34598662455E+02 -0.10233837396E+02 -0.26968771818E+02  0.45045682644E+02  0.00000000000E+00 0.  1.
         11    1    3    3    0    0  0.20494796611E+02  0.88876312167E+01  0.16156427404E+02  0.27569128087E+02  0.51100000000E-03 0. -1.
        -11    1    3    3    0    0  0.61909777783E+01  0.13825125908E+01  0.18292903158E+01  0.66019580607E+01  0.51100000000E-03 0.  1.
         12    1    3    3    0    0  0.79128880657E+01 -0.36306411922E-01  0.89830540986E+01  0.11971231208E+02  0.00000000000E+00 0. -1.
</event>
<event>
 7    1  0.3986981E-008  0.4614232E+02  0.7816164E-02  0.1320468E+00
        -11   -1    0    0    0    0  0.00000000000E+00  0.00000000000E+00  0.45593999997E+02  0.45594000000E+02  0.51100000000E-03 0.  1.
         11   -1    0    0    0    0 -0.00000000000E+00 -0.00000000000E+00 -0.45593999997E+02  0.45594000000E+02  0.51100000000E-03 0. -1.
    9900012    2    1    2    0    0 -0.43691520050E+02 -0.77537596869E+01 -0.77487976696E+01  0.46142316756E+02  0.99999908339E+01 0.  0.
        -12    1    1    2    0    0  0.43691520050E+02  0.77537596869E+01  0.77487976696E+01  0.45045683244E+02  0.00000000000E+00 0.  1.
         11    1    3    3    0    0 -0.90582765598E+01  0.15029184721E+01 -0.22166878070E+01  0.94458902842E+01  0.51100000000E-03 0. -1.
        -11    1    3    3    0    0 -0.11773820168E+02 -0.66314440468E+00 -0.78983461844E+00  0.11818901845E+02  0.51100000000E-03 0.  1.
         12    1    3    3    0    0 -0.22859423323E+02 -0.85935337543E+01 -0.47422752442E+01  0.24877524626E+02  0.00000000000E+00 0. -1.
</event>
<event>
 7    1  0.3986981E-008  0.4614231E+02  0.7816164E-02  0.1320468E+00
        -11   -1    0    0    0    0  0.00000000000E+00  0.00000000000E+00  0.45593999997E+02  0.45594000000E+02  0.51100000000E-03 0.  1.
         11   -1    0    0    0    0 -0.00000000000E+00 -0.00000000000E+00 -0.45593999997E+02  0.45594000000E+02  0.51100000000E-03 0. -1.
    9900012    2    1    2    0    0  0.11458935219E+02 -0.30475574132E+02 -0.31129508421E+02  0.46142310866E+02  0.99999371242E+01 0.  0.
        -12    1    1    2    0    0 -0.11458935219E+02  0.30475574132E+02  0.31129508421E+02  0.45045689134E+02  0.00000000000E+00 0.  1.
         11    1    3    3    0    0  0.65559786066E+01 -0.14919019425E+02 -0.16778876919E+02  0.23389927470E+02  0.51100000000E-03 0. -1.
        -11    1    3    3    0    0  0.50226071780E+01 -0.10132122503E+02 -0.60215183818E+01  0.12811915281E+02  0.51100000000E-03 0.  1.
        -12    1    3    3    0    0 -0.11965056606E+00 -0.54244322045E+01 -0.83291131197E+01  0.99404681157E+01  0.00000000000E+00 0.  1.
</event>
<event>
 7    1  0.3986981E-008  0.4614232E+02  0.7816164E-02  0.1320468E+00
        -11   -1    0    0    0    0  0.00000000000E+00  0.00000000000E+00  0.45593999997E+02  0.45594000000E+02  0.51100000000E-03 0.  1.
         11   -1    0    0    0    0 -0.00000000000E+00 -0.00000000000E+00 -0.45593999997E+02  0.45594000000E+02  0.51100000000E-03 0. -1.
    9900012    2    1    2    0    0  0.21687612256E+02 -0.26662521113E+02 -0.29118223390E+02  0.46142317734E+02  0.99999997491E+01 0.  0.
        -12    1    1    2    0    0 -0.21687612256E+02  0.26662521113E+02  0.29118223390E+02  0.45045682266E+02  0.00000000000E+00 0.  1.
         11    1    3    3    0    0  0.81245444817E+01 -0.77937477975E+01 -0.11381876389E+02  0.16009304737E+02  0.51100000000E-03 0. -1.
        -11    1    3    3    0    0  0.90941107003E+01 -0.64767053742E+01 -0.87793328728E+01  0.14203071776E+02  0.51100000000E-03 0.  1.
         12    1    3    3    0    0  0.44689570736E+01 -0.12392067941E+02 -0.89570141287E+01  0.15929941220E+02  0.00000000000E+00 0. -1.
</event>
<event>
 7    1  0.3986981E-008  0.4614232E+02  0.7816164E-02  0.1320468E+00
        -11   -1    0    0    0    0  0.00000000000E+00  0.00000000000E+00  0.45593999997E+02  0.45594000000E+02  0.51100000000E-03 0.  1.
         11   -1    0    0    0    0 -0.00000000000E+00 -0.00000000000E+00 -0.45593999997E+02  0.45594000000E+02  0.51100000000E-03 0. -1.
    9900012    2    1    2    0    0  0.24709375294E+02  0.21887959166E+02 -0.30650897102E+02  0.46142317887E+02  0.10000001148E+02 0.  0.
        -12    1    1    2    0    0 -0.24709375294E+02 -0.21887959166E+02  0.30650897102E+02  0.45045682113E+02  0.00000000000E+00 0.  1.
         11    1    3    3    0    0  0.12905142305E+02  0.92786033047E+01 -0.11032009780E+02  0.19347878883E+02  0.51100000000E-03 0.  1.
        -11    1    3    3    0    0  0.10670187986E+02  0.13197904209E+02 -0.18225751108E+02  0.24904127989E+02  0.51100000000E-03 0. -1.
         12    1    3    3    0    0  0.11340450020E+01 -0.58854834763E+00 -0.13931362144E+01  0.18903110156E+01  0.00000000000E+00 0. -1.
</event>
<event>
 7    1  0.3986981E-008  0.4614232E+02  0.7816164E-02  0.1320468E+00
        -11   -1    0    0    0    0  0.00000000000E+00  0.00000000000E+00  0.45593999997E+02  0.45594000000E+02  0.51100000000E-03 0. -1.
         11   -1    0    0    0    0 -0.00000000000E+00 -0.00000000000E+00 -0.45593999997E+02  0.45594000000E+02  0.51100000000E-03 0.  1.
    9900012    2    1    2    0    0  0.99660708857E+01 -0.18170004464E+01  0.43891793278E+02  0.46142316780E+02  0.99999910579E+01 0.  0.
        -12    1    1    2    0    0 -0.99660708857E+01  0.18170004464E+01 -0.43891793278E+02  0.45045683220E+02  0.00000000000E+00 0.  1.
         11    1    3    3    0    0  0.98943262572E+01 -0.14989644644E+01  0.43212824060E+02  0.44356428509E+02  0.51100000000E-03 0. -1.
        -11    1    3    3    0    0 -0.38612038874E+00 -0.35709469265E-01  0.10586789480E+01  0.11274597540E+01  0.51100000000E-03 0.  1.
         12    1    3    3    0    0  0.45786501719E+00 -0.28232651271E+00 -0.37970972986E+00  0.65842851753E+00  0.00000000000E+00 0. -1.
</event>
<event>
 7    1  0.3986981E-008  0.4614232E+02  0.7816164E-02  0.1320468E+00
        -11   -1    0    0    0    0  0.00000000000E+00  0.00000000000E+00  0.45593999997E+02  0.45594000000E+02  0.51100000000E-03 0. -1.
         11   -1    0    0    0    0 -0.00000000000E+00 -0.00000000000E+00 -0.45593999997E+02  0.45594000000E+02  0.51100000000E-03 0.  1.
    9900012    2    1    2    0    0  0.40562392113E+02  0.19586440004E+02  0.42096473362E+00  0.46142317662E+02  0.99999990979E+01 0.  0.
        -12    1    1    2    0    0 -0.40562392113E+02 -0.19586440004E+02 -0.42096473362E+00  0.45045682338E+02  0.00000000000E+00 0.  1.
         11    1    3    3    0    0  0.36693362035E+02  0.15625468549E+02  0.10253598858E+01  0.39894980235E+02  0.51100000000E-03 0. -1.
        -11    1    3    3    0    0  0.20351778909E+01  0.10539582004E+01 -0.14443958752E+01  0.27090693312E+01  0.51100000000E-03 0.  1.
         12    1    3    3    0    0  0.18338521880E+01  0.29070132539E+01  0.84000072302E+00  0.35382680962E+01  0.00000000000E+00 0. -1.
</event>
<event>
 7    1  0.3986981E-008  0.4614232E+02  0.7816164E-02  0.1320468E+00
        -11   -1    0    0    0    0  0.00000000000E+00  0.00000000000E+00  0.45593999997E+02  0.45594000000E+02  0.51100000000E-03 0.  1.
         11   -1    0    0    0    0 -0.00000000000E+00 -0.00000000000E+00 -0.45593999997E+02  0.45594000000E+02  0.51100000000E-03 0. -1.
    9900012    2    1    2    0    0 -0.23282320500E+02  0.27616284408E+01 -0.38463234332E+02  0.46142318356E+02  0.10000005425E+02 0.  0.
        -12    1    1    2    0    0  0.23282320500E+02 -0.27616284408E+01  0.38463234332E+02  0.45045681644E+02  0.00000000000E+00 0.  1.
         11    1    3    3    0    0 -0.93296542951E+00 -0.68199178521E+00 -0.33627651955E+01  0.35558019220E+01  0.51100000000E-03 0. -1.
        -11    1    3    3    0    0 -0.66459274657E+01  0.41905078135E+01 -0.77272426632E+01  0.11019935891E+02  0.51100000000E-03 0.  1.
        -12    1    3    3    0    0 -0.15703427605E+02 -0.74688758752E+00 -0.27373226473E+02  0.31566580543E+02  0.00000000000E+00 0.  1.
</event>
<event>
 7    1  0.3986981E-008  0.4614232E+02  0.7816164E-02  0.1320468E+00
        -11   -1    0    0    0    0  0.00000000000E+00  0.00000000000E+00  0.45593999997E+02  0.45594000000E+02  0.51100000000E-03 0. -1.
         11   -1    0    0    0    0 -0.00000000000E+00 -0.00000000000E+00 -0.45593999997E+02  0.45594000000E+02  0.51100000000E-03 0.  1.
    9900012    2    1    2    0    0  0.13456532200E+02 -0.41846016826E+02  0.98461234248E+01  0.46142317303E+02  0.99999958269E+01 0.  0.
        -12    1    1    2    0    0 -0.13456532200E+02  0.41846016826E+02 -0.98461234248E+01  0.45045682697E+02  0.00000000000E+00 0.  1.
         11    1    3    3    0    0  0.54795898417E+01 -0.76393439703E+01 -0.16023551526E+00  0.94027207132E+01  0.51100000000E-03 0. -1.
        -11    1    3    3    0    0  0.39495531751E+01 -0.13559900669E+02  0.59022938419E+01  0.15307088204E+02  0.51100000000E-03 0.  1.
         12    1    3    3    0    0  0.40273891836E+01 -0.20646772187E+02  0.41040650981E+01  0.21432508386E+02  0.00000000000E+00 0. -1.
</event>
<event>
 7    1  0.3986981E-008  0.4614232E+02  0.7816164E-02  0.1320468E+00
        -11   -1    0    0    0    0  0.00000000000E+00  0.00000000000E+00  0.45593999997E+02  0.45594000000E+02  0.51100000000E-03 0.  1.
         11   -1    0    0    0    0 -0.00000000000E+00 -0.00000000000E+00 -0.45593999997E+02  0.45594000000E+02  0.51100000000E-03 0. -1.
    9900012    2    1    2    0    0 -0.38291566849E+01  0.38276609261E+02 -0.23438262981E+02  0.46142318420E+02  0.10000006009E+02 0.  0.
        -12    1    1    2    0    0  0.38291566849E+01 -0.38276609261E+02  0.23438262981E+02  0.45045681580E+02  0.00000000000E+00 0.  1.
         11    1    3    3    0    0  0.42114143455E+00 -0.35764203842E+00  0.13910665414E+00  0.56975333074E+00  0.51100000000E-03 0. -1.
        -11    1    3    3    0    0 -0.57770564348E-01  0.18290565046E+01 -0.19668671518E+01  0.26865129423E+01  0.51100000000E-03 0.  1.
         12    1    3    3    0    0 -0.41925275552E+01  0.36805194795E+02 -0.21610502483E+02  0.42886052147E+02  0.00000000000E+00 0. -1.
</event>
<event>
 7    1  0.3986981E-008  0.4614232E+02  0.7816164E-02  0.1320468E+00
        -11   -1    0    0    0    0  0.00000000000E+00  0.00000000000E+00  0.45593999997E+02  0.45594000000E+02  0.51100000000E-03 0.  1.
         11   -1    0    0    0    0 -0.00000000000E+00 -0.00000000000E+00 -0.45593999997E+02  0.45594000000E+02  0.51100000000E-03 0. -1.
    9900012    2    1    2    0    0  0.16762373335E+02 -0.78501920542E+01 -0.41067150022E+02  0.46142317787E+02  0.10000000233E+02 0.  0.
        -12    1    1    2    0    0 -0.16762373335E+02  0.78501920542E+01  0.41067150022E+02  0.45045682213E+02  0.00000000000E+00 0.  1.
         11    1    3    3    0    0  0.11935405412E+02 -0.36219967597E+01 -0.21163226349E+02  0.24565319306E+02  0.51100000000E-03 0. -1.
        -11    1    3    3    0    0  0.52153553528E+01 -0.20945348664E+01 -0.10323956003E+02  0.11754619329E+02  0.51100000000E-03 0.  1.
         12    1    3    3    0    0 -0.38838742956E+00 -0.21336604282E+01 -0.95799676707E+01  0.98223791512E+01  0.00000000000E+00 0. -1.
</event>
<event>
 7    1  0.3986981E-008  0.4614232E+02  0.7816164E-02  0.1320468E+00
        -11   -1    0    0    0    0  0.00000000000E+00  0.00000000000E+00  0.45593999997E+02  0.45594000000E+02  0.51100000000E-03 0.  1.
         11   -1    0    0    0    0 -0.00000000000E+00 -0.00000000000E+00 -0.45593999997E+02  0.45594000000E+02  0.51100000000E-03 0. -1.
    9900012    2    1    2    0    0 -0.13483821753E+01  0.44188476668E+02 -0.86414044349E+01  0.46142317906E+02  0.10000001318E+02 0.  0.
        -12    1    1    2    0    0  0.13483821753E+01 -0.44188476668E+02  0.86414044349E+01  0.45045682094E+02  0.00000000000E+00 0.  1.
         11    1    3    3    0    0  0.35212084002E+00  0.28483487992E-01 -0.42801402891E+00  0.55497447250E+00  0.51100000000E-03 0. -1.
        -11    1    3    3    0    0  0.21821783883E+01  0.10553530962E+02 -0.93824740522E-02  0.10776780900E+02  0.51100000000E-03 0.  1.
         12    1    3    3    0    0 -0.38826814036E+01  0.33606462218E+02 -0.82040079320E+01  0.34810562533E+02  0.00000000000E+00 0. -1.
</event>
<event>
 7    1  0.3986981E-008  0.4614232E+02  0.7816164E-02  0.1320468E+00
        -11   -1    0    0    0    0  0.00000000000E+00  0.00000000000E+00  0.45593999997E+02  0.45594000000E+02  0.51100000000E-03 0. -1.
         11   -1    0    0    0    0 -0.00000000000E+00 -0.00000000000E+00 -0.45593999997E+02  0.45594000000E+02  0.51100000000E-03 0.  1.
    9900012    2    1    2    0    0  0.17794687224E+02  0.39229041368E+02  0.13173645257E+02  0.46142317528E+02  0.99999978709E+01 0.  0.
        -12    1    1    2    0    0 -0.17794687224E+02 -0.39229041368E+02 -0.13173645257E+02  0.45045682472E+02  0.00000000000E+00 0.  1.
         11    1    3    3    0    0  0.42629231767E+01  0.10769743220E+02  0.69848710305E+00  0.11603782467E+02  0.51100000000E-03 0. -1.
        -11    1    3    3    0    0  0.70940164598E+01  0.16741422221E+02  0.10575769774E+02  0.21034428780E+02  0.51100000000E-03 0.  1.
        -12    1    3    3    0    0  0.64377475877E+01  0.11717875927E+02  0.18993883796E+01  0.13504106281E+02  0.00000000000E+00 0.  1.
</event>
<event>
 7    1  0.3986981E-008  0.4614231E+02  0.7816164E-02  0.1320468E+00
        -11   -1    0    0    0    0  0.00000000000E+00  0.00000000000E+00  0.45593999997E+02  0.45594000000E+02  0.51100000000E-03 0.  1.
         11   -1    0    0    0    0 -0.00000000000E+00 -0.00000000000E+00 -0.45593999997E+02  0.45594000000E+02  0.51100000000E-03 0. -1.
    9900012    2    1    2    0    0  0.16870244113E+02  0.41767206400E+02 -0.95344926793E-01  0.46142314773E+02  0.99999727492E+01 0.  0.
        -12    1    1    2    0    0 -0.16870244113E+02 -0.41767206400E+02  0.95344926793E-01  0.45045685227E+02  0.00000000000E+00 0.  1.
         11    1    3    3    0    0  0.40886373322E+01  0.27129328420E+01 -0.13670865126E+00  0.49087319499E+01  0.51100000000E-03 0. -1.
        -11    1    3    3    0    0  0.21598603722E+01  0.55774716836E+01 -0.11557689620E+01  0.60917148131E+01  0.51100000000E-03 0.  1.
         12    1    3    3    0    0  0.10621746409E+02  0.33476801875E+02  0.11971326865E+01  0.35141868010E+02  0.00000000000E+00 0. -1.
</event>
<event>
 7    1  0.3986981E-008  0.4614232E+02  0.7816164E-02  0.1320468E+00
        -11   -1    0    0    0    0  0.00000000000E+00  0.00000000000E+00  0.45593999997E+02  0.45594000000E+02  0.51100000000E-03 0.  1.
         11   -1    0    0    0    0 -0.00000000000E+00 -0.00000000000E+00 -0.45593999997E+02  0.45594000000E+02  0.51100000000E-03 0. -1.
    9900012    2    1    2    0    0  0.35916707597E+02 -0.21641162698E+02 -0.16454898632E+02  0.46142317671E+02  0.99999991758E+01 0.  0.
        -12    1    1    2    0    0 -0.35916707597E+02  0.21641162698E+02  0.16454898632E+02  0.45045682329E+02  0.00000000000E+00 0.  1.
         11    1    3    3    0    0  0.73324015860E+01 -0.22420309273E+01  0.15072952898E+00  0.76689983277E+01  0.51100000000E-03 0.  1.
        -11    1    3    3    0    0  0.17066036302E+02 -0.10078986459E+02 -0.83032283002E+01  0.21489047526E+02  0.51100000000E-03 0. -1.
        -12    1    3    3    0    0  0.11518269709E+02 -0.93201453117E+01 -0.83023998604E+01  0.16984271817E+02  0.00000000000E+00 0.  1.
</event>
<event>
 7    1  0.3986981E-008  0.4614232E+02  0.7816164E-02  0.1320468E+00
        -11   -1    0    0    0    0  0.00000000000E+00  0.00000000000E+00  0.45593999997E+02  0.45594000000E+02  0.51100000000E-03 0. -1.
         11   -1    0    0    0    0 -0.00000000000E+00 -0.00000000000E+00 -0.45593999997E+02  0.45594000000E+02  0.51100000000E-03 0.  1.
    9900012    2    1    2    0    0  0.32864361499E+01 -0.10888567359E+02  0.43586143686E+02  0.46142317819E+02  0.10000000527E+02 0.  0.
        -12    1    1    2    0    0 -0.32864361499E+01  0.10888567359E+02 -0.43586143686E+02  0.45045682181E+02  0.00000000000E+00 0.  1.
         11    1    3    3    0    0  0.24745661286E+01 -0.10948683108E+01  0.84750435813E+01  0.88965486628E+01  0.51100000000E-03 0. -1.
        -11    1    3    3    0    0 -0.31902226449E+01 -0.26037372332E+01  0.97776043262E+01  0.10609359770E+02  0.51100000000E-03 0.  1.
        -12    1    3    3    0    0  0.40020926662E+01 -0.71899618153E+01  0.25333495779E+02  0.26636409386E+02  0.00000000000E+00 0.  1.
</event>
<event>
 7    1  0.3986981E-008  0.4614232E+02  0.7816164E-02  0.1320468E+00
        -11   -1    0    0    0    0  0.00000000000E+00  0.00000000000E+00  0.45593999997E+02  0.45594000000E+02  0.51100000000E-03 0.  1.
         11   -1    0    0    0    0 -0.00000000000E+00 -0.00000000000E+00 -0.45593999997E+02  0.45594000000E+02  0.51100000000E-03 0. -1.
    9900012    2    1    2    0    0 -0.37838863890E+02 -0.24316072497E+02 -0.24622048591E+01  0.46142318132E+02  0.10000003384E+02 0.  0.
        -12    1    1    2    0    0  0.37838863890E+02  0.24316072497E+02  0.24622048591E+01  0.45045681868E+02  0.00000000000E+00 0.  1.
         11    1    3    3    0    0 -0.31699881127E+02 -0.21856219253E+02 -0.27227206876E+01  0.38600388492E+02  0.51100000000E-03 0. -1.
        -11    1    3    3    0    0 -0.13614827240E+01 -0.19715061717E+01  0.11503758436E+01  0.26577879215E+01  0.51100000000E-03 0.  1.
        -12    1    3    3    0    0 -0.47775000390E+01 -0.48834707205E+00 -0.88986001515E+00  0.48841417191E+01  0.00000000000E+00 0.  1.
</event>
<event>
 7    1  0.3986981E-008  0.4614232E+02  0.7816164E-02  0.1320468E+00
        -11   -1    0    0    0    0  0.00000000000E+00  0.00000000000E+00  0.45593999997E+02  0.45594000000E+02  0.51100000000E-03 0.  1.
         11   -1    0    0    0    0 -0.00000000000E+00 -0.00000000000E+00 -0.45593999997E+02  0.45594000000E+02  0.51100000000E-03 0. -1.
    9900012    2    1    2    0    0 -0.26437611528E+02 -0.35874937803E+02 -0.65692515483E+01  0.46142317281E+02  0.99999956211E+01 0.  0.
        -12    1    1    2    0    0  0.26437611528E+02  0.35874937803E+02  0.65692515483E+01  0.45045682719E+02  0.00000000000E+00 0.  1.
         11    1    3    3    0    0 -0.79930578288E+01 -0.10552284880E+02 -0.81818384275E+00  0.13263073350E+02  0.51100000000E-03 0. -1.
        -11    1    3    3    0    0 -0.19605828051E+01  0.20516368011E+00 -0.12314878637E+00  0.19751311238E+01  0.51100000000E-03 0.  1.
        -12    1    3    3    0    0 -0.16483970894E+02 -0.25527816604E+02 -0.56279189192E+01  0.30904112807E+02  0.00000000000E+00 0.  1.
</event>
<event>
 7    1  0.3986981E-008  0.4614232E+02  0.7816164E-02  0.1320468E+00
        -11   -1    0    0    0    0  0.00000000000E+00  0.00000000000E+00  0.45593999997E+02  0.45594000000E+02  0.51100000000E-03 0.  1.
         11   -1    0    0    0    0 -0.00000000000E+00 -0.00000000000E+00 -0.45593999997E+02  0.45594000000E+02  0.51100000000E-03 0. -1.
    9900012    2    1    2    0    0  0.18777928467E+02 -0.31747095363E+02 -0.25857782086E+02  0.46142317012E+02  0.99999931654E+01 0.  0.
        -12    1    1    2    0    0 -0.18777928467E+02  0.31747095363E+02  0.25857782086E+02  0.45045682988E+02  0.00000000000E+00 0.  1.
         11    1    3    3    0    0  0.18981891388E+02 -0.27546910655E+02 -0.23533122331E+02  0.40901739990E+02  0.51100000000E-03 0. -1.
        -11    1    3    3    0    0 -0.23901136612E+00 -0.85551305486E+00 -0.15819206954E+01  0.18142498085E+01  0.51100000000E-03 0.  1.
         12    1    3    3    0    0  0.35048444814E-01 -0.33446716529E+01 -0.74273905942E+00  0.34263272129E+01  0.00000000000E+00 0. -1.
</event>
<event>
 7    1  0.3986981E-008  0.4614232E+02  0.7816164E-02  0.1320468E+00
        -11   -1    0    0    0    0  0.00000000000E+00  0.00000000000E+00  0.45593999997E+02  0.45594000000E+02  0.51100000000E-03 0.  1.
         11   -1    0    0    0    0 -0.00000000000E+00 -0.00000000000E+00 -0.45593999997E+02  0.45594000000E+02  0.51100000000E-03 0. -1.
    9900012    2    1    2    0    0 -0.90502056144E+01 -0.17494775984E+01 -0.44092477008E+02  0.46142318495E+02  0.10000006693E+02 0.  0.
        -12    1    1    2    0    0  0.90502056144E+01  0.17494775984E+01  0.44092477008E+02  0.45045681505E+02  0.00000000000E+00 0.  1.
         11    1    3    3    0    0 -0.53222570676E+01 -0.38465951468E+01 -0.21241504351E+02  0.22233403290E+02  0.51100000000E-03 0. -1.
        -11    1    3    3    0    0 -0.47389002334E+01  0.25640301951E+00 -0.13068004565E+02  0.13903081008E+02  0.51100000000E-03 0.  1.
        -12    1    3    3    0    0  0.10109516867E+01  0.18407145289E+01 -0.97829680917E+01  0.10005834197E+02  0.00000000000E+00 0.  1.
</event>
<event>
 7    1  0.3986981E-008  0.4614232E+02  0.7816164E-02  0.1320468E+00
        -11   -1    0    0    0    0  0.00000000000E+00  0.00000000000E+00  0.45593999997E+02  0.45594000000E+02  0.51100000000E-03 0. -1.
         11   -1    0    0    0    0 -0.00000000000E+00 -0.00000000000E+00 -0.45593999997E+02  0.45594000000E+02  0.51100000000E-03 0.  1.
    9900012    2    1    2    0    0 -0.44684281473E+02  0.52707866007E+01  0.21557629071E+01  0.46142317456E+02  0.99999972200E+01 0.  0.
        -12    1    1    2    0    0  0.44684281473E+02 -0.52707866007E+01 -0.21557629071E+01  0.45045682544E+02  0.00000000000E+00 0.  1.
         11    1    3    3    0    0  0.17329293701E-01 -0.66903836265E-01  0.15821193541E+00  0.17264908153E+00  0.51100000000E-03 0. -1.
        -11    1    3    3    0    0 -0.44102553692E+01  0.25477094029E+01 -0.18040456140E+01  0.54033097692E+01  0.51100000000E-03 0.  1.
         12    1    3    3    0    0 -0.40291355397E+02  0.27899810341E+01  0.38015965857E+01  0.40566358606E+02  0.00000000000E+00 0. -1.
</event>
<event>
 7    1  0.3986981E-008  0.4614232E+02  0.7816164E-02  0.1320468E+00
        -11   -1    0    0    0    0  0.00000000000E+00  0.00000000000E+00  0.45593999997E+02  0.45594000000E+02  0.51100000000E-03 0.  1.
         11   -1    0    0    0    0 -0.00000000000E+00 -0.00000000000E+00 -0.45593999997E+02  0.45594000000E+02  0.51100000000E-03 0. -1.
    9900012    2    1    2    0    0  0.21917349990E+02  0.29101973167E+02 -0.26491849986E+02  0.46142321090E+02  0.10000030354E+02 0.  0.
        -12    1    1    2    0    0 -0.21917349990E+02 -0.29101973167E+02  0.26491849986E+02  0.45045678910E+02  0.00000000000E+00 0.  1.
         11    1    3    3    0    0  0.13012705286E+02  0.11933897278E+02 -0.12895960029E+02  0.21864450335E+02  0.51100000000E-03 0. -1.
        -11    1    3    3    0    0  0.46981870827E+01  0.55733359463E+01 -0.25558156168E+01  0.77244565610E+01  0.51100000000E-03 0.  1.
         12    1    3    3    0    0  0.42064576218E+01  0.11594739943E+02 -0.11040074339E+02  0.16553414194E+02  0.00000000000E+00 0. -1.
</event>
<event>
 7    1  0.3986981E-008  0.4614232E+02  0.7816164E-02  0.1320468E+00
        -11   -1    0    0    0    0  0.00000000000E+00  0.00000000000E+00  0.45593999997E+02  0.45594000000E+02  0.51100000000E-03 0.  1.
         11   -1    0    0    0    0 -0.00000000000E+00 -0.00000000000E+00 -0.45593999997E+02  0.45594000000E+02  0.51100000000E-03 0. -1.
    9900012    2    1    2    0    0 -0.86757471309E+01 -0.77018232813E+01 -0.43526162800E+02  0.46142317429E+02  0.99999969750E+01 0.  0.
        -12    1    1    2    0    0  0.86757471309E+01  0.77018232813E+01  0.43526162800E+02  0.45045682571E+02  0.00000000000E+00 0.  1.
         11    1    3    3    0    0 -0.66619325778E+01 -0.78725227984E+01 -0.24475293896E+02  0.26559329292E+02  0.51100000000E-03 0. -1.
        -11    1    3    3    0    0 -0.20875019007E+01  0.42746437530E+00 -0.40205711045E+01  0.45503167192E+01  0.51100000000E-03 0.  1.
        -12    1    3    3    0    0  0.73687347648E-01 -0.25676485816E+00 -0.15030297800E+02  0.15032671418E+02  0.00000000000E+00 0.  1.
</event>
<event>
 7    1  0.3986981E-008  0.4614232E+02  0.7816164E-02  0.1320468E+00
        -11   -1    0    0    0    0  0.00000000000E+00  0.00000000000E+00  0.45593999997E+02  0.45594000000E+02  0.51100000000E-03 0.  1.
         11   -1    0    0    0    0 -0.00000000000E+00 -0.00000000000E+00 -0.45593999997E+02  0.45594000000E+02  0.51100000000E-03 0. -1.
    9900012    2    1    2    0    0  0.22599124573E+02 -0.21403917605E+02 -0.32561716849E+02  0.46142317361E+02  0.99999963511E+01 0.  0.
        -12    1    1    2    0    0 -0.22599124573E+02  0.21403917605E+02  0.32561716849E+02  0.45045682639E+02  0.00000000000E+00 0.  1.
         11    1    3    3    0    0  0.13037354755E+02 -0.15182786435E+02 -0.19106853931E+02  0.27668781873E+02  0.51100000000E-03 0. -1.
        -11    1    3    3    0    0  0.94996682532E+01 -0.66510271603E+01 -0.11010787290E+02  0.15991163067E+02  0.51100000000E-03 0.  1.
        -12    1    3    3    0    0  0.62101564801E-01  0.42989599028E+00 -0.24440756277E+01  0.24823724218E+01  0.00000000000E+00 0.  1.
</event>
<event>
 7    1  0.4255552E-008  0.4614232E+02  0.7816164E-02  0.1320468E+00
        -11   -1    0    0    0    0  0.00000000000E+00  0.00000000000E+00  0.45593999997E+02  0.45594000000E+02  0.51100000000E-03 0.  1.
         11   -1    0    0    0    0 -0.00000000000E+00 -0.00000000000E+00 -0.45593999997E+02  0.45594000000E+02  0.51100000000E-03 0. -1.
    9900012    2    1    2    0    0  0.30712325335E+02 -0.46910010148E+01 -0.32616880427E+02  0.46142319776E+02  0.10000018374E+02 0.  0.
        -12    1    1    2    0    0 -0.30712325335E+02  0.46910010148E+01  0.32616880427E+02  0.45045680224E+02  0.00000000000E+00 0.  1.
         11    1    3    3    0    0  0.14772824329E+02 -0.31697038043E+01 -0.15629868749E+02  0.21738816855E+02  0.51100000000E-03 0. -1.
        -11    1    3    3    0    0  0.48353232760E+01 -0.91268141878E+00 -0.11523518549E+01  0.50538355350E+01  0.51100000000E-03 0.  1.
        -12    1    3    3    0    0  0.11104177730E+02 -0.60861579178E+00 -0.15834659823E+02  0.19349667386E+02  0.00000000000E+00 0.  1.
</event>
<event>
 7    1  0.3986981E-008  0.4614232E+02  0.7816164E-02  0.1320468E+00
        -11   -1    0    0    0    0  0.00000000000E+00  0.00000000000E+00  0.45593999997E+02  0.45594000000E+02  0.51100000000E-03 0. -1.
         11   -1    0    0    0    0 -0.00000000000E+00 -0.00000000000E+00 -0.45593999997E+02  0.45594000000E+02  0.51100000000E-03 0.  1.
    9900012    2    1    2    0    0 -0.23953236856E+02  0.81115090110E+01  0.37276794533E+02  0.46142317133E+02  0.99999942723E+01 0.  0.
        -12    1    1    2    0    0  0.23953236856E+02 -0.81115090110E+01 -0.37276794533E+02  0.45045682867E+02  0.00000000000E+00 0.  1.
         11    1    3    3    0    0 -0.66488210557E+01  0.35361689742E+00  0.13011016999E+02  0.14615691224E+02  0.51100000000E-03 0. -1.
        -11    1    3    3    0    0 -0.55619786813E+01  0.78311821386E+00  0.11652419158E+02  0.12935522931E+02  0.51100000000E-03 0.  1.
         12    1    3    3    0    0 -0.11742437119E+02  0.69747738998E+01  0.12613358375E+02  0.18591102978E+02  0.00000000000E+00 0. -1.
</event>
<event>
 7    1  0.3986981E-008  0.4614232E+02  0.7816164E-02  0.1320468E+00
        -11   -1    0    0    0    0  0.00000000000E+00  0.00000000000E+00  0.45593999997E+02  0.45594000000E+02  0.51100000000E-03 0.  1.
         11   -1    0    0    0    0 -0.00000000000E+00 -0.00000000000E+00 -0.45593999997E+02  0.45594000000E+02  0.51100000000E-03 0. -1.
    9900012    2    1    2    0    0  0.13198158179E+02  0.36460613733E+02 -0.22924777927E+02  0.46142321227E+02  0.10000031606E+02 0.  0.
        -12    1    1    2    0    0 -0.13198158179E+02 -0.36460613733E+02  0.22924777927E+02  0.45045678773E+02  0.00000000000E+00 0.  1.
         11    1    3    3    0    0 -0.72452195002E+00  0.50002577024E+01 -0.38445314973E+01  0.63488527973E+01  0.51100000000E-03 0. -1.
        -11    1    3    3    0    0  0.72635184961E+01  0.19422442221E+02 -0.14464949922E+02  0.25282894203E+02  0.51100000000E-03 0.  1.
         12    1    3    3    0    0  0.66591616333E+01  0.12037913809E+02 -0.46152965077E+01  0.14510574227E+02  0.00000000000E+00 0. -1.
</event>
<event>
 7    1  0.3986981E-008  0.4614232E+02  0.7816164E-02  0.1320468E+00
        -11   -1    0    0    0    0  0.00000000000E+00  0.00000000000E+00  0.45593999997E+02  0.45594000000E+02  0.51100000000E-03 0. -1.
         11   -1    0    0    0    0 -0.00000000000E+00 -0.00000000000E+00 -0.45593999997E+02  0.45594000000E+02  0.51100000000E-03 0.  1.
    9900012    2    1    2    0    0  0.42979980979E+02  0.12872907765E+02  0.40153341276E+01  0.46142318437E+02  0.10000006164E+02 0.  0.
        -12    1    1    2    0    0 -0.42979980979E+02 -0.12872907765E+02 -0.40153341276E+01  0.45045681563E+02  0.00000000000E+00 0.  1.
         11    1    3    3    0    0  0.55732163151E+01  0.71354317809E+00 -0.13882867743E+01  0.57876786703E+01  0.51100000000E-03 0. -1.
        -11    1    3    3    0    0  0.26526128046E+02  0.11797116962E+02  0.28364051071E+01  0.29169378326E+02  0.51100000000E-03 0.  1.
         12    1    3    3    0    0  0.10880636618E+02  0.36224762415E+00  0.25672157949E+01  0.11185261440E+02  0.00000000000E+00 0. -1.
</event>
<event>
 7    1  0.3986981E-008  0.4614232E+02  0.7816164E-02  0.1320468E+00
        -11   -1    0    0    0    0  0.00000000000E+00  0.00000000000E+00  0.45593999997E+02  0.45594000000E+02  0.51100000000E-03 0. -1.
         11   -1    0    0    0    0 -0.00000000000E+00 -0.00000000000E+00 -0.45593999997E+02  0.45594000000E+02  0.51100000000E-03 0.  1.
    9900012    2    1    2    0    0  0.40990927494E+02  0.79314074406E+01  0.16910059001E+02  0.46142318118E+02  0.10000003254E+02 0.  0.
        -12    1    1    2    0    0 -0.40990927494E+02 -0.79314074406E+01 -0.16910059001E+02  0.45045681882E+02  0.00000000000E+00 0.  1.
         11    1    3    3    0    0  0.12386809710E+02  0.32802111076E+01  0.93439560017E+01  0.15858825736E+02  0.51100000000E-03 0. -1.
        -11    1    3    3    0    0  0.70916947967E+01  0.39739773832E+00  0.37261694175E+01  0.80208726982E+01  0.51100000000E-03 0.  1.
        -12    1    3    3    0    0  0.21512422988E+02  0.42537985947E+01  0.38399335822E+01  0.22262619684E+02  0.00000000000E+00 0.  1.
</event>
<event>
 7    1  0.3986981E-008  0.4614232E+02  0.7816164E-02  0.1320468E+00
        -11   -1    0    0    0    0  0.00000000000E+00  0.00000000000E+00  0.45593999997E+02  0.45594000000E+02  0.51100000000E-03 0.  1.
         11   -1    0    0    0    0 -0.00000000000E+00 -0.00000000000E+00 -0.45593999997E+02  0.45594000000E+02  0.51100000000E-03 0. -1.
    9900012    2    1    2    0    0 -0.39199156264E+02  0.81807757634E+01 -0.20630413451E+02  0.46142324258E+02  0.10000059243E+02 0.  0.
        -12    1    1    2    0    0  0.39199156264E+02 -0.81807757634E+01  0.20630413451E+02  0.45045675742E+02  0.00000000000E+00 0.  1.
         11    1    3    3    0    0 -0.30179550931E+01  0.83989896812E+00 -0.14619443924E+01  0.34569878346E+01  0.51100000000E-03 0. -1.
        -11    1    3    3    0    0 -0.11245079234E+02  0.49099370915E+01 -0.10574286068E+02  0.16197988003E+02  0.51100000000E-03 0.  1.
        -12    1    3    3    0    0 -0.24936121937E+02  0.24309397037E+01 -0.85941829910E+01  0.26487348421E+02  0.00000000000E+00 0.  1.
</event>
<event>
 7    1  0.3986981E-008  0.4614232E+02  0.7816164E-02  0.1320468E+00
        -11   -1    0    0    0    0  0.00000000000E+00  0.00000000000E+00  0.45593999997E+02  0.45594000000E+02  0.51100000000E-03 0.  1.
         11   -1    0    0    0    0 -0.00000000000E+00 -0.00000000000E+00 -0.45593999997E+02  0.45594000000E+02  0.51100000000E-03 0. -1.
    9900012    2    1    2    0    0 -0.11466797807E+02  0.31418409872E+02 -0.30174650247E+02  0.46142318205E+02  0.10000004049E+02 0.  0.
        -12    1    1    2    0    0  0.11466797807E+02 -0.31418409872E+02  0.30174650247E+02  0.45045681795E+02  0.00000000000E+00 0.  1.
         11    1    3    3    0    0 -0.63580734373E+01  0.15741098325E+02 -0.15385856857E+02  0.22911391617E+02  0.51100000000E-03 0. -1.
        -11    1    3    3    0    0 -0.23520100257E+01  0.84007729074E+01 -0.32414841463E+01  0.93065652276E+01  0.51100000000E-03 0.  1.
        -12    1    3    3    0    0 -0.27567143444E+01  0.72765386391E+01 -0.11547309244E+02  0.13924361361E+02  0.00000000000E+00 0.  1.
</event>
<event>
 7    1  0.3986981E-008  0.4614232E+02  0.7816164E-02  0.1320468E+00
        -11   -1    0    0    0    0  0.00000000000E+00  0.00000000000E+00  0.45593999997E+02  0.45594000000E+02  0.51100000000E-03 0.  1.
         11   -1    0    0    0    0 -0.00000000000E+00 -0.00000000000E+00 -0.45593999997E+02  0.45594000000E+02  0.51100000000E-03 0. -1.
    9900012    2    1    2    0    0  0.14806383329E+02 -0.22549475525E+01 -0.42482934788E+02  0.46142317366E+02  0.99999963959E+01 0.  0.
        -12    1    1    2    0    0 -0.14806383329E+02  0.22549475525E+01  0.42482934788E+02  0.45045682634E+02  0.00000000000E+00 0.  1.
         11    1    3    3    0    0  0.12045919976E+02 -0.55836756887E+01 -0.29294623514E+02  0.32162969225E+02  0.51100000000E-03 0. -1.
        -11    1    3    3    0    0  0.14545259561E-01  0.90963381856E+00 -0.36888238039E+01  0.37993508084E+01  0.51100000000E-03 0.  1.
         12    1    3    3    0    0  0.27459180935E+01  0.24190943177E+01 -0.94994874704E+01  0.10179997333E+02  0.00000000000E+00 0. -1.
</event>
<event>
 7    1  0.3986981E-008  0.4614232E+02  0.7816164E-02  0.1320468E+00
        -11   -1    0    0    0    0  0.00000000000E+00  0.00000000000E+00  0.45593999997E+02  0.45594000000E+02  0.51100000000E-03 0.  1.
         11   -1    0    0    0    0 -0.00000000000E+00 -0.00000000000E+00 -0.45593999997E+02  0.45594000000E+02  0.51100000000E-03 0. -1.
    9900012    2    1    2    0    0 -0.10331012656E+02 -0.69406573510E+01 -0.43292156713E+02  0.46142318966E+02  0.10000010986E+02 0.  0.
        -12    1    1    2    0    0  0.10331012656E+02  0.69406573510E+01  0.43292156713E+02  0.45045681034E+02  0.00000000000E+00 0.  1.
         11    1    3    3    0    0 -0.74097925986E+01 -0.37637510454E+01 -0.36198417521E+02  0.37140224549E+02  0.51100000000E-03 0. -1.
        -11    1    3    3    0    0 -0.22206109042E+01  0.10066776171E-01 -0.35276436701E+01  0.41683910868E+01  0.51100000000E-03 0.  1.
         12    1    3    3    0    0 -0.70060915353E+00 -0.31869730818E+01 -0.35660955219E+01  0.48337033299E+01  0.00000000000E+00 0. -1.
</event>
<event>
 7    1  0.3986981E-008  0.4614232E+02  0.7816164E-02  0.1320468E+00
        -11   -1    0    0    0    0  0.00000000000E+00  0.00000000000E+00  0.45593999997E+02  0.45594000000E+02  0.51100000000E-03 0.  1.
         11   -1    0    0    0    0 -0.00000000000E+00 -0.00000000000E+00 -0.45593999997E+02  0.45594000000E+02  0.51100000000E-03 0. -1.
    9900012    2    1    2    0    0  0.24649652654E+02  0.27829644658E+02 -0.25436568051E+02  0.46142317722E+02  0.99999996390E+01 0.  0.
        -12    1    1    2    0    0 -0.24649652654E+02 -0.27829644658E+02  0.25436568051E+02  0.45045682278E+02  0.00000000000E+00 0.  1.
         11    1    3    3    0    0  0.10146970576E+02  0.12353165209E+02 -0.78851199965E+01  0.17825173776E+02  0.51100000000E-03 0. -1.
        -11    1    3    3    0    0  0.42498016318E+01  0.64610637857E+01 -0.28189879045E+01  0.82312120748E+01  0.51100000000E-03 0.  1.
         12    1    3    3    0    0  0.10252880446E+02  0.90154156628E+01 -0.14732460150E+02  0.20085931870E+02  0.00000000000E+00 0. -1.
</event>
<event>
 7    1  0.3986981E-008  0.4614232E+02  0.7816164E-02  0.1320468E+00
        -11   -1    0    0    0    0  0.00000000000E+00  0.00000000000E+00  0.45593999997E+02  0.45594000000E+02  0.51100000000E-03 0. -1.
         11   -1    0    0    0    0 -0.00000000000E+00 -0.00000000000E+00 -0.45593999997E+02  0.45594000000E+02  0.51100000000E-03 0.  1.
    9900012    2    1    2    0    0 -0.23935311807E+02 -0.32340902969E+02 -0.20255377517E+02  0.46142317915E+02  0.10000001399E+02 0.  0.
        -12    1    1    2    0    0  0.23935311807E+02  0.32340902969E+02  0.20255377517E+02  0.45045682085E+02  0.00000000000E+00 0.  1.
         11    1    3    3    0    0 -0.28721415504E+01 -0.30488989217E+01 -0.27965624628E+01  0.50364415603E+01  0.51100000000E-03 0. -1.
        -11    1    3    3    0    0 -0.38029362150E+01 -0.17882548027E+01 -0.44645801771E+01  0.61312849806E+01  0.51100000000E-03 0.  1.
         12    1    3    3    0    0 -0.17260234042E+02 -0.27503749245E+02 -0.12994234878E+02  0.34974591374E+02  0.00000000000E+00 0. -1.
</event>
<event>
 7    1  0.3986981E-008  0.4614232E+02  0.7816164E-02  0.1320468E+00
        -11   -1    0    0    0    0  0.00000000000E+00  0.00000000000E+00  0.45593999997E+02  0.45594000000E+02  0.51100000000E-03 0. -1.
         11   -1    0    0    0    0 -0.00000000000E+00 -0.00000000000E+00 -0.45593999997E+02  0.45594000000E+02  0.51100000000E-03 0.  1.
    9900012    2    1    2    0    0  0.14971739886E+02  0.13086747652E+02  0.40419023808E+02  0.46142318243E+02  0.10000004394E+02 0.  0.
        -12    1    1    2    0    0 -0.14971739886E+02 -0.13086747652E+02 -0.40419023808E+02  0.45045681757E+02  0.00000000000E+00 0.  1.
         11    1    3    3    0    0  0.11388877035E+01  0.68321201149E+00  0.18415962680E+01  0.22705331817E+01  0.51100000000E-03 0. -1.
        -11    1    3    3    0    0  0.81836953300E+01  0.52106031631E+01  0.10289490222E+02  0.14142024744E+02  0.51100000000E-03 0.  1.
         12    1    3    3    0    0  0.56491568525E+01  0.71929324777E+01  0.28287937318E+02  0.29729760317E+02  0.00000000000E+00 0. -1.
</event>
<event>
 7    1  0.3986981E-008  0.4614232E+02  0.7816164E-02  0.1320468E+00
        -11   -1    0    0    0    0  0.00000000000E+00  0.00000000000E+00  0.45593999997E+02  0.45594000000E+02  0.51100000000E-03 0. -1.
         11   -1    0    0    0    0 -0.00000000000E+00 -0.00000000000E+00 -0.45593999997E+02  0.45594000000E+02  0.51100000000E-03 0.  1.
    9900012    2    1    2    0    0 -0.44269574522E+01  0.39810726505E+02  0.20606347730E+02  0.46142318033E+02  0.10000002479E+02 0.  0.
        -12    1    1    2    0    0  0.44269574522E+01 -0.39810726505E+02 -0.20606347730E+02  0.45045681967E+02  0.00000000000E+00 0.  1.
         11    1    3    3    0    0 -0.32077304363E+01  0.30483696029E+02  0.14501658323E+02  0.33909340196E+02  0.51100000000E-03 0. -1.
        -11    1    3    3    0    0  0.47585301248E+00  0.44237887124E+00 -0.66919831514E+00  0.93271742844E+00  0.51100000000E-03 0.  1.
         12    1    3    3    0    0 -0.16950800284E+01  0.88846516043E+01  0.67738877223E+01  0.11300260409E+02  0.00000000000E+00 0. -1.
</event>
<event>
 7    1  0.3986981E-008  0.4614232E+02  0.7816164E-02  0.1320468E+00
        -11   -1    0    0    0    0  0.00000000000E+00  0.00000000000E+00  0.45593999997E+02  0.45594000000E+02  0.51100000000E-03 0.  1.
         11   -1    0    0    0    0 -0.00000000000E+00 -0.00000000000E+00 -0.45593999997E+02  0.45594000000E+02  0.51100000000E-03 0. -1.
    9900012    2    1    2    0    0 -0.28864759632E+02  0.32371879097E+02 -0.12165550467E+02  0.46142317376E+02  0.99999964890E+01 0.  0.
        -12    1    1    2    0    0  0.28864759632E+02 -0.32371879097E+02  0.12165550467E+02  0.45045682624E+02  0.00000000000E+00 0.  1.
         11    1    3    3    0    0 -0.11462962369E+02  0.12110988823E+02 -0.64731902109E+01  0.17887921856E+02  0.51100000000E-03 0. -1.
        -11    1    3    3    0    0 -0.15779816622E+01  0.15575329381E+01 -0.28202750339E+01  0.35874624050E+01  0.51100000000E-03 0.  1.
         12    1    3    3    0    0 -0.15823815601E+02  0.18703357335E+02 -0.28720852227E+01  0.24666933115E+02  0.00000000000E+00 0. -1.
</event>
<event>
 7    1  0.3986981E-008  0.4614232E+02  0.7816164E-02  0.1320468E+00
        -11   -1    0    0    0    0  0.00000000000E+00  0.00000000000E+00  0.45593999997E+02  0.45594000000E+02  0.51100000000E-03 0.  1.
         11   -1    0    0    0    0 -0.00000000000E+00 -0.00000000000E+00 -0.45593999997E+02  0.45594000000E+02  0.51100000000E-03 0. -1.
    9900012    2    1    2    0    0  0.15132315724E+02  0.10524737665E+02 -0.41101780763E+02  0.46142318032E+02  0.10000002472E+02 0.  0.
        -12    1    1    2    0    0 -0.15132315724E+02 -0.10524737665E+02  0.41101780763E+02  0.45045681968E+02  0.00000000000E+00 0.  1.
         11    1    3    3    0    0  0.38264225866E+01  0.62242372143E+01 -0.20418047162E+02  0.21685923750E+02  0.51100000000E-03 0. -1.
        -11    1    3    3    0    0  0.11670647865E+01 -0.79752177980E+00 -0.98596952486E+00  0.17234318583E+01  0.51100000000E-03 0.  1.
        -12    1    3    3    0    0  0.10138828351E+02  0.50980222303E+01 -0.19697764076E+02  0.22732962424E+02  0.00000000000E+00 0.  1.
</event>
<event>
 7    1  0.3986981E-008  0.4614232E+02  0.7816164E-02  0.1320468E+00
        -11   -1    0    0    0    0  0.00000000000E+00  0.00000000000E+00  0.45593999997E+02  0.45594000000E+02  0.51100000000E-03 0.  1.
         11   -1    0    0    0    0 -0.00000000000E+00 -0.00000000000E+00 -0.45593999997E+02  0.45594000000E+02  0.51100000000E-03 0. -1.
    9900012    2    1    2    0    0 -0.18467057309E+02  0.57268640674E+01 -0.40685185435E+02  0.46142317725E+02  0.99999996719E+01 0.  0.
        -12    1    1    2    0    0  0.18467057309E+02 -0.57268640674E+01  0.40685185435E+02  0.45045682275E+02  0.00000000000E+00 0.  1.
         11    1    3    3    0    0 -0.94762867446E+01  0.59711483596E+01 -0.19842677965E+02  0.22785664183E+02  0.51100000000E-03 0. -1.
        -11    1    3    3    0    0 -0.76413720088E+00 -0.12970139511E+01 -0.88934892333E+00  0.17484543516E+01  0.51100000000E-03 0.  1.
         12    1    3    3    0    0 -0.82266333635E+01  0.10527296590E+01 -0.19953158547E+02  0.21608199190E+02  0.00000000000E+00 0. -1.
</event>
<event>
 7    1  0.3986981E-008  0.4614232E+02  0.7816164E-02  0.1320468E+00
        -11   -1    0    0    0    0  0.00000000000E+00  0.00000000000E+00  0.45593999997E+02  0.45594000000E+02  0.51100000000E-03 0.  1.
         11   -1    0    0    0    0 -0.00000000000E+00 -0.00000000000E+00 -0.45593999997E+02  0.45594000000E+02  0.51100000000E-03 0. -1.
    9900012    2    1    2    0    0 -0.72018888825E+01 -0.14113016207E+02 -0.42167156189E+02  0.46142317732E+02  0.99999997355E+01 0.  0.
        -12    1    1    2    0    0  0.72018888825E+01  0.14113016207E+02  0.42167156189E+02  0.45045682268E+02  0.00000000000E+00 0.  1.
         11    1    3    3    0    0  0.86988589210E+00 -0.43840893889E+01 -0.15209377026E+02  0.15852510559E+02  0.51100000000E-03 0. -1.
        -11    1    3    3    0    0 -0.19843351430E+01  0.22284932859E+00 -0.25624396811E+01  0.32485912583E+01  0.51100000000E-03 0.  1.
        -12    1    3    3    0    0 -0.60874396316E+01 -0.99517761463E+01 -0.24395339482E+02  0.27041215915E+02  0.00000000000E+00 0.  1.
</event>
<event>
 7    1  0.3986981E-008  0.4614231E+02  0.7816164E-02  0.1320468E+00
        -11   -1    0    0    0    0  0.00000000000E+00  0.00000000000E+00  0.45593999997E+02  0.45594000000E+02  0.51100000000E-03 0.  1.
         11   -1    0    0    0    0 -0.00000000000E+00 -0.00000000000E+00 -0.45593999997E+02  0.45594000000E+02  0.51100000000E-03 0. -1.
    9900012    2    1    2    0    0  0.12597599273E+02  0.23035292809E+02 -0.36603139715E+02  0.46142311425E+02  0.99999422178E+01 0.  0.
        -12    1    1    2    0    0 -0.12597599273E+02 -0.23035292809E+02  0.36603139715E+02  0.45045688575E+02  0.00000000000E+00 0.  1.
         11    1    3    3    0    0  0.56545276345E+01  0.11539529171E+02 -0.19148527729E+02  0.23060800739E+02  0.51100000000E-03 0. -1.
        -11    1    3    3    0    0  0.57405808661E+01  0.12146228243E+02 -0.14182703402E+02  0.19535460201E+02  0.51100000000E-03 0.  1.
        -12    1    3    3    0    0  0.12024907728E+01 -0.65046460500E+00 -0.32719085840E+01  0.35460504851E+01  0.00000000000E+00 0.  1.
</event>
<event>
 7    1  0.3986981E-008  0.4614232E+02  0.7816164E-02  0.1320468E+00
        -11   -1    0    0    0    0  0.00000000000E+00  0.00000000000E+00  0.45593999997E+02  0.45594000000E+02  0.51100000000E-03 0. -1.
         11   -1    0    0    0    0 -0.00000000000E+00 -0.00000000000E+00 -0.45593999997E+02  0.45594000000E+02  0.51100000000E-03 0.  1.
    9900012    2    1    2    0    0 -0.30836752029E+02 -0.18475837717E+02  0.27145011963E+02  0.46142317304E+02  0.99999958329E+01 0.  0.
        -12    1    1    2    0    0  0.30836752029E+02  0.18475837717E+02 -0.27145011963E+02  0.45045682696E+02  0.00000000000E+00 0.  1.
         11    1    3    3    0    0 -0.79177755104E+01 -0.29820532519E+01  0.23255999988E+01  0.87745214254E+01  0.51100000000E-03 0. -1.
        -11    1    3    3    0    0 -0.17767242310E+01 -0.26694456498E+01  0.29112032890E+01  0.43310268899E+01  0.51100000000E-03 0.  1.
         12    1    3    3    0    0 -0.21142252288E+02 -0.12824338815E+02  0.21908208676E+02  0.33036768989E+02  0.00000000000E+00 0. -1.
</event>
<event>
 7    1  0.3986981E-008  0.4614232E+02  0.7816164E-02  0.1320468E+00
        -11   -1    0    0    0    0  0.00000000000E+00  0.00000000000E+00  0.45593999997E+02  0.45594000000E+02  0.51100000000E-03 0.  1.
         11   -1    0    0    0    0 -0.00000000000E+00 -0.00000000000E+00 -0.45593999997E+02  0.45594000000E+02  0.51100000000E-03 0. -1.
    9900012    2    1    2    0    0 -0.24690678221E+02 -0.10634988101E+01 -0.37661025620E+02  0.46142317948E+02  0.10000001708E+02 0.  0.
        -12    1    1    2    0    0  0.24690678221E+02  0.10634988101E+01  0.37661025620E+02  0.45045682052E+02  0.00000000000E+00 0.  1.
         11    1    3    3    0    0 -0.23289862571E+01 -0.22926028409E+01 -0.45594599641E+01  0.56097130228E+01  0.51100000000E-03 0. -1.
        -11    1    3    3    0    0 -0.82728867972E+00 -0.11860069387E+01 -0.84985331116E+00  0.16772805161E+01  0.51100000000E-03 0.  1.
         12    1    3    3    0    0 -0.21534403284E+02  0.24151109696E+01 -0.32251712345E+02  0.38855324410E+02  0.00000000000E+00 0. -1.
</event>
<event>
 7    1  0.3986981E-008  0.4614232E+02  0.7816164E-02  0.1320468E+00
        -11   -1    0    0    0    0  0.00000000000E+00  0.00000000000E+00  0.45593999997E+02  0.45594000000E+02  0.51100000000E-03 0.  1.
         11   -1    0    0    0    0 -0.00000000000E+00 -0.00000000000E+00 -0.45593999997E+02  0.45594000000E+02  0.51100000000E-03 0. -1.
    9900012    2    1    2    0    0 -0.24145484795E+02  0.17824623704E+02 -0.33591543778E+02  0.46142318080E+02  0.10000002912E+02 0.  0.
        -12    1    1    2    0    0  0.24145484795E+02 -0.17824623704E+02  0.33591543778E+02  0.45045681920E+02  0.00000000000E+00 0.  1.
         11    1    3    3    0    0 -0.14582004600E+02  0.95326757520E+01 -0.15286081868E+02  0.23176951143E+02  0.51100000000E-03 0. -1.
        -11    1    3    3    0    0 -0.14760950815E+00  0.14967718836E+01 -0.28961918413E+00  0.15316638572E+01  0.51100000000E-03 0.  1.
         12    1    3    3    0    0 -0.94158706866E+01  0.67951760686E+01 -0.18015842726E+02  0.21433703080E+02  0.00000000000E+00 0. -1.
</event>
<event>
 7    1  0.3986981E-008  0.4614232E+02  0.7816164E-02  0.1320468E+00
        -11   -1    0    0    0    0  0.00000000000E+00  0.00000000000E+00  0.45593999997E+02  0.45594000000E+02  0.51100000000E-03 0.  1.
         11   -1    0    0    0    0 -0.00000000000E+00 -0.00000000000E+00 -0.45593999997E+02  0.45594000000E+02  0.51100000000E-03 0. -1.
    9900012    2    1    2    0    0  0.67220246651E+01  0.38674724803E+01 -0.44373083130E+02  0.46142318015E+02  0.10000002317E+02 0.  0.
        -12    1    1    2    0    0 -0.67220246651E+01 -0.38674724803E+01  0.44373083130E+02  0.45045681985E+02  0.00000000000E+00 0.  1.
         11    1    3    3    0    0  0.72626143424E+01  0.13844239492E+01 -0.28905959021E+02  0.29836498855E+02  0.51100000000E-03 0. -1.
        -11    1    3    3    0    0  0.15473631882E+00  0.36574380058E+01 -0.94130895703E+01  0.10099854039E+02  0.51100000000E-03 0.  1.
         12    1    3    3    0    0 -0.69532599612E+00 -0.11743894747E+01 -0.60540345393E+01  0.62059651209E+01  0.00000000000E+00 0. -1.
</event>
<event>
 7    1  0.3986981E-008  0.4614232E+02  0.7816164E-02  0.1320468E+00
        -11   -1    0    0    0    0  0.00000000000E+00  0.00000000000E+00  0.45593999997E+02  0.45594000000E+02  0.51100000000E-03 0. -1.
         11   -1    0    0    0    0 -0.00000000000E+00 -0.00000000000E+00 -0.45593999997E+02  0.45594000000E+02  0.51100000000E-03 0.  1.
    9900012    2    1    2    0    0 -0.19717610248E+02 -0.39541532108E+02  0.87633696324E+01  0.46142316936E+02  0.99999924792E+01 0.  0.
        -12    1    1    2    0    0  0.19717610248E+02  0.39541532108E+02 -0.87633696324E+01  0.45045683064E+02  0.00000000000E+00 0.  1.
         11    1    3    3    0    0 -0.81732829450E+01 -0.17903198071E+02  0.40582293934E+01  0.20094682912E+02  0.51100000000E-03 0. -1.
        -11    1    3    3    0    0 -0.93163449335E+01 -0.16135256421E+02  0.26438839200E+00  0.18633590212E+02  0.51100000000E-03 0.  1.
        -12    1    3    3    0    0 -0.22279823695E+01 -0.55030776163E+01  0.44407518470E+01  0.74140438127E+01  0.00000000000E+00 0.  1.
</event>
<event>
 7    1  0.3986981E-008  0.4614231E+02  0.7816164E-02  0.1320468E+00
        -11   -1    0    0    0    0  0.00000000000E+00  0.00000000000E+00  0.45593999997E+02  0.45594000000E+02  0.51100000000E-03 0. -1.
         11   -1    0    0    0    0 -0.00000000000E+00 -0.00000000000E+00 -0.45593999997E+02  0.45594000000E+02  0.51100000000E-03 0.  1.
    9900012    2    1    2    0    0  0.47022246026E+01 -0.11003502326E+02  0.43427256363E+02  0.46142305701E+02  0.99998900240E+01 0.  0.
        -12    1    1    2    0    0 -0.47022246026E+01  0.11003502326E+02 -0.43427256363E+02  0.45045694299E+02  0.00000000000E+00 0.  1.
         11    1    3    3    0    0  0.30137620302E+01 -0.69863251023E+01  0.20791451365E+02  0.22139917573E+02  0.51100000000E-03 0. -1.
        -11    1    3    3    0    0  0.74352052070E+00 -0.50776921814E+00 -0.16361678122E+00  0.91510822082E+00  0.51100000000E-03 0.  1.
        -12    1    3    3    0    0  0.94494205166E+00 -0.35094080057E+01  0.22799421779E+02  0.23087279907E+02  0.00000000000E+00 0.  1.
</event>
<event>
 7    1  0.3986981E-008  0.4614232E+02  0.7816164E-02  0.1320468E+00
        -11   -1    0    0    0    0  0.00000000000E+00  0.00000000000E+00  0.45593999997E+02  0.45594000000E+02  0.51100000000E-03 0.  1.
         11   -1    0    0    0    0 -0.00000000000E+00 -0.00000000000E+00 -0.45593999997E+02  0.45594000000E+02  0.51100000000E-03 0. -1.
    9900012    2    1    2    0    0 -0.72875629192E+01  0.37388747053E+02 -0.24043430729E+02  0.46142317180E+02  0.99999946992E+01 0.  0.
        -12    1    1    2    0    0  0.72875629192E+01 -0.37388747053E+02  0.24043430729E+02  0.45045682820E+02  0.00000000000E+00 0.  1.
         11    1    3    3    0    0 -0.72048103401E+01  0.29688784769E+02 -0.19733629028E+02  0.36369621224E+02  0.51100000000E-03 0. -1.
        -11    1    3    3    0    0 -0.12862375236E+01  0.96685513339E+00 -0.19702204658E+01  0.25438130358E+01  0.51100000000E-03 0.  1.
        -12    1    3    3    0    0  0.12034849445E+01  0.67331071504E+01 -0.23395812353E+01  0.72288829198E+01  0.00000000000E+00 0.  1.
</event>
<event>
 7    1  0.5588614E-008  0.4614232E+02  0.7816164E-02  0.1320468E+00
        -11   -1    0    0    0    0  0.00000000000E+00  0.00000000000E+00  0.45593999997E+02  0.45594000000E+02  0.51100000000E-03 0.  1.
         11   -1    0    0    0    0 -0.00000000000E+00 -0.00000000000E+00 -0.45593999997E+02  0.45594000000E+02  0.51100000000E-03 0. -1.
    9900012    2    1    2    0    0  0.41900159232E+02  0.16346711265E+02 -0.25050271332E+01  0.46142317923E+02  0.10000001475E+02 0.  0.
        -12    1    1    2    0    0 -0.41900159232E+02 -0.16346711265E+02  0.25050271332E+01  0.45045682077E+02  0.00000000000E+00 0.  1.
         11    1    3    3    0    0  0.22337634962E+01  0.96123875102E+00  0.94541024057E+00  0.26091148073E+01  0.51100000000E-03 0. -1.
        -11    1    3    3    0    0  0.10725348392E+01  0.23628676635E+01  0.37657223065E+00  0.26220757965E+01  0.51100000000E-03 0.  1.
         12    1    3    3    0    0  0.38593860897E+02  0.13022604851E+02 -0.38270096044E+01  0.40911127319E+02  0.00000000000E+00 0. -1.
</event>
<event>
 7    1  0.3986981E-008  0.4614232E+02  0.7816164E-02  0.1320468E+00
        -11   -1    0    0    0    0  0.00000000000E+00  0.00000000000E+00  0.45593999997E+02  0.45594000000E+02  0.51100000000E-03 0.  1.
         11   -1    0    0    0    0 -0.00000000000E+00 -0.00000000000E+00 -0.45593999997E+02  0.45594000000E+02  0.51100000000E-03 0. -1.
    9900012    2    1    2    0    0 -0.37226871499E+02 -0.21113768155E+02 -0.14052844423E+02  0.46142316481E+02  0.99999883252E+01 0.  0.
        -12    1    1    2    0    0  0.37226871499E+02  0.21113768155E+02  0.14052844423E+02  0.45045683519E+02  0.00000000000E+00 0.  1.
         11    1    3    3    0    0 -0.43788956681E+01 -0.47325084989E+01 -0.24947748584E+01  0.69134120244E+01  0.51100000000E-03 0. -1.
        -11    1    3    3    0    0 -0.43515313964E+01 -0.54273681579E+01 -0.22977818385E+01  0.73261144035E+01  0.51100000000E-03 0.  1.
        -12    1    3    3    0    0 -0.28496444435E+02 -0.10953891498E+02 -0.92602877265E+01  0.31902790053E+02  0.00000000000E+00 0.  1.
</event>
<event>
 7    1  0.3986981E-008  0.4614232E+02  0.7816164E-02  0.1320468E+00
        -11   -1    0    0    0    0  0.00000000000E+00  0.00000000000E+00  0.45593999997E+02  0.45594000000E+02  0.51100000000E-03 0.  1.
         11   -1    0    0    0    0 -0.00000000000E+00 -0.00000000000E+00 -0.45593999997E+02  0.45594000000E+02  0.51100000000E-03 0. -1.
    9900012    2    1    2    0    0  0.25793791221E+02  0.23161330107E+02 -0.28763632994E+02  0.46142318066E+02  0.10000002778E+02 0.  0.
        -12    1    1    2    0    0 -0.25793791221E+02 -0.23161330107E+02  0.28763632994E+02  0.45045681934E+02  0.00000000000E+00 0.  1.
         11    1    3    3    0    0 -0.45792926076E+00  0.13229655336E+01 -0.67389159137E+00  0.15537268579E+01  0.51100000000E-03 0.  1.
        -11    1    3    3    0    0  0.19514272898E+02  0.16073281531E+02 -0.17355467631E+02  0.30665444443E+02  0.51100000000E-03 0. -1.
         12    1    3    3    0    0  0.67374475833E+01  0.57650830424E+01 -0.10734273772E+02  0.13923146765E+02  0.00000000000E+00 0. -1.
</event>
<event>
 7    1  0.3986981E-008  0.4614232E+02  0.7816164E-02  0.1320468E+00
        -11   -1    0    0    0    0  0.00000000000E+00  0.00000000000E+00  0.45593999997E+02  0.45594000000E+02  0.51100000000E-03 0. -1.
         11   -1    0    0    0    0 -0.00000000000E+00 -0.00000000000E+00 -0.45593999997E+02  0.45594000000E+02  0.51100000000E-03 0.  1.
    9900012    2    1    2    0    0  0.28734016925E+02 -0.31188613500E+01  0.34550579697E+02  0.46142316720E+02  0.99999905087E+01 0.  0.
        -12    1    1    2    0    0 -0.28734016925E+02  0.31188613500E+01 -0.34550579697E+02  0.45045683280E+02  0.00000000000E+00 0.  1.
         11    1    3    3    0    0  0.42879016834E+01  0.22920069547E+01  0.36767395732E+01  0.60957207021E+01  0.51100000000E-03 0.  1.
        -11    1    3    3    0    0  0.11787196556E+02 -0.37394064670E+01  0.18597681707E+02  0.22333717302E+02  0.51100000000E-03 0. -1.
        -12    1    3    3    0    0  0.12658918685E+02 -0.16714618377E+01  0.12276158417E+02  0.17712878716E+02  0.00000000000E+00 0.  1.
</event>
<event>
 7    1  0.3986981E-008  0.4614232E+02  0.7816164E-02  0.1320468E+00
        -11   -1    0    0    0    0  0.00000000000E+00  0.00000000000E+00  0.45593999997E+02  0.45594000000E+02  0.51100000000E-03 0. -1.
         11   -1    0    0    0    0 -0.00000000000E+00 -0.00000000000E+00 -0.45593999997E+02  0.45594000000E+02  0.51100000000E-03 0.  1.
    9900012    2    1    2    0    0  0.21290189669E+02  0.31237712819E+02  0.24495848910E+02  0.46142317719E+02  0.99999996128E+01 0.  0.
        -12    1    1    2    0    0 -0.21290189669E+02 -0.31237712819E+02 -0.24495848910E+02  0.45045682281E+02  0.00000000000E+00 0.  1.
         11    1    3    3    0    0  0.28078213914E+01  0.34757041887E+01  0.34234574566E+01  0.56288934785E+01  0.51100000000E-03 0.  1.
        -11    1    3    3    0    0  0.97157543730E+01  0.16967650027E+02  0.71030274935E+01  0.20802644791E+02  0.51100000000E-03 0. -1.
        -12    1    3    3    0    0  0.87666139051E+01  0.10794358603E+02  0.13969363960E+02  0.19710779449E+02  0.00000000000E+00 0.  1.
</event>
<event>
 7    1  0.3986981E-008  0.4614232E+02  0.7816164E-02  0.1320468E+00
        -11   -1    0    0    0    0  0.00000000000E+00  0.00000000000E+00  0.45593999997E+02  0.45594000000E+02  0.51100000000E-03 0.  1.
         11   -1    0    0    0    0 -0.00000000000E+00 -0.00000000000E+00 -0.45593999997E+02  0.45594000000E+02  0.51100000000E-03 0. -1.
    9900012    2    1    2    0    0  0.88734980382E+00  0.30675312819E+02 -0.32975010266E+02  0.46142317541E+02  0.99999979907E+01 0.  0.
        -12    1    1    2    0    0 -0.88734980382E+00 -0.30675312819E+02  0.32975010266E+02  0.45045682459E+02  0.00000000000E+00 0.  1.
         11    1    3    3    0    0  0.31980517286E+00  0.16544376418E+02 -0.12898339101E+02  0.20980605765E+02  0.51100000000E-03 0. -1.
        -11    1    3    3    0    0 -0.35847861127E+00  0.67770312968E+01 -0.52308219021E+01  0.85684396564E+01  0.51100000000E-03 0.  1.
        -12    1    3    3    0    0  0.92602324223E+00  0.73539051036E+01 -0.14845849263E+02  0.16593272120E+02  0.00000000000E+00 0.  1.
</event>
<event>
 7    1  0.3986981E-008  0.4614232E+02  0.7816164E-02  0.1320468E+00
        -11   -1    0    0    0    0  0.00000000000E+00  0.00000000000E+00  0.45593999997E+02  0.45594000000E+02  0.51100000000E-03 0. -1.
         11   -1    0    0    0    0 -0.00000000000E+00 -0.00000000000E+00 -0.45593999997E+02  0.45594000000E+02  0.51100000000E-03 0.  1.
    9900012    2    1    2    0    0 -0.83968829341E+01 -0.43459676023E+02  0.83583742957E+01  0.46142317588E+02  0.99999984241E+01 0.  0.
        -12    1    1    2    0    0  0.83968829341E+01  0.43459676023E+02 -0.83583742957E+01  0.45045682412E+02  0.00000000000E+00 0.  1.
         11    1    3    3    0    0 -0.80775277772E+00 -0.11909149289E+02  0.18908630688E+00  0.11938008847E+02  0.51100000000E-03 0. -1.
        -11    1    3    3    0    0 -0.44090266878E+01 -0.58963673695E+01  0.19409833286E+01  0.76140712522E+01  0.51100000000E-03 0.  1.
         12    1    3    3    0    0 -0.31801034686E+01 -0.25654159365E+02  0.62283046603E+01  0.26590237489E+02  0.00000000000E+00 0. -1.
</event>
<event>
 7    1  0.3986981E-008  0.4614232E+02  0.7816164E-02  0.1320468E+00
        -11   -1    0    0    0    0  0.00000000000E+00  0.00000000000E+00  0.45593999997E+02  0.45594000000E+02  0.51100000000E-03 0. -1.
         11   -1    0    0    0    0 -0.00000000000E+00 -0.00000000000E+00 -0.45593999997E+02  0.45594000000E+02  0.51100000000E-03 0.  1.
    9900012    2    1    2    0    0 -0.24710121650E+02  0.55207254401E+01  0.37256475347E+02  0.46142317891E+02  0.10000001188E+02 0.  0.
        -12    1    1    2    0    0  0.24710121650E+02 -0.55207254401E+01 -0.37256475347E+02  0.45045682109E+02  0.00000000000E+00 0.  1.
         11    1    3    3    0    0 -0.15366927463E+02  0.11778126060E+01  0.18741026440E+02  0.24264290109E+02  0.51100000000E-03 0. -1.
        -11    1    3    3    0    0 -0.76318425980E+01  0.39304976181E+01  0.99853512109E+01  0.13168184083E+02  0.51100000000E-03 0.  1.
        -12    1    3    3    0    0 -0.17113515886E+01  0.41241521599E+00  0.85300976963E+01  0.87098437000E+01  0.00000000000E+00 0.  1.
</event>
<event>
 7    1  0.3986981E-008  0.4614232E+02  0.7816164E-02  0.1320468E+00
        -11   -1    0    0    0    0  0.00000000000E+00  0.00000000000E+00  0.45593999997E+02  0.45594000000E+02  0.51100000000E-03 0.  1.
         11   -1    0    0    0    0 -0.00000000000E+00 -0.00000000000E+00 -0.45593999997E+02  0.45594000000E+02  0.51100000000E-03 0. -1.
    9900012    2    1    2    0    0  0.13359088629E+02  0.21050417866E+02 -0.37517038067E+02  0.46142317780E+02  0.10000000172E+02 0.  0.
        -12    1    1    2    0    0 -0.13359088629E+02 -0.21050417866E+02  0.37517038067E+02  0.45045682220E+02  0.00000000000E+00 0.  1.
         11    1    3    3    0    0  0.41180169159E+01  0.83849219093E+01 -0.10088144167E+02  0.13749022937E+02  0.51100000000E-03 0. -1.
        -11    1    3    3    0    0  0.88571054943E+00 -0.58052329628E+00 -0.45231113767E+01  0.46454307941E+01  0.51100000000E-03 0.  1.
        -12    1    3    3    0    0  0.83553611633E+01  0.13246019253E+02 -0.22905782524E+02  0.27747864049E+02  0.00000000000E+00 0.  1.
</event>
<event>
 7    1  0.3986981E-008  0.4614232E+02  0.7816164E-02  0.1320468E+00
        -11   -1    0    0    0    0  0.00000000000E+00  0.00000000000E+00  0.45593999997E+02  0.45594000000E+02  0.51100000000E-03 0. -1.
         11   -1    0    0    0    0 -0.00000000000E+00 -0.00000000000E+00 -0.45593999997E+02  0.45594000000E+02  0.51100000000E-03 0.  1.
    9900012    2    1    2    0    0 -0.94295382865E+01 -0.31743647410E+02  0.30537486837E+02  0.46142318237E+02  0.10000004337E+02 0.  0.
        -12    1    1    2    0    0  0.94295382865E+01  0.31743647410E+02 -0.30537486837E+02  0.45045681763E+02  0.00000000000E+00 0.  1.
         11    1    3    3    0    0 -0.98965653896E+01 -0.17912960883E+02  0.19368630801E+02  0.28177296419E+02  0.51100000000E-03 0. -1.
        -11    1    3    3    0    0  0.22255907679E+00 -0.36862946586E+01  0.16250247099E+01  0.40347250738E+01  0.51100000000E-03 0.  1.
         12    1    3    3    0    0  0.24446802629E+00 -0.10144391869E+02  0.95438313254E+01  0.13930296744E+02  0.00000000000E+00 0. -1.
</event>
<event>
 7    1  0.3986981E-008  0.4614232E+02  0.7816164E-02  0.1320468E+00
        -11   -1    0    0    0    0  0.00000000000E+00  0.00000000000E+00  0.45593999997E+02  0.45594000000E+02  0.51100000000E-03 0.  1.
         11   -1    0    0    0    0 -0.00000000000E+00 -0.00000000000E+00 -0.45593999997E+02  0.45594000000E+02  0.51100000000E-03 0. -1.
    9900012    2    1    2    0    0 -0.14492731655E+02  0.39531413695E+01 -0.42467008166E+02  0.46142318963E+02  0.10000010958E+02 0.  0.
        -12    1    1    2    0    0  0.14492731655E+02 -0.39531413695E+01  0.42467008166E+02  0.45045681037E+02  0.00000000000E+00 0.  1.
         11    1    3    3    0    0 -0.10476924206E+02  0.51139903257E+00 -0.18708256872E+02  0.21448224757E+02  0.51100000000E-03 0. -1.
        -11    1    3    3    0    0 -0.38000329943E+01  0.11131306646E+01 -0.10323910894E+02  0.11057235054E+02  0.51100000000E-03 0.  1.
        -12    1    3    3    0    0 -0.21577445517E+00  0.23286116724E+01 -0.13434840401E+02  0.13636859152E+02  0.00000000000E+00 0.  1.
</event>
<event>
 7    1  0.3986981E-008  0.4614232E+02  0.7816164E-02  0.1320468E+00
        -11   -1    0    0    0    0  0.00000000000E+00  0.00000000000E+00  0.45593999997E+02  0.45594000000E+02  0.51100000000E-03 0. -1.
         11   -1    0    0    0    0 -0.00000000000E+00 -0.00000000000E+00 -0.45593999997E+02  0.45594000000E+02  0.51100000000E-03 0.  1.
    9900012    2    1    2    0    0  0.35044075061E+02 -0.28025895667E+02  0.39465616797E+01  0.46142319032E+02  0.10000011585E+02 0.  0.
        -12    1    1    2    0    0 -0.35044075061E+02  0.28025895667E+02 -0.39465616797E+01  0.45045680968E+02  0.00000000000E+00 0.  1.
         11    1    3    3    0    0  0.19739280252E+02 -0.18314197430E+02  0.33938753009E+01  0.27139775279E+02  0.51100000000E-03 0. -1.
        -11    1    3    3    0    0  0.93907982227E+01 -0.82990422251E+01  0.21508789518E+01  0.12715638939E+02  0.51100000000E-03 0.  1.
        -12    1    3    3    0    0  0.59139965860E+01 -0.14126560124E+01 -0.15981925730E+01  0.62869048131E+01  0.00000000000E+00 0.  1.
</event>
<event>
 7    1  0.3986981E-008  0.4614232E+02  0.7816164E-02  0.1320468E+00
        -11   -1    0    0    0    0  0.00000000000E+00  0.00000000000E+00  0.45593999997E+02  0.45594000000E+02  0.51100000000E-03 0.  1.
         11   -1    0    0    0    0 -0.00000000000E+00 -0.00000000000E+00 -0.45593999997E+02  0.45594000000E+02  0.51100000000E-03 0. -1.
    9900012    2    1    2    0    0  0.76574322901E+01 -0.21117969905E+02 -0.39044955333E+02  0.46142318086E+02  0.10000002960E+02 0.  0.
        -12    1    1    2    0    0 -0.76574322901E+01  0.21117969905E+02  0.39044955333E+02  0.45045681914E+02  0.00000000000E+00 0.  1.
         11    1    3    3    0    0  0.50987234735E+01 -0.69078037951E+01 -0.10491107486E+02  0.13556477082E+02  0.51100000000E-03 0. -1.
        -11    1    3    3    0    0  0.62279223931E+00 -0.48707526636E+01 -0.43113039539E+01  0.65344811368E+01  0.51100000000E-03 0.  1.
         12    1    3    3    0    0  0.19359165773E+01 -0.93394134463E+01 -0.24242543893E+02  0.26051359867E+02  0.00000000000E+00 0. -1.
</event>
<event>
 7    1  0.3986981E-008  0.4614232E+02  0.7816164E-02  0.1320468E+00
        -11   -1    0    0    0    0  0.00000000000E+00  0.00000000000E+00  0.45593999997E+02  0.45594000000E+02  0.51100000000E-03 0. -1.
         11   -1    0    0    0    0 -0.00000000000E+00 -0.00000000000E+00 -0.45593999997E+02  0.45594000000E+02  0.51100000000E-03 0.  1.
    9900012    2    1    2    0    0  0.11074324187E+02 -0.42941935765E+02 -0.79033531024E+01  0.46142317702E+02  0.99999994567E+01 0.  0.
        -12    1    1    2    0    0 -0.11074324187E+02  0.42941935765E+02  0.79033531024E+01  0.45045682298E+02  0.00000000000E+00 0.  1.
         11    1    3    3    0    0  0.87829289006E-02 -0.68345117965E+01 -0.25287121518E-01  0.68345642389E+01  0.51100000000E-03 0. -1.
        -11    1    3    3    0    0  0.50836924327E+01 -0.22781034798E+02 -0.80760956250E+01  0.24699044435E+02  0.51100000000E-03 0.  1.
         12    1    3    3    0    0  0.59818488251E+01 -0.13326389171E+02  0.19802964409E+00  0.14608709027E+02  0.00000000000E+00 0. -1.
</event>
<event>
 7    1  0.3986981E-008  0.4614232E+02  0.7816164E-02  0.1320468E+00
        -11   -1    0    0    0    0  0.00000000000E+00  0.00000000000E+00  0.45593999997E+02  0.45594000000E+02  0.51100000000E-03 0.  1.
         11   -1    0    0    0    0 -0.00000000000E+00 -0.00000000000E+00 -0.45593999997E+02  0.45594000000E+02  0.51100000000E-03 0. -1.
    9900012    2    1    2    0    0 -0.19263795756E+02 -0.21856420730E+02 -0.34355734560E+02  0.46142318174E+02  0.10000003761E+02 0.  0.
        -12    1    1    2    0    0  0.19263795756E+02  0.21856420730E+02  0.34355734560E+02  0.45045681826E+02  0.00000000000E+00 0.  1.
         11    1    3    3    0    0  0.13471058487E-01  0.11605431248E+00 -0.75853874714E+00  0.76748378803E+00  0.51100000000E-03 0.  1.
        -11    1    3    3    0    0 -0.14070620693E+02 -0.15184809155E+02 -0.17340481512E+02  0.27004686539E+02  0.51100000000E-03 0. -1.
         12    1    3    3    0    0 -0.52066461215E+01 -0.67876658880E+01 -0.16256714301E+02  0.18370147846E+02  0.00000000000E+00 0. -1.
</event>
<event>
 7    1  0.3986981E-008  0.4614232E+02  0.7816164E-02  0.1320468E+00
        -11   -1    0    0    0    0  0.00000000000E+00  0.00000000000E+00  0.45593999997E+02  0.45594000000E+02  0.51100000000E-03 0.  1.
         11   -1    0    0    0    0 -0.00000000000E+00 -0.00000000000E+00 -0.45593999997E+02  0.45594000000E+02  0.51100000000E-03 0. -1.
    9900012    2    1    2    0    0  0.18326358282E+02  0.24962059079E+02 -0.32713203647E+02  0.46142317696E+02  0.99999994094E+01 0.  0.
        -12    1    1    2    0    0 -0.18326358282E+02 -0.24962059079E+02  0.32713203647E+02  0.45045682304E+02  0.00000000000E+00 0.  1.
         11    1    3    3    0    0  0.43273459077E+01  0.47480437285E+01 -0.10045303202E+02  0.11923839924E+02  0.51100000000E-03 0. -1.
        -11    1    3    3    0    0  0.12107964227E+02  0.12787946778E+02 -0.13038314408E+02  0.21911915100E+02  0.51100000000E-03 0.  1.
        -12    1    3    3    0    0  0.18910481471E+01  0.74260685728E+01 -0.96295860374E+01  0.12306562672E+02  0.00000000000E+00 0.  1.
</event>
<event>
 7    1  0.3986981E-008  0.4614232E+02  0.7816164E-02  0.1320468E+00
        -11   -1    0    0    0    0  0.00000000000E+00  0.00000000000E+00  0.45593999997E+02  0.45594000000E+02  0.51100000000E-03 0.  1.
         11   -1    0    0    0    0 -0.00000000000E+00 -0.00000000000E+00 -0.45593999997E+02  0.45594000000E+02  0.51100000000E-03 0. -1.
    9900012    2    1    2    0    0  0.32285409626E+02 -0.31255403800E+02 -0.31409449538E+01  0.46142317892E+02  0.10000001190E+02 0.  0.
        -12    1    1    2    0    0 -0.32285409626E+02  0.31255403800E+02  0.31409449538E+01  0.45045682108E+02  0.00000000000E+00 0.  1.
         11    1    3    3    0    0  0.89960701424E+01 -0.62327319350E+01 -0.41858264933E+01  0.11717396002E+02  0.51100000000E-03 0. -1.
        -11    1    3    3    0    0  0.66508986998E+01 -0.61952575418E+01 -0.13340132245E+01  0.91866893421E+01  0.51100000000E-03 0.  1.
        -12    1    3    3    0    0  0.16638440784E+02 -0.18827414323E+02  0.23788947639E+01  0.25238232547E+02  0.00000000000E+00 0.  1.
</event>
<event>
 7    1  0.3986981E-008  0.4614232E+02  0.7816164E-02  0.1320468E+00
        -11   -1    0    0    0    0  0.00000000000E+00  0.00000000000E+00  0.45593999997E+02  0.45594000000E+02  0.51100000000E-03 0.  1.
         11   -1    0    0    0    0 -0.00000000000E+00 -0.00000000000E+00 -0.45593999997E+02  0.45594000000E+02  0.51100000000E-03 0. -1.
    9900012    2    1    2    0    0 -0.81393997704E+01  0.25163926454E+02 -0.36464238604E+02  0.46142315188E+02  0.99999765397E+01 0.  0.
        -12    1    1    2    0    0  0.81393997704E+01 -0.25163926454E+02  0.36464238604E+02  0.45045684812E+02  0.00000000000E+00 0.  1.
         11    1    3    3    0    0 -0.15032158211E+01  0.76067872041E+01 -0.16387906826E+02  0.18129709313E+02  0.51100000000E-03 0. -1.
        -11    1    3    3    0    0 -0.65037509503E+01  0.11248421154E+02 -0.11407410034E+02  0.17290308234E+02  0.51100000000E-03 0.  1.
         12    1    3    3    0    0 -0.13243299904E+00  0.63087180952E+01 -0.86689217437E+01  0.10722297641E+02  0.00000000000E+00 0. -1.
</event>
<event>
 7    1  0.3986981E-008  0.4614232E+02  0.7816164E-02  0.1320468E+00
        -11   -1    0    0    0    0  0.00000000000E+00  0.00000000000E+00  0.45593999997E+02  0.45594000000E+02  0.51100000000E-03 0. -1.
         11   -1    0    0    0    0 -0.00000000000E+00 -0.00000000000E+00 -0.45593999997E+02  0.45594000000E+02  0.51100000000E-03 0.  1.
    9900012    2    1    2    0    0  0.39960397656E+02 -0.67400327543E+01 -0.19668556278E+02  0.46142317317E+02  0.99999959503E+01 0.  0.
        -12    1    1    2    0    0 -0.39960397656E+02  0.67400327543E+01  0.19668556278E+02  0.45045682683E+02  0.00000000000E+00 0.  1.
         11    1    3    3    0    0  0.17548029680E+02 -0.48555166047E+00 -0.99888983401E+01  0.20197702750E+02  0.51100000000E-03 0.  1.
        -11    1    3    3    0    0  0.48979683068E+01 -0.26682983575E+00 -0.46613069959E+01  0.67667625100E+01  0.51100000000E-03 0. -1.
         12    1    3    3    0    0  0.17514399668E+02 -0.59876512581E+01 -0.50183509417E+01  0.19177852057E+02  0.00000000000E+00 0. -1.
</event>
<event>
 7    1  0.3986981E-008  0.4614232E+02  0.7816164E-02  0.1320468E+00
        -11   -1    0    0    0    0  0.00000000000E+00  0.00000000000E+00  0.45593999997E+02  0.45594000000E+02  0.51100000000E-03 0.  1.
         11   -1    0    0    0    0 -0.00000000000E+00 -0.00000000000E+00 -0.45593999997E+02  0.45594000000E+02  0.51100000000E-03 0. -1.
    9900012    2    1    2    0    0  0.34988447571E+02  0.27290529525E+02  0.77555788428E+01  0.46142317983E+02  0.10000002028E+02 0.  0.
        -12    1    1    2    0    0 -0.34988447571E+02 -0.27290529525E+02 -0.77555788428E+01  0.45045682017E+02  0.00000000000E+00 0.  1.
         11    1    3    3    0    0  0.90753395490E+01  0.11962770113E+02  0.50840313616E+01  0.15852981797E+02  0.51100000000E-03 0. -1.
        -11    1    3    3    0    0  0.16415600455E+02  0.10799523726E+02  0.17671372190E+01  0.19728771508E+02  0.51100000000E-03 0.  1.
         12    1    3    3    0    0  0.94975075665E+01  0.45282356857E+01  0.90441026216E+00  0.10560564678E+02  0.00000000000E+00 0. -1.
</event>
<event>
 7    1  0.3986981E-008  0.4614232E+02  0.7816164E-02  0.1320468E+00
        -11   -1    0    0    0    0  0.00000000000E+00  0.00000000000E+00  0.45593999997E+02  0.45594000000E+02  0.51100000000E-03 0. -1.
         11   -1    0    0    0    0 -0.00000000000E+00 -0.00000000000E+00 -0.45593999997E+02  0.45594000000E+02  0.51100000000E-03 0.  1.
    9900012    2    1    2    0    0 -0.19617655010E+02 -0.39744706223E+02 -0.80386239580E+01  0.46142317232E+02  0.99999951775E+01 0.  0.
        -12    1    1    2    0    0  0.19617655010E+02  0.39744706223E+02  0.80386239580E+01  0.45045682768E+02  0.00000000000E+00 0.  1.
         11    1    3    3    0    0 -0.12922866775E+02 -0.27346171384E+02 -0.83997598184E+01  0.31390596368E+02  0.51100000000E-03 0. -1.
        -11    1    3    3    0    0 -0.70470977227E+01 -0.12421129638E+02  0.49858185754E-01  0.14281055070E+02  0.51100000000E-03 0.  1.
        -12    1    3    3    0    0  0.35230948711E+00  0.22594799319E-01  0.31127767465E+00  0.47066579481E+00  0.00000000000E+00 0.  1.
</event>
<event>
 7    1  0.3986981E-008  0.4614231E+02  0.7816164E-02  0.1320468E+00
        -11   -1    0    0    0    0  0.00000000000E+00  0.00000000000E+00  0.45593999997E+02  0.45594000000E+02  0.51100000000E-03 0.  1.
         11   -1    0    0    0    0 -0.00000000000E+00 -0.00000000000E+00 -0.45593999997E+02  0.45594000000E+02  0.51100000000E-03 0. -1.
    9900012    2    1    2    0    0 -0.75205849585E+01  0.25400687586E+02 -0.36432949793E+02  0.46142312542E+02  0.99999524078E+01 0.  0.
        -12    1    1    2    0    0  0.75205849585E+01 -0.25400687586E+02  0.36432949793E+02  0.45045687458E+02  0.00000000000E+00 0.  1.
         11    1    3    3    0    0 -0.24822509404E+01  0.38578653565E+01 -0.75596760291E+01  0.88427030237E+01  0.51100000000E-03 0. -1.
        -11    1    3    3    0    0  0.13890853938E+01  0.95216153408E+01 -0.15217289587E+02  0.18004350018E+02  0.51100000000E-03 0.  1.
        -12    1    3    3    0    0 -0.64274194118E+01  0.12021206888E+02 -0.13655984177E+02  0.19295259501E+02  0.00000000000E+00 0.  1.
</event>
<event>
 7    1  0.4002805E-008  0.4614232E+02  0.7816164E-02  0.1320468E+00
        -11   -1    0    0    0    0  0.00000000000E+00  0.00000000000E+00  0.45593999997E+02  0.45594000000E+02  0.51100000000E-03 0. -1.
         11   -1    0    0    0    0 -0.00000000000E+00 -0.00000000000E+00 -0.45593999997E+02  0.45594000000E+02  0.51100000000E-03 0.  1.
    9900012    2    1    2    0    0  0.38294809277E+02 -0.21740148649E+02 -0.94861381664E+01  0.46142319872E+02  0.10000019252E+02 0.  0.
        -12    1    1    2    0    0 -0.38294809277E+02  0.21740148649E+02  0.94861381664E+01  0.45045680128E+02  0.00000000000E+00 0.  1.
         11    1    3    3    0    0  0.21346839856E+02 -0.11028635424E+02 -0.62572838721E+01  0.24828853636E+02  0.51100000000E-03 0. -1.
        -11    1    3    3    0    0  0.12370897224E+02 -0.76556053048E+01 -0.52268089042E+01  0.15458554987E+02  0.51100000000E-03 0.  1.
        -12    1    3    3    0    0  0.45770721979E+01 -0.30559079197E+01  0.19979546100E+01  0.58549112497E+01  0.00000000000E+00 0.  1.
</event>
<event>
 7    1  0.3986981E-008  0.4614232E+02  0.7816164E-02  0.1320468E+00
        -11   -1    0    0    0    0  0.00000000000E+00  0.00000000000E+00  0.45593999997E+02  0.45594000000E+02  0.51100000000E-03 0.  1.
         11   -1    0    0    0    0 -0.00000000000E+00 -0.00000000000E+00 -0.45593999997E+02  0.45594000000E+02  0.51100000000E-03 0. -1.
    9900012    2    1    2    0    0  0.71980455076E+01  0.44447295242E+02  0.13189209036E+01  0.46142318012E+02  0.10000002286E+02 0.  0.
        -12    1    1    2    0    0 -0.71980455076E+01 -0.44447295242E+02 -0.13189209036E+01  0.45045681988E+02  0.00000000000E+00 0.  1.
         11    1    3    3    0    0  0.45761143210E+00  0.56093388498E+01  0.25917141245E+01  0.61960530113E+01  0.51100000000E-03 0. -1.
        -11    1    3    3    0    0  0.15013855550E+01  0.16764254867E+02 -0.33603298728E+01  0.17163514120E+02  0.51100000000E-03 0.  1.
         12    1    3    3    0    0  0.52390485205E+01  0.22073701525E+02  0.20875366519E+01  0.22782750880E+02  0.00000000000E+00 0. -1.
</event>
<event>
 7    1  0.3986981E-008  0.4614232E+02  0.7816164E-02  0.1320468E+00
        -11   -1    0    0    0    0  0.00000000000E+00  0.00000000000E+00  0.45593999997E+02  0.45594000000E+02  0.51100000000E-03 0.  1.
         11   -1    0    0    0    0 -0.00000000000E+00 -0.00000000000E+00 -0.45593999997E+02  0.45594000000E+02  0.51100000000E-03 0. -1.
    9900012    2    1    2    0    0  0.15343539759E+02 -0.13393487054E+02 -0.40178396931E+02  0.46142319988E+02  0.10000020306E+02 0.  0.
        -12    1    1    2    0    0 -0.15343539759E+02  0.13393487054E+02  0.40178396931E+02  0.45045680012E+02  0.00000000000E+00 0.  1.
         11    1    3    3    0    0  0.12887287290E+02 -0.14019526702E+02 -0.36544277008E+02  0.41208172550E+02  0.51100000000E-03 0. -1.
        -11    1    3    3    0    0  0.17978115495E+00 -0.54491063723E+00 -0.11961471030E+00  0.58613719067E+00  0.51100000000E-03 0.  1.
         12    1    3    3    0    0  0.22764713146E+01  0.11709502856E+01 -0.35145052125E+01  0.43480102468E+01  0.00000000000E+00 0. -1.
</event>
<event>
 7    1  0.3986981E-008  0.4614232E+02  0.7816164E-02  0.1320468E+00
        -11   -1    0    0    0    0  0.00000000000E+00  0.00000000000E+00  0.45593999997E+02  0.45594000000E+02  0.51100000000E-03 0.  1.
         11   -1    0    0    0    0 -0.00000000000E+00 -0.00000000000E+00 -0.45593999997E+02  0.45594000000E+02  0.51100000000E-03 0. -1.
    9900012    2    1    2    0    0 -0.36271752047E+02 -0.53282028583E+01 -0.26174105009E+02  0.46142317462E+02  0.99999972764E+01 0.  0.
        -12    1    1    2    0    0  0.36271752047E+02  0.53282028583E+01  0.26174105009E+02  0.45045682538E+02  0.00000000000E+00 0.  1.
         11    1    3    3    0    0 -0.15254224714E+01  0.63423578446E+00 -0.13085634238E+01  0.21074883729E+01  0.51100000000E-03 0. -1.
        -11    1    3    3    0    0 -0.90716724822E+01  0.21106288801E+01 -0.79584250207E+01  0.12250980572E+02  0.51100000000E-03 0.  1.
         12    1    3    3    0    0 -0.25674657093E+02 -0.80730675229E+01 -0.16907116565E+02  0.31783848518E+02  0.00000000000E+00 0. -1.
</event>
<event>
 7    1  0.3986981E-008  0.4614233E+02  0.7816164E-02  0.1320468E+00
        -11   -1    0    0    0    0  0.00000000000E+00  0.00000000000E+00  0.45593999997E+02  0.45594000000E+02  0.51100000000E-03 0.  1.
         11   -1    0    0    0    0 -0.00000000000E+00 -0.00000000000E+00 -0.45593999997E+02  0.45594000000E+02  0.51100000000E-03 0. -1.
    9900012    2    1    2    0    0 -0.21822386597E+02 -0.21845380180E+02 -0.32797493084E+02  0.46142326017E+02  0.10000075281E+02 0.  0.
        -12    1    1    2    0    0  0.21822386597E+02  0.21845380180E+02  0.32797493084E+02  0.45045673983E+02  0.00000000000E+00 0.  1.
         11    1    3    3    0    0 -0.39045893892E+01 -0.78107293902E+01 -0.10582344388E+02  0.13720033707E+02  0.51100000000E-03 0. -1.
        -11    1    3    3    0    0 -0.10001359529E+02 -0.38523243719E+01 -0.10013668538E+02  0.14667690798E+02  0.51100000000E-03 0.  1.
        -12    1    3    3    0    0 -0.79164376785E+01 -0.10182326418E+02 -0.12201480158E+02  0.17754601512E+02  0.00000000000E+00 0.  1.
</event>
<event>
 7    1  0.3986981E-008  0.4614232E+02  0.7816164E-02  0.1320468E+00
        -11   -1    0    0    0    0  0.00000000000E+00  0.00000000000E+00  0.45593999997E+02  0.45594000000E+02  0.51100000000E-03 0.  1.
         11   -1    0    0    0    0 -0.00000000000E+00 -0.00000000000E+00 -0.45593999997E+02  0.45594000000E+02  0.51100000000E-03 0. -1.
    9900012    2    1    2    0    0  0.31763809820E+02 -0.30816687981E+02  0.83967550119E+01  0.46142319107E+02  0.10000012273E+02 0.  0.
        -12    1    1    2    0    0 -0.31763809820E+02  0.30816687981E+02 -0.83967550119E+01  0.45045680893E+02  0.00000000000E+00 0.  1.
         11    1    3    3    0    0  0.16839327139E+02 -0.20975118902E+02  0.36636445438E+01  0.27146654362E+02  0.51100000000E-03 0. -1.
        -11    1    3    3    0    0  0.56644604207E+01 -0.44288970193E+01 -0.19228891612E+00  0.71929281906E+01  0.51100000000E-03 0.  1.
         12    1    3    3    0    0  0.92600222598E+01 -0.54126720600E+01  0.49253993843E+01  0.11802736555E+02  0.00000000000E+00 0. -1.
</event>
<event>
 7    1  0.3986981E-008  0.4614232E+02  0.7816164E-02  0.1320468E+00
        -11   -1    0    0    0    0  0.00000000000E+00  0.00000000000E+00  0.45593999997E+02  0.45594000000E+02  0.51100000000E-03 0.  1.
         11   -1    0    0    0    0 -0.00000000000E+00 -0.00000000000E+00 -0.45593999997E+02  0.45594000000E+02  0.51100000000E-03 0. -1.
    9900012    2    1    2    0    0 -0.18765200191E+02  0.20946801554E+02 -0.35188239908E+02  0.46142318061E+02  0.10000002731E+02 0.  0.
        -12    1    1    2    0    0  0.18765200191E+02 -0.20946801554E+02  0.35188239908E+02  0.45045681939E+02  0.00000000000E+00 0.  1.
         11    1    3    3    0    0 -0.42628102922E+01  0.52716881889E+01 -0.80068178706E+01  0.10491490867E+02  0.51100000000E-03 0. -1.
        -11    1    3    3    0    0 -0.17959433445E+01  0.24266434333E+01 -0.10223387392E+02  0.10659815236E+02  0.51100000000E-03 0.  1.
        -12    1    3    3    0    0 -0.12706446554E+02  0.13248469932E+02 -0.16958034646E+02  0.24991011957E+02  0.00000000000E+00 0.  1.
</event>
<event>
 7    1  0.3986981E-008  0.4614232E+02  0.7816164E-02  0.1320468E+00
        -11   -1    0    0    0    0  0.00000000000E+00  0.00000000000E+00  0.45593999997E+02  0.45594000000E+02  0.51100000000E-03 0.  1.
         11   -1    0    0    0    0 -0.00000000000E+00 -0.00000000000E+00 -0.45593999997E+02  0.45594000000E+02  0.51100000000E-03 0. -1.
    9900012    2    1    2    0    0  0.26177305749E+02  0.49697964339E+01 -0.36320288558E+02  0.46142316812E+02  0.99999913479E+01 0.  0.
        -12    1    1    2    0    0 -0.26177305749E+02 -0.49697964339E+01  0.36320288558E+02  0.45045683188E+02  0.00000000000E+00 0.  1.
         11    1    3    3    0    0  0.27429016435E+01  0.25829276729E+01 -0.43626432953E+01  0.57643457194E+01  0.51100000000E-03 0. -1.
        -11    1    3    3    0    0  0.45199889495E+01 -0.23389650077E+01 -0.52534442369E+01  0.73143512373E+01  0.51100000000E-03 0.  1.
         12    1    3    3    0    0  0.18914415156E+02  0.47258337687E+01 -0.26704201026E+02  0.33063619856E+02  0.00000000000E+00 0. -1.
</event>
<event>
 7    1  0.3986981E-008  0.4614231E+02  0.7816164E-02  0.1320468E+00
        -11   -1    0    0    0    0  0.00000000000E+00  0.00000000000E+00  0.45593999997E+02  0.45594000000E+02  0.51100000000E-03 0.  1.
         11   -1    0    0    0    0 -0.00000000000E+00 -0.00000000000E+00 -0.45593999997E+02  0.45594000000E+02  0.51100000000E-03 0. -1.
    9900012    2    1    2    0    0 -0.14714503024E+02 -0.93482025960E+01 -0.41535630625E+02  0.46142310945E+02  0.99999378421E+01 0.  0.
        -12    1    1    2    0    0  0.14714503024E+02  0.93482025960E+01  0.41535630625E+02  0.45045689055E+02  0.00000000000E+00 0.  1.
         11    1    3    3    0    0 -0.80128768915E+01 -0.89971937551E+01 -0.25481297422E+02  0.28186028633E+02  0.51100000000E-03 0. -1.
        -11    1    3    3    0    0 -0.65357547179E+00 -0.10340230918E+01 -0.65984268452E+01  0.67108570052E+01  0.51100000000E-03 0.  1.
         12    1    3    3    0    0 -0.60480506609E+01  0.68301425091E+00 -0.94559063582E+01  0.11245425306E+02  0.00000000000E+00 0. -1.
</event>
<event>
 7    1  0.3986981E-008  0.4614232E+02  0.7816164E-02  0.1320468E+00
        -11   -1    0    0    0    0  0.00000000000E+00  0.00000000000E+00  0.45593999997E+02  0.45594000000E+02  0.51100000000E-03 0. -1.
         11   -1    0    0    0    0 -0.00000000000E+00 -0.00000000000E+00 -0.45593999997E+02  0.45594000000E+02  0.51100000000E-03 0.  1.
    9900012    2    1    2    0    0 -0.20095638277E+02 -0.41045678674E+01  0.40105252790E+02  0.46142318115E+02  0.10000003228E+02 0.  0.
        -12    1    1    2    0    0  0.20095638277E+02  0.41045678674E+01 -0.40105252790E+02  0.45045681885E+02  0.00000000000E+00 0.  1.
         11    1    3    3    0    0 -0.38066406958E+01 -0.32642765678E+01  0.72824288661E+01  0.88419333490E+01  0.51100000000E-03 0. -1.
        -11    1    3    3    0    0  0.55455495091E+00  0.53148909645E+00  0.21061363198E+01  0.22418345862E+01  0.51100000000E-03 0.  1.
         12    1    3    3    0    0 -0.16843552532E+02 -0.13717803960E+01  0.30716687604E+02  0.35058550180E+02  0.00000000000E+00 0. -1.
</event>
<event>
 7    1  0.3986981E-008  0.4614232E+02  0.7816164E-02  0.1320468E+00
        -11   -1    0    0    0    0  0.00000000000E+00  0.00000000000E+00  0.45593999997E+02  0.45594000000E+02  0.51100000000E-03 0.  1.
         11   -1    0    0    0    0 -0.00000000000E+00 -0.00000000000E+00 -0.45593999997E+02  0.45594000000E+02  0.51100000000E-03 0. -1.
    9900012    2    1    2    0    0  0.36977605414E+01 -0.32644399490E+01 -0.44774807633E+02  0.46142318744E+02  0.10000008963E+02 0.  0.
        -12    1    1    2    0    0 -0.36977605414E+01  0.32644399490E+01  0.44774807633E+02  0.45045681256E+02  0.00000000000E+00 0.  1.
         11    1    3    3    0    0 -0.12732218711E+01 -0.12654950709E+01 -0.65658470145E+01  0.68068288495E+01  0.51100000000E-03 0. -1.
        -11    1    3    3    0    0 -0.10473076656E+01 -0.19892571577E+01 -0.38905405058E+01  0.44933621126E+01  0.51100000000E-03 0.  1.
         12    1    3    3    0    0  0.60182900781E+01 -0.96877204328E-02 -0.34318420113E+02  0.34842127782E+02  0.00000000000E+00 0. -1.
</event>
<event>
 7    1  0.3986981E-008  0.4614232E+02  0.7816164E-02  0.1320468E+00
        -11   -1    0    0    0    0  0.00000000000E+00  0.00000000000E+00  0.45593999997E+02  0.45594000000E+02  0.51100000000E-03 0.  1.
         11   -1    0    0    0    0 -0.00000000000E+00 -0.00000000000E+00 -0.45593999997E+02  0.45594000000E+02  0.51100000000E-03 0. -1.
    9900012    2    1    2    0    0  0.13835937960E+02 -0.37034492500E+02 -0.21589967755E+02  0.46142317392E+02  0.99999966328E+01 0.  0.
        -12    1    1    2    0    0 -0.13835937960E+02  0.37034492500E+02  0.21589967755E+02  0.45045682608E+02  0.00000000000E+00 0.  1.
         11    1    3    3    0    0  0.10181948198E+02 -0.26917640097E+02 -0.15384578246E+02  0.32633060928E+02  0.51100000000E-03 0. -1.
        -11    1    3    3    0    0  0.18240550116E+01 -0.88268744325E+01 -0.28083086132E+01  0.94407354830E+01  0.51100000000E-03 0.  1.
        -12    1    3    3    0    0  0.18299347503E+01 -0.12899779710E+01 -0.33970808960E+01  0.40685209806E+01  0.00000000000E+00 0.  1.
</event>
<event>
 7    1  0.3986981E-008  0.4614232E+02  0.7816164E-02  0.1320468E+00
        -11   -1    0    0    0    0  0.00000000000E+00  0.00000000000E+00  0.45593999997E+02  0.45594000000E+02  0.51100000000E-03 0.  1.
         11   -1    0    0    0    0 -0.00000000000E+00 -0.00000000000E+00 -0.45593999997E+02  0.45594000000E+02  0.51100000000E-03 0. -1.
    9900012    2    1    2    0    0  0.91481126169E+01 -0.24264463100E+02 -0.36832883674E+02  0.46142318146E+02  0.10000003506E+02 0.  0.
        -12    1    1    2    0    0 -0.91481126169E+01  0.24264463100E+02  0.36832883674E+02  0.45045681854E+02  0.00000000000E+00 0.  1.
         11    1    3    3    0    0  0.45038851637E+01 -0.10770568491E+02 -0.20823066635E+02  0.23872373814E+02  0.51100000000E-03 0. -1.
        -11    1    3    3    0    0  0.25028525732E+01 -0.12214180986E+02 -0.10806055862E+02  0.16499131241E+02  0.51100000000E-03 0.  1.
        -12    1    3    3    0    0  0.21413748799E+01 -0.12797136238E+01 -0.52037611773E+01  0.57708130905E+01  0.00000000000E+00 0.  1.
</event>
<event>
 7    1  0.3986981E-008  0.4614232E+02  0.7816164E-02  0.1320468E+00
        -11   -1    0    0    0    0  0.00000000000E+00  0.00000000000E+00  0.45593999997E+02  0.45594000000E+02  0.51100000000E-03 0.  1.
         11   -1    0    0    0    0 -0.00000000000E+00 -0.00000000000E+00 -0.45593999997E+02  0.45594000000E+02  0.51100000000E-03 0. -1.
    9900012    2    1    2    0    0  0.40194425930E+02  0.17599145750E+02 -0.10187816479E+02  0.46142318613E+02  0.10000007769E+02 0.  0.
        -12    1    1    2    0    0 -0.40194425930E+02 -0.17599145750E+02  0.10187816479E+02  0.45045681387E+02  0.00000000000E+00 0.  1.
         11    1    3    3    0    0  0.11142725654E+02  0.82274938873E+01 -0.80865156484E+00  0.13874649844E+02  0.51100000000E-03 0.  1.
        -11    1    3    3    0    0  0.16553135572E+02  0.55699337030E+01 -0.77325721546E+01  0.19100343743E+02  0.51100000000E-03 0. -1.
         12    1    3    3    0    0  0.12498564705E+02  0.38017181596E+01 -0.16465927593E+01  0.13167325027E+02  0.00000000000E+00 0. -1.
</event>
<event>
 7    1  0.3986981E-008  0.4614232E+02  0.7816164E-02  0.1320468E+00
        -11   -1    0    0    0    0  0.00000000000E+00  0.00000000000E+00  0.45593999997E+02  0.45594000000E+02  0.51100000000E-03 0. -1.
         11   -1    0    0    0    0 -0.00000000000E+00 -0.00000000000E+00 -0.45593999997E+02  0.45594000000E+02  0.51100000000E-03 0.  1.
    9900012    2    1    2    0    0 -0.18083061405E+02 -0.53842474935E+01  0.40903865417E+02  0.46142318333E+02  0.10000005213E+02 0.  0.
        -12    1    1    2    0    0  0.18083061405E+02  0.53842474935E+01 -0.40903865417E+02  0.45045681667E+02  0.00000000000E+00 0.  1.
         11    1    3    3    0    0 -0.56830842760E+01  0.39440796052E+00  0.90948307484E+01  0.10731679791E+02  0.51100000000E-03 0. -1.
        -11    1    3    3    0    0  0.19431699182E+00 -0.16194606956E+01  0.11212767887E+01  0.19793114803E+01  0.51100000000E-03 0.  1.
         12    1    3    3    0    0 -0.12594294121E+02 -0.41591947584E+01  0.30687757879E+02  0.33431327062E+02  0.00000000000E+00 0. -1.
</event>
<event>
 7    1  0.3986981E-008  0.4614232E+02  0.7816164E-02  0.1320468E+00
        -11   -1    0    0    0    0  0.00000000000E+00  0.00000000000E+00  0.45593999997E+02  0.45594000000E+02  0.51100000000E-03 0.  1.
         11   -1    0    0    0    0 -0.00000000000E+00 -0.00000000000E+00 -0.45593999997E+02  0.45594000000E+02  0.51100000000E-03 0. -1.
    9900012    2    1    2    0    0 -0.21650904851E+02  0.86383063346E+01 -0.38545188101E+02  0.46142317155E+02  0.99999944755E+01 0.  0.
        -12    1    1    2    0    0  0.21650904851E+02 -0.86383063346E+01  0.38545188101E+02  0.45045682845E+02  0.00000000000E+00 0.  1.
         11    1    3    3    0    0 -0.42448358626E+01  0.45442242546E+01 -0.10476563614E+02  0.12183061643E+02  0.51100000000E-03 0. -1.
        -11    1    3    3    0    0 -0.10210022908E+02  0.56079753265E+01 -0.15375576067E+02  0.19289953206E+02  0.51100000000E-03 0.  1.
        -12    1    3    3    0    0 -0.71960460802E+01 -0.15138932465E+01 -0.12693048420E+02  0.14669302306E+02  0.00000000000E+00 0.  1.
</event>
<event>
 7    1  0.3986981E-008  0.4614232E+02  0.7816164E-02  0.1320468E+00
        -11   -1    0    0    0    0  0.00000000000E+00  0.00000000000E+00  0.45593999997E+02  0.45594000000E+02  0.51100000000E-03 0. -1.
         11   -1    0    0    0    0 -0.00000000000E+00 -0.00000000000E+00 -0.45593999997E+02  0.45594000000E+02  0.51100000000E-03 0.  1.
    9900012    2    1    2    0    0  0.13433464563E+02 -0.35871432564E+02  0.23704342913E+02  0.46142317440E+02  0.99999970726E+01 0.  0.
        -12    1    1    2    0    0 -0.13433464563E+02  0.35871432564E+02 -0.23704342913E+02  0.45045682560E+02  0.00000000000E+00 0.  1.
         11    1    3    3    0    0  0.39345413526E+01 -0.54123967903E+01  0.24277724763E+01  0.71181973932E+01  0.51100000000E-03 0. -1.
        -11    1    3    3    0    0  0.54545274411E+01 -0.21675504812E+02  0.18356223875E+02  0.28922834122E+02  0.51100000000E-03 0.  1.
        -12    1    3    3    0    0  0.40443957691E+01 -0.87835309612E+01  0.29203465622E+01  0.10101285924E+02  0.00000000000E+00 0.  1.
</event>
<event>
 7    1  0.3986981E-008  0.4614232E+02  0.7816164E-02  0.1320468E+00
        -11   -1    0    0    0    0  0.00000000000E+00  0.00000000000E+00  0.45593999997E+02  0.45594000000E+02  0.51100000000E-03 0.  1.
         11   -1    0    0    0    0 -0.00000000000E+00 -0.00000000000E+00 -0.45593999997E+02  0.45594000000E+02  0.51100000000E-03 0. -1.
    9900012    2    1    2    0    0 -0.28917024606E+02  0.24835469341E+02 -0.24002470580E+02  0.46142318260E+02  0.10000004553E+02 0.  0.
        -12    1    1    2    0    0  0.28917024606E+02 -0.24835469341E+02  0.24002470580E+02  0.45045681740E+02  0.00000000000E+00 0.  1.
         11    1    3    3    0    0 -0.17650918703E+01  0.45728439014E+01 -0.32267421638E+01  0.58684168146E+01  0.51100000000E-03 0. -1.
        -11    1    3    3    0    0 -0.15365847953E+02  0.85567578704E+01 -0.13338524377E+02  0.22073595570E+02  0.51100000000E-03 0.  1.
         12    1    3    3    0    0 -0.11786084783E+02  0.11705867569E+02 -0.74372040383E+01  0.18200305875E+02  0.00000000000E+00 0. -1.
</event>
<event>
 7    1  0.3986981E-008  0.4614232E+02  0.7816164E-02  0.1320468E+00
        -11   -1    0    0    0    0  0.00000000000E+00  0.00000000000E+00  0.45593999997E+02  0.45594000000E+02  0.51100000000E-03 0.  1.
         11   -1    0    0    0    0 -0.00000000000E+00 -0.00000000000E+00 -0.45593999997E+02  0.45594000000E+02  0.51100000000E-03 0. -1.
    9900012    2    1    2    0    0  0.20853394384E+02  0.39762155907E+02 -0.36359915420E+01  0.46142317253E+02  0.99999953626E+01 0.  0.
        -12    1    1    2    0    0 -0.20853394384E+02 -0.39762155907E+02  0.36359915420E+01  0.45045682747E+02  0.00000000000E+00 0.  1.
         11    1    3    3    0    0  0.13765349823E+02  0.20500204699E+02 -0.18565076935E+01  0.24762670888E+02  0.51100000000E-03 0. -1.
        -11    1    3    3    0    0 -0.10266170827E+00  0.70039462652E+01  0.33017218966E+00  0.70124757859E+01  0.51100000000E-03 0.  1.
        -12    1    3    3    0    0  0.71907062688E+01  0.12258004943E+02 -0.21096560382E+01  0.14367170578E+02  0.00000000000E+00 0.  1.
</event>
<event>
 7    1  0.3986981E-008  0.4614231E+02  0.7816164E-02  0.1320468E+00
        -11   -1    0    0    0    0  0.00000000000E+00  0.00000000000E+00  0.45593999997E+02  0.45594000000E+02  0.51100000000E-03 0. -1.
         11   -1    0    0    0    0 -0.00000000000E+00 -0.00000000000E+00 -0.45593999997E+02  0.45594000000E+02  0.51100000000E-03 0.  1.
    9900012    2    1    2    0    0  0.36751949015E+02 -0.24827530465E+02 -0.78741561423E+01  0.46142308083E+02  0.99999117432E+01 0.  0.
        -12    1    1    2    0    0 -0.36751949015E+02  0.24827530465E+02  0.78741561423E+01  0.45045691917E+02  0.00000000000E+00 0.  1.
         11    1    3    3    0    0  0.15991212730E+02 -0.10188550414E+02 -0.34035659571E+01  0.19264207889E+02  0.51100000000E-03 0. -1.
        -11    1    3    3    0    0  0.16476548337E+02 -0.85948381729E+01 -0.77667925767E+00  0.18599761269E+02  0.51100000000E-03 0.  1.
        -12    1    3    3    0    0  0.42841879475E+01 -0.60441418773E+01 -0.36939109275E+01  0.82783389241E+01  0.00000000000E+00 0.  1.
</event>
<event>
 7    1  0.3986981E-008  0.4614232E+02  0.7816164E-02  0.1320468E+00
        -11   -1    0    0    0    0  0.00000000000E+00  0.00000000000E+00  0.45593999997E+02  0.45594000000E+02  0.51100000000E-03 0.  1.
         11   -1    0    0    0    0 -0.00000000000E+00 -0.00000000000E+00 -0.45593999997E+02  0.45594000000E+02  0.51100000000E-03 0. -1.
    9900012    2    1    2    0    0  0.25030191227E+02 -0.14883355696E+02 -0.34366971309E+02  0.46142318003E+02  0.10000002204E+02 0.  0.
        -12    1    1    2    0    0 -0.25030191227E+02  0.14883355696E+02  0.34366971309E+02  0.45045681997E+02  0.00000000000E+00 0.  1.
         11    1    3    3    0    0  0.18132133964E+02 -0.99533796801E+01 -0.29482848727E+02  0.36015030452E+02  0.51100000000E-03 0. -1.
        -11    1    3    3    0    0  0.50193882213E+01 -0.27392693450E+01 -0.43678273976E+01  0.71955382771E+01  0.51100000000E-03 0.  1.
         12    1    3    3    0    0  0.18786690419E+01 -0.21907066711E+01 -0.51629518464E+00  0.29317492740E+01  0.00000000000E+00 0. -1.
</event>
<event>
 7    1  0.3986981E-008  0.4614231E+02  0.7816164E-02  0.1320468E+00
        -11   -1    0    0    0    0  0.00000000000E+00  0.00000000000E+00  0.45593999997E+02  0.45594000000E+02  0.51100000000E-03 0.  1.
         11   -1    0    0    0    0 -0.00000000000E+00 -0.00000000000E+00 -0.45593999997E+02  0.45594000000E+02  0.51100000000E-03 0. -1.
    9900012    2    1    2    0    0 -0.21132860969E+02  0.28773445955E+02 -0.27470073737E+02  0.46142312571E+02  0.99999526679E+01 0.  0.
        -12    1    1    2    0    0  0.21132860969E+02 -0.28773445955E+02  0.27470073737E+02  0.45045687429E+02  0.00000000000E+00 0.  1.
         11    1    3    3    0    0 -0.61756299274E+01  0.43167209631E+01 -0.70073350529E+01  0.10289568974E+02  0.51100000000E-03 0. -1.
        -11    1    3    3    0    0 -0.10190168036E+02  0.19103360099E+02 -0.18345364774E+02  0.28378342105E+02  0.51100000000E-03 0.  1.
        -12    1    3    3    0    0 -0.47670630061E+01  0.53533648928E+01 -0.21173739109E+01  0.74744014916E+01  0.00000000000E+00 0.  1.
</event>
<event>
 7    1  0.3986981E-008  0.4614232E+02  0.7816164E-02  0.1320468E+00
        -11   -1    0    0    0    0  0.00000000000E+00  0.00000000000E+00  0.45593999997E+02  0.45594000000E+02  0.51100000000E-03 0. -1.
         11   -1    0    0    0    0 -0.00000000000E+00 -0.00000000000E+00 -0.45593999997E+02  0.45594000000E+02  0.51100000000E-03 0.  1.
    9900012    2    1    2    0    0 -0.40123580163E+02 -0.12674740506E+02  0.16079880258E+02  0.46142320062E+02  0.10000020981E+02 0.  0.
        -12    1    1    2    0    0  0.40123580163E+02  0.12674740506E+02 -0.16079880258E+02  0.45045679938E+02  0.00000000000E+00 0.  1.
         11    1    3    3    0    0 -0.29843099005E+02 -0.86703005785E+01  0.77301722115E+01  0.32024057098E+02  0.51100000000E-03 0. -1.
        -11    1    3    3    0    0 -0.11470707951E+01 -0.13221586008E+01  0.20863839024E+01  0.27233936227E+01  0.51100000000E-03 0.  1.
         12    1    3    3    0    0 -0.91334103622E+01 -0.26822813270E+01  0.62633241443E+01  0.11394869341E+02  0.00000000000E+00 0. -1.
</event>
<event>
 7    1  0.3986981E-008  0.4614232E+02  0.7816164E-02  0.1320468E+00
        -11   -1    0    0    0    0  0.00000000000E+00  0.00000000000E+00  0.45593999997E+02  0.45594000000E+02  0.51100000000E-03 0.  1.
         11   -1    0    0    0    0 -0.00000000000E+00 -0.00000000000E+00 -0.45593999997E+02  0.45594000000E+02  0.51100000000E-03 0. -1.
    9900012    2    1    2    0    0 -0.18482053082E+02 -0.27261697329E+02 -0.30729905387E+02  0.46142317493E+02  0.99999975575E+01 0.  0.
        -12    1    1    2    0    0  0.18482053082E+02  0.27261697329E+02  0.30729905387E+02  0.45045682507E+02  0.00000000000E+00 0.  1.
         11    1    3    3    0    0 -0.84731620892E+01 -0.13884016381E+02 -0.11160579885E+02  0.19726097695E+02  0.51100000000E-03 0. -1.
        -11    1    3    3    0    0 -0.63652134101E+01 -0.96768063131E+01 -0.91010531060E+01  0.14730434144E+02  0.51100000000E-03 0.  1.
        -12    1    3    3    0    0 -0.36436775830E+01 -0.37008746355E+01 -0.10468272396E+02  0.11685785654E+02  0.00000000000E+00 0.  1.
</event>
<event>
 7    1  0.3986981E-008  0.4614232E+02  0.7816164E-02  0.1320468E+00
        -11   -1    0    0    0    0  0.00000000000E+00  0.00000000000E+00  0.45593999997E+02  0.45594000000E+02  0.51100000000E-03 0. -1.
         11   -1    0    0    0    0 -0.00000000000E+00 -0.00000000000E+00 -0.45593999997E+02  0.45594000000E+02  0.51100000000E-03 0.  1.
    9900012    2    1    2    0    0  0.38632591976E+02  0.15859930341E+02  0.16884871876E+02  0.46142318170E+02  0.10000003730E+02 0.  0.
        -12    1    1    2    0    0 -0.38632591976E+02 -0.15859930341E+02 -0.16884871876E+02  0.45045681830E+02  0.00000000000E+00 0.  1.
         11    1    3    3    0    0  0.19665952450E+02  0.90963982430E+01  0.45500105177E+01  0.22140387140E+02  0.51100000000E-03 0. -1.
        -11    1    3    3    0    0 -0.51471282452E-01  0.19334135991E+00 -0.21039860415E+00  0.29034119260E+00  0.51100000000E-03 0.  1.
        -12    1    3    3    0    0  0.19018110809E+02  0.65701907384E+01  0.12545259963E+02  0.23711589837E+02  0.00000000000E+00 0.  1.
</event>
<event>
 7    1  0.3986981E-008  0.4614232E+02  0.7816164E-02  0.1320468E+00
        -11   -1    0    0    0    0  0.00000000000E+00  0.00000000000E+00  0.45593999997E+02  0.45594000000E+02  0.51100000000E-03 0.  1.
         11   -1    0    0    0    0 -0.00000000000E+00 -0.00000000000E+00 -0.45593999997E+02  0.45594000000E+02  0.51100000000E-03 0. -1.
    9900012    2    1    2    0    0  0.25086547631E+02 -0.24679407543E+02 -0.28119485303E+02  0.46142317827E+02  0.10000000602E+02 0.  0.
        -12    1    1    2    0    0 -0.25086547631E+02  0.24679407543E+02  0.28119485303E+02  0.45045682173E+02  0.00000000000E+00 0.  1.
         11    1    3    3    0    0  0.47764835179E+01 -0.22051257896E+01 -0.51984605422E+01  0.73960372372E+01  0.51100000000E-03 0. -1.
        -11    1    3    3    0    0  0.35125885808E+00  0.27254189916E+00 -0.17715175224E+01  0.18264546163E+01  0.51100000000E-03 0.  1.
         12    1    3    3    0    0  0.19958805255E+02 -0.22746823652E+02 -0.21149507238E+02  0.36919825974E+02  0.00000000000E+00 0. -1.
</event>
<event>
 7    1  0.3986981E-008  0.4614232E+02  0.7816164E-02  0.1320468E+00
        -11   -1    0    0    0    0  0.00000000000E+00  0.00000000000E+00  0.45593999997E+02  0.45594000000E+02  0.51100000000E-03 0.  1.
         11   -1    0    0    0    0 -0.00000000000E+00 -0.00000000000E+00 -0.45593999997E+02  0.45594000000E+02  0.51100000000E-03 0. -1.
    9900012    2    1    2    0    0 -0.24022195168E+02 -0.36303823366E+02 -0.11579290471E+02  0.46142318526E+02  0.10000006971E+02 0.  0.
        -12    1    1    2    0    0  0.24022195168E+02  0.36303823366E+02  0.11579290471E+02  0.45045681474E+02  0.00000000000E+00 0.  1.
         11    1    3    3    0    0 -0.18856729076E+02 -0.21825376608E+02 -0.80768384096E+01  0.29952606138E+02  0.51100000000E-03 0. -1.
        -11    1    3    3    0    0 -0.50421622850E+00 -0.25142476540E+00  0.43225357843E+00  0.71013508216E+00  0.51100000000E-03 0.  1.
         12    1    3    3    0    0 -0.46612498632E+01 -0.14227021993E+02 -0.39347056396E+01  0.15479577305E+02  0.00000000000E+00 0. -1.
</event>
<event>
 7    1  0.3986981E-008  0.4614232E+02  0.7816164E-02  0.1320468E+00
        -11   -1    0    0    0    0  0.00000000000E+00  0.00000000000E+00  0.45593999997E+02  0.45594000000E+02  0.51100000000E-03 0. -1.
         11   -1    0    0    0    0 -0.00000000000E+00 -0.00000000000E+00 -0.45593999997E+02  0.45594000000E+02  0.51100000000E-03 0.  1.
    9900012    2    1    2    0    0 -0.39039317155E+02 -0.21180809783E+02 -0.75112283913E+01  0.46142317200E+02  0.99999948814E+01 0.  0.
        -12    1    1    2    0    0  0.39039317155E+02  0.21180809783E+02  0.75112283913E+01  0.45045682800E+02  0.00000000000E+00 0.  1.
         11    1    3    3    0    0 -0.67101300860E+00 -0.84415880490E+00 -0.92991131088E+00  0.14239374470E+01  0.51100000000E-03 0. -1.
        -11    1    3    3    0    0 -0.20028528627E+02 -0.12931318523E+02  0.10429807631E+00  0.23840550247E+02  0.51100000000E-03 0.  1.
         12    1    3    3    0    0 -0.18339775519E+02 -0.74053324550E+01 -0.66856151567E+01  0.20877829506E+02  0.00000000000E+00 0. -1.
</event>
<event>
 7    1  0.3986981E-008  0.4614232E+02  0.7816164E-02  0.1320468E+00
        -11   -1    0    0    0    0  0.00000000000E+00  0.00000000000E+00  0.45593999997E+02  0.45594000000E+02  0.51100000000E-03 0.  1.
         11   -1    0    0    0    0 -0.00000000000E+00 -0.00000000000E+00 -0.45593999997E+02  0.45594000000E+02  0.51100000000E-03 0. -1.
    9900012    2    1    2    0    0  0.34084272517E+02  0.19256558777E+02 -0.22283648104E+02  0.46142315836E+02  0.99999824474E+01 0.  0.
        -12    1    1    2    0    0 -0.34084272517E+02 -0.19256558777E+02  0.22283648104E+02  0.45045684164E+02  0.00000000000E+00 0.  1.
         11    1    3    3    0    0  0.90462861139E+00  0.11317135731E+01  0.10669210992E+00  0.14527601328E+01  0.51100000000E-03 0. -1.
        -11    1    3    3    0    0  0.75452029500E+01  0.58670611636E+01 -0.95408588791E+01  0.13504831827E+02  0.51100000000E-03 0.  1.
         12    1    3    3    0    0  0.25634440956E+02  0.12257784040E+02 -0.12849481335E+02  0.31184723877E+02  0.00000000000E+00 0. -1.
</event>
<event>
 7    1  0.3986981E-008  0.4614232E+02  0.7816164E-02  0.1320468E+00
        -11   -1    0    0    0    0  0.00000000000E+00  0.00000000000E+00  0.45593999997E+02  0.45594000000E+02  0.51100000000E-03 0. -1.
         11   -1    0    0    0    0 -0.00000000000E+00 -0.00000000000E+00 -0.45593999997E+02  0.45594000000E+02  0.51100000000E-03 0.  1.
    9900012    2    1    2    0    0 -0.22041196933E+02 -0.20990927867E+02  0.33206627146E+02  0.46142317617E+02  0.99999986844E+01 0.  0.
        -12    1    1    2    0    0  0.22041196933E+02  0.20990927867E+02 -0.33206627146E+02  0.45045682383E+02  0.00000000000E+00 0.  1.
         11    1    3    3    0    0 -0.29803556145E+01 -0.32783314878E+01  0.61532771825E+01  0.75824004958E+01  0.51100000000E-03 0.  1.
        -11    1    3    3    0    0 -0.36282092016E+00 -0.40352337379E+01  0.61022325573E+01  0.73247520630E+01  0.51100000000E-03 0. -1.
         12    1    3    3    0    0 -0.18698020398E+02 -0.13677362641E+02  0.20951117406E+02  0.31235165058E+02  0.00000000000E+00 0. -1.
</event>
<event>
 7    1  0.3986981E-008  0.4614232E+02  0.7816164E-02  0.1320468E+00
        -11   -1    0    0    0    0  0.00000000000E+00  0.00000000000E+00  0.45593999997E+02  0.45594000000E+02  0.51100000000E-03 0.  1.
         11   -1    0    0    0    0 -0.00000000000E+00 -0.00000000000E+00 -0.45593999997E+02  0.45594000000E+02  0.51100000000E-03 0. -1.
    9900012    2    1    2    0    0 -0.22370989898E+02 -0.21568971888E+02 -0.32610300351E+02  0.46142318450E+02  0.10000006286E+02 0.  0.
        -12    1    1    2    0    0  0.22370989898E+02  0.21568971888E+02  0.32610300351E+02  0.45045681550E+02  0.00000000000E+00 0.  1.
         11    1    3    3    0    0 -0.65381242511E+01 -0.50084599958E+01 -0.13903191770E+02  0.16159532230E+02  0.51100000000E-03 0. -1.
        -11    1    3    3    0    0 -0.81477223892E+01 -0.56601615605E+01 -0.97989817140E+01  0.13944276672E+02  0.51100000000E-03 0.  1.
        -12    1    3    3    0    0 -0.76851432573E+01 -0.10900350332E+02 -0.89081268668E+01  0.16038509548E+02  0.00000000000E+00 0.  1.
</event>
<event>
 7    1  0.3986981E-008  0.4614232E+02  0.7816164E-02  0.1320468E+00
        -11   -1    0    0    0    0  0.00000000000E+00  0.00000000000E+00  0.45593999997E+02  0.45594000000E+02  0.51100000000E-03 0.  1.
         11   -1    0    0    0    0 -0.00000000000E+00 -0.00000000000E+00 -0.45593999997E+02  0.45594000000E+02  0.51100000000E-03 0. -1.
    9900012    2    1    2    0    0 -0.35029669367E+02  0.53838437813E+01 -0.27803778082E+02  0.46142316684E+02  0.99999901757E+01 0.  0.
        -12    1    1    2    0    0  0.35029669367E+02 -0.53838437813E+01  0.27803778082E+02  0.45045683316E+02  0.00000000000E+00 0.  1.
         11    1    3    3    0    0 -0.61770649973E+01  0.22061069859E+01 -0.52253538075E+01  0.83861411083E+01  0.51100000000E-03 0. -1.
        -11    1    3    3    0    0 -0.27576949514E+02  0.45239147501E+01 -0.19211221198E+02  0.33912018066E+02  0.51100000000E-03 0.  1.
        -12    1    3    3    0    0 -0.12756548554E+01 -0.13461779546E+01 -0.33672030764E+01  0.38441575089E+01  0.00000000000E+00 0.  1.
</event>
<event>
 7    1  0.3986981E-008  0.4614232E+02  0.7816164E-02  0.1320468E+00
        -11   -1    0    0    0    0  0.00000000000E+00  0.00000000000E+00  0.45593999997E+02  0.45594000000E+02  0.51100000000E-03 0. -1.
         11   -1    0    0    0    0 -0.00000000000E+00 -0.00000000000E+00 -0.45593999997E+02  0.45594000000E+02  0.51100000000E-03 0.  1.
    9900012    2    1    2    0    0 -0.15343866119E+02 -0.41668423324E+02  0.75777121321E+01  0.46142318177E+02  0.10000003789E+02 0.  0.
        -12    1    1    2    0    0  0.15343866119E+02  0.41668423324E+02 -0.75777121321E+01  0.45045681823E+02  0.00000000000E+00 0.  1.
         11    1    3    3    0    0 -0.37475736611E+01 -0.68143550213E+01  0.10962650174E+01  0.78537596062E+01  0.51100000000E-03 0. -1.
        -11    1    3    3    0    0 -0.58708121298E+01 -0.72414718988E+01 -0.13310191604E+00  0.93232540835E+01  0.51100000000E-03 0.  1.
         12    1    3    3    0    0 -0.57254803284E+01 -0.27612596404E+02  0.66145490308E+01  0.28965304487E+02  0.00000000000E+00 0. -1.
</event>
<event>
 7    1  0.3986981E-008  0.4614232E+02  0.7816164E-02  0.1320468E+00
        -11   -1    0    0    0    0  0.00000000000E+00  0.00000000000E+00  0.45593999997E+02  0.45594000000E+02  0.51100000000E-03 0.  1.
         11   -1    0    0    0    0 -0.00000000000E+00 -0.00000000000E+00 -0.45593999997E+02  0.45594000000E+02  0.51100000000E-03 0. -1.
    9900012    2    1    2    0    0  0.44192113401E+02 -0.55871289256E+01 -0.67048223854E+01  0.46142317191E+02  0.99999948020E+01 0.  0.
        -12    1    1    2    0    0 -0.44192113401E+02  0.55871289256E+01  0.67048223854E+01  0.45045682809E+02  0.00000000000E+00 0.  1.
         11    1    3    3    0    0  0.53277244875E+01 -0.19690639646E+01 -0.21088550191E+01  0.60588060593E+01  0.51100000000E-03 0. -1.
        -11    1    3    3    0    0  0.35754256075E+01 -0.18979055119E+01  0.13264313969E+01  0.42597105675E+01  0.51100000000E-03 0.  1.
         12    1    3    3    0    0  0.35288963306E+02 -0.17201594492E+01 -0.59223987632E+01  0.35823800564E+02  0.00000000000E+00 0. -1.
</event>
<event>
 7    1  0.3986981E-008  0.4614232E+02  0.7816164E-02  0.1320468E+00
        -11   -1    0    0    0    0  0.00000000000E+00  0.00000000000E+00  0.45593999997E+02  0.45594000000E+02  0.51100000000E-03 0.  1.
         11   -1    0    0    0    0 -0.00000000000E+00 -0.00000000000E+00 -0.45593999997E+02  0.45594000000E+02  0.51100000000E-03 0. -1.
    9900012    2    1    2    0    0 -0.38043115097E+02 -0.23266368283E+02  0.63648417096E+01  0.46142315308E+02  0.99999776301E+01 0.  0.
        -12    1    1    2    0    0  0.38043115097E+02  0.23266368283E+02 -0.63648417096E+01  0.45045684692E+02  0.00000000000E+00 0.  1.
         11    1    3    3    0    0 -0.15108738988E+02 -0.82057297815E+01  0.22719988557E+01  0.17342721070E+02  0.51100000000E-03 0. -1.
        -11    1    3    3    0    0 -0.10720662646E+02 -0.27598398939E+01  0.40759368935E+00  0.11077700875E+02  0.51100000000E-03 0.  1.
        -12    1    3    3    0    0 -0.12213713464E+02 -0.12300798608E+02  0.36852491646E+01  0.17721893363E+02  0.00000000000E+00 0.  1.
</event>
<event>
 7    1  0.3986981E-008  0.4614232E+02  0.7816164E-02  0.1320468E+00
        -11   -1    0    0    0    0  0.00000000000E+00  0.00000000000E+00  0.45593999997E+02  0.45594000000E+02  0.51100000000E-03 0.  1.
         11   -1    0    0    0    0 -0.00000000000E+00 -0.00000000000E+00 -0.45593999997E+02  0.45594000000E+02  0.51100000000E-03 0. -1.
    9900012    2    1    2    0    0  0.46471725004E+01 -0.38327938808E+02 -0.23205311375E+02  0.46142316727E+02  0.99999905670E+01 0.  0.
        -12    1    1    2    0    0 -0.46471725004E+01  0.38327938808E+02  0.23205311375E+02  0.45045683273E+02  0.00000000000E+00 0.  1.
         11    1    3    3    0    0  0.21537570336E+01 -0.15065005178E+02 -0.12809133596E+02  0.19891378890E+02  0.51100000000E-03 0. -1.
        -11    1    3    3    0    0 -0.12077059553E+01 -0.13600044273E+02 -0.71119617864E+01  0.15394796478E+02  0.51100000000E-03 0.  1.
        -12    1    3    3    0    0  0.37011214221E+01 -0.96628893577E+01 -0.32842159921E+01  0.10856141359E+02  0.00000000000E+00 0.  1.
</event>
<event>
 7    1  0.3986981E-008  0.4614232E+02  0.7816164E-02  0.1320468E+00
        -11   -1    0    0    0    0  0.00000000000E+00  0.00000000000E+00  0.45593999997E+02  0.45594000000E+02  0.51100000000E-03 0. -1.
         11   -1    0    0    0    0 -0.00000000000E+00 -0.00000000000E+00 -0.45593999997E+02  0.45594000000E+02  0.51100000000E-03 0.  1.
    9900012    2    1    2    0    0  0.20696118623E+02  0.36866678385E+02  0.15544521620E+02  0.46142318147E+02  0.10000003521E+02 0.  0.
        -12    1    1    2    0    0 -0.20696118623E+02 -0.36866678385E+02 -0.15544521620E+02  0.45045681853E+02  0.00000000000E+00 0.  1.
         11    1    3    3    0    0  0.26718430885E+01  0.53837501891E+01  0.46690409346E+01  0.76107460277E+01  0.51100000000E-03 0.  1.
        -11    1    3    3    0    0  0.64896979548E+01  0.64218761097E+01  0.46664160212E+01  0.10253395099E+02  0.51100000000E-03 0. -1.
         12    1    3    3    0    0  0.11534577580E+02  0.25061052086E+02  0.62090646638E+01  0.28278177020E+02  0.00000000000E+00 0. -1.
</event>
<event>
 7    1  0.3986981E-008  0.4614230E+02  0.7816164E-02  0.1320468E+00
        -11   -1    0    0    0    0  0.00000000000E+00  0.00000000000E+00  0.45593999997E+02  0.45594000000E+02  0.51100000000E-03 0. -1.
         11   -1    0    0    0    0 -0.00000000000E+00 -0.00000000000E+00 -0.45593999997E+02  0.45594000000E+02  0.51100000000E-03 0.  1.
    9900012    2    1    2    0    0 -0.11829639197E+02  0.40340263834E+02  0.16181392565E+02  0.46142304145E+02  0.99998758355E+01 0.  0.
        -12    1    1    2    0    0  0.11829639197E+02 -0.40340263834E+02 -0.16181392565E+02  0.45045695855E+02  0.00000000000E+00 0.  1.
         11    1    3    3    0    0 -0.12912429403E+01  0.34127594419E+01 -0.32423162285E+00  0.36632447018E+01  0.51100000000E-03 0. -1.
        -11    1    3    3    0    0  0.73512150928E-02  0.68305266881E+01  0.64292882223E+00  0.68607220181E+01  0.51100000000E-03 0.  1.
         12    1    3    3    0    0 -0.10545747472E+02  0.30096977704E+02  0.15862695366E+02  0.35618337425E+02  0.00000000000E+00 0. -1.
</event>
<event>
 7    1  0.3986981E-008  0.4614232E+02  0.7816164E-02  0.1320468E+00
        -11   -1    0    0    0    0  0.00000000000E+00  0.00000000000E+00  0.45593999997E+02  0.45594000000E+02  0.51100000000E-03 0.  1.
         11   -1    0    0    0    0 -0.00000000000E+00 -0.00000000000E+00 -0.45593999997E+02  0.45594000000E+02  0.51100000000E-03 0. -1.
    9900012    2    1    2    0    0  0.86767514194E+01 -0.10713138889E+02 -0.42884218485E+02  0.46142317020E+02  0.99999932426E+01 0.  0.
        -12    1    1    2    0    0 -0.86767514194E+01  0.10713138889E+02  0.42884218485E+02  0.45045682980E+02  0.00000000000E+00 0.  1.
         11    1    3    3    0    0  0.34123341296E+01 -0.37209180267E+01 -0.12997144796E+02  0.13943278964E+02  0.51100000000E-03 0. -1.
        -11    1    3    3    0    0  0.14862185756E+00 -0.11394644081E+00 -0.15142827422E+02  0.15143985434E+02  0.51100000000E-03 0.  1.
        -12    1    3    3    0    0  0.51157954321E+01 -0.68782744215E+01 -0.14744246268E+02  0.17055052621E+02  0.00000000000E+00 0.  1.
</event>
<event>
 7    1  0.3986981E-008  0.4614232E+02  0.7816164E-02  0.1320468E+00
        -11   -1    0    0    0    0  0.00000000000E+00  0.00000000000E+00  0.45593999997E+02  0.45594000000E+02  0.51100000000E-03 0.  1.
         11   -1    0    0    0    0 -0.00000000000E+00 -0.00000000000E+00 -0.45593999997E+02  0.45594000000E+02  0.51100000000E-03 0. -1.
    9900012    2    1    2    0    0  0.23269476253E+02 -0.10624028440E+02 -0.37077958374E+02  0.46142317603E+02  0.99999985622E+01 0.  0.
        -12    1    1    2    0    0 -0.23269476253E+02  0.10624028440E+02  0.37077958374E+02  0.45045682397E+02  0.00000000000E+00 0.  1.
         11    1    3    3    0    0  0.15398392903E+02 -0.61542598281E+01 -0.28277681721E+02  0.32781285847E+02  0.51100000000E-03 0. -1.
        -11    1    3    3    0    0  0.79525581630E+01 -0.38614966066E+01 -0.90920743501E+01  0.12681488620E+02  0.51100000000E-03 0.  1.
        -12    1    3    3    0    0 -0.81474813219E-01 -0.60827200545E+00  0.29179769676E+00  0.67954313597E+00  0.00000000000E+00 0.  1.
</event>
<event>
 7    1  0.3986981E-008  0.4614232E+02  0.7816164E-02  0.1320468E+00
        -11   -1    0    0    0    0  0.00000000000E+00  0.00000000000E+00  0.45593999997E+02  0.45594000000E+02  0.51100000000E-03 0.  1.
         11   -1    0    0    0    0 -0.00000000000E+00 -0.00000000000E+00 -0.45593999997E+02  0.45594000000E+02  0.51100000000E-03 0. -1.
    9900012    2    1    2    0    0 -0.11442630058E+01 -0.26324221008E+02 -0.36535456036E+02  0.46142317663E+02  0.99999991016E+01 0.  0.
        -12    1    1    2    0    0  0.11442630058E+01  0.26324221008E+02  0.36535456036E+02  0.45045682337E+02  0.00000000000E+00 0.  1.
         11    1    3    3    0    0  0.18442990882E+01 -0.61813676148E+01 -0.11463087224E+02  0.13153444936E+02  0.51100000000E-03 0. -1.
        -11    1    3    3    0    0  0.18778574478E+01 -0.24506445368E+01 -0.37929972521E+01  0.48906886688E+01  0.51100000000E-03 0.  1.
         12    1    3    3    0    0 -0.48664195417E+01 -0.17692208856E+02 -0.21279371560E+02  0.28098184058E+02  0.00000000000E+00 0. -1.
</event>
<event>
 7    1  0.3986981E-008  0.4614232E+02  0.7816164E-02  0.1320468E+00
        -11   -1    0    0    0    0  0.00000000000E+00  0.00000000000E+00  0.45593999997E+02  0.45594000000E+02  0.51100000000E-03 0.  1.
         11   -1    0    0    0    0 -0.00000000000E+00 -0.00000000000E+00 -0.45593999997E+02  0.45594000000E+02  0.51100000000E-03 0. -1.
    9900012    2    1    2    0    0  0.26849953428E+02 -0.32336738860E+02 -0.16202742836E+02  0.46142317026E+02  0.99999932955E+01 0.  0.
        -12    1    1    2    0    0 -0.26849953428E+02  0.32336738860E+02  0.16202742836E+02  0.45045682974E+02  0.00000000000E+00 0.  1.
         11    1    3    3    0    0  0.95616494075E+01 -0.10539417345E+02 -0.26776257458E+01  0.14480129048E+02  0.51100000000E-03 0. -1.
        -11    1    3    3    0    0  0.17062184783E+02 -0.18322574424E+02 -0.10925288025E+02  0.27316603043E+02  0.51100000000E-03 0.  1.
        -12    1    3    3    0    0  0.22611923728E+00 -0.34747470910E+01 -0.25998290654E+01  0.43455849347E+01  0.00000000000E+00 0.  1.
</event>
<event>
 7    1  0.3986981E-008  0.4614232E+02  0.7816164E-02  0.1320468E+00
        -11   -1    0    0    0    0  0.00000000000E+00  0.00000000000E+00  0.45593999997E+02  0.45594000000E+02  0.51100000000E-03 0.  1.
         11   -1    0    0    0    0 -0.00000000000E+00 -0.00000000000E+00 -0.45593999997E+02  0.45594000000E+02  0.51100000000E-03 0. -1.
    9900012    2    1    2    0    0 -0.20820433349E+02  0.39942049926E+02  0.50569501328E+00  0.46142317359E+02  0.99999963342E+01 0.  0.
        -12    1    1    2    0    0  0.20820433349E+02 -0.39942049926E+02 -0.50569501328E+00  0.45045682641E+02  0.00000000000E+00 0.  1.
         11    1    3    3    0    0 -0.40981192609E+01  0.78672631801E+01  0.27339270778E+01  0.92823902605E+01  0.51100000000E-03 0. -1.
        -11    1    3    3    0    0 -0.16448668549E+01  0.18869597531E+01  0.14882377235E+01  0.29122252425E+01  0.51100000000E-03 0.  1.
         12    1    3    3    0    0 -0.15077447233E+02  0.30187826993E+02 -0.37164697880E+01  0.33947701856E+02  0.00000000000E+00 0. -1.
</event>
<event>
 7    1  0.3986981E-008  0.4614232E+02  0.7816164E-02  0.1320468E+00
        -11   -1    0    0    0    0  0.00000000000E+00  0.00000000000E+00  0.45593999997E+02  0.45594000000E+02  0.51100000000E-03 0.  1.
         11   -1    0    0    0    0 -0.00000000000E+00 -0.00000000000E+00 -0.45593999997E+02  0.45594000000E+02  0.51100000000E-03 0. -1.
    9900012    2    1    2    0    0 -0.23109459328E+02 -0.37752998201E+02 -0.83532927750E+01  0.46142317811E+02  0.10000000459E+02 0.  0.
        -12    1    1    2    0    0  0.23109459328E+02  0.37752998201E+02  0.83532927750E+01  0.45045682189E+02  0.00000000000E+00 0.  1.
         11    1    3    3    0    0 -0.12966638803E+02 -0.26674240927E+02 -0.85244018822E+01  0.30859589735E+02  0.51100000000E-03 0. -1.
        -11    1    3    3    0    0  0.14178424524E+00  0.64238279597E-02 -0.72648165882E-01  0.15944295184E+00  0.51100000000E-03 0.  1.
         12    1    3    3    0    0 -0.10284604771E+02 -0.11085181102E+02  0.24375727304E+00  0.15123285125E+02  0.00000000000E+00 0. -1.
</event>
<event>
 7    1  0.3986981E-008  0.4614232E+02  0.7816164E-02  0.1320468E+00
        -11   -1    0    0    0    0  0.00000000000E+00  0.00000000000E+00  0.45593999997E+02  0.45594000000E+02  0.51100000000E-03 0. -1.
         11   -1    0    0    0    0 -0.00000000000E+00 -0.00000000000E+00 -0.45593999997E+02  0.45594000000E+02  0.51100000000E-03 0.  1.
    9900012    2    1    2    0    0  0.10030592558E+02  0.31069139361E+02  0.31035613365E+02  0.46142317580E+02  0.99999983503E+01 0.  0.
        -12    1    1    2    0    0 -0.10030592558E+02 -0.31069139361E+02 -0.31035613365E+02  0.45045682420E+02  0.00000000000E+00 0.  1.
         11    1    3    3    0    0  0.85691043695E+00  0.54639368708E+01  0.15977765026E+01  0.57568907961E+01  0.51100000000E-03 0. -1.
        -11    1    3    3    0    0  0.26924872001E+01  0.35243731308E+01  0.66969442078E+01  0.80324190174E+01  0.51100000000E-03 0.  1.
         12    1    3    3    0    0  0.64811949211E+01  0.22080829359E+02  0.22740892655E+02  0.32353007767E+02  0.00000000000E+00 0. -1.
</event>
<event>
 7    1  0.3986981E-008  0.4614232E+02  0.7816164E-02  0.1320468E+00
        -11   -1    0    0    0    0  0.00000000000E+00  0.00000000000E+00  0.45593999997E+02  0.45594000000E+02  0.51100000000E-03 0. -1.
         11   -1    0    0    0    0 -0.00000000000E+00 -0.00000000000E+00 -0.45593999997E+02  0.45594000000E+02  0.51100000000E-03 0.  1.
    9900012    2    1    2    0    0  0.37389994077E+02  0.17743479712E+02  0.17784002101E+02  0.46142318075E+02  0.10000002864E+02 0.  0.
        -12    1    1    2    0    0 -0.37389994077E+02 -0.17743479712E+02 -0.17784002101E+02  0.45045681925E+02  0.00000000000E+00 0.  1.
         11    1    3    3    0    0  0.13937541342E+02  0.41909163241E+01  0.47404073934E+01  0.15306544378E+02  0.51100000000E-03 0. -1.
        -11    1    3    3    0    0  0.71433356397E+01  0.10650741101E+01  0.49606816506E+01  0.87618485276E+01  0.51100000000E-03 0.  1.
         12    1    3    3    0    0  0.16309117095E+02  0.12487489278E+02  0.80829130571E+01  0.22073925169E+02  0.00000000000E+00 0. -1.
</event>
<event>
 7    1  0.3986981E-008  0.4614232E+02  0.7816164E-02  0.1320468E+00
        -11   -1    0    0    0    0  0.00000000000E+00  0.00000000000E+00  0.45593999997E+02  0.45594000000E+02  0.51100000000E-03 0.  1.
         11   -1    0    0    0    0 -0.00000000000E+00 -0.00000000000E+00 -0.45593999997E+02  0.45594000000E+02  0.51100000000E-03 0. -1.
    9900012    2    1    2    0    0 -0.85803746068E+01 -0.17764034290E+02 -0.40496045503E+02  0.46142318253E+02  0.10000004483E+02 0.  0.
        -12    1    1    2    0    0  0.85803746068E+01  0.17764034290E+02  0.40496045503E+02  0.45045681747E+02  0.00000000000E+00 0.  1.
         11    1    3    3    0    0  0.82217547763E+00 -0.70336133378E+01 -0.13366650211E+02  0.15126633043E+02  0.51100000000E-03 0. -1.
        -11    1    3    3    0    0 -0.20491777216E+01 -0.37078297759E+01 -0.43606326230E+01  0.60796585525E+01  0.51100000000E-03 0.  1.
         12    1    3    3    0    0 -0.73533723628E+01 -0.70225911764E+01 -0.22768762670E+02  0.24936026657E+02  0.00000000000E+00 0. -1.
</event>
<event>
 7    1  0.3986981E-008  0.4614232E+02  0.7816164E-02  0.1320468E+00
        -11   -1    0    0    0    0  0.00000000000E+00  0.00000000000E+00  0.45593999997E+02  0.45594000000E+02  0.51100000000E-03 0. -1.
         11   -1    0    0    0    0 -0.00000000000E+00 -0.00000000000E+00 -0.45593999997E+02  0.45594000000E+02  0.51100000000E-03 0.  1.
    9900012    2    1    2    0    0 -0.16677783388E+02 -0.33476860450E+01  0.41710406747E+02  0.46142317725E+02  0.99999996723E+01 0.  0.
        -12    1    1    2    0    0  0.16677783388E+02  0.33476860450E+01 -0.41710406747E+02  0.45045682275E+02  0.00000000000E+00 0.  1.
         11    1    3    3    0    0 -0.11047152656E+02 -0.40298100839E+00  0.17552441319E+02  0.20743436841E+02  0.51100000000E-03 0. -1.
        -11    1    3    3    0    0 -0.25982017913E+01 -0.26207506226E+01  0.64575952021E+01  0.74377094881E+01  0.51100000000E-03 0.  1.
        -12    1    3    3    0    0 -0.30324289406E+01 -0.32395441408E+00  0.17700370227E+02  0.17961171396E+02  0.00000000000E+00 0.  1.
</event>
<event>
 7    1  0.3986981E-008  0.4614232E+02  0.7816164E-02  0.1320468E+00
        -11   -1    0    0    0    0  0.00000000000E+00  0.00000000000E+00  0.45593999997E+02  0.45594000000E+02  0.51100000000E-03 0.  1.
         11   -1    0    0    0    0 -0.00000000000E+00 -0.00000000000E+00 -0.45593999997E+02  0.45594000000E+02  0.51100000000E-03 0. -1.
    9900012    2    1    2    0    0  0.77679493300E+01  0.40122020282E+02 -0.18947188124E+02  0.46142317786E+02  0.10000000231E+02 0.  0.
        -12    1    1    2    0    0 -0.77679493300E+01 -0.40122020282E+02  0.18947188124E+02  0.45045682214E+02  0.00000000000E+00 0.  1.
         11    1    3    3    0    0  0.32806193925E+01  0.19045784940E+02 -0.89388632741E+01  0.21293371374E+02  0.51100000000E-03 0. -1.
        -11    1    3    3    0    0  0.23737204227E+01  0.14244957076E+01 -0.17758341124E+00  0.27740354711E+01  0.51100000000E-03 0.  1.
        -12    1    3    3    0    0  0.21136095148E+01  0.19651739634E+02 -0.98307414388E+01  0.22074910941E+02  0.00000000000E+00 0.  1.
</event>
<event>
 7    1  0.3986981E-008  0.4614232E+02  0.7816164E-02  0.1320468E+00
        -11   -1    0    0    0    0  0.00000000000E+00  0.00000000000E+00  0.45593999997E+02  0.45594000000E+02  0.51100000000E-03 0. -1.
         11   -1    0    0    0    0 -0.00000000000E+00 -0.00000000000E+00 -0.45593999997E+02  0.45594000000E+02  0.51100000000E-03 0.  1.
    9900012    2    1    2    0    0  0.17347578668E+02  0.21485483001E+02  0.35588608973E+02  0.46142317032E+02  0.99999933519E+01 0.  0.
        -12    1    1    2    0    0 -0.17347578668E+02 -0.21485483001E+02 -0.35588608973E+02  0.45045682968E+02  0.00000000000E+00 0.  1.
         11    1    3    3    0    0  0.23628684218E+01  0.28534522906E+01  0.71277470309E+01  0.80330638707E+01  0.51100000000E-03 0. -1.
        -11    1    3    3    0    0  0.87826207269E+01  0.16613612043E+02  0.20313747127E+02  0.27672998655E+02  0.51100000000E-03 0.  1.
        -12    1    3    3    0    0  0.62020895191E+01  0.20184186678E+01  0.81471148146E+01  0.10436254506E+02  0.00000000000E+00 0.  1.
</event>
<event>
 7    1  0.3986981E-008  0.4614232E+02  0.7816164E-02  0.1320468E+00
        -11   -1    0    0    0    0  0.00000000000E+00  0.00000000000E+00  0.45593999997E+02  0.45594000000E+02  0.51100000000E-03 0. -1.
         11   -1    0    0    0    0 -0.00000000000E+00 -0.00000000000E+00 -0.45593999997E+02  0.45594000000E+02  0.51100000000E-03 0.  1.
    9900012    2    1    2    0    0 -0.43346058728E+02 -0.77438732417E+01  0.95007943737E+01  0.46142317923E+02  0.10000001478E+02 0.  0.
        -12    1    1    2    0    0  0.43346058728E+02  0.77438732417E+01 -0.95007943737E+01  0.45045682077E+02  0.00000000000E+00 0.  1.
         11    1    3    3    0    0 -0.78369907865E+01 -0.67964321757E-01  0.30418908560E+01  0.84069104894E+01  0.51100000000E-03 0. -1.
        -11    1    3    3    0    0 -0.68562841507E+00 -0.50813348889E+00  0.16507478314E+01  0.18582934725E+01  0.51100000000E-03 0.  1.
         12    1    3    3    0    0 -0.34823439526E+02 -0.71677754310E+01  0.48081556863E+01  0.35877113961E+02  0.00000000000E+00 0. -1.
</event>
<event>
 7    1  0.3986981E-008  0.4614232E+02  0.7816164E-02  0.1320468E+00
        -11   -1    0    0    0    0  0.00000000000E+00  0.00000000000E+00  0.45593999997E+02  0.45594000000E+02  0.51100000000E-03 0.  1.
         11   -1    0    0    0    0 -0.00000000000E+00 -0.00000000000E+00 -0.45593999997E+02  0.45594000000E+02  0.51100000000E-03 0. -1.
    9900012    2    1    2    0    0  0.11337587152E+01 -0.40955155350E+02 -0.18721735807E+02  0.46142317075E+02  0.99999937399E+01 0.  0.
        -12    1    1    2    0    0 -0.11337587152E+01  0.40955155350E+02  0.18721735807E+02  0.45045682925E+02  0.00000000000E+00 0.  1.
         11    1    3    3    0    0  0.37241765507E+01 -0.19117975415E+02 -0.11552264251E+02  0.22645557721E+02  0.51100000000E-03 0. -1.
        -11    1    3    3    0    0 -0.15235568693E+01 -0.72920629415E+01 -0.44001252329E+01  0.86519656612E+01  0.51100000000E-03 0.  1.
         12    1    3    3    0    0 -0.10668609662E+01 -0.14545116994E+02 -0.27693463229E+01  0.14844793692E+02  0.00000000000E+00 0. -1.
</event>
<event>
 7    1  0.3986981E-008  0.4614232E+02  0.7816164E-02  0.1320468E+00
        -11   -1    0    0    0    0  0.00000000000E+00  0.00000000000E+00  0.45593999997E+02  0.45594000000E+02  0.51100000000E-03 0.  1.
         11   -1    0    0    0    0 -0.00000000000E+00 -0.00000000000E+00 -0.45593999997E+02  0.45594000000E+02  0.51100000000E-03 0. -1.
    9900012    2    1    2    0    0  0.36795167221E+01 -0.39198877691E+02 -0.21886586504E+02  0.46142317362E+02  0.99999963614E+01 0.  0.
        -12    1    1    2    0    0 -0.36795167221E+01  0.39198877691E+02  0.21886586504E+02  0.45045682638E+02  0.00000000000E+00 0.  1.
         11    1    3    3    0    0 -0.24626466469E+01 -0.12527603820E+02 -0.97634068167E+01  0.16072635095E+02  0.51100000000E-03 0. -1.
        -11    1    3    3    0    0  0.12449993053E+01 -0.95051791554E+01 -0.53403934211E+01  0.10973525240E+02  0.51100000000E-03 0.  1.
        -12    1    3    3    0    0  0.48971640637E+01 -0.17166094716E+02 -0.67827862659E+01  0.19096157027E+02  0.00000000000E+00 0.  1.
</event>
<event>
 7    1  0.4031970E-008  0.4614232E+02  0.7816164E-02  0.1320468E+00
        -11   -1    0    0    0    0  0.00000000000E+00  0.00000000000E+00  0.45593999997E+02  0.45594000000E+02  0.51100000000E-03 0.  1.
         11   -1    0    0    0    0 -0.00000000000E+00 -0.00000000000E+00 -0.45593999997E+02  0.45594000000E+02  0.51100000000E-03 0. -1.
    9900012    2    1    2    0    0 -0.44545220792E+02  0.59836154234E+01 -0.30055047222E+01  0.46142318657E+02  0.10000008173E+02 0.  0.
        -12    1    1    2    0    0  0.44545220792E+02 -0.59836154234E+01  0.30055047222E+01  0.45045681343E+02  0.00000000000E+00 0.  1.
         11    1    3    3    0    0 -0.19597529579E+02  0.28720199059E+01 -0.22139876324E+01  0.19930213382E+02  0.51100000000E-03 0.  1.
        -11    1    3    3    0    0 -0.16251174075E+02  0.23737426792E-02 -0.34253990083E+01  0.16608251656E+02  0.51100000000E-03 0. -1.
        -12    1    3    3    0    0 -0.86965171384E+01  0.31092217748E+01  0.26338819185E+01  0.96038536195E+01  0.00000000000E+00 0.  1.
</event>
<event>
 7    1  0.3986981E-008  0.4614232E+02  0.7816164E-02  0.1320468E+00
        -11   -1    0    0    0    0  0.00000000000E+00  0.00000000000E+00  0.45593999997E+02  0.45594000000E+02  0.51100000000E-03 0.  1.
         11   -1    0    0    0    0 -0.00000000000E+00 -0.00000000000E+00 -0.45593999997E+02  0.45594000000E+02  0.51100000000E-03 0. -1.
    9900012    2    1    2    0    0 -0.33269751076E+02 -0.63992649507E+01 -0.29686470033E+02  0.46142318392E+02  0.10000005751E+02 0.  0.
        -12    1    1    2    0    0  0.33269751076E+02  0.63992649507E+01  0.29686470033E+02  0.45045681608E+02  0.00000000000E+00 0.  1.
         11    1    3    3    0    0 -0.14889389896E+02 -0.31255621259E+01 -0.14374579350E+02  0.20930637875E+02  0.51100000000E-03 0. -1.
        -11    1    3    3    0    0 -0.18287919710E+02 -0.32496730117E+01 -0.16000913835E+02  0.24516068727E+02  0.51100000000E-03 0.  1.
        -12    1    3    3    0    0 -0.92441469737E-01 -0.24029813004E-01  0.68902315298E+00  0.69561179014E+00  0.00000000000E+00 0.  1.
</event>
<event>
 7    1  0.3986981E-008  0.4614232E+02  0.7816164E-02  0.1320468E+00
        -11   -1    0    0    0    0  0.00000000000E+00  0.00000000000E+00  0.45593999997E+02  0.45594000000E+02  0.51100000000E-03 0.  1.
         11   -1    0    0    0    0 -0.00000000000E+00 -0.00000000000E+00 -0.45593999997E+02  0.45594000000E+02  0.51100000000E-03 0. -1.
    9900012    2    1    2    0    0  0.15678207518E+02 -0.84857939324E+01 -0.41367845048E+02  0.46142317703E+02  0.99999994698E+01 0.  0.
        -12    1    1    2    0    0 -0.15678207518E+02  0.84857939324E+01  0.41367845048E+02  0.45045682297E+02  0.00000000000E+00 0.  1.
         11    1    3    3    0    0  0.70959158777E+01 -0.36524938213E+01 -0.85021770223E+01  0.11661035444E+02  0.51100000000E-03 0.  1.
        -11    1    3    3    0    0  0.63602400048E+01 -0.19506928471E+01 -0.18433117534E+02  0.19596879287E+02  0.51100000000E-03 0. -1.
        -12    1    3    3    0    0  0.22220516359E+01 -0.28826072640E+01 -0.14432550492E+02  0.14884402971E+02  0.00000000000E+00 0.  1.
</event>
<event>
 7    1  0.3986981E-008  0.4614232E+02  0.7816164E-02  0.1320468E+00
        -11   -1    0    0    0    0  0.00000000000E+00  0.00000000000E+00  0.45593999997E+02  0.45594000000E+02  0.51100000000E-03 0.  1.
         11   -1    0    0    0    0 -0.00000000000E+00 -0.00000000000E+00 -0.45593999997E+02  0.45594000000E+02  0.51100000000E-03 0. -1.
    9900012    2    1    2    0    0 -0.17304298084E+02 -0.58967007807E+01 -0.41169206359E+02  0.46142319136E+02  0.10000012537E+02 0.  0.
        -12    1    1    2    0    0  0.17304298084E+02  0.58967007807E+01  0.41169206359E+02  0.45045680864E+02  0.00000000000E+00 0.  1.
         11    1    3    3    0    0 -0.31114451803E+01 -0.37600406449E+00 -0.73268909700E+01  0.79690527488E+01  0.51100000000E-03 0. -1.
        -11    1    3    3    0    0 -0.45589630234E+01  0.60773332493E+00 -0.18412546802E+02  0.18978286636E+02  0.51100000000E-03 0.  1.
         12    1    3    3    0    0 -0.96338898807E+01 -0.61284300411E+01 -0.15429768587E+02  0.19194979751E+02  0.00000000000E+00 0. -1.
</event>
<event>
 7    1  0.3986981E-008  0.4614232E+02  0.7816164E-02  0.1320468E+00
        -11   -1    0    0    0    0  0.00000000000E+00  0.00000000000E+00  0.45593999997E+02  0.45594000000E+02  0.51100000000E-03 0. -1.
         11   -1    0    0    0    0 -0.00000000000E+00 -0.00000000000E+00 -0.45593999997E+02  0.45594000000E+02  0.51100000000E-03 0.  1.
    9900012    2    1    2    0    0 -0.44166035397E+02 -0.40122029991E+01 -0.78979106974E+01  0.46142318199E+02  0.10000003989E+02 0.  0.
        -12    1    1    2    0    0  0.44166035397E+02  0.40122029991E+01  0.78979106974E+01  0.45045681801E+02  0.00000000000E+00 0.  1.
         11    1    3    3    0    0 -0.11790242339E+02 -0.52768560536E+01 -0.26565655672E+01  0.13187583747E+02  0.51100000000E-03 0. -1.
        -11    1    3    3    0    0 -0.45214864492E+01  0.11243631859E+01 -0.11726158382E+01  0.48044833696E+01  0.51100000000E-03 0.  1.
         12    1    3    3    0    0 -0.27854306609E+02  0.14028986862E+00 -0.40687292920E+01  0.28150251082E+02  0.00000000000E+00 0. -1.
</event>
<event>
 7    1  0.3986981E-008  0.4614232E+02  0.7816164E-02  0.1320468E+00
        -11   -1    0    0    0    0  0.00000000000E+00  0.00000000000E+00  0.45593999997E+02  0.45594000000E+02  0.51100000000E-03 0.  1.
         11   -1    0    0    0    0 -0.00000000000E+00 -0.00000000000E+00 -0.45593999997E+02  0.45594000000E+02  0.51100000000E-03 0. -1.
    9900012    2    1    2    0    0  0.20461805834E+02 -0.30301847788E+02 -0.26310189100E+02  0.46142317323E+02  0.99999960016E+01 0.  0.
        -12    1    1    2    0    0 -0.20461805834E+02  0.30301847788E+02  0.26310189100E+02  0.45045682677E+02  0.00000000000E+00 0.  1.
         11    1    3    3    0    0  0.14181546018E+02 -0.21152014947E+02 -0.18369278904E+02  0.31399910692E+02  0.51100000000E-03 0.  1.
        -11    1    3    3    0    0  0.43580274892E+01 -0.71599359017E+01 -0.84802966233E+01  0.11923611734E+02  0.51100000000E-03 0. -1.
        -12    1    3    3    0    0  0.19222323270E+01 -0.19898969391E+01  0.53938642655E+00  0.28187948958E+01  0.00000000000E+00 0.  1.
</event>
<event>
 7    1  0.3986981E-008  0.4614232E+02  0.7816164E-02  0.1320468E+00
        -11   -1    0    0    0    0  0.00000000000E+00  0.00000000000E+00  0.45593999997E+02  0.45594000000E+02  0.51100000000E-03 0. -1.
         11   -1    0    0    0    0 -0.00000000000E+00 -0.00000000000E+00 -0.45593999997E+02  0.45594000000E+02  0.51100000000E-03 0.  1.
    9900012    2    1    2    0    0  0.36379801447E+02 -0.30238945122E+01  0.26390898393E+02  0.46142318639E+02  0.10000008005E+02 0.  0.
        -12    1    1    2    0    0 -0.36379801447E+02  0.30238945122E+01 -0.26390898393E+02  0.45045681361E+02  0.00000000000E+00 0.  1.
         11    1    3    3    0    0  0.21451130555E+00 -0.47273238088E+00 -0.13443215324E+00  0.53624926022E+00  0.51100000000E-03 0.  1.
        -11    1    3    3    0    0  0.93353562202E+01  0.74304387418E+00  0.10950200302E+02  0.14408604265E+02  0.51100000000E-03 0. -1.
         12    1    3    3    0    0  0.26829933921E+02 -0.32942060055E+01  0.15575130244E+02  0.31197465114E+02  0.00000000000E+00 0. -1.
</event>
<event>
 7    1  0.3986981E-008  0.4614232E+02  0.7816164E-02  0.1320468E+00
        -11   -1    0    0    0    0  0.00000000000E+00  0.00000000000E+00  0.45593999997E+02  0.45594000000E+02  0.51100000000E-03 0.  1.
         11   -1    0    0    0    0 -0.00000000000E+00 -0.00000000000E+00 -0.45593999997E+02  0.45594000000E+02  0.51100000000E-03 0. -1.
    9900012    2    1    2    0    0 -0.82876974460E+01  0.20816189616E+02 -0.39078301929E+02  0.46142319178E+02  0.10000012920E+02 0.  0.
        -12    1    1    2    0    0  0.82876974460E+01 -0.20816189616E+02  0.39078301929E+02  0.45045680822E+02  0.00000000000E+00 0.  1.
         11    1    3    3    0    0 -0.32415776240E+01  0.11868306272E+02 -0.13695356613E+02  0.18409978606E+02  0.51100000000E-03 0. -1.
        -11    1    3    3    0    0 -0.17881924599E+01  0.13674769715E+01 -0.22966013828E+01  0.32158985857E+01  0.51100000000E-03 0.  1.
         12    1    3    3    0    0 -0.32579273620E+01  0.75804063729E+01 -0.23086343933E+02  0.24516441986E+02  0.00000000000E+00 0. -1.
</event>
<event>
 7    1  0.3986981E-008  0.4614232E+02  0.7816164E-02  0.1320468E+00
        -11   -1    0    0    0    0  0.00000000000E+00  0.00000000000E+00  0.45593999997E+02  0.45594000000E+02  0.51100000000E-03 0. -1.
         11   -1    0    0    0    0 -0.00000000000E+00 -0.00000000000E+00 -0.45593999997E+02  0.45594000000E+02  0.51100000000E-03 0.  1.
    9900012    2    1    2    0    0 -0.27383584524E+02  0.35766393551E+02  0.13352489887E+00  0.46142318321E+02  0.10000005109E+02 0.  0.
        -12    1    1    2    0    0  0.27383584524E+02 -0.35766393551E+02 -0.13352489887E+00  0.45045681679E+02  0.00000000000E+00 0.  1.
         11    1    3    3    0    0 -0.15334761248E+02  0.22486593400E+02  0.84265717104E+00  0.27230715316E+02  0.51100000000E-03 0. -1.
        -11    1    3    3    0    0 -0.84901022256E+01  0.10130112124E+02  0.21117494889E+01  0.13385084744E+02  0.51100000000E-03 0.  1.
         12    1    3    3    0    0 -0.35587210505E+01  0.31496880272E+01 -0.28208817610E+01  0.55265182614E+01  0.00000000000E+00 0. -1.
</event>
<event>
 7    1  0.3986981E-008  0.4614232E+02  0.7816164E-02  0.1320468E+00
        -11   -1    0    0    0    0  0.00000000000E+00  0.00000000000E+00  0.45593999997E+02  0.45594000000E+02  0.51100000000E-03 0.  1.
         11   -1    0    0    0    0 -0.00000000000E+00 -0.00000000000E+00 -0.45593999997E+02  0.45594000000E+02  0.51100000000E-03 0. -1.
    9900012    2    1    2    0    0 -0.11262013208E+02  0.42249016182E+02 -0.10830560326E+02  0.46142319332E+02  0.10000014328E+02 0.  0.
        -12    1    1    2    0    0  0.11262013208E+02 -0.42249016182E+02  0.10830560326E+02  0.45045680668E+02  0.00000000000E+00 0.  1.
         11    1    3    3    0    0  0.81943231765E+00  0.11793688530E+02 -0.23641667889E+01  0.12056195226E+02  0.51100000000E-03 0. -1.
        -11    1    3    3    0    0 -0.55536403658E+01  0.19389722108E+02 -0.53001693288E+01  0.20854161214E+02  0.51100000000E-03 0.  1.
        -12    1    3    3    0    0 -0.65278051597E+01  0.11065605544E+02 -0.31662242080E+01  0.13231962893E+02  0.00000000000E+00 0.  1.
</event>
<event>
 7    1  0.3986981E-008  0.4614232E+02  0.7816164E-02  0.1320468E+00
        -11   -1    0    0    0    0  0.00000000000E+00  0.00000000000E+00  0.45593999997E+02  0.45594000000E+02  0.51100000000E-03 0.  1.
         11   -1    0    0    0    0 -0.00000000000E+00 -0.00000000000E+00 -0.45593999997E+02  0.45594000000E+02  0.51100000000E-03 0. -1.
    9900012    2    1    2    0    0 -0.32090135846E+02  0.26749897258E+02 -0.16845761990E+02  0.46142317421E+02  0.99999969014E+01 0.  0.
        -12    1    1    2    0    0  0.32090135846E+02 -0.26749897258E+02  0.16845761990E+02  0.45045682579E+02  0.00000000000E+00 0.  1.
         11    1    3    3    0    0 -0.13715320748E+02  0.14019790982E+02 -0.44620729546E+01  0.20114041307E+02  0.51100000000E-03 0. -1.
        -11    1    3    3    0    0 -0.30022313810E+01  0.64219590130E+00 -0.31615492910E+01  0.44069494008E+01  0.51100000000E-03 0.  1.
        -12    1    3    3    0    0 -0.15372583717E+02  0.12087910375E+02 -0.92221397441E+01  0.21621326713E+02  0.00000000000E+00 0.  1.
</event>
<event>
 7    1  0.3986981E-008  0.4614232E+02  0.7816164E-02  0.1320468E+00
        -11   -1    0    0    0    0  0.00000000000E+00  0.00000000000E+00  0.45593999997E+02  0.45594000000E+02  0.51100000000E-03 0.  1.
         11   -1    0    0    0    0 -0.00000000000E+00 -0.00000000000E+00 -0.45593999997E+02  0.45594000000E+02  0.51100000000E-03 0. -1.
    9900012    2    1    2    0    0  0.24664261711E+01  0.18370814401E+02 -0.41055369875E+02  0.46142317906E+02  0.10000001318E+02 0.  0.
        -12    1    1    2    0    0 -0.24664261711E+01 -0.18370814401E+02  0.41055369875E+02  0.45045682094E+02  0.00000000000E+00 0.  1.
         11    1    3    3    0    0  0.18549099796E+01  0.16427680819E+02 -0.26495471905E+02  0.31230104384E+02  0.51100000000E-03 0. -1.
        -11    1    3    3    0    0 -0.56725283736E+00  0.10548114475E+01 -0.10904342468E+02  0.10969917406E+02  0.51100000000E-03 0.  1.
         12    1    3    3    0    0  0.11787690289E+01  0.88832213436E+00 -0.36555555017E+01  0.39422961157E+01  0.00000000000E+00 0. -1.
</event>
<event>
 7    1  0.3986981E-008  0.4614232E+02  0.7816164E-02  0.1320468E+00
        -11   -1    0    0    0    0  0.00000000000E+00  0.00000000000E+00  0.45593999997E+02  0.45594000000E+02  0.51100000000E-03 0.  1.
         11   -1    0    0    0    0 -0.00000000000E+00 -0.00000000000E+00 -0.45593999997E+02  0.45594000000E+02  0.51100000000E-03 0. -1.
    9900012    2    1    2    0    0 -0.35810562431E+01  0.95100529260E+01 -0.43884489832E+02  0.46142317429E+02  0.99999969757E+01 0.  0.
        -12    1    1    2    0    0  0.35810562431E+01 -0.95100529260E+01  0.43884489832E+02  0.45045682571E+02  0.00000000000E+00 0.  1.
         11    1    3    3    0    0  0.34287817530E+00  0.32946152240E+01 -0.10161090934E+02  0.10687367504E+02  0.51100000000E-03 0. -1.
        -11    1    3    3    0    0  0.25284156532E+01  0.21134467329E+01 -0.97540267639E+01  0.10295658366E+02  0.51100000000E-03 0.  1.
         12    1    3    3    0    0 -0.64523500716E+01  0.41019909690E+01 -0.23969372133E+02  0.25159291560E+02  0.00000000000E+00 0. -1.
</event>
<event>
 7    1  0.3986981E-008  0.4614232E+02  0.7816164E-02  0.1320468E+00
        -11   -1    0    0    0    0  0.00000000000E+00  0.00000000000E+00  0.45593999997E+02  0.45594000000E+02  0.51100000000E-03 0.  1.
         11   -1    0    0    0    0 -0.00000000000E+00 -0.00000000000E+00 -0.45593999997E+02  0.45594000000E+02  0.51100000000E-03 0. -1.
    9900012    2    1    2    0    0  0.82047334926E+01  0.30343031527E+02 -0.32266023159E+02  0.46142318027E+02  0.10000002428E+02 0.  0.
        -12    1    1    2    0    0 -0.82047334926E+01 -0.30343031527E+02  0.32266023159E+02  0.45045681973E+02  0.00000000000E+00 0.  1.
         11    1    3    3    0    0  0.52762622833E+01  0.26452762457E+02 -0.27516174550E+02  0.38532161208E+02  0.51100000000E-03 0. -1.
        -11    1    3    3    0    0  0.33280254521E-01  0.19842414516E+01 -0.36020962937E+00  0.20169464425E+01  0.51100000000E-03 0.  1.
         12    1    3    3    0    0  0.28951909547E+01  0.19060276185E+01 -0.43896389796E+01  0.55932103767E+01  0.00000000000E+00 0. -1.
</event>
<event>
 7    1  0.3986981E-008  0.4614232E+02  0.7816164E-02  0.1320468E+00
        -11   -1    0    0    0    0  0.00000000000E+00  0.00000000000E+00  0.45593999997E+02  0.45594000000E+02  0.51100000000E-03 0.  1.
         11   -1    0    0    0    0 -0.00000000000E+00 -0.00000000000E+00 -0.45593999997E+02  0.45594000000E+02  0.51100000000E-03 0. -1.
    9900012    2    1    2    0    0 -0.43456697046E+02 -0.21804527817E+01 -0.11656525804E+02  0.46142317784E+02  0.10000000205E+02 0.  0.
        -12    1    1    2    0    0  0.43456697046E+02  0.21804527817E+01  0.11656525804E+02  0.45045682216E+02  0.00000000000E+00 0.  1.
         11    1    3    3    0    0 -0.45044868201E+01  0.14709282597E+01 -0.90071093550E+00  0.48234128900E+01  0.51100000000E-03 0. -1.
        -11    1    3    3    0    0 -0.84714446450E+01  0.18830420745E+01 -0.52479469704E+00  0.86940572556E+01  0.51100000000E-03 0.  1.
        -12    1    3    3    0    0 -0.30480765581E+02 -0.55344231158E+01 -0.10231020172E+02  0.32624847638E+02  0.00000000000E+00 0.  1.
</event>
<event>
 7    1  0.3986981E-008  0.4614232E+02  0.7816164E-02  0.1320468E+00
        -11   -1    0    0    0    0  0.00000000000E+00  0.00000000000E+00  0.45593999997E+02  0.45594000000E+02  0.51100000000E-03 0. -1.
         11   -1    0    0    0    0 -0.00000000000E+00 -0.00000000000E+00 -0.45593999997E+02  0.45594000000E+02  0.51100000000E-03 0.  1.
    9900012    2    1    2    0    0  0.11809597768E+02 -0.42874361543E+02  0.71718877920E+01  0.46142318169E+02  0.10000003717E+02 0.  0.
        -12    1    1    2    0    0 -0.11809597768E+02  0.42874361543E+02 -0.71718877920E+01  0.45045681831E+02  0.00000000000E+00 0.  1.
         11    1    3    3    0    0  0.66553392049E+01 -0.20454018080E+02  0.40414558798E+01  0.21885926105E+02  0.51100000000E-03 0. -1.
        -11    1    3    3    0    0  0.48945870438E+01 -0.11268049963E+02  0.43545557633E+01  0.13034112492E+02  0.51100000000E-03 0.  1.
         12    1    3    3    0    0  0.25967151964E+00 -0.11152293500E+02 -0.12241238511E+01  0.11222279573E+02  0.00000000000E+00 0. -1.
</event>
<event>
 7    1  0.3986981E-008  0.4614232E+02  0.7816164E-02  0.1320468E+00
        -11   -1    0    0    0    0  0.00000000000E+00  0.00000000000E+00  0.45593999997E+02  0.45594000000E+02  0.51100000000E-03 0.  1.
         11   -1    0    0    0    0 -0.00000000000E+00 -0.00000000000E+00 -0.45593999997E+02  0.45594000000E+02  0.51100000000E-03 0. -1.
    9900012    2    1    2    0    0 -0.20128088974E+02  0.40298043120E+02  0.20299516311E+00  0.46142318164E+02  0.10000003675E+02 0.  0.
        -12    1    1    2    0    0  0.20128088974E+02 -0.40298043120E+02 -0.20299516311E+00  0.45045681836E+02  0.00000000000E+00 0.  1.
         11    1    3    3    0    0 -0.21008993117E+01  0.41002511576E+01 -0.14608939389E+01  0.48332234415E+01  0.51100000000E-03 0. -1.
        -11    1    3    3    0    0 -0.46855828684E+01  0.32064852919E+01 -0.99521194422E-01  0.56785684352E+01  0.51100000000E-03 0.  1.
         12    1    3    3    0    0 -0.13341606793E+02  0.32991306670E+02  0.17634102965E+01  0.35630526287E+02  0.00000000000E+00 0. -1.
</event>
<event>
 7    1  0.3986981E-008  0.4614232E+02  0.7816164E-02  0.1320468E+00
        -11   -1    0    0    0    0  0.00000000000E+00  0.00000000000E+00  0.45593999997E+02  0.45594000000E+02  0.51100000000E-03 0. -1.
         11   -1    0    0    0    0 -0.00000000000E+00 -0.00000000000E+00 -0.45593999997E+02  0.45594000000E+02  0.51100000000E-03 0.  1.
    9900012    2    1    2    0    0 -0.34299384564E+02  0.66238351696E+01  0.28439244621E+02  0.46142316429E+02  0.99999878497E+01 0.  0.
        -12    1    1    2    0    0  0.34299384564E+02 -0.66238351696E+01 -0.28439244621E+02  0.45045683571E+02  0.00000000000E+00 0.  1.
         11    1    3    3    0    0 -0.18935716128E+02  0.66989411855E+01  0.20556099394E+02  0.28740048379E+02  0.51100000000E-03 0. -1.
        -11    1    3    3    0    0 -0.11677662250E+02  0.86057998560E+00  0.58267104797E+01  0.13078950600E+02  0.51100000000E-03 0.  1.
         12    1    3    3    0    0 -0.36860061861E+01 -0.93568600157E+00  0.20564347474E+01  0.43233174494E+01  0.00000000000E+00 0. -1.
</event>
<event>
 7    1  0.3986981E-008  0.4614232E+02  0.7816164E-02  0.1320468E+00
        -11   -1    0    0    0    0  0.00000000000E+00  0.00000000000E+00  0.45593999997E+02  0.45594000000E+02  0.51100000000E-03 0. -1.
         11   -1    0    0    0    0 -0.00000000000E+00 -0.00000000000E+00 -0.45593999997E+02  0.45594000000E+02  0.51100000000E-03 0.  1.
    9900012    2    1    2    0    0  0.54090714487E+01  0.41214982496E+02  0.17354548509E+02  0.46142321073E+02  0.10000030199E+02 0.  0.
        -12    1    1    2    0    0 -0.54090714487E+01 -0.41214982496E+02 -0.17354548509E+02  0.45045678927E+02  0.00000000000E+00 0.  1.
         11    1    3    3    0    0  0.54054094328E+00  0.16638272796E+01  0.25909791620E+01  0.31262883755E+01  0.51100000000E-03 0.  1.
        -11    1    3    3    0    0  0.30506526793E+01  0.83503949333E+01  0.12959663620E+01  0.89841586353E+01  0.51100000000E-03 0. -1.
         12    1    3    3    0    0  0.18178778262E+01  0.31200760283E+02  0.13467602985E+02  0.34031874062E+02  0.00000000000E+00 0. -1.
</event>
<event>
 7    1  0.3986981E-008  0.4614232E+02  0.7816164E-02  0.1320468E+00
        -11   -1    0    0    0    0  0.00000000000E+00  0.00000000000E+00  0.45593999997E+02  0.45594000000E+02  0.51100000000E-03 0. -1.
         11   -1    0    0    0    0 -0.00000000000E+00 -0.00000000000E+00 -0.45593999997E+02  0.45594000000E+02  0.51100000000E-03 0.  1.
    9900012    2    1    2    0    0 -0.44598099951E+02 -0.29949324846E+01  0.55815147642E+01  0.46142318221E+02  0.10000004195E+02 0.  0.
        -12    1    1    2    0    0  0.44598099951E+02  0.29949324846E+01 -0.55815147642E+01  0.45045681779E+02  0.00000000000E+00 0.  1.
         11    1    3    3    0    0 -0.13338272678E+02 -0.34942445253E+01  0.38887772942E+01  0.14326264410E+02  0.51100000000E-03 0. -1.
        -11    1    3    3    0    0 -0.12586859342E+02 -0.87116454624E+00 -0.18763205542E+01  0.12755725571E+02  0.51100000000E-03 0.  1.
        -12    1    3    3    0    0 -0.18672967931E+02  0.13704765870E+01  0.35690580243E+01  0.19060328240E+02  0.00000000000E+00 0.  1.
</event>
<event>
 7    1  0.3986981E-008  0.4614232E+02  0.7816164E-02  0.1320468E+00
        -11   -1    0    0    0    0  0.00000000000E+00  0.00000000000E+00  0.45593999997E+02  0.45594000000E+02  0.51100000000E-03 0.  1.
         11   -1    0    0    0    0 -0.00000000000E+00 -0.00000000000E+00 -0.45593999997E+02  0.45594000000E+02  0.51100000000E-03 0. -1.
    9900012    2    1    2    0    0 -0.26565714343E+02  0.13949863461E+02 -0.33597277944E+02  0.46142323688E+02  0.10000054045E+02 0.  0.
        -12    1    1    2    0    0  0.26565714343E+02 -0.13949863461E+02  0.33597277944E+02  0.45045676312E+02  0.00000000000E+00 0.  1.
         11    1    3    3    0    0 -0.45276982733E+01  0.21806784156E+01 -0.74383137313E+01  0.89768547628E+01  0.51100000000E-03 0. -1.
        -11    1    3    3    0    0 -0.20034448914E+02  0.12454798039E+02 -0.25898486105E+02  0.35031881483E+02  0.51100000000E-03 0.  1.
        -12    1    3    3    0    0 -0.20035671563E+01 -0.68561299376E+00 -0.26047810808E+00  0.21335874418E+01  0.00000000000E+00 0.  1.
</event>
<event>
 7    1  0.3986981E-008  0.4614232E+02  0.7816164E-02  0.1320468E+00
        -11   -1    0    0    0    0  0.00000000000E+00  0.00000000000E+00  0.45593999997E+02  0.45594000000E+02  0.51100000000E-03 0.  1.
         11   -1    0    0    0    0 -0.00000000000E+00 -0.00000000000E+00 -0.45593999997E+02  0.45594000000E+02  0.51100000000E-03 0. -1.
    9900012    2    1    2    0    0  0.21034767673E+02  0.12747186294E+02 -0.37738061942E+02  0.46142317314E+02  0.99999959272E+01 0.  0.
        -12    1    1    2    0    0 -0.21034767673E+02 -0.12747186294E+02  0.37738061942E+02  0.45045682686E+02  0.00000000000E+00 0.  1.
         11    1    3    3    0    0  0.60383160770E+01  0.81330684917E+01 -0.19997259744E+02  0.22416477459E+02  0.51100000000E-03 0.  1.
        -11    1    3    3    0    0  0.70406083124E+01  0.17516132691E+01 -0.90734772288E+01  0.11617499892E+02  0.51100000000E-03 0. -1.
        -12    1    3    3    0    0  0.79558432836E+01  0.28625045336E+01 -0.86673249686E+01  0.12108339963E+02  0.00000000000E+00 0.  1.
</event>
<event>
 7    1  0.3986981E-008  0.4614231E+02  0.7816164E-02  0.1320468E+00
        -11   -1    0    0    0    0  0.00000000000E+00  0.00000000000E+00  0.45593999997E+02  0.45594000000E+02  0.51100000000E-03 0.  1.
         11   -1    0    0    0    0 -0.00000000000E+00 -0.00000000000E+00 -0.45593999997E+02  0.45594000000E+02  0.51100000000E-03 0. -1.
    9900012    2    1    2    0    0  0.33923746224E+01  0.44914965729E+02  0.50154127779E+00  0.46142313240E+02  0.99999587765E+01 0.  0.
        -12    1    1    2    0    0 -0.33923746224E+01 -0.44914965729E+02 -0.50154127779E+00  0.45045686760E+02  0.00000000000E+00 0.  1.
         11    1    3    3    0    0 -0.57459011472E+00  0.31664172276E+02 -0.26328038989E+01  0.31778634589E+02  0.51100000000E-03 0. -1.
        -11    1    3    3    0    0  0.27233524954E+00  0.19413495961E+01 -0.29320472602E+00  0.19821639728E+01  0.51100000000E-03 0.  1.
        -12    1    3    3    0    0  0.36946294876E+01  0.11309443857E+02  0.34275499027E+01  0.12381514678E+02  0.00000000000E+00 0.  1.
</event>
<event>
 7    1  0.3986981E-008  0.4614232E+02  0.7816164E-02  0.1320468E+00
        -11   -1    0    0    0    0  0.00000000000E+00  0.00000000000E+00  0.45593999997E+02  0.45594000000E+02  0.51100000000E-03 0.  1.
         11   -1    0    0    0    0 -0.00000000000E+00 -0.00000000000E+00 -0.45593999997E+02  0.45594000000E+02  0.51100000000E-03 0. -1.
    9900012    2    1    2    0    0  0.25875406953E+01 -0.37310882688E+02 -0.25106096583E+02  0.46142318526E+02  0.10000006974E+02 0.  0.
        -12    1    1    2    0    0 -0.25875406953E+01  0.37310882688E+02  0.25106096583E+02  0.45045681474E+02  0.00000000000E+00 0.  1.
         11    1    3    3    0    0  0.22687610172E+00 -0.21357022101E+02 -0.12632768309E+02  0.24814526012E+02  0.51100000000E-03 0. -1.
        -11    1    3    3    0    0  0.83513752835E+00 -0.97089442114E+01 -0.36390484942E+01  0.10402102028E+02  0.51100000000E-03 0.  1.
        -12    1    3    3    0    0  0.15255270652E+01 -0.62449163758E+01 -0.88342797801E+01  0.10925690486E+02  0.00000000000E+00 0.  1.
</event>
<event>
 7    1  0.3986981E-008  0.4614232E+02  0.7816164E-02  0.1320468E+00
        -11   -1    0    0    0    0  0.00000000000E+00  0.00000000000E+00  0.45593999997E+02  0.45594000000E+02  0.51100000000E-03 0. -1.
         11   -1    0    0    0    0 -0.00000000000E+00 -0.00000000000E+00 -0.45593999997E+02  0.45594000000E+02  0.51100000000E-03 0.  1.
    9900012    2    1    2    0    0 -0.39304906018E+02  0.13830443341E+02  0.17115977079E+02  0.46142317949E+02  0.10000001714E+02 0.  0.
        -12    1    1    2    0    0  0.39304906018E+02 -0.13830443341E+02 -0.17115977079E+02  0.45045682051E+02  0.00000000000E+00 0.  1.
         11    1    3    3    0    0 -0.16027591891E+02  0.91314891645E+01  0.94997837391E+01  0.20748823763E+02  0.51100000000E-03 0. -1.
        -11    1    3    3    0    0 -0.12506647183E+02  0.29565224704E+01  0.65682852823E+01  0.14432588843E+02  0.51100000000E-03 0.  1.
        -12    1    3    3    0    0 -0.10770666944E+02  0.17424317058E+01  0.10479080572E+01  0.10960905344E+02  0.00000000000E+00 0.  1.
</event>
<event>
 7    1  0.3986981E-008  0.4614232E+02  0.7816164E-02  0.1320468E+00
        -11   -1    0    0    0    0  0.00000000000E+00  0.00000000000E+00  0.45593999997E+02  0.45594000000E+02  0.51100000000E-03 0.  1.
         11   -1    0    0    0    0 -0.00000000000E+00 -0.00000000000E+00 -0.45593999997E+02  0.45594000000E+02  0.51100000000E-03 0. -1.
    9900012    2    1    2    0    0 -0.43650253266E+02  0.10161050053E+02  0.45301068114E+01  0.46142318564E+02  0.10000007319E+02 0.  0.
        -12    1    1    2    0    0  0.43650253266E+02 -0.10161050053E+02 -0.45301068114E+01  0.45045681436E+02  0.00000000000E+00 0.  1.
         11    1    3    3    0    0 -0.19775601071E+02  0.33085312939E+01  0.41374002850E+01  0.20472881048E+02  0.51100000000E-03 0. -1.
        -11    1    3    3    0    0 -0.20643727346E+02  0.78470970275E+01  0.14362375700E+01  0.22131497670E+02  0.51100000000E-03 0.  1.
        -12    1    3    3    0    0 -0.32309248489E+01 -0.99457826849E+00 -0.10435310437E+01  0.35379398456E+01  0.00000000000E+00 0.  1.
</event>
<event>
 7    1  0.3986981E-008  0.4614232E+02  0.7816164E-02  0.1320468E+00
        -11   -1    0    0    0    0  0.00000000000E+00  0.00000000000E+00  0.45593999997E+02  0.45594000000E+02  0.51100000000E-03 0.  1.
         11   -1    0    0    0    0 -0.00000000000E+00 -0.00000000000E+00 -0.45593999997E+02  0.45594000000E+02  0.51100000000E-03 0. -1.
    9900012    2    1    2    0    0 -0.41478105600E+02 -0.13471807709E+02  0.11277892827E+02  0.46142315260E+02  0.99999771895E+01 0.  0.
        -12    1    1    2    0    0  0.41478105600E+02  0.13471807709E+02 -0.11277892827E+02  0.45045684740E+02  0.00000000000E+00 0.  1.
         11    1    3    3    0    0 -0.40884510806E+02 -0.13554485385E+02  0.10213786135E+02  0.44267242125E+02  0.51100000000E-03 0. -1.
        -11    1    3    3    0    0  0.18761892672E+00 -0.15719102683E+00 -0.23564325047E+00  0.33976150928E+00  0.51100000000E-03 0.  1.
         12    1    3    3    0    0 -0.78121372096E+00  0.23986870337E+00  0.12997499430E+01  0.15353116254E+01  0.00000000000E+00 0. -1.
</event>
<event>
 7    1  0.3986981E-008  0.4614232E+02  0.7816164E-02  0.1320468E+00
        -11   -1    0    0    0    0  0.00000000000E+00  0.00000000000E+00  0.45593999997E+02  0.45594000000E+02  0.51100000000E-03 0.  1.
         11   -1    0    0    0    0 -0.00000000000E+00 -0.00000000000E+00 -0.45593999997E+02  0.45594000000E+02  0.51100000000E-03 0. -1.
    9900012    2    1    2    0    0  0.14418642031E+02 -0.11974697228E+02 -0.40961232341E+02  0.46142321332E+02  0.10000032565E+02 0.  0.
        -12    1    1    2    0    0 -0.14418642031E+02  0.11974697228E+02  0.40961232341E+02  0.45045678668E+02  0.00000000000E+00 0.  1.
         11    1    3    3    0    0  0.91244490337E+01 -0.87234194692E+01 -0.23652753724E+02  0.26810564642E+02  0.51100000000E-03 0. -1.
        -11    1    3    3    0    0  0.63254056368E+01 -0.38509703890E+01 -0.14541188599E+02  0.16318299407E+02  0.51100000000E-03 0.  1.
        -12    1    3    3    0    0 -0.10312126392E+01  0.59969262991E+00 -0.27672900172E+01  0.30134572831E+01  0.00000000000E+00 0.  1.
</event>
<event>
 7    1  0.3986981E-008  0.4614232E+02  0.7816164E-02  0.1320468E+00
        -11   -1    0    0    0    0  0.00000000000E+00  0.00000000000E+00  0.45593999997E+02  0.45594000000E+02  0.51100000000E-03 0.  1.
         11   -1    0    0    0    0 -0.00000000000E+00 -0.00000000000E+00 -0.45593999997E+02  0.45594000000E+02  0.51100000000E-03 0. -1.
    9900012    2    1    2    0    0  0.27562705065E+02  0.58533687783E+01 -0.35144683896E+02  0.46142318268E+02  0.10000004622E+02 0.  0.
        -12    1    1    2    0    0 -0.27562705065E+02 -0.58533687783E+01  0.35144683896E+02  0.45045681732E+02  0.00000000000E+00 0.  1.
         11    1    3    3    0    0  0.78527954089E+01  0.32296733598E+00 -0.63827757936E+01  0.10124748428E+02  0.51100000000E-03 0. -1.
        -11    1    3    3    0    0  0.37550463288E+01 -0.12015822588E+01 -0.84587652967E+01  0.93324639545E+01  0.51100000000E-03 0.  1.
         12    1    3    3    0    0  0.15954863327E+02  0.67319837012E+01 -0.20303142806E+02  0.26685105886E+02  0.00000000000E+00 0. -1.
</event>
<event>
 7    1  0.3986981E-008  0.4614232E+02  0.7816164E-02  0.1320468E+00
        -11   -1    0    0    0    0  0.00000000000E+00  0.00000000000E+00  0.45593999997E+02  0.45594000000E+02  0.51100000000E-03 0.  1.
         11   -1    0    0    0    0 -0.00000000000E+00 -0.00000000000E+00 -0.45593999997E+02  0.45594000000E+02  0.51100000000E-03 0. -1.
    9900012    2    1    2    0    0  0.31614620794E+02  0.29708508300E+02 -0.12125737715E+02  0.46142320645E+02  0.10000026301E+02 0.  0.
        -12    1    1    2    0    0 -0.31614620794E+02 -0.29708508300E+02  0.12125737715E+02  0.45045679355E+02  0.00000000000E+00 0.  1.
         11    1    3    3    0    0  0.14545589415E+02  0.13698548347E+02 -0.84936219641E+01  0.21710965261E+02  0.51100000000E-03 0. -1.
        -11    1    3    3    0    0  0.16162584515E+02  0.14106273181E+02 -0.16149111277E+01  0.21513345148E+02  0.51100000000E-03 0.  1.
         12    1    3    3    0    0  0.90644686460E+00  0.19036867721E+01 -0.20172046236E+01  0.29180102361E+01  0.00000000000E+00 0. -1.
</event>
<event>
 7    1  0.3986981E-008  0.4614232E+02  0.7816164E-02  0.1320468E+00
        -11   -1    0    0    0    0  0.00000000000E+00  0.00000000000E+00  0.45593999997E+02  0.45594000000E+02  0.51100000000E-03 0.  1.
         11   -1    0    0    0    0 -0.00000000000E+00 -0.00000000000E+00 -0.45593999997E+02  0.45594000000E+02  0.51100000000E-03 0. -1.
    9900012    2    1    2    0    0 -0.39602414569E+02 -0.20198414812E+02 -0.72654040860E+01  0.46142319884E+02  0.10000019355E+02 0.  0.
        -12    1    1    2    0    0  0.39602414569E+02  0.20198414812E+02  0.72654040860E+01  0.45045680116E+02  0.00000000000E+00 0.  1.
         11    1    3    3    0    0 -0.15848999334E+02 -0.83225882474E+01 -0.27263504678E+01  0.18107712229E+02  0.51100000000E-03 0. -1.
        -11    1    3    3    0    0 -0.33049236225E+01  0.50042827687E+00 -0.22365294121E+01  0.40218170872E+01  0.51100000000E-03 0.  1.
        -12    1    3    3    0    0 -0.20448491612E+02 -0.12376254842E+02 -0.23025242061E+01  0.24012790568E+02  0.00000000000E+00 0.  1.
</event>
<event>
 7    1  0.3986981E-008  0.4614233E+02  0.7816164E-02  0.1320468E+00
        -11   -1    0    0    0    0  0.00000000000E+00  0.00000000000E+00  0.45593999997E+02  0.45594000000E+02  0.51100000000E-03 0.  1.
         11   -1    0    0    0    0 -0.00000000000E+00 -0.00000000000E+00 -0.45593999997E+02  0.45594000000E+02  0.51100000000E-03 0. -1.
    9900012    2    1    2    0    0  0.67899158149E+01 -0.14622112939E+02 -0.42061901902E+02  0.46142326121E+02  0.10000076231E+02 0.  0.
        -12    1    1    2    0    0 -0.67899158149E+01  0.14622112939E+02  0.42061901902E+02  0.45045673879E+02  0.00000000000E+00 0.  1.
         11    1    3    3    0    0 -0.15648227327E+01 -0.36982695723E+01 -0.74497134812E+01  0.84631022224E+01  0.51100000000E-03 0. -1.
        -11    1    3    3    0    0 -0.13399013693E+00 -0.15269446666E+00 -0.54449890678E+01  0.54487774011E+01  0.51100000000E-03 0.  1.
         12    1    3    3    0    0  0.84887286845E+01 -0.10771148900E+02 -0.29167199353E+02  0.32230446497E+02  0.00000000000E+00 0. -1.
</event>
<event>
 7    1  0.3986981E-008  0.4614232E+02  0.7816164E-02  0.1320468E+00
        -11   -1    0    0    0    0  0.00000000000E+00  0.00000000000E+00  0.45593999997E+02  0.45594000000E+02  0.51100000000E-03 0.  1.
         11   -1    0    0    0    0 -0.00000000000E+00 -0.00000000000E+00 -0.45593999997E+02  0.45594000000E+02  0.51100000000E-03 0. -1.
    9900012    2    1    2    0    0 -0.41497088693E+02  0.15764872986E+02 -0.76533481868E+01  0.46142319533E+02  0.10000016157E+02 0.  0.
        -12    1    1    2    0    0  0.41497088693E+02 -0.15764872986E+02  0.76533481868E+01  0.45045680467E+02  0.00000000000E+00 0.  1.
         11    1    3    3    0    0 -0.20282808970E+01  0.29665791863E+01 -0.25318970552E-01  0.35937663777E+01  0.51100000000E-03 0. -1.
        -11    1    3    3    0    0 -0.22379515108E+02  0.10100653987E+02 -0.47976069147E+01  0.25017652564E+02  0.51100000000E-03 0.  1.
        -12    1    3    3    0    0 -0.17089292689E+02  0.26976398119E+01 -0.28304223016E+01  0.17530900592E+02  0.00000000000E+00 0.  1.
</event>
<event>
 7    1  0.3986981E-008  0.4614232E+02  0.7816164E-02  0.1320468E+00
        -11   -1    0    0    0    0  0.00000000000E+00  0.00000000000E+00  0.45593999997E+02  0.45594000000E+02  0.51100000000E-03 0.  1.
         11   -1    0    0    0    0 -0.00000000000E+00 -0.00000000000E+00 -0.45593999997E+02  0.45594000000E+02  0.51100000000E-03 0. -1.
    9900012    2    1    2    0    0 -0.11676234240E+02  0.37359303289E+02 -0.22294877100E+02  0.46142317264E+02  0.99999954658E+01 0.  0.
        -12    1    1    2    0    0  0.11676234240E+02 -0.37359303289E+02  0.22294877100E+02  0.45045682736E+02  0.00000000000E+00 0.  1.
         11    1    3    3    0    0 -0.26035532176E+01  0.13847286128E+02 -0.11191625121E+02  0.17993840490E+02  0.51100000000E-03 0. -1.
        -11    1    3    3    0    0  0.24770522633E+00  0.61000485939E+01 -0.22690766631E+01  0.65131144540E+01  0.51100000000E-03 0.  1.
        -12    1    3    3    0    0 -0.93203862488E+01  0.17411968567E+02 -0.88341753158E+01  0.21635362320E+02  0.00000000000E+00 0.  1.
</event>
<event>
 7    1  0.3986981E-008  0.4614232E+02  0.7816164E-02  0.1320468E+00
        -11   -1    0    0    0    0  0.00000000000E+00  0.00000000000E+00  0.45593999997E+02  0.45594000000E+02  0.51100000000E-03 0.  1.
         11   -1    0    0    0    0 -0.00000000000E+00 -0.00000000000E+00 -0.45593999997E+02  0.45594000000E+02  0.51100000000E-03 0. -1.
    9900012    2    1    2    0    0  0.13904776301E+02  0.31045381412E+02 -0.29528884013E+02  0.46142317609E+02  0.99999986139E+01 0.  0.
        -12    1    1    2    0    0 -0.13904776301E+02 -0.31045381412E+02  0.29528884013E+02  0.45045682391E+02  0.00000000000E+00 0.  1.
         11    1    3    3    0    0  0.12665997975E+01  0.70531529695E+01 -0.55147117123E+01  0.90423054245E+01  0.51100000000E-03 0.  1.
        -11    1    3    3    0    0  0.63480169113E+01  0.69237165012E+01 -0.12249518116E+02  0.15436510721E+02  0.51100000000E-03 0. -1.
         12    1    3    3    0    0  0.62901595920E+01  0.17068511941E+02 -0.11764654185E+02  0.21663501464E+02  0.00000000000E+00 0. -1.
</event>
<event>
 7    1  0.3986981E-008  0.4614232E+02  0.7816164E-02  0.1320468E+00
        -11   -1    0    0    0    0  0.00000000000E+00  0.00000000000E+00  0.45593999997E+02  0.45594000000E+02  0.51100000000E-03 0. -1.
         11   -1    0    0    0    0 -0.00000000000E+00 -0.00000000000E+00 -0.45593999997E+02  0.45594000000E+02  0.51100000000E-03 0.  1.
    9900012    2    1    2    0    0 -0.24401928354E+02  0.34267152489E+02 -0.16106578609E+02  0.46142315172E+02  0.99999763920E+01 0.  0.
        -12    1    1    2    0    0  0.24401928354E+02 -0.34267152489E+02  0.16106578609E+02  0.45045684828E+02  0.00000000000E+00 0.  1.
         11    1    3    3    0    0 -0.77873197219E+01  0.15379701601E+02 -0.44336562702E+01  0.17799856122E+02  0.51100000000E-03 0. -1.
        -11    1    3    3    0    0 -0.15651696423E+02  0.18719614090E+02 -0.12145902656E+02  0.27256604782E+02  0.51100000000E-03 0.  1.
         12    1    3    3    0    0 -0.96291220845E+00  0.16783679814E+00  0.47298031722E+00  0.10858542685E+01  0.00000000000E+00 0. -1.
</event>
<event>
 7    1  0.3986981E-008  0.4614232E+02  0.7816164E-02  0.1320468E+00
        -11   -1    0    0    0    0  0.00000000000E+00  0.00000000000E+00  0.45593999997E+02  0.45594000000E+02  0.51100000000E-03 0. -1.
         11   -1    0    0    0    0 -0.00000000000E+00 -0.00000000000E+00 -0.45593999997E+02  0.45594000000E+02  0.51100000000E-03 0.  1.
    9900012    2    1    2    0    0  0.54796888850E+01 -0.29253649401E+02  0.33812872348E+02  0.46142319520E+02  0.10000016035E+02 0.  0.
        -12    1    1    2    0    0 -0.54796888850E+01  0.29253649401E+02 -0.33812872348E+02  0.45045680480E+02  0.00000000000E+00 0.  1.
         11    1    3    3    0    0  0.24387648727E+00 -0.49790486468E+01  0.69783756906E+01  0.85760205636E+01  0.51100000000E-03 0. -1.
        -11    1    3    3    0    0  0.52282808978E+00 -0.64154874500E+01  0.22548953577E+01  0.68202919122E+01  0.51100000000E-03 0.  1.
        -12    1    3    3    0    0  0.47129843079E+01 -0.17859113304E+02  0.24579601299E+02  0.30746007044E+02  0.00000000000E+00 0.  1.
</event>
<event>
 7    1  0.3986981E-008  0.4614232E+02  0.7816164E-02  0.1320468E+00
        -11   -1    0    0    0    0  0.00000000000E+00  0.00000000000E+00  0.45593999997E+02  0.45594000000E+02  0.51100000000E-03 0.  1.
         11   -1    0    0    0    0 -0.00000000000E+00 -0.00000000000E+00 -0.45593999997E+02  0.45594000000E+02  0.51100000000E-03 0. -1.
    9900012    2    1    2    0    0  0.41252486809E+02  0.15574224063E+02 -0.92081124157E+01  0.46142318106E+02  0.10000003143E+02 0.  0.
        -12    1    1    2    0    0 -0.41252486809E+02 -0.15574224063E+02  0.92081124157E+01  0.45045681894E+02  0.00000000000E+00 0.  1.
         11    1    3    3    0    0  0.54882136769E+01  0.23774389859E+01  0.32264421472E+00  0.59897249557E+01  0.51100000000E-03 0. -1.
        -11    1    3    3    0    0  0.21076769814E+02  0.11637439094E+02 -0.76556812399E+01  0.25263999485E+02  0.51100000000E-03 0.  1.
         12    1    3    3    0    0  0.14687503318E+02  0.15593459825E+01 -0.18750753905E+01  0.14888593666E+02  0.00000000000E+00 0. -1.
</event>
<event>
 7    1  0.3986981E-008  0.4614232E+02  0.7816164E-02  0.1320468E+00
        -11   -1    0    0    0    0  0.00000000000E+00  0.00000000000E+00  0.45593999997E+02  0.45594000000E+02  0.51100000000E-03 0. -1.
         11   -1    0    0    0    0 -0.00000000000E+00 -0.00000000000E+00 -0.45593999997E+02  0.45594000000E+02  0.51100000000E-03 0.  1.
    9900012    2    1    2    0    0  0.91524334040E+01  0.30984954657E+02  0.31389154339E+02  0.46142318049E+02  0.10000002628E+02 0.  0.
        -12    1    1    2    0    0 -0.91524334040E+01 -0.30984954657E+02 -0.31389154339E+02  0.45045681951E+02  0.00000000000E+00 0.  1.
         11    1    3    3    0    0  0.67470651938E+00  0.12618411074E+02  0.12757107044E+02  0.17956149569E+02  0.51100000000E-03 0. -1.
        -11    1    3    3    0    0  0.50518373140E+01  0.15128787356E+02  0.16696215647E+02  0.23090363451E+02  0.51100000000E-03 0.  1.
        -12    1    3    3    0    0  0.34258895707E+01  0.32377562264E+01  0.19358316472E+01  0.50958050295E+01  0.00000000000E+00 0.  1.
</event>
<event>
 7    1  0.3986981E-008  0.4614232E+02  0.7816164E-02  0.1320468E+00
        -11   -1    0    0    0    0  0.00000000000E+00  0.00000000000E+00  0.45593999997E+02  0.45594000000E+02  0.51100000000E-03 0.  1.
         11   -1    0    0    0    0 -0.00000000000E+00 -0.00000000000E+00 -0.45593999997E+02  0.45594000000E+02  0.51100000000E-03 0. -1.
    9900012    2    1    2    0    0 -0.42903597262E+02 -0.42324156514E+01 -0.13056857387E+02  0.46142317354E+02  0.99999962851E+01 0.  0.
        -12    1    1    2    0    0  0.42903597262E+02  0.42324156514E+01  0.13056857387E+02  0.45045682646E+02  0.00000000000E+00 0.  1.
         11    1    3    3    0    0 -0.17558831971E+02 -0.22973014529E+01 -0.30081953862E+01  0.17962166181E+02  0.51100000000E-03 0. -1.
        -11    1    3    3    0    0 -0.14307029986E+02 -0.12910596186E+01 -0.19985920815E+01  0.14503527589E+02  0.51100000000E-03 0.  1.
         12    1    3    3    0    0 -0.11037735305E+02 -0.64405457982E+00 -0.80500699189E+01  0.13676623584E+02  0.00000000000E+00 0. -1.
</event>
<event>
 7    1  0.3986981E-008  0.4614232E+02  0.7816164E-02  0.1320468E+00
        -11   -1    0    0    0    0  0.00000000000E+00  0.00000000000E+00  0.45593999997E+02  0.45594000000E+02  0.51100000000E-03 0.  1.
         11   -1    0    0    0    0 -0.00000000000E+00 -0.00000000000E+00 -0.45593999997E+02  0.45594000000E+02  0.51100000000E-03 0. -1.
    9900012    2    1    2    0    0 -0.18472162774E+02  0.68886550992E+01 -0.40502335226E+02  0.46142317350E+02  0.99999962517E+01 0.  0.
        -12    1    1    2    0    0  0.18472162774E+02 -0.68886550992E+01  0.40502335226E+02  0.45045682650E+02  0.00000000000E+00 0.  1.
         11    1    3    3    0    0 -0.85614787080E+01  0.19638516447E+01 -0.15128530249E+02  0.17493657671E+02  0.51100000000E-03 0. -1.
        -11    1    3    3    0    0 -0.87324610470E+01  0.12752815932E+01 -0.21289201374E+02  0.23045874131E+02  0.51100000000E-03 0.  1.
        -12    1    3    3    0    0 -0.11782230196E+01  0.36495218614E+01 -0.40846036027E+01  0.56027855475E+01  0.00000000000E+00 0.  1.
</event>
<event>
 7    1  0.3986981E-008  0.4614231E+02  0.7816164E-02  0.1320468E+00
        -11   -1    0    0    0    0  0.00000000000E+00  0.00000000000E+00  0.45593999997E+02  0.45594000000E+02  0.51100000000E-03 0. -1.
         11   -1    0    0    0    0 -0.00000000000E+00 -0.00000000000E+00 -0.45593999997E+02  0.45594000000E+02  0.51100000000E-03 0.  1.
    9900012    2    1    2    0    0  0.27788541587E+02  0.34687181821E+02 -0.73287190146E+01  0.46142314872E+02  0.99999736535E+01 0.  0.
        -12    1    1    2    0    0 -0.27788541587E+02 -0.34687181821E+02  0.73287190146E+01  0.45045685128E+02  0.00000000000E+00 0.  1.
         11    1    3    3    0    0  0.30456040886E+01  0.35370843285E+01 -0.37316795095E+01  0.59759603441E+01  0.51100000000E-03 0. -1.
        -11    1    3    3    0    0  0.11035766116E+02  0.10621253646E+02 -0.11037858004E+01  0.15356350677E+02  0.51100000000E-03 0.  1.
         12    1    3    3    0    0  0.13707171383E+02  0.20528843847E+02 -0.24932537047E+01  0.24810003851E+02  0.00000000000E+00 0. -1.
</event>
<event>
 7    1  0.3986981E-008  0.4614232E+02  0.7816164E-02  0.1320468E+00
        -11   -1    0    0    0    0  0.00000000000E+00  0.00000000000E+00  0.45593999997E+02  0.45594000000E+02  0.51100000000E-03 0. -1.
         11   -1    0    0    0    0 -0.00000000000E+00 -0.00000000000E+00 -0.45593999997E+02  0.45594000000E+02  0.51100000000E-03 0.  1.
    9900012    2    1    2    0    0  0.42869600412E+02 -0.63809856547E+01  0.12271670055E+02  0.46142317595E+02  0.99999984813E+01 0.  0.
        -12    1    1    2    0    0 -0.42869600412E+02  0.63809856547E+01 -0.12271670055E+02  0.45045682405E+02  0.00000000000E+00 0.  1.
         11    1    3    3    0    0  0.86259342210E+01 -0.34329247105E+01  0.31177822990E+01  0.97934815044E+01  0.51100000000E-03 0. -1.
        -11    1    3    3    0    0  0.48885595782E+01 -0.19266632239E+01  0.38181815070E+01  0.64952718349E+01  0.51100000000E-03 0.  1.
         12    1    3    3    0    0  0.29355106613E+02 -0.10213977203E+01  0.53357062494E+01  0.29853564255E+02  0.00000000000E+00 0. -1.
</event>
<event>
 7    1  0.3986981E-008  0.4614232E+02  0.7816164E-02  0.1320468E+00
        -11   -1    0    0    0    0  0.00000000000E+00  0.00000000000E+00  0.45593999997E+02  0.45594000000E+02  0.51100000000E-03 0.  1.
         11   -1    0    0    0    0 -0.00000000000E+00 -0.00000000000E+00 -0.45593999997E+02  0.45594000000E+02  0.51100000000E-03 0. -1.
    9900012    2    1    2    0    0 -0.10004413646E+02  0.36432440084E+02  0.24529624145E+02  0.46142318258E+02  0.10000004533E+02 0.  0.
        -12    1    1    2    0    0  0.10004413646E+02 -0.36432440084E+02 -0.24529624145E+02  0.45045681742E+02  0.00000000000E+00 0.  1.
         11    1    3    3    0    0 -0.26498757265E+01  0.88277011678E+01  0.40956621821E+01  0.10085861304E+02  0.51100000000E-03 0. -1.
        -11    1    3    3    0    0  0.74521072212E+00  0.69285268973E+01  0.79878830474E+01  0.10600287724E+02  0.51100000000E-03 0.  1.
        -12    1    3    3    0    0 -0.80997486415E+01  0.20676212019E+02  0.12446078916E+02  0.25456169230E+02  0.00000000000E+00 0.  1.
</event>
<event>
 7    1  0.3986981E-008  0.4614232E+02  0.7816164E-02  0.1320468E+00
        -11   -1    0    0    0    0  0.00000000000E+00  0.00000000000E+00  0.45593999997E+02  0.45594000000E+02  0.51100000000E-03 0. -1.
         11   -1    0    0    0    0 -0.00000000000E+00 -0.00000000000E+00 -0.45593999997E+02  0.45594000000E+02  0.51100000000E-03 0.  1.
    9900012    2    1    2    0    0 -0.29073182439E+02  0.32537342462E+02  0.11188605287E+02  0.46142317855E+02  0.10000000856E+02 0.  0.
        -12    1    1    2    0    0  0.29073182439E+02 -0.32537342462E+02 -0.11188605287E+02  0.45045682145E+02  0.00000000000E+00 0.  1.
         11    1    3    3    0    0 -0.97538527707E+01  0.89899050827E+01  0.57177916083E+01  0.14444693780E+02  0.51100000000E-03 0. -1.
        -11    1    3    3    0    0 -0.31083747076E+00 -0.48633751059E+00  0.47024226411E-01  0.57909899536E+00  0.51100000000E-03 0.  1.
         12    1    3    3    0    0 -0.19008492197E+02  0.24033774890E+02  0.54237894519E+01  0.31118525079E+02  0.00000000000E+00 0. -1.
</event>
<event>
 7    1  0.3986981E-008  0.4614232E+02  0.7816164E-02  0.1320468E+00
        -11   -1    0    0    0    0  0.00000000000E+00  0.00000000000E+00  0.45593999997E+02  0.45594000000E+02  0.51100000000E-03 0.  1.
         11   -1    0    0    0    0 -0.00000000000E+00 -0.00000000000E+00 -0.45593999997E+02  0.45594000000E+02  0.51100000000E-03 0. -1.
    9900012    2    1    2    0    0  0.15320916261E+02  0.31679883234E+02 -0.28120600129E+02  0.46142316207E+02  0.99999858273E+01 0.  0.
        -12    1    1    2    0    0 -0.15320916261E+02 -0.31679883234E+02  0.28120600129E+02  0.45045683793E+02  0.00000000000E+00 0.  1.
         11    1    3    3    0    0  0.27704733720E+01  0.15539364651E+01 -0.35069790541E+01  0.47317167698E+01  0.51100000000E-03 0.  1.
        -11    1    3    3    0    0  0.11758528384E+02  0.20865773160E+02 -0.18800760480E+02  0.30448515139E+02  0.51100000000E-03 0. -1.
        -12    1    3    3    0    0  0.79191450454E+00  0.92601736093E+01 -0.58128605950E+01  0.10962084298E+02  0.00000000000E+00 0.  1.
</event>
<event>
 7    1  0.3986981E-008  0.4614232E+02  0.7816164E-02  0.1320468E+00
        -11   -1    0    0    0    0  0.00000000000E+00  0.00000000000E+00  0.45593999997E+02  0.45594000000E+02  0.51100000000E-03 0.  1.
         11   -1    0    0    0    0 -0.00000000000E+00 -0.00000000000E+00 -0.45593999997E+02  0.45594000000E+02  0.51100000000E-03 0. -1.
    9900012    2    1    2    0    0  0.41270011713E+02  0.16340922236E+02  0.76729315890E+01  0.46142317793E+02  0.10000000290E+02 0.  0.
        -12    1    1    2    0    0 -0.41270011713E+02 -0.16340922236E+02 -0.76729315890E+01  0.45045682207E+02  0.00000000000E+00 0.  1.
         11    1    3    3    0    0  0.59497623855E+01  0.36358232350E+01 -0.18516644431E+00  0.69751824286E+01  0.51100000000E-03 0. -1.
        -11    1    3    3    0    0  0.79440107810E+00  0.17054590806E+01  0.14358361414E+01  0.23667043404E+01  0.51100000000E-03 0.  1.
        -12    1    3    3    0    0  0.34525848250E+02  0.10999639920E+02  0.64222618919E+01  0.36800431024E+02  0.00000000000E+00 0.  1.
</event>
<event>
 7    1  0.3986981E-008  0.4614232E+02  0.7816164E-02  0.1320468E+00
        -11   -1    0    0    0    0  0.00000000000E+00  0.00000000000E+00  0.45593999997E+02  0.45594000000E+02  0.51100000000E-03 0.  1.
         11   -1    0    0    0    0 -0.00000000000E+00 -0.00000000000E+00 -0.45593999997E+02  0.45594000000E+02  0.51100000000E-03 0. -1.
    9900012    2    1    2    0    0  0.22839415030E+02  0.24271781600E+02 -0.30304375359E+02  0.46142318444E+02  0.10000006225E+02 0.  0.
        -12    1    1    2    0    0 -0.22839415030E+02 -0.24271781600E+02  0.30304375359E+02  0.45045681556E+02  0.00000000000E+00 0.  1.
         11    1    3    3    0    0  0.15295882069E+01  0.28903757194E+01 -0.32009147980E+01  0.45759990917E+01  0.51100000000E-03 0. -1.
        -11    1    3    3    0    0  0.49321407467E+01  0.92217003054E+01 -0.53560502009E+01  0.11749597563E+02  0.51100000000E-03 0.  1.
         12    1    3    3    0    0  0.16377686076E+02  0.12159705575E+02 -0.21747410360E+02  0.29816721789E+02  0.00000000000E+00 0. -1.
</event>
<event>
 7    1  0.3986981E-008  0.4614231E+02  0.7816164E-02  0.1320468E+00
        -11   -1    0    0    0    0  0.00000000000E+00  0.00000000000E+00  0.45593999997E+02  0.45594000000E+02  0.51100000000E-03 0.  1.
         11   -1    0    0    0    0 -0.00000000000E+00 -0.00000000000E+00 -0.45593999997E+02  0.45594000000E+02  0.51100000000E-03 0. -1.
    9900012    2    1    2    0    0 -0.11997452698E+02  0.29536123219E+02 -0.31824398150E+02  0.46142314706E+02  0.99999721392E+01 0.  0.
        -12    1    1    2    0    0  0.11997452698E+02 -0.29536123219E+02  0.31824398150E+02  0.45045685294E+02  0.00000000000E+00 0.  1.
         11    1    3    3    0    0 -0.79041580577E+01  0.86758067984E+01 -0.98242028920E+01  0.15305564378E+02  0.51100000000E-03 0. -1.
        -11    1    3    3    0    0 -0.89570619505E+00  0.12591813127E+01 -0.64672558512E+00  0.16751362362E+01  0.51100000000E-03 0.  1.
         12    1    3    3    0    0 -0.31975884452E+01  0.19601135108E+02 -0.21353469673E+02  0.29161614092E+02  0.00000000000E+00 0. -1.
</event>
<event>
 7    1  0.3986981E-008  0.4614232E+02  0.7816164E-02  0.1320468E+00
        -11   -1    0    0    0    0  0.00000000000E+00  0.00000000000E+00  0.45593999997E+02  0.45594000000E+02  0.51100000000E-03 0.  1.
         11   -1    0    0    0    0 -0.00000000000E+00 -0.00000000000E+00 -0.45593999997E+02  0.45594000000E+02  0.51100000000E-03 0. -1.
    9900012    2    1    2    0    0 -0.21676250047E+02  0.30739771229E+02 -0.24785482058E+02  0.46142317941E+02  0.10000001641E+02 0.  0.
        -12    1    1    2    0    0  0.21676250047E+02 -0.30739771229E+02  0.24785482058E+02  0.45045682059E+02  0.00000000000E+00 0.  1.
         11    1    3    3    0    0 -0.10527755367E+02  0.94336658252E+01 -0.99491001874E+01  0.17286187514E+02  0.51100000000E-03 0. -1.
        -11    1    3    3    0    0 -0.50651225084E+01  0.86166947825E+01 -0.95488153239E+01  0.13823269127E+02  0.51100000000E-03 0.  1.
        -12    1    3    3    0    0 -0.60833721718E+01  0.12689410621E+02 -0.52875665468E+01  0.15032861301E+02  0.00000000000E+00 0.  1.
</event>
<event>
 7    1  0.3986981E-008  0.4614232E+02  0.7816164E-02  0.1320468E+00
        -11   -1    0    0    0    0  0.00000000000E+00  0.00000000000E+00  0.45593999997E+02  0.45594000000E+02  0.51100000000E-03 0. -1.
         11   -1    0    0    0    0 -0.00000000000E+00 -0.00000000000E+00 -0.45593999997E+02  0.45594000000E+02  0.51100000000E-03 0.  1.
    9900012    2    1    2    0    0 -0.11979069722E+02 -0.40636230015E+02  0.15307257207E+02  0.46142318470E+02  0.10000006467E+02 0.  0.
        -12    1    1    2    0    0  0.11979069722E+02  0.40636230015E+02 -0.15307257207E+02  0.45045681530E+02  0.00000000000E+00 0.  1.
         11    1    3    3    0    0 -0.94559071488E+01 -0.22634217729E+02  0.10132878454E+02  0.26540482630E+02  0.51100000000E-03 0. -1.
        -11    1    3    3    0    0 -0.15210164651E+01 -0.59454241969E+01  0.42571941341E+01  0.74689532148E+01  0.51100000000E-03 0.  1.
        -12    1    3    3    0    0 -0.10021461081E+01 -0.12056588089E+02  0.91718461943E+00  0.12132882626E+02  0.00000000000E+00 0.  1.
</event>
<event>
 7    1  0.3986981E-008  0.4614232E+02  0.7816164E-02  0.1320468E+00
        -11   -1    0    0    0    0  0.00000000000E+00  0.00000000000E+00  0.45593999997E+02  0.45594000000E+02  0.51100000000E-03 0. -1.
         11   -1    0    0    0    0 -0.00000000000E+00 -0.00000000000E+00 -0.45593999997E+02  0.45594000000E+02  0.51100000000E-03 0.  1.
    9900012    2    1    2    0    0  0.39626062288E+02  0.10953732896E+02  0.18409358271E+02  0.46142317091E+02  0.99999938873E+01 0.  0.
        -12    1    1    2    0    0 -0.39626062288E+02 -0.10953732896E+02 -0.18409358271E+02  0.45045682909E+02  0.00000000000E+00 0.  1.
         11    1    3    3    0    0  0.87338255301E+01  0.25925882155E+01  0.71594246798E+01  0.11587000650E+02  0.51100000000E-03 0.  1.
        -11    1    3    3    0    0  0.55776840319E+00  0.11872974062E+01  0.12690490166E+01  0.18251757149E+01  0.51100000000E-03 0. -1.
        -12    1    3    3    0    0  0.30334468355E+02  0.71738472743E+01  0.99808845745E+01  0.32730140726E+02  0.00000000000E+00 0.  1.
</event>
<event>
 7    1  0.3986981E-008  0.4614231E+02  0.7816164E-02  0.1320468E+00
        -11   -1    0    0    0    0  0.00000000000E+00  0.00000000000E+00  0.45593999997E+02  0.45594000000E+02  0.51100000000E-03 0.  1.
         11   -1    0    0    0    0 -0.00000000000E+00 -0.00000000000E+00 -0.45593999997E+02  0.45594000000E+02  0.51100000000E-03 0. -1.
    9900012    2    1    2    0    0 -0.91627682372E+01 -0.30857417118E+01 -0.43995859742E+02  0.46142314323E+02  0.99999686451E+01 0.  0.
        -12    1    1    2    0    0  0.91627682372E+01  0.30857417118E+01  0.43995859742E+02  0.45045685677E+02  0.00000000000E+00 0.  1.
         11    1    3    3    0    0 -0.37914163984E+00 -0.64674663563E+00 -0.47182095188E+01  0.47773979234E+01  0.51100000000E-03 0. -1.
        -11    1    3    3    0    0 -0.37969174245E+00 -0.27007054383E+01 -0.27161610450E+01  0.38490916808E+01  0.51100000000E-03 0.  1.
        -12    1    3    3    0    0 -0.84039348549E+01  0.26171036211E+00 -0.36561489178E+02  0.37515824718E+02  0.00000000000E+00 0.  1.
</event>
<event>
 7    1  0.3986981E-008  0.4614232E+02  0.7816164E-02  0.1320468E+00
        -11   -1    0    0    0    0  0.00000000000E+00  0.00000000000E+00  0.45593999997E+02  0.45594000000E+02  0.51100000000E-03 0. -1.
         11   -1    0    0    0    0 -0.00000000000E+00 -0.00000000000E+00 -0.45593999997E+02  0.45594000000E+02  0.51100000000E-03 0.  1.
    9900012    2    1    2    0    0 -0.14654259342E+02 -0.40188979520E+02 -0.14114256647E+02  0.46142316162E+02  0.99999854182E+01 0.  0.
        -12    1    1    2    0    0  0.14654259342E+02  0.40188979520E+02  0.14114256647E+02  0.45045683838E+02  0.00000000000E+00 0.  1.
         11    1    3    3    0    0 -0.93609618628E+01 -0.20531631150E+02 -0.42944646745E+01  0.22969934954E+02  0.51100000000E-03 0. -1.
        -11    1    3    3    0    0 -0.28240509027E+01 -0.37516192009E+01 -0.35971725622E+01  0.59151974467E+01  0.51100000000E-03 0.  1.
         12    1    3    3    0    0 -0.24692465769E+01 -0.15905729169E+02 -0.62226194103E+01  0.17257183761E+02  0.00000000000E+00 0. -1.
</event>
<event>
 7    1  0.3986981E-008  0.4614231E+02  0.7816164E-02  0.1320468E+00
        -11   -1    0    0    0    0  0.00000000000E+00  0.00000000000E+00  0.45593999997E+02  0.45594000000E+02  0.51100000000E-03 0.  1.
         11   -1    0    0    0    0 -0.00000000000E+00 -0.00000000000E+00 -0.45593999997E+02  0.45594000000E+02  0.51100000000E-03 0. -1.
    9900012    2    1    2    0    0  0.17391741891E+02 -0.41262716675E+02 -0.49020197345E+01  0.46142309075E+02  0.99999207936E+01 0.  0.
        -12    1    1    2    0    0 -0.17391741891E+02  0.41262716675E+02  0.49020197345E+01  0.45045690925E+02  0.00000000000E+00 0.  1.
         11    1    3    3    0    0  0.28767411325E+01 -0.94423150913E+01 -0.74156528855E+00  0.98986298630E+01  0.51100000000E-03 0. -1.
        -11    1    3    3    0    0  0.41025875894E+01 -0.17327757674E+02 -0.46057784847E+01  0.18392813995E+02  0.51100000000E-03 0.  1.
        -12    1    3    3    0    0  0.10412413169E+02 -0.14492643910E+02  0.44532403874E+00  0.17850865217E+02  0.00000000000E+00 0.  1.
</event>
<event>
 7    1  0.3986981E-008  0.4614232E+02  0.7816164E-02  0.1320468E+00
        -11   -1    0    0    0    0  0.00000000000E+00  0.00000000000E+00  0.45593999997E+02  0.45594000000E+02  0.51100000000E-03 0.  1.
         11   -1    0    0    0    0 -0.00000000000E+00 -0.00000000000E+00 -0.45593999997E+02  0.45594000000E+02  0.51100000000E-03 0. -1.
    9900012    2    1    2    0    0 -0.54485578694E+01 -0.20678982116E+02 -0.39646013900E+02  0.46142317606E+02  0.99999985823E+01 0.  0.
        -12    1    1    2    0    0  0.54485578694E+01  0.20678982116E+02  0.39646013900E+02  0.45045682394E+02  0.00000000000E+00 0.  1.
         11    1    3    3    0    0 -0.26623788016E+00 -0.83003777036E+01 -0.18457757776E+02  0.20239959856E+02  0.51100000000E-03 0. -1.
        -11    1    3    3    0    0 -0.47088638750E+01 -0.57848890707E+01 -0.15418024312E+02  0.17127574683E+02  0.51100000000E-03 0.  1.
         12    1    3    3    0    0 -0.47345611425E+00 -0.65937153414E+01 -0.57702318123E+01  0.87747830664E+01  0.00000000000E+00 0. -1.
</event>
<event>
 7    1  0.3986981E-008  0.4614232E+02  0.7816164E-02  0.1320468E+00
        -11   -1    0    0    0    0  0.00000000000E+00  0.00000000000E+00  0.45593999997E+02  0.45594000000E+02  0.51100000000E-03 0.  1.
         11   -1    0    0    0    0 -0.00000000000E+00 -0.00000000000E+00 -0.45593999997E+02  0.45594000000E+02  0.51100000000E-03 0. -1.
    9900012    2    1    2    0    0  0.29909660741E+02 -0.12285036317E+02 -0.31362455739E+02  0.46142317045E+02  0.99999934674E+01 0.  0.
        -12    1    1    2    0    0 -0.29909660741E+02  0.12285036317E+02  0.31362455739E+02  0.45045682955E+02  0.00000000000E+00 0.  1.
         11    1    3    3    0    0  0.91982501772E+01 -0.77959310658E+01 -0.88398172653E+01  0.14950809913E+02  0.51100000000E-03 0. -1.
        -11    1    3    3    0    0  0.55137339696E+01  0.52832625364E+00 -0.50295913196E+01  0.74817898942E+01  0.51100000000E-03 0.  1.
         12    1    3    3    0    0  0.15197676594E+02 -0.50174315048E+01 -0.17493047154E+02  0.23709717238E+02  0.00000000000E+00 0. -1.
</event>
<event>
 7    1  0.3986981E-008  0.4614232E+02  0.7816164E-02  0.1320468E+00
        -11   -1    0    0    0    0  0.00000000000E+00  0.00000000000E+00  0.45593999997E+02  0.45594000000E+02  0.51100000000E-03 0. -1.
         11   -1    0    0    0    0 -0.00000000000E+00 -0.00000000000E+00 -0.45593999997E+02  0.45594000000E+02  0.51100000000E-03 0.  1.
    9900012    2    1    2    0    0 -0.35807435587E+02  0.24965241693E+02  0.11121048213E+02  0.46142318193E+02  0.10000003936E+02 0.  0.
        -12    1    1    2    0    0  0.35807435587E+02 -0.24965241693E+02 -0.11121048213E+02  0.45045681807E+02  0.00000000000E+00 0.  1.
         11    1    3    3    0    0 -0.84807680426E+01  0.72356250437E+01  0.42944912491E+01  0.11946562339E+02  0.51100000000E-03 0. -1.
        -11    1    3    3    0    0 -0.15257170066E+02  0.77882351405E+01  0.71338408666E+01  0.18556118420E+02  0.51100000000E-03 0.  1.
        -12    1    3    3    0    0 -0.12069497478E+02  0.99413815084E+01 -0.30728390243E+00  0.15639637434E+02  0.00000000000E+00 0.  1.
</event>
<event>
 7    1  0.3986981E-008  0.4614232E+02  0.7816164E-02  0.1320468E+00
        -11   -1    0    0    0    0  0.00000000000E+00  0.00000000000E+00  0.45593999997E+02  0.45594000000E+02  0.51100000000E-03 0. -1.
         11   -1    0    0    0    0 -0.00000000000E+00 -0.00000000000E+00 -0.45593999997E+02  0.45594000000E+02  0.51100000000E-03 0.  1.
    9900012    2    1    2    0    0 -0.21915003963E+02  0.30685605919E+02 -0.24642234486E+02  0.46142317302E+02  0.99999958092E+01 0.  0.
        -12    1    1    2    0    0  0.21915003963E+02 -0.30685605919E+02  0.24642234486E+02  0.45045682698E+02  0.00000000000E+00 0.  1.
         11    1    3    3    0    0 -0.10676462564E+02  0.10213844840E+02 -0.65542060600E+01  0.16163758741E+02  0.51100000000E-03 0. -1.
        -11    1    3    3    0    0 -0.11779879169E+02  0.19625700990E+02 -0.17516352765E+02  0.28822843493E+02  0.51100000000E-03 0.  1.
         12    1    3    3    0    0  0.54133777020E+00  0.84606008888E+00 -0.57167566139E+00  0.11557150675E+01  0.00000000000E+00 0. -1.
</event>
<event>
 7    1  0.3986981E-008  0.4614232E+02  0.7816164E-02  0.1320468E+00
        -11   -1    0    0    0    0  0.00000000000E+00  0.00000000000E+00  0.45593999997E+02  0.45594000000E+02  0.51100000000E-03 0. -1.
         11   -1    0    0    0    0 -0.00000000000E+00 -0.00000000000E+00 -0.45593999997E+02  0.45594000000E+02  0.51100000000E-03 0.  1.
    9900012    2    1    2    0    0 -0.32156340203E+02  0.30740842014E+02  0.70769965439E+01  0.46142318042E+02  0.10000002561E+02 0.  0.
        -12    1    1    2    0    0  0.32156340203E+02 -0.30740842014E+02 -0.70769965439E+01  0.45045681958E+02  0.00000000000E+00 0.  1.
         11    1    3    3    0    0 -0.55481417370E+01  0.46129194477E+01  0.24483481923E+01  0.76194036313E+01  0.51100000000E-03 0. -1.
        -11    1    3    3    0    0 -0.66472968073E+01  0.20255308576E+01  0.84758528502E+00  0.70005522051E+01  0.51100000000E-03 0.  1.
         12    1    3    3    0    0 -0.19960901659E+02  0.24102391708E+02  0.37810630666E+01  0.31522362206E+02  0.00000000000E+00 0. -1.
</event>
<event>
 7    1  0.3986981E-008  0.4614232E+02  0.7816164E-02  0.1320468E+00
        -11   -1    0    0    0    0  0.00000000000E+00  0.00000000000E+00  0.45593999997E+02  0.45594000000E+02  0.51100000000E-03 0.  1.
         11   -1    0    0    0    0 -0.00000000000E+00 -0.00000000000E+00 -0.45593999997E+02  0.45594000000E+02  0.51100000000E-03 0. -1.
    9900012    2    1    2    0    0  0.26033415032E+02 -0.36531765141E+02 -0.40994099761E+01  0.46142315138E+02  0.99999760797E+01 0.  0.
        -12    1    1    2    0    0 -0.26033415032E+02  0.36531765141E+02  0.40994099761E+01  0.45045684862E+02  0.00000000000E+00 0.  1.
         11    1    3    3    0    0  0.42990603810E+01 -0.10798188017E+02  0.18166274604E+01  0.11763627000E+02  0.51100000000E-03 0.  1.
        -11    1    3    3    0    0  0.66286312950E+01 -0.63212893506E+01 -0.38671960887E+00  0.91677153215E+01  0.51100000000E-03 0. -1.
        -12    1    3    3    0    0  0.15105723356E+02 -0.19412287774E+02 -0.55293178276E+01  0.25210972817E+02  0.00000000000E+00 0.  1.
</event>
<event>
 7    1  0.3986981E-008  0.4614232E+02  0.7816164E-02  0.1320468E+00
        -11   -1    0    0    0    0  0.00000000000E+00  0.00000000000E+00  0.45593999997E+02  0.45594000000E+02  0.51100000000E-03 0.  1.
         11   -1    0    0    0    0 -0.00000000000E+00 -0.00000000000E+00 -0.45593999997E+02  0.45594000000E+02  0.51100000000E-03 0. -1.
    9900012    2    1    2    0    0 -0.20324301804E+02 -0.29436531391E+02 -0.27377488621E+02  0.46142317550E+02  0.99999980785E+01 0.  0.
        -12    1    1    2    0    0  0.20324301804E+02  0.29436531391E+02  0.27377488621E+02  0.45045682450E+02  0.00000000000E+00 0.  1.
         11    1    3    3    0    0 -0.45402222041E+01 -0.27346610774E+01 -0.39397765879E+01  0.66040766724E+01  0.51100000000E-03 0. -1.
        -11    1    3    3    0    0 -0.17437743227E+01 -0.67511856692E+01 -0.25580246343E+01  0.74271627907E+01  0.51100000000E-03 0.  1.
        -12    1    3    3    0    0 -0.14040305278E+02 -0.19950684645E+02 -0.20879687398E+02  0.32111078087E+02  0.00000000000E+00 0.  1.
</event>
<event>
 7    1  0.3986981E-008  0.4614232E+02  0.7816164E-02  0.1320468E+00
        -11   -1    0    0    0    0  0.00000000000E+00  0.00000000000E+00  0.45593999997E+02  0.45594000000E+02  0.51100000000E-03 0.  1.
         11   -1    0    0    0    0 -0.00000000000E+00 -0.00000000000E+00 -0.45593999997E+02  0.45594000000E+02  0.51100000000E-03 0. -1.
    9900012    2    1    2    0    0  0.23182345251E+02  0.16471916458E+02 -0.34933771468E+02  0.46142317054E+02  0.99999935477E+01 0.  0.
        -12    1    1    2    0    0 -0.23182345251E+02 -0.16471916458E+02  0.34933771468E+02  0.45045682946E+02  0.00000000000E+00 0.  1.
         11    1    3    3    0    0  0.12570762066E+02  0.10910098345E+02 -0.25288519923E+02  0.30274800494E+02  0.51100000000E-03 0. -1.
        -11    1    3    3    0    0  0.46086388536E+00  0.99980564698E+00 -0.22522571154E+01  0.25069242564E+01  0.51100000000E-03 0.  1.
        -12    1    3    3    0    0  0.10150719300E+02  0.45620124654E+01 -0.73929944297E+01  0.13360592303E+02  0.00000000000E+00 0.  1.
</event>
<event>
 7    1  0.3986981E-008  0.4614232E+02  0.7816164E-02  0.1320468E+00
        -11   -1    0    0    0    0  0.00000000000E+00  0.00000000000E+00  0.45593999997E+02  0.45594000000E+02  0.51100000000E-03 0.  1.
         11   -1    0    0    0    0 -0.00000000000E+00 -0.00000000000E+00 -0.45593999997E+02  0.45594000000E+02  0.51100000000E-03 0. -1.
    9900012    2    1    2    0    0  0.16754546696E+02  0.22215558325E+01 -0.41754800751E+02  0.46142317287E+02  0.99999956782E+01 0.  0.
        -12    1    1    2    0    0 -0.16754546696E+02 -0.22215558325E+01  0.41754800751E+02  0.45045682713E+02  0.00000000000E+00 0.  1.
         11    1    3    3    0    0 -0.85866680689E-01 -0.45974973021E+00 -0.31526191190E+00  0.56403300923E+00  0.51100000000E-03 0. -1.
        -11    1    3    3    0    0 -0.36946287725E+00 -0.98749175391E+00 -0.90665085444E+00  0.13905606117E+01  0.51100000000E-03 0.  1.
         12    1    3    3    0    0  0.17209876254E+02  0.36687973167E+01 -0.40532887985E+02  0.44187723666E+02  0.00000000000E+00 0. -1.
</event>
<event>
 7    1  0.3986981E-008  0.4614232E+02  0.7816164E-02  0.1320468E+00
        -11   -1    0    0    0    0  0.00000000000E+00  0.00000000000E+00  0.45593999997E+02  0.45594000000E+02  0.51100000000E-03 0.  1.
         11   -1    0    0    0    0 -0.00000000000E+00 -0.00000000000E+00 -0.45593999997E+02  0.45594000000E+02  0.51100000000E-03 0. -1.
    9900012    2    1    2    0    0  0.23032058885E+01  0.40325817482E+02 -0.19940844446E+02  0.46142316630E+02  0.99999896893E+01 0.  0.
        -12    1    1    2    0    0 -0.23032058885E+01 -0.40325817482E+02  0.19940844446E+02  0.45045683370E+02  0.00000000000E+00 0.  1.
         11    1    3    3    0    0  0.17286668238E+01  0.73475555970E+01 -0.37254203657E+01  0.84174592011E+01  0.51100000000E-03 0. -1.
        -11    1    3    3    0    0  0.20241967667E+01  0.16700691554E+01 -0.20529539427E+01  0.33318348828E+01  0.51100000000E-03 0.  1.
         12    1    3    3    0    0 -0.14496577021E+01  0.31308192730E+02 -0.14162470138E+02  0.34393022547E+02  0.00000000000E+00 0. -1.
</event>
<event>
 7    1  0.3986981E-008  0.4614232E+02  0.7816164E-02  0.1320468E+00
        -11   -1    0    0    0    0  0.00000000000E+00  0.00000000000E+00  0.45593999997E+02  0.45594000000E+02  0.51100000000E-03 0.  1.
         11   -1    0    0    0    0 -0.00000000000E+00 -0.00000000000E+00 -0.45593999997E+02  0.45594000000E+02  0.51100000000E-03 0. -1.
    9900012    2    1    2    0    0  0.42967932380E+01 -0.38030794559E+02 -0.23755202825E+02  0.46142318430E+02  0.10000006096E+02 0.  0.
        -12    1    1    2    0    0 -0.42967932380E+01  0.38030794559E+02  0.23755202825E+02  0.45045681570E+02  0.00000000000E+00 0.  1.
         11    1    3    3    0    0  0.19408650407E+01 -0.45591183811E+01 -0.27944832563E+01  0.56887304779E+01  0.51100000000E-03 0. -1.
        -11    1    3    3    0    0 -0.10128145948E+01 -0.27751461311E+02 -0.15163792456E+02  0.31640322379E+02  0.51100000000E-03 0.  1.
         12    1    3    3    0    0  0.33687427921E+01 -0.57202148664E+01 -0.57969271124E+01  0.88132655732E+01  0.00000000000E+00 0. -1.
</event>
<event>
 7    1  0.3986981E-008  0.4614232E+02  0.7816164E-02  0.1320468E+00
        -11   -1    0    0    0    0  0.00000000000E+00  0.00000000000E+00  0.45593999997E+02  0.45594000000E+02  0.51100000000E-03 0.  1.
         11   -1    0    0    0    0 -0.00000000000E+00 -0.00000000000E+00 -0.45593999997E+02  0.45594000000E+02  0.51100000000E-03 0. -1.
    9900012    2    1    2    0    0 -0.40438919810E+02 -0.17294950316E+02 -0.97309784452E+01  0.46142317817E+02  0.10000000509E+02 0.  0.
        -12    1    1    2    0    0  0.40438919810E+02  0.17294950316E+02  0.97309784452E+01  0.45045682183E+02  0.00000000000E+00 0.  1.
         11    1    3    3    0    0 -0.30192309947E+02 -0.12976888601E+02 -0.10175643389E+02  0.34402310044E+02  0.51100000000E-03 0. -1.
        -11    1    3    3    0    0 -0.21453068582E+01  0.50511137410E+00  0.68689764186E+00  0.23085293257E+01  0.51100000000E-03 0.  1.
         12    1    3    3    0    0 -0.81013030049E+01 -0.48231730892E+01 -0.24223269790E+00  0.94314784475E+01  0.00000000000E+00 0. -1.
</event>
<event>
 7    1  0.3986981E-008  0.4614232E+02  0.7816164E-02  0.1320468E+00
        -11   -1    0    0    0    0  0.00000000000E+00  0.00000000000E+00  0.45593999997E+02  0.45594000000E+02  0.51100000000E-03 0.  1.
         11   -1    0    0    0    0 -0.00000000000E+00 -0.00000000000E+00 -0.45593999997E+02  0.45594000000E+02  0.51100000000E-03 0. -1.
    9900012    2    1    2    0    0  0.59223475816E+01  0.44423721704E+02  0.45356631353E+01  0.46142317732E+02  0.99999997388E+01 0.  0.
        -12    1    1    2    0    0 -0.59223475816E+01 -0.44423721704E+02 -0.45356631353E+01  0.45045682268E+02  0.00000000000E+00 0.  1.
         11    1    3    3    0    0  0.12092858851E+01  0.17054821100E+02 -0.22655758936E+01  0.17247090464E+02  0.51100000000E-03 0. -1.
        -11    1    3    3    0    0  0.16128576480E+01  0.75193889095E+01  0.38138650683E+01  0.85841765118E+01  0.51100000000E-03 0.  1.
        -12    1    3    3    0    0  0.31002040486E+01  0.19849511694E+02  0.29873739607E+01  0.20311050756E+02  0.00000000000E+00 0.  1.
</event>
<event>
 7    1  0.3986981E-008  0.4614231E+02  0.7816164E-02  0.1320468E+00
        -11   -1    0    0    0    0  0.00000000000E+00  0.00000000000E+00  0.45593999997E+02  0.45594000000E+02  0.51100000000E-03 0.  1.
         11   -1    0    0    0    0 -0.00000000000E+00 -0.00000000000E+00 -0.45593999997E+02  0.45594000000E+02  0.51100000000E-03 0. -1.
    9900012    2    1    2    0    0  0.88533068307E+01 -0.30461983061E+02 -0.31981255175E+02  0.46142310568E+02  0.99999344101E+01 0.  0.
        -12    1    1    2    0    0 -0.88533068307E+01  0.30461983061E+02  0.31981255175E+02  0.45045689432E+02  0.00000000000E+00 0.  1.
         11    1    3    3    0    0 -0.46596180663E+00 -0.61387479869E+01 -0.46649286353E+01  0.77241767642E+01  0.51100000000E-03 0.  1.
        -11    1    3    3    0    0  0.15329613018E+01 -0.12706211887E+02 -0.10559727546E+02  0.16592336694E+02  0.51100000000E-03 0. -1.
        -12    1    3    3    0    0  0.77863073355E+01 -0.11617023187E+02 -0.16756598994E+02  0.21825797110E+02  0.00000000000E+00 0.  1.
</event>
<event>
 7    1  0.3986981E-008  0.4614231E+02  0.7816164E-02  0.1320468E+00
        -11   -1    0    0    0    0  0.00000000000E+00  0.00000000000E+00  0.45593999997E+02  0.45594000000E+02  0.51100000000E-03 0.  1.
         11   -1    0    0    0    0 -0.00000000000E+00 -0.00000000000E+00 -0.45593999997E+02  0.45594000000E+02  0.51100000000E-03 0. -1.
    9900012    2    1    2    0    0  0.14098862848E+01 -0.33837223513E+02 -0.29701318675E+02  0.46142314241E+02  0.99999679046E+01 0.  0.
        -12    1    1    2    0    0 -0.14098862848E+01  0.33837223513E+02  0.29701318675E+02  0.45045685759E+02  0.00000000000E+00 0.  1.
         11    1    3    3    0    0 -0.67879092112E+00 -0.16045166546E+02 -0.12158424494E+02  0.20142874994E+02  0.51100000000E-03 0. -1.
        -11    1    3    3    0    0 -0.19798180291E+01 -0.70858752540E+01 -0.94463752166E+01  0.11973441967E+02  0.51100000000E-03 0.  1.
         12    1    3    3    0    0  0.40684952351E+01 -0.10706181714E+02 -0.80965189639E+01  0.14025997280E+02  0.00000000000E+00 0. -1.
</event>
<event>
 7    1  0.3986981E-008  0.4614232E+02  0.7816164E-02  0.1320468E+00
        -11   -1    0    0    0    0  0.00000000000E+00  0.00000000000E+00  0.45593999997E+02  0.45594000000E+02  0.51100000000E-03 0.  1.
         11   -1    0    0    0    0 -0.00000000000E+00 -0.00000000000E+00 -0.45593999997E+02  0.45594000000E+02  0.51100000000E-03 0. -1.
    9900012    2    1    2    0    0  0.32277793695E+02  0.20833001946E+02 -0.23521129511E+02  0.46142317972E+02  0.10000001920E+02 0.  0.
        -12    1    1    2    0    0 -0.32277793695E+02 -0.20833001946E+02  0.23521129511E+02  0.45045682028E+02  0.00000000000E+00 0.  1.
         11    1    3    3    0    0  0.44798320694E+01  0.61177968658E+01 -0.69499642606E+01  0.10285831874E+02  0.51100000000E-03 0. -1.
        -11    1    3    3    0    0  0.13454519659E+02  0.59555823684E+01 -0.53881997287E+01  0.15669261539E+02  0.51100000000E-03 0.  1.
         12    1    3    3    0    0  0.14343441967E+02  0.87596227117E+01 -0.11182965522E+02  0.20187224559E+02  0.00000000000E+00 0. -1.
</event>
<event>
 7    1  0.3986981E-008  0.4614231E+02  0.7816164E-02  0.1320468E+00
        -11   -1    0    0    0    0  0.00000000000E+00  0.00000000000E+00  0.45593999997E+02  0.45594000000E+02  0.51100000000E-03 0. -1.
         11   -1    0    0    0    0 -0.00000000000E+00 -0.00000000000E+00 -0.45593999997E+02  0.45594000000E+02  0.51100000000E-03 0.  1.
    9900012    2    1    2    0    0  0.29945352873E+02  0.24682938932E+02  0.22872314784E+02  0.46142307458E+02  0.99999060462E+01 0.  0.
        -12    1    1    2    0    0 -0.29945352873E+02 -0.24682938932E+02 -0.22872314784E+02  0.45045692542E+02  0.00000000000E+00 0.  1.
         11    1    3    3    0    0  0.31891325173E+01  0.49261361203E+01  0.33986723802E+01  0.67814716322E+01  0.51100000000E-03 0. -1.
        -11    1    3    3    0    0  0.39829683703E+01  0.29838323213E+01 -0.78204766719E-01  0.49772892831E+01  0.51100000000E-03 0.  1.
         12    1    3    3    0    0  0.22773251986E+02  0.16772970491E+02  0.19551847170E+02  0.34383546543E+02  0.00000000000E+00 0. -1.
</event>
<event>
 7    1  0.3986981E-008  0.4614232E+02  0.7816164E-02  0.1320468E+00
        -11   -1    0    0    0    0  0.00000000000E+00  0.00000000000E+00  0.45593999997E+02  0.45594000000E+02  0.51100000000E-03 0. -1.
         11   -1    0    0    0    0 -0.00000000000E+00 -0.00000000000E+00 -0.45593999997E+02  0.45594000000E+02  0.51100000000E-03 0.  1.
    9900012    2    1    2    0    0 -0.18334924960E+02 -0.56098332429E+01  0.40761180617E+02  0.46142317103E+02  0.99999940026E+01 0.  0.
        -12    1    1    2    0    0  0.18334924960E+02  0.56098332429E+01 -0.40761180617E+02  0.45045682897E+02  0.00000000000E+00 0.  1.
         11    1    3    3    0    0 -0.10081814570E+02 -0.25814769333E+01  0.20098596534E+02  0.22633174569E+02  0.51100000000E-03 0. -1.
        -11    1    3    3    0    0 -0.55599323023E+00 -0.33852248188E+01  0.76936818998E+01  0.84238718522E+01  0.51100000000E-03 0.  1.
         12    1    3    3    0    0 -0.76971171602E+01  0.35686850913E+00  0.12968902183E+02  0.15085270682E+02  0.00000000000E+00 0. -1.
</event>
<event>
 7    1  0.3986981E-008  0.4614232E+02  0.7816164E-02  0.1320468E+00
        -11   -1    0    0    0    0  0.00000000000E+00  0.00000000000E+00  0.45593999997E+02  0.45594000000E+02  0.51100000000E-03 0.  1.
         11   -1    0    0    0    0 -0.00000000000E+00 -0.00000000000E+00 -0.45593999997E+02  0.45594000000E+02  0.51100000000E-03 0. -1.
    9900012    2    1    2    0    0 -0.27220252747E+02  0.31191568942E+02 -0.17755492466E+02  0.46142316018E+02  0.99999841083E+01 0.  0.
        -12    1    1    2    0    0  0.27220252747E+02 -0.31191568942E+02  0.17755492466E+02  0.45045683982E+02  0.00000000000E+00 0.  1.
         11    1    3    3    0    0 -0.27969940410E+01  0.22699939777E+01 -0.14229558804E+01  0.38730933403E+01  0.51100000000E-03 0. -1.
        -11    1    3    3    0    0 -0.16412667607E+02  0.18988716691E+02 -0.15461726286E+02  0.29479009474E+02  0.51100000000E-03 0.  1.
         12    1    3    3    0    0 -0.80105910989E+01  0.99328582728E+01 -0.87081029902E+00  0.12790213204E+02  0.00000000000E+00 0. -1.
</event>
<event>
 7    1  0.3986981E-008  0.4614232E+02  0.7816164E-02  0.1320468E+00
        -11   -1    0    0    0    0  0.00000000000E+00  0.00000000000E+00  0.45593999997E+02  0.45594000000E+02  0.51100000000E-03 0. -1.
         11   -1    0    0    0    0 -0.00000000000E+00 -0.00000000000E+00 -0.45593999997E+02  0.45594000000E+02  0.51100000000E-03 0.  1.
    9900012    2    1    2    0    0 -0.28030413127E+02  0.14500270449E+01  0.35232184968E+02  0.46142317675E+02  0.99999992119E+01 0.  0.
        -12    1    1    2    0    0  0.28030413127E+02 -0.14500270449E+01 -0.35232184968E+02  0.45045682325E+02  0.00000000000E+00 0.  1.
         11    1    3    3    0    0 -0.17682662547E+01  0.82184076797E+00  0.94548251198E+00  0.21670545072E+01  0.51100000000E-03 0.  1.
        -11    1    3    3    0    0 -0.20420691065E+02  0.35240729644E+01  0.23146595586E+02  0.31067484632E+02  0.51100000000E-03 0. -1.
        -12    1    3    3    0    0 -0.58414558070E+01 -0.28958866875E+01  0.11140106870E+02  0.12907778536E+02  0.00000000000E+00 0.  1.
</event>
<event>
 7    1  0.3986981E-008  0.4614232E+02  0.7816164E-02  0.1320468E+00
        -11   -1    0    0    0    0  0.00000000000E+00  0.00000000000E+00  0.45593999997E+02  0.45594000000E+02  0.51100000000E-03 0.  1.
         11   -1    0    0    0    0 -0.00000000000E+00 -0.00000000000E+00 -0.45593999997E+02  0.45594000000E+02  0.51100000000E-03 0. -1.
    9900012    2    1    2    0    0 -0.15669983533E+02  0.15835736472E+02 -0.39150920981E+02  0.46142317108E+02  0.99999940439E+01 0.  0.
        -12    1    1    2    0    0  0.15669983533E+02 -0.15835736472E+02  0.39150920981E+02  0.45045682892E+02  0.00000000000E+00 0.  1.
         11    1    3    3    0    0 -0.32201397728E+00 -0.64416494775E-01 -0.37037071911E+00  0.49499213839E+00  0.51100000000E-03 0. -1.
        -11    1    3    3    0    0 -0.28086968150E+01  0.52456965335E+01 -0.39969210313E+01  0.71680881629E+01  0.51100000000E-03 0.  1.
         12    1    3    3    0    0 -0.12539272741E+02  0.10654456433E+02 -0.34783629231E+02  0.38479236807E+02  0.00000000000E+00 0. -1.
</event>
<event>
 7    1  0.3986981E-008  0.4614232E+02  0.7816164E-02  0.1320468E+00
        -11   -1    0    0    0    0  0.00000000000E+00  0.00000000000E+00  0.45593999997E+02  0.45594000000E+02  0.51100000000E-03 0.  1.
         11   -1    0    0    0    0 -0.00000000000E+00 -0.00000000000E+00 -0.45593999997E+02  0.45594000000E+02  0.51100000000E-03 0. -1.
    9900012    2    1    2    0    0  0.31020461770E+02  0.28291821136E+02 -0.16322298211E+02  0.46142316405E+02  0.99999876355E+01 0.  0.
        -12    1    1    2    0    0 -0.31020461770E+02 -0.28291821136E+02  0.16322298211E+02  0.45045683595E+02  0.00000000000E+00 0.  1.
         11    1    3    3    0    0  0.13235022115E+02  0.12929080694E+02 -0.67262128025E+01  0.19686769082E+02  0.51100000000E-03 0. -1.
        -11    1    3    3    0    0 -0.59525749783E+00 -0.12255821368E+00 -0.11329510078E+00  0.61821359209E+00  0.51100000000E-03 0.  1.
        -12    1    3    3    0    0  0.18380697154E+02  0.15485298656E+02 -0.94827903075E+01  0.25837333731E+02  0.00000000000E+00 0.  1.
</event>
<event>
 7    1  0.3986981E-008  0.4614232E+02  0.7816164E-02  0.1320468E+00
        -11   -1    0    0    0    0  0.00000000000E+00  0.00000000000E+00  0.45593999997E+02  0.45594000000E+02  0.51100000000E-03 0.  1.
         11   -1    0    0    0    0 -0.00000000000E+00 -0.00000000000E+00 -0.45593999997E+02  0.45594000000E+02  0.51100000000E-03 0. -1.
    9900012    2    1    2    0    0  0.22192529134E+02 -0.37522793360E+02 -0.11342186876E+02  0.46142316810E+02  0.99999913313E+01 0.  0.
        -12    1    1    2    0    0 -0.22192529134E+02  0.37522793360E+02  0.11342186876E+02  0.45045683190E+02  0.00000000000E+00 0.  1.
         11    1    3    3    0    0  0.17960511848E+01 -0.27043331054E+01  0.50263223111E+00  0.32850961667E+01  0.51100000000E-03 0. -1.
        -11    1    3    3    0    0  0.10724639531E+02 -0.13075711885E+02 -0.17288315118E+01  0.16999440962E+02  0.51100000000E-03 0.  1.
         12    1    3    3    0    0  0.96718384187E+01 -0.21742748370E+02 -0.10115987595E+02  0.25857779682E+02  0.00000000000E+00 0. -1.
</event>
<event>
 7    1  0.3986981E-008  0.4614232E+02  0.7816164E-02  0.1320468E+00
        -11   -1    0    0    0    0  0.00000000000E+00  0.00000000000E+00  0.45593999997E+02  0.45594000000E+02  0.51100000000E-03 0.  1.
         11   -1    0    0    0    0 -0.00000000000E+00 -0.00000000000E+00 -0.45593999997E+02  0.45594000000E+02  0.51100000000E-03 0. -1.
    9900012    2    1    2    0    0 -0.70042523203E+01  0.36650464790E+02 -0.25234844315E+02  0.46142317771E+02  0.10000000089E+02 0.  0.
        -12    1    1    2    0    0  0.70042523203E+01 -0.36650464790E+02  0.25234844315E+02  0.45045682229E+02  0.00000000000E+00 0.  1.
         11    1    3    3    0    0 -0.24985093597E+01  0.22819607363E+01 -0.36618371919E+01  0.49858746178E+01  0.51100000000E-03 0. -1.
        -11    1    3    3    0    0 -0.43665022811E+01  0.13836765101E+02 -0.85066502627E+01  0.16819200623E+02  0.51100000000E-03 0.  1.
         12    1    3    3    0    0 -0.13924067939E+00  0.20531738953E+02 -0.13066356860E+02  0.24337242531E+02  0.00000000000E+00 0. -1.
</event>
<event>
 7    1  0.3986981E-008  0.4614232E+02  0.7816164E-02  0.1320468E+00
        -11   -1    0    0    0    0  0.00000000000E+00  0.00000000000E+00  0.45593999997E+02  0.45594000000E+02  0.51100000000E-03 0. -1.
         11   -1    0    0    0    0 -0.00000000000E+00 -0.00000000000E+00 -0.45593999997E+02  0.45594000000E+02  0.51100000000E-03 0.  1.
    9900012    2    1    2    0    0 -0.12819867116E+02 -0.13563492157E+02  0.40997514895E+02  0.46142317189E+02  0.99999947821E+01 0.  0.
        -12    1    1    2    0    0  0.12819867116E+02  0.13563492157E+02 -0.40997514895E+02  0.45045682811E+02  0.00000000000E+00 0.  1.
         11    1    3    3    0    0 -0.17932398076E+01 -0.26574928454E+01  0.52747246112E+01  0.61725762220E+01  0.51100000000E-03 0. -1.
        -11    1    3    3    0    0 -0.11052112637E+02 -0.53587265171E+01  0.22587247282E+02  0.25710870924E+02  0.51100000000E-03 0.  1.
         12    1    3    3    0    0  0.25485328395E-01 -0.55472727941E+01  0.13135543002E+02  0.14258870043E+02  0.00000000000E+00 0. -1.
</event>
<event>
 7    1  0.3986981E-008  0.4614232E+02  0.7816164E-02  0.1320468E+00
        -11   -1    0    0    0    0  0.00000000000E+00  0.00000000000E+00  0.45593999997E+02  0.45594000000E+02  0.51100000000E-03 0.  1.
         11   -1    0    0    0    0 -0.00000000000E+00 -0.00000000000E+00 -0.45593999997E+02  0.45594000000E+02  0.51100000000E-03 0. -1.
    9900012    2    1    2    0    0 -0.36222504598E+02  0.16930202572E+02 -0.20746369579E+02  0.46142318196E+02  0.10000003967E+02 0.  0.
        -12    1    1    2    0    0  0.36222504598E+02 -0.16930202572E+02  0.20746369579E+02  0.45045681804E+02  0.00000000000E+00 0.  1.
         11    1    3    3    0    0 -0.29552276755E+02  0.10596429289E+02 -0.18983124649E+02  0.36687605493E+02  0.51100000000E-03 0.  1.
        -11    1    3    3    0    0 -0.35529710212E+01  0.36581410712E+01 -0.15950269272E+01  0.53431928969E+01  0.51100000000E-03 0. -1.
        -12    1    3    3    0    0 -0.31172568216E+01  0.26756322115E+01 -0.16821800275E+00  0.41115198065E+01  0.00000000000E+00 0.  1.
</event>
<event>
 7    1  0.3986981E-008  0.4614233E+02  0.7816164E-02  0.1320468E+00
        -11   -1    0    0    0    0  0.00000000000E+00  0.00000000000E+00  0.45593999997E+02  0.45594000000E+02  0.51100000000E-03 0.  1.
         11   -1    0    0    0    0 -0.00000000000E+00 -0.00000000000E+00 -0.45593999997E+02  0.45594000000E+02  0.51100000000E-03 0. -1.
    9900012    2    1    2    0    0  0.30024625059E+02  0.32917585760E+02 -0.66382737075E+01  0.46142331617E+02  0.10000126352E+02 0.  0.
        -12    1    1    2    0    0 -0.30024625059E+02 -0.32917585760E+02  0.66382737075E+01  0.45045668383E+02  0.00000000000E+00 0.  1.
         11    1    3    3    0    0  0.10358566800E+02  0.16356861204E+02  0.22728153679E+00  0.19362295106E+02  0.51100000000E-03 0.  1.
        -11    1    3    3    0    0  0.61176025494E+01  0.56505372819E+01 -0.83711195334E+00  0.83698500112E+01  0.51100000000E-03 0. -1.
        -12    1    3    3    0    0  0.13548455710E+02  0.10910187274E+02 -0.60284432910E+01  0.18410186501E+02  0.00000000000E+00 0.  1.
</event>
<event>
 7    1  0.3986981E-008  0.4614232E+02  0.7816164E-02  0.1320468E+00
        -11   -1    0    0    0    0  0.00000000000E+00  0.00000000000E+00  0.45593999997E+02  0.45594000000E+02  0.51100000000E-03 0. -1.
         11   -1    0    0    0    0 -0.00000000000E+00 -0.00000000000E+00 -0.45593999997E+02  0.45594000000E+02  0.51100000000E-03 0.  1.
    9900012    2    1    2    0    0  0.37637985564E+02  0.64627243533E+01 -0.23889929393E+02  0.46142317745E+02  0.99999998521E+01 0.  0.
        -12    1    1    2    0    0 -0.37637985564E+02 -0.64627243533E+01  0.23889929393E+02  0.45045682255E+02  0.00000000000E+00 0.  1.
         11    1    3    3    0    0  0.16110147246E+02  0.44142322590E+01 -0.68123499492E+01  0.18039689654E+02  0.51100000000E-03 0. -1.
        -11    1    3    3    0    0  0.15522906538E+02  0.37297554766E+01 -0.13539480414E+02  0.20932970010E+02  0.51100000000E-03 0.  1.
         12    1    3    3    0    0  0.60049317808E+01 -0.16812633823E+01 -0.35380990304E+01  0.71696580812E+01  0.00000000000E+00 0. -1.
</event>
<event>
 7    1  0.3986981E-008  0.4614232E+02  0.7816164E-02  0.1320468E+00
        -11   -1    0    0    0    0  0.00000000000E+00  0.00000000000E+00  0.45593999997E+02  0.45594000000E+02  0.51100000000E-03 0. -1.
         11   -1    0    0    0    0 -0.00000000000E+00 -0.00000000000E+00 -0.45593999997E+02  0.45594000000E+02  0.51100000000E-03 0.  1.
    9900012    2    1    2    0    0  0.42223273820E+02  0.10209446126E+02  0.11919553360E+02  0.46142318802E+02  0.10000009494E+02 0.  0.
        -12    1    1    2    0    0 -0.42223273820E+02 -0.10209446126E+02 -0.11919553360E+02  0.45045681198E+02  0.00000000000E+00 0.  1.
         11    1    3    3    0    0  0.32755094180E+02  0.49695663741E+01  0.10150626901E+02  0.34650079530E+02  0.51100000000E-03 0.  1.
        -11    1    3    3    0    0  0.37335385128E+01  0.13955167744E+01  0.22400983829E+01  0.45721786842E+01  0.51100000000E-03 0. -1.
        -12    1    3    3    0    0  0.57346411270E+01  0.38443629779E+01 -0.47117192412E+00  0.69200605881E+01  0.00000000000E+00 0.  1.
</event>
<event>
 7    1  0.3986981E-008  0.4614232E+02  0.7816164E-02  0.1320468E+00
        -11   -1    0    0    0    0  0.00000000000E+00  0.00000000000E+00  0.45593999997E+02  0.45594000000E+02  0.51100000000E-03 0.  1.
         11   -1    0    0    0    0 -0.00000000000E+00 -0.00000000000E+00 -0.45593999997E+02  0.45594000000E+02  0.51100000000E-03 0. -1.
    9900012    2    1    2    0    0 -0.18956538621E+02 -0.38449400930E+02 -0.13834981063E+02  0.46142317750E+02  0.99999998963E+01 0.  0.
        -12    1    1    2    0    0  0.18956538621E+02  0.38449400930E+02  0.13834981063E+02  0.45045682250E+02  0.00000000000E+00 0.  1.
         11    1    3    3    0    0 -0.67885070388E+01 -0.14848375934E+02 -0.25892269226E+01  0.16530644029E+02  0.51100000000E-03 0. -1.
        -11    1    3    3    0    0 -0.72400138670E+01 -0.15504690664E+02 -0.37258649577E+01  0.17512718331E+02  0.51100000000E-03 0.  1.
        -12    1    3    3    0    0 -0.49280177157E+01 -0.80963343325E+01 -0.75198891825E+01  0.12098955391E+02  0.00000000000E+00 0.  1.
</event>
<event>
 7    1  0.3986981E-008  0.4614232E+02  0.7816164E-02  0.1320468E+00
        -11   -1    0    0    0    0  0.00000000000E+00  0.00000000000E+00  0.45593999997E+02  0.45594000000E+02  0.51100000000E-03 0. -1.
         11   -1    0    0    0    0 -0.00000000000E+00 -0.00000000000E+00 -0.45593999997E+02  0.45594000000E+02  0.51100000000E-03 0.  1.
    9900012    2    1    2    0    0  0.99857761547E+01  0.33127603556E+02  0.28843710482E+02  0.46142317885E+02  0.10000001132E+02 0.  0.
        -12    1    1    2    0    0 -0.99857761547E+01 -0.33127603556E+02 -0.28843710482E+02  0.45045682115E+02  0.00000000000E+00 0.  1.
         11    1    3    3    0    0  0.29707605125E+01  0.76098157619E+01  0.11679450591E+02  0.14252869196E+02  0.51100000000E-03 0. -1.
        -11    1    3    3    0    0 -0.19793912690E+00  0.65981731506E+01  0.36127903330E+01  0.75251128280E+01  0.51100000000E-03 0.  1.
         12    1    3    3    0    0  0.72129547691E+01  0.18919614644E+02  0.13551469559E+02  0.24364335861E+02  0.00000000000E+00 0. -1.
</event>
<event>
 7    1  0.3986981E-008  0.4614232E+02  0.7816164E-02  0.1320468E+00
        -11   -1    0    0    0    0  0.00000000000E+00  0.00000000000E+00  0.45593999997E+02  0.45594000000E+02  0.51100000000E-03 0. -1.
         11   -1    0    0    0    0 -0.00000000000E+00 -0.00000000000E+00 -0.45593999997E+02  0.45594000000E+02  0.51100000000E-03 0.  1.
    9900012    2    1    2    0    0  0.76477882514E+01 -0.11747996255E+02  0.42808985310E+02  0.46142319803E+02  0.10000018618E+02 0.  0.
        -12    1    1    2    0    0 -0.76477882514E+01  0.11747996255E+02 -0.42808985310E+02  0.45045680197E+02  0.00000000000E+00 0.  1.
         11    1    3    3    0    0  0.85520043130E+00 -0.68969436378E+01  0.24594015572E+02  0.25557089066E+02  0.51100000000E-03 0. -1.
        -11    1    3    3    0    0  0.80259258288E+00 -0.11343202086E+01  0.83242501151E+01  0.84394299233E+01  0.51100000000E-03 0.  1.
        -12    1    3    3    0    0  0.59899952372E+01 -0.37167324082E+01  0.98907196229E+01  0.12145800813E+02  0.00000000000E+00 0.  1.
</event>
<event>
 7    1  0.3986981E-008  0.4614232E+02  0.7816164E-02  0.1320468E+00
        -11   -1    0    0    0    0  0.00000000000E+00  0.00000000000E+00  0.45593999997E+02  0.45594000000E+02  0.51100000000E-03 0.  1.
         11   -1    0    0    0    0 -0.00000000000E+00 -0.00000000000E+00 -0.45593999997E+02  0.45594000000E+02  0.51100000000E-03 0. -1.
    9900012    2    1    2    0    0  0.38443583951E+02  0.11205160011E+02 -0.20631254603E+02  0.46142318471E+02  0.10000006475E+02 0.  0.
        -12    1    1    2    0    0 -0.38443583951E+02 -0.11205160011E+02  0.20631254603E+02  0.45045681529E+02  0.00000000000E+00 0.  1.
         11    1    3    3    0    0  0.12693646825E+02  0.49991738964E+01 -0.40946828753E+01  0.14243835069E+02  0.51100000000E-03 0. -1.
        -11    1    3    3    0    0  0.11616060701E+02  0.34425077953E+01 -0.38681069196E+01  0.12717939202E+02  0.51100000000E-03 0.  1.
         12    1    3    3    0    0  0.14133876425E+02  0.27634783195E+01 -0.12668464808E+02  0.19180544200E+02  0.00000000000E+00 0. -1.
</event>
<event>
 7    1  0.3986981E-008  0.4614232E+02  0.7816164E-02  0.1320468E+00
        -11   -1    0    0    0    0  0.00000000000E+00  0.00000000000E+00  0.45593999997E+02  0.45594000000E+02  0.51100000000E-03 0.  1.
         11   -1    0    0    0    0 -0.00000000000E+00 -0.00000000000E+00 -0.45593999997E+02  0.45594000000E+02  0.51100000000E-03 0. -1.
    9900012    2    1    2    0    0  0.23202089617E+02 -0.38553148909E+02  0.21050365570E+01  0.46142318383E+02  0.10000005675E+02 0.  0.
        -12    1    1    2    0    0 -0.23202089617E+02  0.38553148909E+02 -0.21050365570E+01  0.45045681617E+02  0.00000000000E+00 0.  1.
         11    1    3    3    0    0  0.18285755779E+02 -0.26233346547E+02  0.19954741765E+01  0.32039651261E+02  0.51100000000E-03 0. -1.
        -11    1    3    3    0    0  0.34150370437E+01 -0.11783653404E+02  0.94126643410E+00  0.12304590538E+02  0.51100000000E-03 0.  1.
        -12    1    3    3    0    0  0.15012967944E+01 -0.53614895773E+00 -0.83170405365E+00  0.17980765842E+01  0.00000000000E+00 0.  1.
</event>
<event>
 7    1  0.3986981E-008  0.4614232E+02  0.7816164E-02  0.1320468E+00
        -11   -1    0    0    0    0  0.00000000000E+00  0.00000000000E+00  0.45593999997E+02  0.45594000000E+02  0.51100000000E-03 0.  1.
         11   -1    0    0    0    0 -0.00000000000E+00 -0.00000000000E+00 -0.45593999997E+02  0.45594000000E+02  0.51100000000E-03 0. -1.
    9900012    2    1    2    0    0  0.11965957992E+00  0.37283069594E+02 -0.25279870651E+02  0.46142318110E+02  0.10000003186E+02 0.  0.
        -12    1    1    2    0    0 -0.11965957992E+00 -0.37283069594E+02  0.25279870651E+02  0.45045681890E+02  0.00000000000E+00 0.  1.
         11    1    3    3    0    0  0.14878887865E+01  0.96003533581E+01 -0.57141507957E+01  0.11270852551E+02  0.51100000000E-03 0. -1.
        -11    1    3    3    0    0  0.14739401631E+01  0.86942751492E+01 -0.10279651725E+02  0.13543786761E+02  0.51100000000E-03 0.  1.
         12    1    3    3    0    0 -0.28421693697E+01  0.18988441087E+02 -0.92860681295E+01  0.21327678799E+02  0.00000000000E+00 0. -1.
</event>
<event>
 7    1  0.3986981E-008  0.4614232E+02  0.7816164E-02  0.1320468E+00
        -11   -1    0    0    0    0  0.00000000000E+00  0.00000000000E+00  0.45593999997E+02  0.45594000000E+02  0.51100000000E-03 0.  1.
         11   -1    0    0    0    0 -0.00000000000E+00 -0.00000000000E+00 -0.45593999997E+02  0.45594000000E+02  0.51100000000E-03 0. -1.
    9900012    2    1    2    0    0  0.33199262801E+02 -0.17505732769E+01 -0.30395031850E+02  0.46142317427E+02  0.99999969529E+01 0.  0.
        -12    1    1    2    0    0 -0.33199262801E+02  0.17505732769E+01  0.30395031850E+02  0.45045682573E+02  0.00000000000E+00 0.  1.
         11    1    3    3    0    0  0.49397132746E+01  0.55005505495E+00 -0.41222554356E+01  0.64572686126E+01  0.51100000000E-03 0. -1.
        -11    1    3    3    0    0  0.19855360920E+02 -0.30879544910E+01 -0.12924189052E+02  0.23891535804E+02  0.51100000000E-03 0.  1.
        -12    1    3    3    0    0  0.84041886065E+01  0.78732615922E+00 -0.13348587363E+02  0.15793513010E+02  0.00000000000E+00 0.  1.
</event>
<event>
 7    1  0.3986981E-008  0.4614232E+02  0.7816164E-02  0.1320468E+00
        -11   -1    0    0    0    0  0.00000000000E+00  0.00000000000E+00  0.45593999997E+02  0.45594000000E+02  0.51100000000E-03 0.  1.
         11   -1    0    0    0    0 -0.00000000000E+00 -0.00000000000E+00 -0.45593999997E+02  0.45594000000E+02  0.51100000000E-03 0. -1.
    9900012    2    1    2    0    0  0.20968857217E+01  0.13109646528E+00 -0.44996656882E+02  0.46142320445E+02  0.10000024475E+02 0.  0.
        -12    1    1    2    0    0 -0.20968857217E+01 -0.13109646528E+00  0.44996656882E+02  0.45045679555E+02  0.00000000000E+00 0.  1.
         11    1    3    3    0    0 -0.24326839614E+01 -0.14740552280E+01 -0.10630737095E+02  0.11004697248E+02  0.51100000000E-03 0.  1.
        -11    1    3    3    0    0  0.24997042335E+01  0.29616419491E+01 -0.28802827938E+02  0.29062393944E+02  0.51100000000E-03 0. -1.
         12    1    3    3    0    0  0.20298654496E+01 -0.13564902558E+01 -0.55630918495E+01  0.60752292536E+01  0.00000000000E+00 0. -1.
</event>
<event>
 7    1  0.3986981E-008  0.4614231E+02  0.7816164E-02  0.1320468E+00
        -11   -1    0    0    0    0  0.00000000000E+00  0.00000000000E+00  0.45593999997E+02  0.45594000000E+02  0.51100000000E-03 0.  1.
         11   -1    0    0    0    0 -0.00000000000E+00 -0.00000000000E+00 -0.45593999997E+02  0.45594000000E+02  0.51100000000E-03 0. -1.
    9900012    2    1    2    0    0  0.16055428371E+02 -0.19035952531E+02 -0.37536243936E+02  0.46142313439E+02  0.99999605896E+01 0.  0.
        -12    1    1    2    0    0 -0.16055428371E+02  0.19035952531E+02  0.37536243936E+02  0.45045686561E+02  0.00000000000E+00 0.  1.
         11    1    3    3    0    0  0.43041527431E+01 -0.30320906498E+01 -0.13570360003E+02  0.14555891433E+02  0.51100000000E-03 0. -1.
        -11    1    3    3    0    0  0.78173161729E+01 -0.61819699261E+01 -0.10795847686E+02  0.14692770734E+02  0.51100000000E-03 0.  1.
         12    1    3    3    0    0  0.39339594547E+01 -0.98218919550E+01 -0.13170036247E+02  0.16893651272E+02  0.00000000000E+00 0. -1.
</event>
<event>
 7    1  0.3986981E-008  0.4614232E+02  0.7816164E-02  0.1320468E+00
        -11   -1    0    0    0    0  0.00000000000E+00  0.00000000000E+00  0.45593999997E+02  0.45594000000E+02  0.51100000000E-03 0.  1.
         11   -1    0    0    0    0 -0.00000000000E+00 -0.00000000000E+00 -0.45593999997E+02  0.45594000000E+02  0.51100000000E-03 0. -1.
    9900012    2    1    2    0    0  0.12981792395E+02 -0.25185489375E+02 -0.35018247986E+02  0.46142317623E+02  0.99999987362E+01 0.  0.
        -12    1    1    2    0    0 -0.12981792395E+02  0.25185489375E+02  0.35018247986E+02  0.45045682377E+02  0.00000000000E+00 0.  1.
         11    1    3    3    0    0  0.12940880504E+02 -0.18341217632E+02 -0.27922359362E+02  0.35826314422E+02  0.51100000000E-03 0. -1.
        -11    1    3    3    0    0 -0.13902708435E+00 -0.17503906458E+01 -0.39592431947E+01  0.43311433686E+01  0.51100000000E-03 0.  1.
         12    1    3    3    0    0  0.17993897558E+00 -0.50938810964E+01 -0.31366454297E+01  0.59848598322E+01  0.00000000000E+00 0. -1.
</event>
<event>
 7    1  0.3986981E-008  0.4614232E+02  0.7816164E-02  0.1320468E+00
        -11   -1    0    0    0    0  0.00000000000E+00  0.00000000000E+00  0.45593999997E+02  0.45594000000E+02  0.51100000000E-03 0.  1.
         11   -1    0    0    0    0 -0.00000000000E+00 -0.00000000000E+00 -0.45593999997E+02  0.45594000000E+02  0.51100000000E-03 0. -1.
    9900012    2    1    2    0    0 -0.43533699580E+02  0.66005872518E+01 -0.95059289549E+01  0.46142318337E+02  0.10000005248E+02 0.  0.
        -12    1    1    2    0    0  0.43533699580E+02 -0.66005872518E+01  0.95059289549E+01  0.45045681663E+02  0.00000000000E+00 0.  1.
         11    1    3    3    0    0 -0.24109604652E+02  0.73136468037E+01 -0.63503491595E+01  0.25982482575E+02  0.51100000000E-03 0. -1.
        -11    1    3    3    0    0 -0.43428947243E+01  0.65532585367E-01  0.10802985325E+01  0.44757205327E+01  0.51100000000E-03 0.  1.
         12    1    3    3    0    0 -0.15081200204E+02 -0.77859213730E+00 -0.42358783279E+01  0.15684115229E+02  0.00000000000E+00 0. -1.
</event>
<event>
 7    1  0.3986981E-008  0.4614232E+02  0.7816164E-02  0.1320468E+00
        -11   -1    0    0    0    0  0.00000000000E+00  0.00000000000E+00  0.45593999997E+02  0.45594000000E+02  0.51100000000E-03 0.  1.
         11   -1    0    0    0    0 -0.00000000000E+00 -0.00000000000E+00 -0.45593999997E+02  0.45594000000E+02  0.51100000000E-03 0. -1.
    9900012    2    1    2    0    0 -0.36021279457E+02 -0.22223666527E+02 -0.15417183888E+02  0.46142317780E+02  0.10000000173E+02 0.  0.
        -12    1    1    2    0    0  0.36021279457E+02  0.22223666527E+02  0.15417183888E+02  0.45045682220E+02  0.00000000000E+00 0.  1.
         11    1    3    3    0    0 -0.79381165602E+01 -0.88253126105E+01 -0.46132008716E+01  0.12735048478E+02  0.51100000000E-03 0. -1.
        -11    1    3    3    0    0 -0.48180251595E+01 -0.44730835791E+01 -0.34597273286E+01  0.74291020045E+01  0.51100000000E-03 0.  1.
        -12    1    3    3    0    0 -0.23265137737E+02 -0.89252703374E+01 -0.73442556874E+01  0.25978167298E+02  0.00000000000E+00 0.  1.
</event>
<event>
 7    1  0.3986981E-008  0.4614232E+02  0.7816164E-02  0.1320468E+00
        -11   -1    0    0    0    0  0.00000000000E+00  0.00000000000E+00  0.45593999997E+02  0.45594000000E+02  0.51100000000E-03 0. -1.
         11   -1    0    0    0    0 -0.00000000000E+00 -0.00000000000E+00 -0.45593999997E+02  0.45594000000E+02  0.51100000000E-03 0.  1.
    9900012    2    1    2    0    0 -0.68570594161E+01 -0.20743485880E+02  0.39392918072E+02  0.46142318026E+02  0.10000002413E+02 0.  0.
        -12    1    1    2    0    0  0.68570594161E+01  0.20743485880E+02 -0.39392918072E+02  0.45045681974E+02  0.00000000000E+00 0.  1.
         11    1    3    3    0    0  0.77544115219E+00 -0.12100751638E+02  0.22927363800E+02  0.25936335714E+02  0.51100000000E-03 0. -1.
        -11    1    3    3    0    0 -0.34858702305E+01 -0.28163983476E+01  0.75101891130E+01  0.87456464421E+01  0.51100000000E-03 0.  1.
        -12    1    3    3    0    0 -0.41466303378E+01 -0.58263358940E+01  0.89553651590E+01  0.11460335869E+02  0.00000000000E+00 0.  1.
</event>
<event>
 7    1  0.3986981E-008  0.4614232E+02  0.7816164E-02  0.1320468E+00
        -11   -1    0    0    0    0  0.00000000000E+00  0.00000000000E+00  0.45593999997E+02  0.45594000000E+02  0.51100000000E-03 0. -1.
         11   -1    0    0    0    0 -0.00000000000E+00 -0.00000000000E+00 -0.45593999997E+02  0.45594000000E+02  0.51100000000E-03 0.  1.
    9900012    2    1    2    0    0 -0.21135344972E+02 -0.36842049229E+02  0.15002467672E+02  0.46142318357E+02  0.10000005431E+02 0.  0.
        -12    1    1    2    0    0  0.21135344972E+02  0.36842049229E+02 -0.15002467672E+02  0.45045681643E+02  0.00000000000E+00 0.  1.
         11    1    3    3    0    0 -0.64823371961E+01 -0.15276776871E+02  0.46402360553E+01  0.17231726495E+02  0.51100000000E-03 0. -1.
        -11    1    3    3    0    0  0.26117091204E+00 -0.22501378870E+01  0.22545154209E+01  0.31959616393E+01  0.51100000000E-03 0.  1.
         12    1    3    3    0    0 -0.14914178688E+02 -0.19315134471E+02  0.81077161953E+01  0.25714630222E+02  0.00000000000E+00 0. -1.
</event>
<event>
 7    1  0.3986981E-008  0.4614232E+02  0.7816164E-02  0.1320468E+00
        -11   -1    0    0    0    0  0.00000000000E+00  0.00000000000E+00  0.45593999997E+02  0.45594000000E+02  0.51100000000E-03 0. -1.
         11   -1    0    0    0    0 -0.00000000000E+00 -0.00000000000E+00 -0.45593999997E+02  0.45594000000E+02  0.51100000000E-03 0.  1.
    9900012    2    1    2    0    0 -0.94550188493E-01  0.39466984946E+02  0.21713166809E+02  0.46142318150E+02  0.10000003549E+02 0.  0.
        -12    1    1    2    0    0  0.94550188493E-01 -0.39466984946E+02 -0.21713166809E+02  0.45045681850E+02  0.00000000000E+00 0.  1.
         11    1    3    3    0    0 -0.36441309474E+01  0.90728304268E+01  0.36720557732E+01  0.10444134056E+02  0.51100000000E-03 0.  1.
        -11    1    3    3    0    0  0.22990910937E+01  0.76666879095E+01  0.39258700298E+01  0.89149525580E+01  0.51100000000E-03 0. -1.
         12    1    3    3    0    0  0.12504896652E+01  0.22727466609E+02  0.14115241006E+02  0.26783231536E+02  0.00000000000E+00 0. -1.
</event>
<event>
 7    1  0.3986981E-008  0.4614232E+02  0.7816164E-02  0.1320468E+00
        -11   -1    0    0    0    0  0.00000000000E+00  0.00000000000E+00  0.45593999997E+02  0.45594000000E+02  0.51100000000E-03 0.  1.
         11   -1    0    0    0    0 -0.00000000000E+00 -0.00000000000E+00 -0.45593999997E+02  0.45594000000E+02  0.51100000000E-03 0. -1.
    9900012    2    1    2    0    0  0.32064294440E+02 -0.25138034464E+02 -0.19211290840E+02  0.46142318182E+02  0.10000003842E+02 0.  0.
        -12    1    1    2    0    0 -0.32064294440E+02  0.25138034464E+02  0.19211290840E+02  0.45045681818E+02  0.00000000000E+00 0.  1.
         11    1    3    3    0    0  0.19039152697E+02 -0.12183624616E+02 -0.96985904476E+01  0.24596599382E+02  0.51100000000E-03 0. -1.
        -11    1    3    3    0    0  0.86233026247E+01 -0.53190792397E+01 -0.72136624089E+01  0.12437478753E+02  0.51100000000E-03 0.  1.
         12    1    3    3    0    0  0.44018391186E+01 -0.76353306082E+01 -0.22990379838E+01  0.91082400481E+01  0.00000000000E+00 0. -1.
</event>
<event>
 7    1  0.3986981E-008  0.4614232E+02  0.7816164E-02  0.1320468E+00
        -11   -1    0    0    0    0  0.00000000000E+00  0.00000000000E+00  0.45593999997E+02  0.45594000000E+02  0.51100000000E-03 0. -1.
         11   -1    0    0    0    0 -0.00000000000E+00 -0.00000000000E+00 -0.45593999997E+02  0.45594000000E+02  0.51100000000E-03 0.  1.
    9900012    2    1    2    0    0 -0.43061478205E+01  0.35545506456E+02  0.27332903604E+02  0.46142316992E+02  0.99999929887E+01 0.  0.
        -12    1    1    2    0    0  0.43061478205E+01 -0.35545506456E+02 -0.27332903604E+02  0.45045683008E+02  0.00000000000E+00 0.  1.
         11    1    3    3    0    0 -0.16649610737E+01  0.43646215516E+01  0.71089563666E+01  0.85064256623E+01  0.51100000000E-03 0. -1.
        -11    1    3    3    0    0 -0.36662291648E+01  0.13007024368E+02  0.93399214108E+01  0.16427356799E+02  0.51100000000E-03 0.  1.
        -12    1    3    3    0    0  0.10250424180E+01  0.18173860536E+02  0.10884025826E+02  0.21208534530E+02  0.00000000000E+00 0.  1.
</event>
<event>
 7    1  0.3986981E-008  0.4614232E+02  0.7816164E-02  0.1320468E+00
        -11   -1    0    0    0    0  0.00000000000E+00  0.00000000000E+00  0.45593999997E+02  0.45594000000E+02  0.51100000000E-03 0. -1.
         11   -1    0    0    0    0 -0.00000000000E+00 -0.00000000000E+00 -0.45593999997E+02  0.45594000000E+02  0.51100000000E-03 0.  1.
    9900012    2    1    2    0    0  0.27694276970E+02 -0.35462611633E+02  0.21315709499E+01  0.46142318792E+02  0.10000009404E+02 0.  0.
        -12    1    1    2    0    0 -0.27694276970E+02  0.35462611633E+02 -0.21315709499E+01  0.45045681208E+02  0.00000000000E+00 0.  1.
         11    1    3    3    0    0  0.13108029536E+01 -0.45937779104E+01  0.17897605412E+01  0.51013961745E+01  0.51100000000E-03 0. -1.
        -11    1    3    3    0    0  0.47715881586E+01 -0.34524748996E+01  0.16161999432E+01  0.61073512266E+01  0.51100000000E-03 0.  1.
        -12    1    3    3    0    0  0.21611885858E+02 -0.27416358823E+02 -0.12743895345E+01  0.34933571391E+02  0.00000000000E+00 0.  1.
</event>
<event>
 7    1  0.3986981E-008  0.4614232E+02  0.7816164E-02  0.1320468E+00
        -11   -1    0    0    0    0  0.00000000000E+00  0.00000000000E+00  0.45593999997E+02  0.45594000000E+02  0.51100000000E-03 0. -1.
         11   -1    0    0    0    0 -0.00000000000E+00 -0.00000000000E+00 -0.45593999997E+02  0.45594000000E+02  0.51100000000E-03 0.  1.
    9900012    2    1    2    0    0 -0.42762814709E-01 -0.43305436348E+02  0.12399625955E+02  0.46142319077E+02  0.10000012001E+02 0.  0.
        -12    1    1    2    0    0  0.42762814709E-01  0.43305436348E+02 -0.12399625955E+02  0.45045680923E+02  0.00000000000E+00 0.  1.
         11    1    3    3    0    0 -0.14891076820E+01 -0.10226493696E+02  0.71317129859E+01  0.12556271157E+02  0.51100000000E-03 0. -1.
        -11    1    3    3    0    0  0.10582918704E+01 -0.10842625669E+02  0.24740164772E+01  0.11171538429E+02  0.51100000000E-03 0.  1.
         12    1    3    3    0    0  0.38805299691E+00 -0.22236316983E+02  0.27938964922E+01  0.22414509491E+02  0.00000000000E+00 0. -1.
</event>
<event>
 7    1  0.3986981E-008  0.4614232E+02  0.7816164E-02  0.1320468E+00
        -11   -1    0    0    0    0  0.00000000000E+00  0.00000000000E+00  0.45593999997E+02  0.45594000000E+02  0.51100000000E-03 0.  1.
         11   -1    0    0    0    0 -0.00000000000E+00 -0.00000000000E+00 -0.45593999997E+02  0.45594000000E+02  0.51100000000E-03 0. -1.
    9900012    2    1    2    0    0 -0.19736948661E+02 -0.30079060323E+02 -0.27107500949E+02  0.46142316300E+02  0.99999866724E+01 0.  0.
        -12    1    1    2    0    0  0.19736948661E+02  0.30079060323E+02  0.27107500949E+02  0.45045683700E+02  0.00000000000E+00 0.  1.
         11    1    3    3    0    0 -0.86349555743E+01 -0.12789992911E+02 -0.13468736322E+02  0.20482998677E+02  0.51100000000E-03 0. -1.
        -11    1    3    3    0    0 -0.73302233519E+01 -0.14873646063E+02 -0.78664905588E+01  0.18353179440E+02  0.51100000000E-03 0.  1.
         12    1    3    3    0    0 -0.37717697343E+01 -0.24154213496E+01 -0.57722740681E+01  0.73061381825E+01  0.00000000000E+00 0. -1.
</event>
<event>
 7    1  0.3986981E-008  0.4614232E+02  0.7816164E-02  0.1320468E+00
        -11   -1    0    0    0    0  0.00000000000E+00  0.00000000000E+00  0.45593999997E+02  0.45594000000E+02  0.51100000000E-03 0.  1.
         11   -1    0    0    0    0 -0.00000000000E+00 -0.00000000000E+00 -0.45593999997E+02  0.45594000000E+02  0.51100000000E-03 0. -1.
    9900012    2    1    2    0    0  0.66613393514E+01 -0.43192142772E+02 -0.10916907796E+02  0.46142317465E+02  0.99999972992E+01 0.  0.
        -12    1    1    2    0    0 -0.66613393514E+01  0.43192142772E+02  0.10916907796E+02  0.45045682535E+02  0.00000000000E+00 0.  1.
         11    1    3    3    0    0  0.14254331238E+01 -0.15854066321E+02 -0.22728492703E+01  0.16079462758E+02  0.51100000000E-03 0. -1.
        -11    1    3    3    0    0  0.30741155968E+01 -0.35048991722E+01 -0.27648610451E+01  0.54202363205E+01  0.51100000000E-03 0.  1.
        -12    1    3    3    0    0  0.21617906308E+01 -0.23833177279E+02 -0.58791974809E+01  0.24642618387E+02  0.00000000000E+00 0.  1.
</event>
<event>
 7    1  0.3986981E-008  0.4614232E+02  0.7816164E-02  0.1320468E+00
        -11   -1    0    0    0    0  0.00000000000E+00  0.00000000000E+00  0.45593999997E+02  0.45594000000E+02  0.51100000000E-03 0.  1.
         11   -1    0    0    0    0 -0.00000000000E+00 -0.00000000000E+00 -0.45593999997E+02  0.45594000000E+02  0.51100000000E-03 0. -1.
    9900012    2    1    2    0    0  0.62116544407E+01 -0.29762205791E+02 -0.33237629502E+02  0.46142316974E+02  0.99999928197E+01 0.  0.
        -12    1    1    2    0    0 -0.62116544407E+01  0.29762205791E+02  0.33237629502E+02  0.45045683026E+02  0.00000000000E+00 0.  1.
         11    1    3    3    0    0  0.91186552394E+00 -0.94896929218E+01 -0.62363030219E+01  0.11391981659E+02  0.51100000000E-03 0. -1.
        -11    1    3    3    0    0  0.38784736267E+01 -0.50388216245E+01 -0.58116160406E+01  0.86143579158E+01  0.51100000000E-03 0.  1.
         12    1    3    3    0    0  0.14213152901E+01 -0.15233691244E+02 -0.21189710439E+02  0.26135977399E+02  0.00000000000E+00 0. -1.
</event>
<event>
 7    1  0.3986981E-008  0.4614232E+02  0.7816164E-02  0.1320468E+00
        -11   -1    0    0    0    0  0.00000000000E+00  0.00000000000E+00  0.45593999997E+02  0.45594000000E+02  0.51100000000E-03 0. -1.
         11   -1    0    0    0    0 -0.00000000000E+00 -0.00000000000E+00 -0.45593999997E+02  0.45594000000E+02  0.51100000000E-03 0.  1.
    9900012    2    1    2    0    0 -0.20935428931E+02 -0.32353484053E+02  0.23325376441E+02  0.46142319841E+02  0.10000018963E+02 0.  0.
        -12    1    1    2    0    0  0.20935428931E+02  0.32353484053E+02 -0.23325376441E+02  0.45045680159E+02  0.00000000000E+00 0.  1.
         11    1    3    3    0    0 -0.63798678612E+01 -0.97048680224E+01  0.56583742961E+01  0.12919147696E+02  0.51100000000E-03 0. -1.
        -11    1    3    3    0    0 -0.50499750040E+00  0.49626857893E+00 -0.25567689699E+00  0.75277879528E+00  0.51100000000E-03 0.  1.
         12    1    3    3    0    0 -0.14050563569E+02 -0.23144884610E+02  0.17922679042E+02  0.32470393349E+02  0.00000000000E+00 0. -1.
</event>
<event>
 7    1  0.3986981E-008  0.4614232E+02  0.7816164E-02  0.1320468E+00
        -11   -1    0    0    0    0  0.00000000000E+00  0.00000000000E+00  0.45593999997E+02  0.45594000000E+02  0.51100000000E-03 0. -1.
         11   -1    0    0    0    0 -0.00000000000E+00 -0.00000000000E+00 -0.45593999997E+02  0.45594000000E+02  0.51100000000E-03 0.  1.
    9900012    2    1    2    0    0 -0.18497032652E+02  0.41071299545E+02  0.34887811934E+00  0.46142316753E+02  0.99999908092E+01 0.  0.
        -12    1    1    2    0    0  0.18497032652E+02 -0.41071299545E+02 -0.34887811934E+00  0.45045683247E+02  0.00000000000E+00 0.  1.
         11    1    3    3    0    0 -0.88335704878E+01  0.16299790516E+02  0.19146885652E+00  0.18540544734E+02  0.51100000000E-03 0. -1.
        -11    1    3    3    0    0 -0.81492596283E+01  0.12008766571E+02  0.18820927076E+01  0.14634315162E+02  0.51100000000E-03 0.  1.
        -12    1    3    3    0    0 -0.15142025354E+01  0.12762742458E+02 -0.17246834448E+01  0.12967456857E+02  0.00000000000E+00 0.  1.
</event>
<event>
 7    1  0.3986981E-008  0.4614232E+02  0.7816164E-02  0.1320468E+00
        -11   -1    0    0    0    0  0.00000000000E+00  0.00000000000E+00  0.45593999997E+02  0.45594000000E+02  0.51100000000E-03 0.  1.
         11   -1    0    0    0    0 -0.00000000000E+00 -0.00000000000E+00 -0.45593999997E+02  0.45594000000E+02  0.51100000000E-03 0. -1.
    9900012    2    1    2    0    0  0.31118560114E+02  0.15982110606E+02 -0.28378169266E+02  0.46142321695E+02  0.10000035876E+02 0.  0.
        -12    1    1    2    0    0 -0.31118560114E+02 -0.15982110606E+02  0.28378169266E+02  0.45045678305E+02  0.00000000000E+00 0.  1.
         11    1    3    3    0    0  0.84234166234E+01  0.58852433307E+01 -0.84143356650E+01  0.13281230426E+02  0.51100000000E-03 0. -1.
        -11    1    3    3    0    0  0.99038326435E+01  0.52010205191E+01 -0.41274306872E+01  0.11923598442E+02  0.51100000000E-03 0.  1.
        -12    1    3    3    0    0  0.12791310848E+02  0.48958467564E+01 -0.15836402914E+02  0.20937492828E+02  0.00000000000E+00 0.  1.
</event>
<event>
 7    1  0.3986981E-008  0.4614232E+02  0.7816164E-02  0.1320468E+00
        -11   -1    0    0    0    0  0.00000000000E+00  0.00000000000E+00  0.45593999997E+02  0.45594000000E+02  0.51100000000E-03 0.  1.
         11   -1    0    0    0    0 -0.00000000000E+00 -0.00000000000E+00 -0.45593999997E+02  0.45594000000E+02  0.51100000000E-03 0. -1.
    9900012    2    1    2    0    0 -0.33893243069E+01 -0.60339359064E+01 -0.44510869873E+02  0.46142318313E+02  0.10000005035E+02 0.  0.
        -12    1    1    2    0    0  0.33893243069E+01  0.60339359064E+01  0.44510869873E+02  0.45045681687E+02  0.00000000000E+00 0.  1.
         11    1    3    3    0    0 -0.45840984206E+01 -0.40678392478E+01 -0.27221640653E+02  0.27903028412E+02  0.51100000000E-03 0. -1.
        -11    1    3    3    0    0  0.23715240989E+01 -0.31048015273E+01 -0.93584959816E+01  0.10141270452E+02  0.51100000000E-03 0.  1.
        -12    1    3    3    0    0 -0.11767499852E+01  0.11387048687E+01 -0.79307332383E+01  0.80980194494E+01  0.00000000000E+00 0.  1.
</event>
<event>
 7    1  0.3986981E-008  0.4614231E+02  0.7816164E-02  0.1320468E+00
        -11   -1    0    0    0    0  0.00000000000E+00  0.00000000000E+00  0.45593999997E+02  0.45594000000E+02  0.51100000000E-03 0. -1.
         11   -1    0    0    0    0 -0.00000000000E+00 -0.00000000000E+00 -0.45593999997E+02  0.45594000000E+02  0.51100000000E-03 0.  1.
    9900012    2    1    2    0    0  0.14466106309E+00  0.41744490525E+02  0.16926027849E+02  0.46142313916E+02  0.99999649385E+01 0.  0.
        -12    1    1    2    0    0 -0.14466106309E+00 -0.41744490525E+02 -0.16926027849E+02  0.45045686084E+02  0.00000000000E+00 0.  1.
         11    1    3    3    0    0 -0.22346687181E+01  0.26661395067E+02  0.10161069813E+02  0.28619417730E+02  0.51100000000E-03 0. -1.
        -11    1    3    3    0    0 -0.13299366102E+01  0.29788003678E+01  0.26750804672E+01  0.42187721893E+01  0.51100000000E-03 0.  1.
         12    1    3    3    0    0  0.37092663914E+01  0.12104295090E+02  0.40898775689E+01  0.13304123997E+02  0.00000000000E+00 0. -1.
</event>
<event>
 7    1  0.3986981E-008  0.4614232E+02  0.7816164E-02  0.1320468E+00
        -11   -1    0    0    0    0  0.00000000000E+00  0.00000000000E+00  0.45593999997E+02  0.45594000000E+02  0.51100000000E-03 0.  1.
         11   -1    0    0    0    0 -0.00000000000E+00 -0.00000000000E+00 -0.45593999997E+02  0.45594000000E+02  0.51100000000E-03 0. -1.
    9900012    2    1    2    0    0  0.36976271647E+01  0.37641631405E+02 -0.24465248942E+02  0.46142320215E+02  0.10000022381E+02 0.  0.
        -12    1    1    2    0    0 -0.36976271647E+01 -0.37641631405E+02  0.24465248942E+02  0.45045679785E+02  0.00000000000E+00 0.  1.
         11    1    3    3    0    0  0.15248525031E+00  0.18720194514E+02 -0.10582202986E+02  0.21504696108E+02  0.51100000000E-03 0. -1.
        -11    1    3    3    0    0 -0.18529825750E+01  0.58993749334E+01 -0.52167791642E+01  0.80901763972E+01  0.51100000000E-03 0.  1.
         12    1    3    3    0    0  0.53981244894E+01  0.13022061957E+02 -0.86662667921E+01  0.16547447710E+02  0.00000000000E+00 0. -1.
</event>
<event>
 7    1  0.3986981E-008  0.4614232E+02  0.7816164E-02  0.1320468E+00
        -11   -1    0    0    0    0  0.00000000000E+00  0.00000000000E+00  0.45593999997E+02  0.45594000000E+02  0.51100000000E-03 0.  1.
         11   -1    0    0    0    0 -0.00000000000E+00 -0.00000000000E+00 -0.45593999997E+02  0.45594000000E+02  0.51100000000E-03 0. -1.
    9900012    2    1    2    0    0 -0.12763792660E+02 -0.30687706940E+02 -0.30404996856E+02  0.46142316587E+02  0.99999892933E+01 0.  0.
        -12    1    1    2    0    0  0.12763792660E+02  0.30687706940E+02  0.30404996856E+02  0.45045683413E+02  0.00000000000E+00 0.  1.
         11    1    3    3    0    0 -0.59461772651E+01 -0.74727501854E+01 -0.11898240715E+02  0.15256708419E+02  0.51100000000E-03 0. -1.
        -11    1    3    3    0    0 -0.61800662081E+01 -0.12661373588E+02 -0.11673171390E+02  0.18296626193E+02  0.51100000000E-03 0.  1.
        -12    1    3    3    0    0 -0.63754918652E+00 -0.10553583167E+02 -0.68335847511E+01  0.12588981976E+02  0.00000000000E+00 0.  1.
</event>
<event>
 7    1  0.3986981E-008  0.4614231E+02  0.7816164E-02  0.1320468E+00
        -11   -1    0    0    0    0  0.00000000000E+00  0.00000000000E+00  0.45593999997E+02  0.45594000000E+02  0.51100000000E-03 0.  1.
         11   -1    0    0    0    0 -0.00000000000E+00 -0.00000000000E+00 -0.45593999997E+02  0.45594000000E+02  0.51100000000E-03 0. -1.
    9900012    2    1    2    0    0  0.52948060227E+01  0.26601681870E+02 -0.35964281214E+02  0.46142312388E+02  0.99999510076E+01 0.  0.
        -12    1    1    2    0    0 -0.52948060227E+01 -0.26601681870E+02  0.35964281214E+02  0.45045687612E+02  0.00000000000E+00 0.  1.
         11    1    3    3    0    0  0.25331894108E+01  0.13227552451E+02 -0.14063938814E+02  0.19472533673E+02  0.51100000000E-03 0. -1.
        -11    1    3    3    0    0  0.44031914467E+01  0.12070811612E+02 -0.16759731459E+02  0.21118266660E+02  0.51100000000E-03 0.  1.
        -12    1    3    3    0    0 -0.16415748348E+01  0.13033178067E+01 -0.51406109416E+01  0.55515120550E+01  0.00000000000E+00 0.  1.
</event>
<event>
 7    1  0.3986981E-008  0.4614232E+02  0.7816164E-02  0.1320468E+00
        -11   -1    0    0    0    0  0.00000000000E+00  0.00000000000E+00  0.45593999997E+02  0.45594000000E+02  0.51100000000E-03 0.  1.
         11   -1    0    0    0    0 -0.00000000000E+00 -0.00000000000E+00 -0.45593999997E+02  0.45594000000E+02  0.51100000000E-03 0. -1.
    9900012    2    1    2    0    0  0.93310670972E+01 -0.29721891693E+02 -0.32536960525E+02  0.46142318085E+02  0.10000002954E+02 0.  0.
        -12    1    1    2    0    0 -0.93310670972E+01  0.29721891693E+02  0.32536960525E+02  0.45045681915E+02  0.00000000000E+00 0.  1.
         11    1    3    3    0    0  0.29313399897E+01 -0.42870768180E+01 -0.78839362380E+01  0.94407750023E+01  0.51100000000E-03 0. -1.
        -11    1    3    3    0    0  0.50604456049E+01 -0.67690389094E+01 -0.69709166228E+01  0.10955440489E+02  0.51100000000E-03 0.  1.
         12    1    3    3    0    0  0.13392815027E+01 -0.18665775965E+02 -0.17682107664E+02  0.25746102594E+02  0.00000000000E+00 0. -1.
</event>
<event>
 7    1  0.3986981E-008  0.4614232E+02  0.7816164E-02  0.1320468E+00
        -11   -1    0    0    0    0  0.00000000000E+00  0.00000000000E+00  0.45593999997E+02  0.45594000000E+02  0.51100000000E-03 0.  1.
         11   -1    0    0    0    0 -0.00000000000E+00 -0.00000000000E+00 -0.45593999997E+02  0.45594000000E+02  0.51100000000E-03 0. -1.
    9900012    2    1    2    0    0  0.30704693924E+02  0.20557339069E+02 -0.25762976213E+02  0.46142319165E+02  0.10000012800E+02 0.  0.
        -12    1    1    2    0    0 -0.30704693924E+02 -0.20557339069E+02  0.25762976213E+02  0.45045680835E+02  0.00000000000E+00 0.  1.
         11    1    3    3    0    0  0.14401211013E+02  0.10300818687E+02 -0.15698450661E+02  0.23663116821E+02  0.51100000000E-03 0. -1.
        -11    1    3    3    0    0  0.46663933218E+01  0.30091778807E+01 -0.60112124187E+01  0.81832177751E+01  0.51100000000E-03 0.  1.
         12    1    3    3    0    0  0.11637089589E+02  0.72473425012E+01 -0.40533131335E+01  0.14295984569E+02  0.00000000000E+00 0. -1.
</event>
<event>
 7    1  0.3986981E-008  0.4614232E+02  0.7816164E-02  0.1320468E+00
        -11   -1    0    0    0    0  0.00000000000E+00  0.00000000000E+00  0.45593999997E+02  0.45594000000E+02  0.51100000000E-03 0.  1.
         11   -1    0    0    0    0 -0.00000000000E+00 -0.00000000000E+00 -0.45593999997E+02  0.45594000000E+02  0.51100000000E-03 0. -1.
    9900012    2    1    2    0    0  0.62873791054E+00  0.16668545502E+01 -0.45010441101E+02  0.46142317370E+02  0.99999964360E+01 0.  0.
        -12    1    1    2    0    0 -0.62873791054E+00 -0.16668545502E+01  0.45010441101E+02  0.45045682630E+02  0.00000000000E+00 0.  1.
         11    1    3    3    0    0  0.11079943464E+01  0.19542002527E+01 -0.36382014988E+01  0.42758695615E+01  0.51100000000E-03 0. -1.
        -11    1    3    3    0    0  0.22531870192E+01  0.15709932333E+01 -0.12077130704E+02  0.12385554399E+02  0.51100000000E-03 0.  1.
        -12    1    3    3    0    0 -0.27324434551E+01 -0.18583389358E+01 -0.29295108899E+02  0.29480893409E+02  0.00000000000E+00 0.  1.
</event>
<event>
 7    1  0.3986981E-008  0.4614232E+02  0.7816164E-02  0.1320468E+00
        -11   -1    0    0    0    0  0.00000000000E+00  0.00000000000E+00  0.45593999997E+02  0.45594000000E+02  0.51100000000E-03 0. -1.
         11   -1    0    0    0    0 -0.00000000000E+00 -0.00000000000E+00 -0.45593999997E+02  0.45594000000E+02  0.51100000000E-03 0.  1.
    9900012    2    1    2    0    0 -0.17719885290E+02 -0.13906937276E+02  0.39009178447E+02  0.46142320494E+02  0.10000024919E+02 0.  0.
        -12    1    1    2    0    0  0.17719885290E+02  0.13906937276E+02 -0.39009178447E+02  0.45045679506E+02  0.00000000000E+00 0.  1.
         11    1    3    3    0    0 -0.84470337652E+01 -0.63043105029E+01  0.21676144094E+02  0.24102944496E+02  0.51100000000E-03 0. -1.
        -11    1    3    3    0    0 -0.28133999450E+01 -0.63557759928E+01  0.10117810083E+02  0.12275226632E+02  0.51100000000E-03 0.  1.
         12    1    3    3    0    0 -0.64594515796E+01 -0.12468507805E+01  0.72152242700E+01  0.97641493662E+01  0.00000000000E+00 0. -1.
</event>
<event>
 7    1  0.3986981E-008  0.4614232E+02  0.7816164E-02  0.1320468E+00
        -11   -1    0    0    0    0  0.00000000000E+00  0.00000000000E+00  0.45593999997E+02  0.45594000000E+02  0.51100000000E-03 0.  1.
         11   -1    0    0    0    0 -0.00000000000E+00 -0.00000000000E+00 -0.45593999997E+02  0.45594000000E+02  0.51100000000E-03 0. -1.
    9900012    2    1    2    0    0  0.22199217035E+02  0.37114698281E+02 -0.12601883914E+02  0.46142317148E+02  0.99999944078E+01 0.  0.
        -12    1    1    2    0    0 -0.22199217035E+02 -0.37114698281E+02  0.12601883914E+02  0.45045682852E+02  0.00000000000E+00 0.  1.
         11    1    3    3    0    0  0.26814370841E+01  0.10455716080E+02 -0.40497066862E+01  0.11528756571E+02  0.51100000000E-03 0. -1.
        -11    1    3    3    0    0  0.10061005955E+02  0.17161507862E+02 -0.30512654826E+01  0.20125889154E+02  0.51100000000E-03 0.  1.
        -12    1    3    3    0    0  0.94567739957E+01  0.94974743394E+01 -0.55009117450E+01  0.14487671423E+02  0.00000000000E+00 0.  1.
</event>
<event>
 7    1  0.3986981E-008  0.4614232E+02  0.7816164E-02  0.1320468E+00
        -11   -1    0    0    0    0  0.00000000000E+00  0.00000000000E+00  0.45593999997E+02  0.45594000000E+02  0.51100000000E-03 0.  1.
         11   -1    0    0    0    0 -0.00000000000E+00 -0.00000000000E+00 -0.45593999997E+02  0.45594000000E+02  0.51100000000E-03 0. -1.
    9900012    2    1    2    0    0 -0.11146367324E+02 -0.41221045488E+02 -0.14342158845E+02  0.46142316344E+02  0.99999870814E+01 0.  0.
        -12    1    1    2    0    0  0.11146367324E+02  0.41221045488E+02  0.14342158845E+02  0.45045683656E+02  0.00000000000E+00 0.  1.
         11    1    3    3    0    0 -0.66288324204E+01 -0.16674546536E+02 -0.32780448018E+01  0.18240819593E+02  0.51100000000E-03 0. -1.
        -11    1    3    3    0    0 -0.43598239189E+01 -0.84159202423E+01 -0.43482765883E+01  0.10428004971E+02  0.51100000000E-03 0.  1.
         12    1    3    3    0    0 -0.15771098429E+00 -0.16130578709E+02 -0.67158374553E+01  0.17473491780E+02  0.00000000000E+00 0. -1.
</event>
<event>
 7    1  0.3986981E-008  0.4614232E+02  0.7816164E-02  0.1320468E+00
        -11   -1    0    0    0    0  0.00000000000E+00  0.00000000000E+00  0.45593999997E+02  0.45594000000E+02  0.51100000000E-03 0.  1.
         11   -1    0    0    0    0 -0.00000000000E+00 -0.00000000000E+00 -0.45593999997E+02  0.45594000000E+02  0.51100000000E-03 0. -1.
    9900012    2    1    2    0    0  0.19781161880E+02 -0.38940383361E+01 -0.40282199372E+02  0.46142317786E+02  0.10000000225E+02 0.  0.
        -12    1    1    2    0    0 -0.19781161880E+02  0.38940383361E+01  0.40282199372E+02  0.45045682214E+02  0.00000000000E+00 0.  1.
         11    1    3    3    0    0  0.10906936554E+02  0.23594655933E+01 -0.21428777062E+02  0.24160315178E+02  0.51100000000E-03 0. -1.
        -11    1    3    3    0    0  0.34181664894E+01 -0.21225745326E+01 -0.42382874548E+01  0.58439939772E+01  0.51100000000E-03 0.  1.
         12    1    3    3    0    0  0.54560588366E+01 -0.41309293968E+01 -0.14615134855E+02  0.16138008630E+02  0.00000000000E+00 0. -1.
</event>
<event>
 7    1  0.3986981E-008  0.4614232E+02  0.7816164E-02  0.1320468E+00
        -11   -1    0    0    0    0  0.00000000000E+00  0.00000000000E+00  0.45593999997E+02  0.45594000000E+02  0.51100000000E-03 0. -1.
         11   -1    0    0    0    0 -0.00000000000E+00 -0.00000000000E+00 -0.45593999997E+02  0.45594000000E+02  0.51100000000E-03 0.  1.
    9900012    2    1    2    0    0  0.13699826156E+02  0.41496032387E+02  0.10931934551E+02  0.46142321699E+02  0.10000035910E+02 0.  0.
        -12    1    1    2    0    0 -0.13699826156E+02 -0.41496032387E+02 -0.10931934551E+02  0.45045678301E+02  0.00000000000E+00 0.  1.
         11    1    3    3    0    0  0.66164962848E+01  0.26698805237E+02  0.11059218516E+02  0.29646425393E+02  0.51100000000E-03 0. -1.
        -11    1    3    3    0    0  0.25219312027E+01  0.38906944016E+01  0.46025035475E+00  0.46593422892E+01  0.51100000000E-03 0.  1.
        -12    1    3    3    0    0  0.45613986689E+01  0.10906532748E+02 -0.58753431976E+00  0.11836554017E+02  0.00000000000E+00 0.  1.
</event>
<event>
 7    1  0.3986981E-008  0.4614232E+02  0.7816164E-02  0.1320468E+00
        -11   -1    0    0    0    0  0.00000000000E+00  0.00000000000E+00  0.45593999997E+02  0.45594000000E+02  0.51100000000E-03 0.  1.
         11   -1    0    0    0    0 -0.00000000000E+00 -0.00000000000E+00 -0.45593999997E+02  0.45594000000E+02  0.51100000000E-03 0. -1.
    9900012    2    1    2    0    0 -0.44417160832E+01  0.40732508783E+02 -0.18714898945E+02  0.46142317010E+02  0.99999931492E+01 0.  0.
        -12    1    1    2    0    0  0.44417160832E+01 -0.40732508783E+02  0.18714898945E+02  0.45045682990E+02  0.00000000000E+00 0.  1.
         11    1    3    3    0    0 -0.53057928168E+01  0.17948498968E+02 -0.11400355447E+02  0.21915021268E+02  0.51100000000E-03 0. -1.
        -11    1    3    3    0    0  0.11046750227E+01  0.91595142948E+01 -0.12430237266E+01  0.93092490174E+01  0.51100000000E-03 0.  1.
         12    1    3    3    0    0 -0.24059828917E+00  0.13624495521E+02 -0.60715197712E+01  0.14918046724E+02  0.00000000000E+00 0. -1.
</event>
<event>
 7    1  0.3986981E-008  0.4614232E+02  0.7816164E-02  0.1320468E+00
        -11   -1    0    0    0    0  0.00000000000E+00  0.00000000000E+00  0.45593999997E+02  0.45594000000E+02  0.51100000000E-03 0.  1.
         11   -1    0    0    0    0 -0.00000000000E+00 -0.00000000000E+00 -0.45593999997E+02  0.45594000000E+02  0.51100000000E-03 0. -1.
    9900012    2    1    2    0    0 -0.11495865856E+02 -0.43428164633E+02 -0.33095419597E+01  0.46142317819E+02  0.10000000530E+02 0.  0.
        -12    1    1    2    0    0  0.11495865856E+02  0.43428164633E+02  0.33095419597E+01  0.45045682181E+02  0.00000000000E+00 0.  1.
         11    1    3    3    0    0 -0.35645609244E+01 -0.17909864182E+02 -0.43547884359E+01  0.18773212623E+02  0.51100000000E-03 0. -1.
        -11    1    3    3    0    0 -0.82819169986E+01 -0.18415513033E+02  0.78518046818E-01  0.20192261755E+02  0.51100000000E-03 0.  1.
        -12    1    3    3    0    0  0.35061206699E+00 -0.71027874180E+01  0.96672842939E+00  0.71768434414E+01  0.00000000000E+00 0.  1.
</event>
<event>
 7    1  0.3986981E-008  0.4614232E+02  0.7816164E-02  0.1320468E+00
        -11   -1    0    0    0    0  0.00000000000E+00  0.00000000000E+00  0.45593999997E+02  0.45594000000E+02  0.51100000000E-03 0. -1.
         11   -1    0    0    0    0 -0.00000000000E+00 -0.00000000000E+00 -0.45593999997E+02  0.45594000000E+02  0.51100000000E-03 0.  1.
    9900012    2    1    2    0    0  0.11693442388E+01  0.44049300588E+02  0.93490882440E+01  0.46142315420E+02  0.99999786542E+01 0.  0.
        -12    1    1    2    0    0 -0.11693442388E+01 -0.44049300588E+02 -0.93490882440E+01  0.45045684580E+02  0.00000000000E+00 0.  1.
         11    1    3    3    0    0 -0.23502314934E+01  0.43436965053E+01 -0.68365902425E+00  0.49858477038E+01  0.51100000000E-03 0.  1.
        -11    1    3    3    0    0  0.39363061294E+00  0.11127849289E+02  0.35423954512E+01  0.11684713974E+02  0.51100000000E-03 0. -1.
        -12    1    3    3    0    0  0.31259451193E+01  0.28577754794E+02  0.64903518171E+01  0.29471753742E+02  0.00000000000E+00 0.  1.
</event>
<event>
 7    1  0.3986981E-008  0.4614232E+02  0.7816164E-02  0.1320468E+00
        -11   -1    0    0    0    0  0.00000000000E+00  0.00000000000E+00  0.45593999997E+02  0.45594000000E+02  0.51100000000E-03 0.  1.
         11   -1    0    0    0    0 -0.00000000000E+00 -0.00000000000E+00 -0.45593999997E+02  0.45594000000E+02  0.51100000000E-03 0. -1.
    9900012    2    1    2    0    0 -0.22992758164E+02  0.12511169784E+02 -0.36659477433E+02  0.46142316710E+02  0.99999904179E+01 0.  0.
        -12    1    1    2    0    0  0.22992758164E+02 -0.12511169784E+02  0.36659477433E+02  0.45045683290E+02  0.00000000000E+00 0.  1.
         11    1    3    3    0    0 -0.46761480521E+01  0.68246482276E+00 -0.54062447589E+01  0.71805014793E+01  0.51100000000E-03 0. -1.
        -11    1    3    3    0    0 -0.59559036314E+01  0.10369247956E+01 -0.13472290965E+02  0.14766537346E+02  0.51100000000E-03 0.  1.
         12    1    3    3    0    0 -0.12360706480E+02  0.10791780166E+02 -0.17780941710E+02  0.24195277885E+02  0.00000000000E+00 0. -1.
</event>
<event>
 7    1  0.3986981E-008  0.4614232E+02  0.7816164E-02  0.1320468E+00
        -11   -1    0    0    0    0  0.00000000000E+00  0.00000000000E+00  0.45593999997E+02  0.45594000000E+02  0.51100000000E-03 0.  1.
         11   -1    0    0    0    0 -0.00000000000E+00 -0.00000000000E+00 -0.45593999997E+02  0.45594000000E+02  0.51100000000E-03 0. -1.
    9900012    2    1    2    0    0 -0.89382200071E+01  0.43344321363E+02 -0.83959267125E+01  0.46142317003E+02  0.99999930872E+01 0.  0.
        -12    1    1    2    0    0  0.89382200071E+01 -0.43344321363E+02  0.83959267125E+01  0.45045682997E+02  0.00000000000E+00 0.  1.
         11    1    3    3    0    0 -0.70002421333E+00  0.10774666079E+02 -0.17165469151E-02  0.10797382378E+02  0.51100000000E-03 0.  1.
        -11    1    3    3    0    0 -0.71089186109E+01  0.32423012726E+02 -0.80519564094E+01  0.34155855725E+02  0.51100000000E-03 0. -1.
        -12    1    3    3    0    0 -0.11292771829E+01  0.14664255775E+00 -0.34225375617E+00  0.11890788994E+01  0.00000000000E+00 0.  1.
</event>
<event>
 7    1  0.3986981E-008  0.4614232E+02  0.7816164E-02  0.1320468E+00
        -11   -1    0    0    0    0  0.00000000000E+00  0.00000000000E+00  0.45593999997E+02  0.45594000000E+02  0.51100000000E-03 0.  1.
         11   -1    0    0    0    0 -0.00000000000E+00 -0.00000000000E+00 -0.45593999997E+02  0.45594000000E+02  0.51100000000E-03 0. -1.
    9900012    2    1    2    0    0  0.40105937644E+01 -0.17266956276E+02 -0.41411121671E+02  0.46142316085E+02  0.99999847126E+01 0.  0.
        -12    1    1    2    0    0 -0.40105937644E+01  0.17266956276E+02  0.41411121671E+02  0.45045683915E+02  0.00000000000E+00 0.  1.
         11    1    3    3    0    0  0.10577857960E+01 -0.19458914220E+00 -0.36255128556E+01  0.37816820929E+01  0.51100000000E-03 0. -1.
        -11    1    3    3    0    0 -0.16536061059E+01 -0.21681130902E+00 -0.36326886486E+01  0.39972299629E+01  0.51100000000E-03 0.  1.
         12    1    3    3    0    0  0.46064140743E+01 -0.16855555825E+02 -0.34152920166E+02  0.38363404029E+02  0.00000000000E+00 0. -1.
</event>
<event>
 7    1  0.3986981E-008  0.4614232E+02  0.7816164E-02  0.1320468E+00
        -11   -1    0    0    0    0  0.00000000000E+00  0.00000000000E+00  0.45593999997E+02  0.45594000000E+02  0.51100000000E-03 0.  1.
         11   -1    0    0    0    0 -0.00000000000E+00 -0.00000000000E+00 -0.45593999997E+02  0.45594000000E+02  0.51100000000E-03 0. -1.
    9900012    2    1    2    0    0  0.22832341195E+02 -0.38320538831E+02 -0.62716687660E+01  0.46142319520E+02  0.10000016043E+02 0.  0.
        -12    1    1    2    0    0 -0.22832341195E+02  0.38320538831E+02  0.62716687660E+01  0.45045680480E+02  0.00000000000E+00 0.  1.
         11    1    3    3    0    0  0.15972044488E+02 -0.21820426113E+02 -0.23487277832E+01  0.27143207683E+02  0.51100000000E-03 0. -1.
        -11    1    3    3    0    0  0.28969419822E+01 -0.23258852703E+01  0.18171215509E+00  0.37195476482E+01  0.51100000000E-03 0.  1.
        -12    1    3    3    0    0  0.39633547242E+01 -0.14174227448E+02 -0.41046531379E+01  0.15279564189E+02  0.00000000000E+00 0.  1.
</event>
<event>
 7    1  0.3986981E-008  0.4614232E+02  0.7816164E-02  0.1320468E+00
        -11   -1    0    0    0    0  0.00000000000E+00  0.00000000000E+00  0.45593999997E+02  0.45594000000E+02  0.51100000000E-03 0.  1.
         11   -1    0    0    0    0 -0.00000000000E+00 -0.00000000000E+00 -0.45593999997E+02  0.45594000000E+02  0.51100000000E-03 0. -1.
    9900012    2    1    2    0    0 -0.17895607620E+02  0.22844055051E+02 -0.34453009970E+02  0.46142317418E+02  0.99999968743E+01 0.  0.
        -12    1    1    2    0    0  0.17895607620E+02 -0.22844055051E+02  0.34453009970E+02  0.45045682582E+02  0.00000000000E+00 0.  1.
         11    1    3    3    0    0 -0.20744725555E+01  0.17773362447E+01 -0.13094597574E+01  0.30293638982E+01  0.51100000000E-03 0.  1.
        -11    1    3    3    0    0 -0.10737494585E+02  0.77408801274E+01 -0.17521646279E+02  0.21959578859E+02  0.51100000000E-03 0. -1.
        -12    1    3    3    0    0 -0.50836404800E+01  0.13325838679E+02 -0.15621903934E+02  0.21153374661E+02  0.00000000000E+00 0.  1.
</event>
<event>
 7    1  0.3986981E-008  0.4614232E+02  0.7816164E-02  0.1320468E+00
        -11   -1    0    0    0    0  0.00000000000E+00  0.00000000000E+00  0.45593999997E+02  0.45594000000E+02  0.51100000000E-03 0.  1.
         11   -1    0    0    0    0 -0.00000000000E+00 -0.00000000000E+00 -0.45593999997E+02  0.45594000000E+02  0.51100000000E-03 0. -1.
    9900012    2    1    2    0    0 -0.27182082816E+02 -0.10003429490E+01 -0.35906087737E+02  0.46142318200E+02  0.10000003999E+02 0.  0.
        -12    1    1    2    0    0  0.27182082816E+02  0.10003429490E+01  0.35906087737E+02  0.45045681800E+02  0.00000000000E+00 0.  1.
         11    1    3    3    0    0 -0.13161813080E+02 -0.12898523050E+00 -0.21497407111E+02  0.25206913208E+02  0.51100000000E-03 0. -1.
        -11    1    3    3    0    0 -0.82446554426E+01 -0.32070228938E+01 -0.96847767852E+01  0.13116944799E+02  0.51100000000E-03 0.  1.
         12    1    3    3    0    0 -0.57756142941E+01  0.23356651753E+01 -0.47239038415E+01  0.78184601930E+01  0.00000000000E+00 0. -1.
</event>
<event>
 7    1  0.3986981E-008  0.4614232E+02  0.7816164E-02  0.1320468E+00
        -11   -1    0    0    0    0  0.00000000000E+00  0.00000000000E+00  0.45593999997E+02  0.45594000000E+02  0.51100000000E-03 0.  1.
         11   -1    0    0    0    0 -0.00000000000E+00 -0.00000000000E+00 -0.45593999997E+02  0.45594000000E+02  0.51100000000E-03 0. -1.
    9900012    2    1    2    0    0  0.16422795090E+01 -0.40225766379E+02 -0.20206540140E+02  0.46142316220E+02  0.99999859480E+01 0.  0.
        -12    1    1    2    0    0 -0.16422795090E+01  0.40225766379E+02  0.20206540140E+02  0.45045683780E+02  0.00000000000E+00 0.  1.
         11    1    3    3    0    0  0.10434387244E+00 -0.27640988196E+02 -0.10549804251E+02  0.29586035322E+02  0.51100000000E-03 0. -1.
        -11    1    3    3    0    0  0.72547117830E+00 -0.20408295405E+00 -0.15832948407E+01  0.17535053739E+01  0.51100000000E-03 0.  1.
        -12    1    3    3    0    0  0.81246445824E+00 -0.12380695229E+02 -0.80734410486E+01  0.14802775524E+02  0.00000000000E+00 0.  1.
</event>
<event>
 7    1  0.3986981E-008  0.4614232E+02  0.7816164E-02  0.1320468E+00
        -11   -1    0    0    0    0  0.00000000000E+00  0.00000000000E+00  0.45593999997E+02  0.45594000000E+02  0.51100000000E-03 0.  1.
         11   -1    0    0    0    0 -0.00000000000E+00 -0.00000000000E+00 -0.45593999997E+02  0.45594000000E+02  0.51100000000E-03 0. -1.
    9900012    2    1    2    0    0  0.72601764562E+01 -0.23723716774E+01 -0.44393413990E+02  0.46142317463E+02  0.99999972840E+01 0.  0.
        -12    1    1    2    0    0 -0.72601764562E+01  0.23723716774E+01  0.44393413990E+02  0.45045682537E+02  0.00000000000E+00 0.  1.
         11    1    3    3    0    0  0.18238989575E+01  0.11979051888E+01 -0.16837556844E+02  0.16978365792E+02  0.51100000000E-03 0. -1.
        -11    1    3    3    0    0  0.59730516008E+01 -0.10493797049E+01 -0.24108750951E+02  0.24859815282E+02  0.51100000000E-03 0.  1.
        -12    1    3    3    0    0 -0.53677410216E+00 -0.25208971613E+01 -0.34471061951E+01  0.43041363889E+01  0.00000000000E+00 0.  1.
</event>
<event>
 7    1  0.3986981E-008  0.4614231E+02  0.7816164E-02  0.1320468E+00
        -11   -1    0    0    0    0  0.00000000000E+00  0.00000000000E+00  0.45593999997E+02  0.45594000000E+02  0.51100000000E-03 0. -1.
         11   -1    0    0    0    0 -0.00000000000E+00 -0.00000000000E+00 -0.45593999997E+02  0.45594000000E+02  0.51100000000E-03 0.  1.
    9900012    2    1    2    0    0 -0.14694847104E+02  0.34691014500E+02  0.24692280728E+02  0.46142314901E+02  0.99999739209E+01 0.  0.
        -12    1    1    2    0    0  0.14694847104E+02 -0.34691014500E+02 -0.24692280728E+02  0.45045685099E+02  0.00000000000E+00 0.  1.
         11    1    3    3    0    0 -0.59070345604E+01  0.13121954657E+02  0.82360065037E+01  0.16580426856E+02  0.51100000000E-03 0. -1.
        -11    1    3    3    0    0 -0.39410481183E+01  0.18035897414E+02  0.11246594448E+02  0.21617385196E+02  0.51100000000E-03 0.  1.
        -12    1    3    3    0    0 -0.48467644258E+01  0.35331624293E+01  0.52096797762E+01  0.79445028493E+01  0.00000000000E+00 0.  1.
</event>
<event>
 7    1  0.3986981E-008  0.4614232E+02  0.7816164E-02  0.1320468E+00
        -11   -1    0    0    0    0  0.00000000000E+00  0.00000000000E+00  0.45593999997E+02  0.45594000000E+02  0.51100000000E-03 0. -1.
         11   -1    0    0    0    0 -0.00000000000E+00 -0.00000000000E+00 -0.45593999997E+02  0.45594000000E+02  0.51100000000E-03 0.  1.
    9900012    2    1    2    0    0 -0.13834824766E+02 -0.23499322240E+02  0.35853771423E+02  0.46142318217E+02  0.10000004160E+02 0.  0.
        -12    1    1    2    0    0  0.13834824766E+02  0.23499322240E+02 -0.35853771423E+02  0.45045681783E+02  0.00000000000E+00 0.  1.
         11    1    3    3    0    0 -0.10363239612E+02 -0.13384823805E+02  0.17813745009E+02  0.24573964984E+02  0.51100000000E-03 0.  1.
        -11    1    3    3    0    0  0.20832621191E+00 -0.64651926246E+01  0.81728604221E+01  0.10422944077E+02  0.51100000000E-03 0. -1.
         12    1    3    3    0    0 -0.36799113661E+01 -0.36493058100E+01  0.98671659916E+01  0.11145409156E+02  0.00000000000E+00 0. -1.
</event>
<event>
 7    1  0.3986981E-008  0.4614232E+02  0.7816164E-02  0.1320468E+00
        -11   -1    0    0    0    0  0.00000000000E+00  0.00000000000E+00  0.45593999997E+02  0.45594000000E+02  0.51100000000E-03 0. -1.
         11   -1    0    0    0    0 -0.00000000000E+00 -0.00000000000E+00 -0.45593999997E+02  0.45594000000E+02  0.51100000000E-03 0.  1.
    9900012    2    1    2    0    0 -0.12852617667E+02  0.16362196330E+02  0.39952499807E+02  0.46142317738E+02  0.99999997852E+01 0.  0.
        -12    1    1    2    0    0  0.12852617667E+02 -0.16362196330E+02 -0.39952499807E+02  0.45045682262E+02  0.00000000000E+00 0.  1.
         11    1    3    3    0    0 -0.33704978565E+01  0.36321655175E+01  0.11734998581E+02  0.12738252396E+02  0.51100000000E-03 0. -1.
        -11    1    3    3    0    0  0.50821536574E+00 -0.85562957447E+00  0.19516639403E+01  0.21907480968E+01  0.51100000000E-03 0.  1.
        -12    1    3    3    0    0 -0.99903351761E+01  0.13585660387E+02  0.26265837286E+02  0.31213317245E+02  0.00000000000E+00 0.  1.
</event>
<event>
 7    1  0.3986981E-008  0.4614232E+02  0.7816164E-02  0.1320468E+00
        -11   -1    0    0    0    0  0.00000000000E+00  0.00000000000E+00  0.45593999997E+02  0.45594000000E+02  0.51100000000E-03 0. -1.
         11   -1    0    0    0    0 -0.00000000000E+00 -0.00000000000E+00 -0.45593999997E+02  0.45594000000E+02  0.51100000000E-03 0.  1.
    9900012    2    1    2    0    0  0.39642869197E+02 -0.20036869002E+02  0.74886812447E+01  0.46142317140E+02  0.99999943381E+01 0.  0.
        -12    1    1    2    0    0 -0.39642869197E+02  0.20036869002E+02 -0.74886812447E+01  0.45045682860E+02  0.00000000000E+00 0.  1.
         11    1    3    3    0    0  0.53724066854E+01 -0.33189535378E+00  0.88557081420E+00  0.54550109118E+01  0.51100000000E-03 0. -1.
        -11    1    3    3    0    0  0.13629972874E+02 -0.40016352082E+01  0.27172344523E+01  0.14462800843E+02  0.51100000000E-03 0.  1.
         12    1    3    3    0    0  0.20640489637E+02 -0.15703338440E+02  0.38858759782E+01  0.26224505386E+02  0.00000000000E+00 0. -1.
</event>
<event>
 7    1  0.3986981E-008  0.4614232E+02  0.7816164E-02  0.1320468E+00
        -11   -1    0    0    0    0  0.00000000000E+00  0.00000000000E+00  0.45593999997E+02  0.45594000000E+02  0.51100000000E-03 0. -1.
         11   -1    0    0    0    0 -0.00000000000E+00 -0.00000000000E+00 -0.45593999997E+02  0.45594000000E+02  0.51100000000E-03 0.  1.
    9900012    2    1    2    0    0  0.25795234845E+02  0.36600286649E+02  0.49130854917E+01  0.46142317271E+02  0.99999955283E+01 0.  0.
        -12    1    1    2    0    0 -0.25795234845E+02 -0.36600286649E+02 -0.49130854917E+01  0.45045682729E+02  0.00000000000E+00 0.  1.
         11    1    3    3    0    0  0.33323614341E+01  0.63986880393E+01 -0.11574539312E+01  0.73066778509E+01  0.51100000000E-03 0. -1.
        -11    1    3    3    0    0  0.83394701411E+01  0.16424848700E+02  0.91575094362E+00  0.18443454587E+02  0.51100000000E-03 0.  1.
         12    1    3    3    0    0  0.14123403269E+02  0.13776749910E+02  0.51547884793E+01  0.20392184833E+02  0.00000000000E+00 0. -1.
</event>
<event>
 7    1  0.3986981E-008  0.4614232E+02  0.7816164E-02  0.1320468E+00
        -11   -1    0    0    0    0  0.00000000000E+00  0.00000000000E+00  0.45593999997E+02  0.45594000000E+02  0.51100000000E-03 0.  1.
         11   -1    0    0    0    0 -0.00000000000E+00 -0.00000000000E+00 -0.45593999997E+02  0.45594000000E+02  0.51100000000E-03 0. -1.
    9900012    2    1    2    0    0  0.37014328605E+02 -0.41617198034E+01 -0.25332449960E+02  0.46142318133E+02  0.10000003396E+02 0.  0.
        -12    1    1    2    0    0 -0.37014328605E+02  0.41617198034E+01  0.25332449960E+02  0.45045681867E+02  0.00000000000E+00 0.  1.
         11    1    3    3    0    0  0.95524517663E+01  0.14112032545E+01 -0.33813097265E+01  0.10231035388E+02  0.51100000000E-03 0.  1.
        -11    1    3    3    0    0  0.95797623425E+01 -0.35145570448E+01 -0.58585129132E+01  0.11766313423E+02  0.51100000000E-03 0. -1.
        -12    1    3    3    0    0  0.17882114497E+02 -0.20583660131E+01 -0.16092627321E+02  0.24144969323E+02  0.00000000000E+00 0.  1.
</event>
<event>
 7    1  0.3986981E-008  0.4614232E+02  0.7816164E-02  0.1320468E+00
        -11   -1    0    0    0    0  0.00000000000E+00  0.00000000000E+00  0.45593999997E+02  0.45594000000E+02  0.51100000000E-03 0. -1.
         11   -1    0    0    0    0 -0.00000000000E+00 -0.00000000000E+00 -0.45593999997E+02  0.45594000000E+02  0.51100000000E-03 0.  1.
    9900012    2    1    2    0    0 -0.33584821647E+02 -0.21213757305E+02  0.21240287957E+02  0.46142316783E+02  0.99999910773E+01 0.  0.
        -12    1    1    2    0    0  0.33584821647E+02  0.21213757305E+02 -0.21240287957E+02  0.45045683217E+02  0.00000000000E+00 0.  1.
         11    1    3    3    0    0 -0.59308541951E+00 -0.19775102639E+01 -0.15708525298E+00  0.20705007116E+01  0.51100000000E-03 0.  1.
        -11    1    3    3    0    0 -0.15236767028E+02 -0.94985619073E+01  0.72203161607E+01  0.19352382631E+02  0.51100000000E-03 0. -1.
         12    1    3    3    0    0 -0.17754969199E+02 -0.97376851338E+01  0.14177057049E+02  0.24719433440E+02  0.00000000000E+00 0. -1.
</event>
<event>
 7    1  0.3986981E-008  0.4614232E+02  0.7816164E-02  0.1320468E+00
        -11   -1    0    0    0    0  0.00000000000E+00  0.00000000000E+00  0.45593999997E+02  0.45594000000E+02  0.51100000000E-03 0.  1.
         11   -1    0    0    0    0 -0.00000000000E+00 -0.00000000000E+00 -0.45593999997E+02  0.45594000000E+02  0.51100000000E-03 0. -1.
    9900012    2    1    2    0    0  0.16615869785E+02  0.16565092857E+02 -0.38452881240E+02  0.46142317568E+02  0.99999982435E+01 0.  0.
        -12    1    1    2    0    0 -0.16615869785E+02 -0.16565092857E+02  0.38452881240E+02  0.45045682432E+02  0.00000000000E+00 0.  1.
         11    1    3    3    0    0  0.54805964843E+01  0.20830706695E+01 -0.67916570475E+01  0.89723311881E+01  0.51100000000E-03 0. -1.
        -11    1    3    3    0    0  0.54023411634E+01  0.21011695186E+01 -0.84854808898E+01  0.10276360717E+02  0.51100000000E-03 0.  1.
         12    1    3    3    0    0  0.57329321375E+01  0.12380852669E+02 -0.23175743302E+02  0.26893625663E+02  0.00000000000E+00 0. -1.
</event>
<event>
 7    1  0.3986981E-008  0.4614232E+02  0.7816164E-02  0.1320468E+00
        -11   -1    0    0    0    0  0.00000000000E+00  0.00000000000E+00  0.45593999997E+02  0.45594000000E+02  0.51100000000E-03 0.  1.
         11   -1    0    0    0    0 -0.00000000000E+00 -0.00000000000E+00 -0.45593999997E+02  0.45594000000E+02  0.51100000000E-03 0. -1.
    9900012    2    1    2    0    0 -0.64047916028E+01 -0.43370885819E+02 -0.10346895727E+02  0.46142319370E+02  0.10000014673E+02 0.  0.
        -12    1    1    2    0    0  0.64047916028E+01  0.43370885819E+02  0.10346895727E+02  0.45045680630E+02  0.00000000000E+00 0.  1.
         11    1    3    3    0    0 -0.13016447741E+01 -0.28798578024E+02 -0.33622955322E+01  0.29023394130E+02  0.51100000000E-03 0. -1.
        -11    1    3    3    0    0 -0.31292422362E+01 -0.74875759094E+01 -0.24422586855E+01  0.84747022201E+01  0.51100000000E-03 0.  1.
        -12    1    3    3    0    0 -0.19739045926E+01 -0.70847318855E+01 -0.45423415090E+01  0.86442230196E+01  0.00000000000E+00 0.  1.
</event>
<event>
 7    1  0.3986981E-008  0.4614232E+02  0.7816164E-02  0.1320468E+00
        -11   -1    0    0    0    0  0.00000000000E+00  0.00000000000E+00  0.45593999997E+02  0.45594000000E+02  0.51100000000E-03 0. -1.
         11   -1    0    0    0    0 -0.00000000000E+00 -0.00000000000E+00 -0.45593999997E+02  0.45594000000E+02  0.51100000000E-03 0.  1.
    9900012    2    1    2    0    0 -0.14293942530E+01 -0.37616075504E+02  0.24740679127E+02  0.46142317544E+02  0.99999980224E+01 0.  0.
        -12    1    1    2    0    0  0.14293942530E+01  0.37616075504E+02 -0.24740679127E+02  0.45045682456E+02  0.00000000000E+00 0.  1.
         11    1    3    3    0    0 -0.54966298033E+00 -0.16387464730E+02  0.10189934979E+02  0.19305074587E+02  0.51100000000E-03 0. -1.
        -11    1    3    3    0    0  0.12504379151E+01 -0.60785423587E+01  0.81728790391E+01  0.10261979548E+02  0.51100000000E-03 0.  1.
        -12    1    3    3    0    0 -0.21301691878E+01 -0.15150068415E+02  0.63778651083E+01  0.16575263409E+02  0.00000000000E+00 0.  1.
</event>
<event>
 7    1  0.3986981E-008  0.4614232E+02  0.7816164E-02  0.1320468E+00
        -11   -1    0    0    0    0  0.00000000000E+00  0.00000000000E+00  0.45593999997E+02  0.45594000000E+02  0.51100000000E-03 0.  1.
         11   -1    0    0    0    0 -0.00000000000E+00 -0.00000000000E+00 -0.45593999997E+02  0.45594000000E+02  0.51100000000E-03 0. -1.
    9900012    2    1    2    0    0  0.37828936494E+02  0.19957279723E+02 -0.14134780763E+02  0.46142317882E+02  0.10000001106E+02 0.  0.
        -12    1    1    2    0    0 -0.37828936494E+02 -0.19957279723E+02  0.14134780763E+02  0.45045682118E+02  0.00000000000E+00 0.  1.
         11    1    3    3    0    0  0.16491418940E+02  0.10688355722E+02 -0.75682862793E+01  0.21059126386E+02  0.51100000000E-03 0. -1.
        -11    1    3    3    0    0  0.65146619009E+01  0.62140910971E+01 -0.15258751931E+01  0.91314863638E+01  0.51100000000E-03 0.  1.
        -12    1    3    3    0    0  0.14822855654E+02  0.30548329042E+01 -0.50406192907E+01  0.15951705132E+02  0.00000000000E+00 0.  1.
</event>
<event>
 7    1  0.3986981E-008  0.4614232E+02  0.7816164E-02  0.1320468E+00
        -11   -1    0    0    0    0  0.00000000000E+00  0.00000000000E+00  0.45593999997E+02  0.45594000000E+02  0.51100000000E-03 0.  1.
         11   -1    0    0    0    0 -0.00000000000E+00 -0.00000000000E+00 -0.45593999997E+02  0.45594000000E+02  0.51100000000E-03 0. -1.
    9900012    2    1    2    0    0  0.74316767470E+01 -0.22924227624E+02 -0.38057370198E+02  0.46142318100E+02  0.10000003090E+02 0.  0.
        -12    1    1    2    0    0 -0.74316767470E+01  0.22924227624E+02  0.38057370198E+02  0.45045681900E+02  0.00000000000E+00 0.  1.
         11    1    3    3    0    0 -0.12360948591E+00 -0.19594529728E+01 -0.22090855951E+00  0.19757368525E+01  0.51100000000E-03 0. -1.
        -11    1    3    3    0    0  0.86583477126E+00 -0.88001430512E+01 -0.16283360134E+02  0.18529436178E+02  0.51100000000E-03 0.  1.
         12    1    3    3    0    0  0.66894514617E+01 -0.12164631600E+02 -0.21553101505E+02  0.25637145069E+02  0.00000000000E+00 0. -1.
</event>
<event>
 7    1  0.3986981E-008  0.4614232E+02  0.7816164E-02  0.1320468E+00
        -11   -1    0    0    0    0  0.00000000000E+00  0.00000000000E+00  0.45593999997E+02  0.45594000000E+02  0.51100000000E-03 0.  1.
         11   -1    0    0    0    0 -0.00000000000E+00 -0.00000000000E+00 -0.45593999997E+02  0.45594000000E+02  0.51100000000E-03 0. -1.
    9900012    2    1    2    0    0 -0.26111164641E+02 -0.17189024320E+02 -0.32432360395E+02  0.46142317890E+02  0.10000001173E+02 0.  0.
        -12    1    1    2    0    0  0.26111164641E+02  0.17189024320E+02  0.32432360395E+02  0.45045682110E+02  0.00000000000E+00 0.  1.
         11    1    3    3    0    0 -0.51445437553E+01 -0.44710847090E+01 -0.81378814042E+01  0.10615179835E+02  0.51100000000E-03 0. -1.
        -11    1    3    3    0    0 -0.35760348767E+00 -0.29606191318E+01 -0.17297515164E+01  0.34474898793E+01  0.51100000000E-03 0.  1.
         12    1    3    3    0    0 -0.20609017398E+02 -0.97573204789E+01 -0.22564727475E+02  0.32079648175E+02  0.00000000000E+00 0. -1.
</event>
<event>
 7    1  0.3986981E-008  0.4614232E+02  0.7816164E-02  0.1320468E+00
        -11   -1    0    0    0    0  0.00000000000E+00  0.00000000000E+00  0.45593999997E+02  0.45594000000E+02  0.51100000000E-03 0.  1.
         11   -1    0    0    0    0 -0.00000000000E+00 -0.00000000000E+00 -0.45593999997E+02  0.45594000000E+02  0.51100000000E-03 0. -1.
    9900012    2    1    2    0    0 -0.11217710117E+01  0.39481667293E+02 -0.21657632078E+02  0.46142318191E+02  0.10000003919E+02 0.  0.
        -12    1    1    2    0    0  0.11217710117E+01 -0.39481667293E+02  0.21657632078E+02  0.45045681809E+02  0.00000000000E+00 0.  1.
         11    1    3    3    0    0 -0.19971279129E+01  0.14446056097E+02 -0.45382733485E+01  0.15273276725E+02  0.51100000000E-03 0. -1.
        -11    1    3    3    0    0 -0.12373818467E+01  0.17878939636E+02 -0.14164057663E+02  0.22843119885E+02  0.51100000000E-03 0.  1.
         12    1    3    3    0    0  0.21127387480E+01  0.71566715596E+01 -0.29553010662E+01  0.80259215808E+01  0.00000000000E+00 0. -1.
</event>
<event>
 7    1  0.3986981E-008  0.4614232E+02  0.7816164E-02  0.1320468E+00
        -11   -1    0    0    0    0  0.00000000000E+00  0.00000000000E+00  0.45593999997E+02  0.45594000000E+02  0.51100000000E-03 0.  1.
         11   -1    0    0    0    0 -0.00000000000E+00 -0.00000000000E+00 -0.45593999997E+02  0.45594000000E+02  0.51100000000E-03 0. -1.
    9900012    2    1    2    0    0 -0.13343217258E+02 -0.13719583076E+02 -0.40777997050E+02  0.46142318187E+02  0.10000003882E+02 0.  0.
        -12    1    1    2    0    0  0.13343217258E+02  0.13719583076E+02  0.40777997050E+02  0.45045681813E+02  0.00000000000E+00 0.  1.
         11    1    3    3    0    0 -0.33671040396E+01 -0.19697164387E+01 -0.95259361743E+01  0.10293718119E+02  0.51100000000E-03 0. -1.
        -11    1    3    3    0    0 -0.79365995702E+01 -0.53072726552E+01 -0.11356352054E+02  0.14836559170E+02  0.51100000000E-03 0.  1.
         12    1    3    3    0    0 -0.20395136480E+01 -0.64425939824E+01 -0.19895708822E+02  0.21012040897E+02  0.00000000000E+00 0. -1.
</event>
<event>
 7    1  0.3986981E-008  0.4614232E+02  0.7816164E-02  0.1320468E+00
        -11   -1    0    0    0    0  0.00000000000E+00  0.00000000000E+00  0.45593999997E+02  0.45594000000E+02  0.51100000000E-03 0.  1.
         11   -1    0    0    0    0 -0.00000000000E+00 -0.00000000000E+00 -0.45593999997E+02  0.45594000000E+02  0.51100000000E-03 0. -1.
    9900012    2    1    2    0    0 -0.36945059490E+02 -0.20071006469E+02 -0.16165730154E+02  0.46142317046E+02  0.99999934760E+01 0.  0.
        -12    1    1    2    0    0  0.36945059490E+02  0.20071006469E+02  0.16165730154E+02  0.45045682954E+02  0.00000000000E+00 0.  1.
         11    1    3    3    0    0 -0.22436148157E+02 -0.12915467241E+02 -0.84081192049E+01  0.27219230463E+02  0.51100000000E-03 0.  1.
        -11    1    3    3    0    0 -0.12892567969E+02 -0.72935439083E+01 -0.85654510240E+01  0.17110845773E+02  0.51100000000E-03 0. -1.
        -12    1    3    3    0    0 -0.16163433641E+01  0.13800468043E+00  0.80784007517E+00  0.18122408089E+01  0.00000000000E+00 0.  1.
</event>
<event>
 7    1  0.3986981E-008  0.4614230E+02  0.7816164E-02  0.1320468E+00
        -11   -1    0    0    0    0  0.00000000000E+00  0.00000000000E+00  0.45593999997E+02  0.45594000000E+02  0.51100000000E-03 0. -1.
         11   -1    0    0    0    0 -0.00000000000E+00 -0.00000000000E+00 -0.45593999997E+02  0.45594000000E+02  0.51100000000E-03 0.  1.
    9900012    2    1    2    0    0 -0.10373146028E+02  0.43065878508E+02 -0.81757436061E+01  0.46142302828E+02  0.99998638315E+01 0.  0.
        -12    1    1    2    0    0  0.10373146028E+02 -0.43065878508E+02  0.81757436061E+01  0.45045697172E+02  0.00000000000E+00 0.  1.
         11    1    3    3    0    0  0.17089412687E+00  0.39956031224E+01 -0.10768319905E+00  0.40007055686E+01  0.51100000000E-03 0. -1.
        -11    1    3    3    0    0 -0.11033039446E+02  0.25567000770E+02 -0.57048739185E+01  0.28424374654E+02  0.51100000000E-03 0.  1.
        -12    1    3    3    0    0  0.48899929056E+00  0.13503274616E+02 -0.23631864885E+01  0.13717222606E+02  0.00000000000E+00 0.  1.
</event>
<event>
 7    1  0.3986981E-008  0.4614232E+02  0.7816164E-02  0.1320468E+00
        -11   -1    0    0    0    0  0.00000000000E+00  0.00000000000E+00  0.45593999997E+02  0.45594000000E+02  0.51100000000E-03 0.  1.
         11   -1    0    0    0    0 -0.00000000000E+00 -0.00000000000E+00 -0.45593999997E+02  0.45594000000E+02  0.51100000000E-03 0. -1.
    9900012    2    1    2    0    0 -0.11957183386E+02  0.97055878536E+01 -0.42331321666E+02  0.46142318031E+02  0.10000002458E+02 0.  0.
        -12    1    1    2    0    0  0.11957183386E+02 -0.97055878536E+01  0.42331321666E+02  0.45045681969E+02  0.00000000000E+00 0.  1.
         11    1    3    3    0    0 -0.59267207529E+01  0.36229456852E+01 -0.20028362537E+02  0.21198751390E+02  0.51100000000E-03 0. -1.
        -11    1    3    3    0    0 -0.14707429911E+01 -0.15657098104E+01 -0.59107822263E+01  0.62890284579E+01  0.51100000000E-03 0.  1.
        -12    1    3    3    0    0 -0.45597196423E+01  0.76483519788E+01 -0.16392176902E+02  0.18654538183E+02  0.00000000000E+00 0.  1.
</event>
<event>
 7    1  0.3986981E-008  0.4614232E+02  0.7816164E-02  0.1320468E+00
        -11   -1    0    0    0    0  0.00000000000E+00  0.00000000000E+00  0.45593999997E+02  0.45594000000E+02  0.51100000000E-03 0. -1.
         11   -1    0    0    0    0 -0.00000000000E+00 -0.00000000000E+00 -0.45593999997E+02  0.45594000000E+02  0.51100000000E-03 0.  1.
    9900012    2    1    2    0    0  0.36460698780E+02 -0.26449550817E+02  0.39013189903E+00  0.46142317667E+02  0.99999991417E+01 0.  0.
        -12    1    1    2    0    0 -0.36460698780E+02  0.26449550817E+02 -0.39013189903E+00  0.45045682333E+02  0.00000000000E+00 0.  1.
         11    1    3    3    0    0  0.16339626276E+02 -0.78236950663E+01 -0.19492219880E+01  0.18220676660E+02  0.51100000000E-03 0. -1.
        -11    1    3    3    0    0  0.13069104032E+01 -0.32502758595E+01  0.66934849510E+00  0.35665579533E+01  0.51100000000E-03 0.  1.
         12    1    3    3    0    0  0.18814162101E+02 -0.15375579891E+02  0.16700053919E+01  0.24355083054E+02  0.00000000000E+00 0. -1.
</event>
<event>
 7    1  0.3986981E-008  0.4614232E+02  0.7816164E-02  0.1320468E+00
        -11   -1    0    0    0    0  0.00000000000E+00  0.00000000000E+00  0.45593999997E+02  0.45594000000E+02  0.51100000000E-03 0.  1.
         11   -1    0    0    0    0 -0.00000000000E+00 -0.00000000000E+00 -0.45593999997E+02  0.45594000000E+02  0.51100000000E-03 0. -1.
    9900012    2    1    2    0    0 -0.77066789834E+01 -0.44112012279E+02 -0.48837477026E+01  0.46142317412E+02  0.99999968145E+01 0.  0.
        -12    1    1    2    0    0  0.77066789834E+01  0.44112012279E+02  0.48837477026E+01  0.45045682588E+02  0.00000000000E+00 0.  1.
         11    1    3    3    0    0 -0.59034975735E+01 -0.34175781998E+02 -0.32151497145E+01  0.34830626562E+02  0.51100000000E-03 0. -1.
        -11    1    3    3    0    0 -0.24507812373E+01 -0.99546585172E+01 -0.87782939069E+00  0.10289418816E+02  0.51100000000E-03 0.  1.
         12    1    3    3    0    0  0.64759982737E+00  0.18428236564E-01 -0.79076859740E+00  0.10222720337E+01  0.00000000000E+00 0. -1.
</event>
<event>
 7    1  0.3986981E-008  0.4614232E+02  0.7816164E-02  0.1320468E+00
        -11   -1    0    0    0    0  0.00000000000E+00  0.00000000000E+00  0.45593999997E+02  0.45594000000E+02  0.51100000000E-03 0.  1.
         11   -1    0    0    0    0 -0.00000000000E+00 -0.00000000000E+00 -0.45593999997E+02  0.45594000000E+02  0.51100000000E-03 0. -1.
    9900012    2    1    2    0    0  0.42943453961E+02 -0.42421388170E+01  0.12921974515E+02  0.46142318684E+02  0.10000008419E+02 0.  0.
        -12    1    1    2    0    0 -0.42943453961E+02  0.42421388170E+01 -0.12921974515E+02  0.45045681316E+02  0.00000000000E+00 0.  1.
         11    1    3    3    0    0  0.11298175191E+02  0.70707303332E+00  0.28366700448E+01  0.11670279008E+02  0.51100000000E-03 0. -1.
        -11    1    3    3    0    0  0.11972069810E+02 -0.13801524592E+01 -0.59007532312E-01  0.12051504408E+02  0.51100000000E-03 0.  1.
        -12    1    3    3    0    0  0.19673208960E+02 -0.35690593911E+01  0.10144312003E+02  0.22420535268E+02  0.00000000000E+00 0.  1.
</event>
<event>
 7    1  0.3986981E-008  0.4614232E+02  0.7816164E-02  0.1320468E+00
        -11   -1    0    0    0    0  0.00000000000E+00  0.00000000000E+00  0.45593999997E+02  0.45594000000E+02  0.51100000000E-03 0. -1.
         11   -1    0    0    0    0 -0.00000000000E+00 -0.00000000000E+00 -0.45593999997E+02  0.45594000000E+02  0.51100000000E-03 0.  1.
    9900012    2    1    2    0    0 -0.17506591329E+02 -0.32855332963E+02  0.25360594861E+02  0.46142318567E+02  0.10000007347E+02 0.  0.
        -12    1    1    2    0    0  0.17506591329E+02  0.32855332963E+02 -0.25360594861E+02  0.45045681433E+02  0.00000000000E+00 0.  1.
         11    1    3    3    0    0 -0.56986488505E+01 -0.97745834324E+01  0.81708096440E+01  0.13956332272E+02  0.51100000000E-03 0. -1.
        -11    1    3    3    0    0 -0.66750775003E+01 -0.15731627498E+02  0.66194919221E+01  0.18326440924E+02  0.51100000000E-03 0.  1.
        -12    1    3    3    0    0 -0.51328649787E+01 -0.73491220324E+01  0.10570293295E+02  0.13859545370E+02  0.00000000000E+00 0.  1.
</event>
<event>
 7    1  0.3986981E-008  0.4614232E+02  0.7816164E-02  0.1320468E+00
        -11   -1    0    0    0    0  0.00000000000E+00  0.00000000000E+00  0.45593999997E+02  0.45594000000E+02  0.51100000000E-03 0.  1.
         11   -1    0    0    0    0 -0.00000000000E+00 -0.00000000000E+00 -0.45593999997E+02  0.45594000000E+02  0.51100000000E-03 0. -1.
    9900012    2    1    2    0    0  0.33980799772E+02  0.33722125452E+01 -0.29377660279E+02  0.46142317698E+02  0.99999994239E+01 0.  0.
        -12    1    1    2    0    0 -0.33980799772E+02 -0.33722125452E+01  0.29377660279E+02  0.45045682302E+02  0.00000000000E+00 0.  1.
         11    1    3    3    0    0  0.23321642151E+02  0.23814482015E+01 -0.18070608773E+02  0.29599276846E+02  0.51100000000E-03 0. -1.
        -11    1    3    3    0    0  0.10860894186E+02 -0.20480903136E+00 -0.10212453870E+02  0.14909566847E+02  0.51100000000E-03 0.  1.
        -12    1    3    3    0    0 -0.20173656540E+00  0.11955733750E+01 -0.10945976365E+01  0.16334740043E+01  0.00000000000E+00 0.  1.
</event>
<event>
 7    1  0.3986981E-008  0.4614232E+02  0.7816164E-02  0.1320468E+00
        -11   -1    0    0    0    0  0.00000000000E+00  0.00000000000E+00  0.45593999997E+02  0.45594000000E+02  0.51100000000E-03 0.  1.
         11   -1    0    0    0    0 -0.00000000000E+00 -0.00000000000E+00 -0.45593999997E+02  0.45594000000E+02  0.51100000000E-03 0. -1.
    9900012    2    1    2    0    0  0.40446763427E+02 -0.19184339310E+02 -0.50133806111E+01  0.46142317281E+02  0.99999956246E+01 0.  0.
        -12    1    1    2    0    0 -0.40446763427E+02  0.19184339310E+02  0.50133806111E+01  0.45045682719E+02  0.00000000000E+00 0.  1.
         11    1    3    3    0    0  0.91591575195E+01 -0.37936530272E+01 -0.39677749287E+01  0.10678258655E+02  0.51100000000E-03 0. -1.
        -11    1    3    3    0    0  0.53386310473E+01 -0.46962614834E+01 -0.19844899744E+01  0.73820088119E+01  0.51100000000E-03 0.  1.
        -12    1    3    3    0    0  0.25948974860E+02 -0.10694424799E+02  0.93888429191E+00  0.28082049814E+02  0.00000000000E+00 0.  1.
</event>
<event>
 7    1  0.3986981E-008  0.4614232E+02  0.7816164E-02  0.1320468E+00
        -11   -1    0    0    0    0  0.00000000000E+00  0.00000000000E+00  0.45593999997E+02  0.45594000000E+02  0.51100000000E-03 0. -1.
         11   -1    0    0    0    0 -0.00000000000E+00 -0.00000000000E+00 -0.45593999997E+02  0.45594000000E+02  0.51100000000E-03 0.  1.
    9900012    2    1    2    0    0 -0.16924067436E+02 -0.16193776829E+02  0.38476629405E+02  0.46142317888E+02  0.10000001159E+02 0.  0.
        -12    1    1    2    0    0  0.16924067436E+02  0.16193776829E+02 -0.38476629405E+02  0.45045682112E+02  0.00000000000E+00 0.  1.
         11    1    3    3    0    0 -0.65934935108E+01 -0.30035244048E+01  0.89877326090E+01  0.11544464181E+02  0.51100000000E-03 0. -1.
        -11    1    3    3    0    0 -0.10504540221E+02 -0.12232584076E+02  0.23312705031E+02  0.28345435162E+02  0.51100000000E-03 0.  1.
         12    1    3    3    0    0  0.17396629575E+00 -0.95766834860E+00  0.61761917648E+01  0.62524185443E+01  0.00000000000E+00 0. -1.
</event>
<event>
 7    1  0.3986981E-008  0.4614232E+02  0.7816164E-02  0.1320468E+00
        -11   -1    0    0    0    0  0.00000000000E+00  0.00000000000E+00  0.45593999997E+02  0.45594000000E+02  0.51100000000E-03 0. -1.
         11   -1    0    0    0    0 -0.00000000000E+00 -0.00000000000E+00 -0.45593999997E+02  0.45594000000E+02  0.51100000000E-03 0.  1.
    9900012    2    1    2    0    0  0.34965560568E+02 -0.11310695631E+02  0.26049786055E+02  0.46142316355E+02  0.99999871776E+01 0.  0.
        -12    1    1    2    0    0 -0.34965560568E+02  0.11310695631E+02 -0.26049786055E+02  0.45045683645E+02  0.00000000000E+00 0.  1.
         11    1    3    3    0    0  0.55947514117E+01 -0.44214789245E+00  0.16524340523E+01  0.58504082486E+01  0.51100000000E-03 0. -1.
        -11    1    3    3    0    0  0.10147387630E+02 -0.35174043509E+00  0.77444450743E+01  0.12769871840E+02  0.51100000000E-03 0.  1.
         12    1    3    3    0    0  0.19223421527E+02 -0.10516807304E+02  0.16652906929E+02  0.27522036266E+02  0.00000000000E+00 0. -1.
</event>
<event>
 7    1  0.3986981E-008  0.4614232E+02  0.7816164E-02  0.1320468E+00
        -11   -1    0    0    0    0  0.00000000000E+00  0.00000000000E+00  0.45593999997E+02  0.45594000000E+02  0.51100000000E-03 0.  1.
         11   -1    0    0    0    0 -0.00000000000E+00 -0.00000000000E+00 -0.45593999997E+02  0.45594000000E+02  0.51100000000E-03 0. -1.
    9900012    2    1    2    0    0  0.10204362718E+02 -0.15613925675E+02 -0.41002315210E+02  0.46142317121E+02  0.99999941635E+01 0.  0.
        -12    1    1    2    0    0 -0.10204362718E+02  0.15613925675E+02  0.41002315210E+02  0.45045682879E+02  0.00000000000E+00 0.  1.
         11    1    3    3    0    0  0.65127110574E+01 -0.34512806073E+01 -0.10672335463E+02  0.12970176855E+02  0.51100000000E-03 0. -1.
        -11    1    3    3    0    0  0.11850443906E+01 -0.18767260854E+00 -0.27433447455E+01  0.29942431213E+01  0.51100000000E-03 0.  1.
         12    1    3    3    0    0  0.25066072704E+01 -0.11974972460E+02 -0.27586635001E+02  0.30177897145E+02  0.00000000000E+00 0. -1.
</event>
<event>
 7    1  0.3986981E-008  0.4614232E+02  0.7816164E-02  0.1320468E+00
        -11   -1    0    0    0    0  0.00000000000E+00  0.00000000000E+00  0.45593999997E+02  0.45594000000E+02  0.51100000000E-03 0.  1.
         11   -1    0    0    0    0 -0.00000000000E+00 -0.00000000000E+00 -0.45593999997E+02  0.45594000000E+02  0.51100000000E-03 0. -1.
    9900012    2    1    2    0    0  0.32758367754E+02  0.12518935782E+02 -0.28271524177E+02  0.46142317740E+02  0.99999998056E+01 0.  0.
        -12    1    1    2    0    0 -0.32758367754E+02 -0.12518935782E+02  0.28271524177E+02  0.45045682260E+02  0.00000000000E+00 0.  1.
         11    1    3    3    0    0  0.22286321141E+02  0.10016268110E+02 -0.16250760949E+02  0.29344385639E+02  0.51100000000E-03 0. -1.
        -11    1    3    3    0    0  0.92972492507E+00  0.16553024869E+01 -0.84478188493E+00  0.20779969812E+01  0.51100000000E-03 0.  1.
        -12    1    3    3    0    0  0.95423216872E+01  0.84736518588E+00 -0.11175981343E+02  0.14719935120E+02  0.00000000000E+00 0.  1.
</event>
<event>
 7    1  0.3986981E-008  0.4614232E+02  0.7816164E-02  0.1320468E+00
        -11   -1    0    0    0    0  0.00000000000E+00  0.00000000000E+00  0.45593999997E+02  0.45594000000E+02  0.51100000000E-03 0.  1.
         11   -1    0    0    0    0 -0.00000000000E+00 -0.00000000000E+00 -0.45593999997E+02  0.45594000000E+02  0.51100000000E-03 0. -1.
    9900012    2    1    2    0    0 -0.25390643528E+02  0.26634479415E+01 -0.37112460654E+02  0.46142317971E+02  0.10000001913E+02 0.  0.
        -12    1    1    2    0    0  0.25390643528E+02 -0.26634479415E+01  0.37112460654E+02  0.45045682029E+02  0.00000000000E+00 0.  1.
         11    1    3    3    0    0 -0.62052233464E+01  0.22680008331E+01 -0.10623543993E+02  0.12510328205E+02  0.51100000000E-03 0. -1.
        -11    1    3    3    0    0 -0.15274167408E+02  0.13120805038E+01 -0.25042374439E+02  0.29362259161E+02  0.51100000000E-03 0.  1.
        -12    1    3    3    0    0 -0.39112527736E+01 -0.91663339550E+00 -0.14465422221E+01  0.42697306053E+01  0.00000000000E+00 0.  1.
</event>
<event>
 7    1  0.3986981E-008  0.4614232E+02  0.7816164E-02  0.1320468E+00
        -11   -1    0    0    0    0  0.00000000000E+00  0.00000000000E+00  0.45593999997E+02  0.45594000000E+02  0.51100000000E-03 0. -1.
         11   -1    0    0    0    0 -0.00000000000E+00 -0.00000000000E+00 -0.45593999997E+02  0.45594000000E+02  0.51100000000E-03 0.  1.
    9900012    2    1    2    0    0 -0.97517917604E+01  0.43967626589E+02 -0.92948248283E+00  0.46142316876E+02  0.99999919317E+01 0.  0.
        -12    1    1    2    0    0  0.97517917604E+01 -0.43967626589E+02  0.92948248283E+00  0.45045683124E+02  0.00000000000E+00 0.  1.
         11    1    3    3    0    0 -0.17608066253E+01  0.94016499771E+01 -0.23598695479E+01  0.98519260456E+01  0.51100000000E-03 0. -1.
        -11    1    3    3    0    0 -0.46172561202E+01  0.88718249410E+01  0.26515639783E+01  0.10346937888E+02  0.51100000000E-03 0.  1.
        -12    1    3    3    0    0 -0.33737290149E+01  0.25694151671E+02 -0.12211769133E+01  0.25943452943E+02  0.00000000000E+00 0.  1.
</event>
<event>
 7    1  0.3986981E-008  0.4614232E+02  0.7816164E-02  0.1320468E+00
        -11   -1    0    0    0    0  0.00000000000E+00  0.00000000000E+00  0.45593999997E+02  0.45594000000E+02  0.51100000000E-03 0.  1.
         11   -1    0    0    0    0 -0.00000000000E+00 -0.00000000000E+00 -0.45593999997E+02  0.45594000000E+02  0.51100000000E-03 0. -1.
    9900012    2    1    2    0    0  0.41219327447E+02 -0.81736393235E+01 -0.16225658492E+02  0.46142319536E+02  0.10000016183E+02 0.  0.
        -12    1    1    2    0    0 -0.41219327447E+02  0.81736393235E+01  0.16225658492E+02  0.45045680464E+02  0.00000000000E+00 0.  1.
         11    1    3    3    0    0  0.63970619088E+01 -0.37222180119E+01 -0.41844664225E+01  0.85021801613E+01  0.51100000000E-03 0.  1.
        -11    1    3    3    0    0  0.17285381586E+01 -0.15559772291E+01 -0.63296826273E-01  0.23265674400E+01  0.51100000000E-03 0. -1.
         12    1    3    3    0    0  0.33093727380E+02 -0.28954440825E+01 -0.11977895243E+02  0.35313571935E+02  0.00000000000E+00 0. -1.
</event>
<event>
 7    1  0.3986981E-008  0.4614232E+02  0.7816164E-02  0.1320468E+00
        -11   -1    0    0    0    0  0.00000000000E+00  0.00000000000E+00  0.45593999997E+02  0.45594000000E+02  0.51100000000E-03 0.  1.
         11   -1    0    0    0    0 -0.00000000000E+00 -0.00000000000E+00 -0.45593999997E+02  0.45594000000E+02  0.51100000000E-03 0. -1.
    9900012    2    1    2    0    0 -0.43237772693E+02  0.47485780082E+01 -0.11707243320E+02  0.46142317336E+02  0.99999961191E+01 0.  0.
        -12    1    1    2    0    0  0.43237772693E+02 -0.47485780082E+01  0.11707243320E+02  0.45045682664E+02  0.00000000000E+00 0.  1.
         11    1    3    3    0    0 -0.19597548631E+02  0.17242476691E+01 -0.43120526901E+01  0.20140276588E+02  0.51100000000E-03 0. -1.
        -11    1    3    3    0    0 -0.41728037899E+00  0.32735109055E+00  0.10240585695E+01  0.11532466632E+01  0.51100000000E-03 0.  1.
         12    1    3    3    0    0 -0.23222943683E+02  0.26969792485E+01 -0.84192491996E+01  0.24848794085E+02  0.00000000000E+00 0. -1.
</event>
<event>
 7    1  0.3986981E-008  0.4614231E+02  0.7816164E-02  0.1320468E+00
        -11   -1    0    0    0    0  0.00000000000E+00  0.00000000000E+00  0.45593999997E+02  0.45594000000E+02  0.51100000000E-03 0.  1.
         11   -1    0    0    0    0 -0.00000000000E+00 -0.00000000000E+00 -0.45593999997E+02  0.45594000000E+02  0.51100000000E-03 0. -1.
    9900012    2    1    2    0    0 -0.33899234839E+02 -0.27630795815E+01  0.29535081980E+02  0.46142314313E+02  0.99999685536E+01 0.  0.
        -12    1    1    2    0    0  0.33899234839E+02  0.27630795815E+01 -0.29535081980E+02  0.45045685687E+02  0.00000000000E+00 0.  1.
         11    1    3    3    0    0 -0.39413906730E+01  0.11964875498E+01  0.48087378183E+01  0.63316745463E+01  0.51100000000E-03 0.  1.
        -11    1    3    3    0    0 -0.27980986055E+02 -0.33245374047E+01  0.19725800440E+02  0.34396152878E+02  0.51100000000E-03 0. -1.
         12    1    3    3    0    0 -0.19768581116E+01 -0.63502972666E+00  0.50005437219E+01  0.54144868881E+01  0.00000000000E+00 0. -1.
</event>
<event>
 7    1  0.3986981E-008  0.4614232E+02  0.7816164E-02  0.1320468E+00
        -11   -1    0    0    0    0  0.00000000000E+00  0.00000000000E+00  0.45593999997E+02  0.45594000000E+02  0.51100000000E-03 0.  1.
         11   -1    0    0    0    0 -0.00000000000E+00 -0.00000000000E+00 -0.45593999997E+02  0.45594000000E+02  0.51100000000E-03 0. -1.
    9900012    2    1    2    0    0  0.23045945617E+02 -0.15072803117E+02 -0.35648400905E+02  0.46142317740E+02  0.99999998048E+01 0.  0.
        -12    1    1    2    0    0 -0.23045945617E+02  0.15072803117E+02  0.35648400905E+02  0.45045682260E+02  0.00000000000E+00 0.  1.
         11    1    3    3    0    0  0.43635467569E+01 -0.64962654065E+01 -0.90893806576E+01  0.11994117122E+02  0.51100000000E-03 0. -1.
        -11    1    3    3    0    0  0.23376595121E+01 -0.28896327842E+01 -0.77127969809E+01  0.85616509595E+01  0.51100000000E-03 0.  1.
        -12    1    3    3    0    0  0.16344739348E+02 -0.56869049258E+01 -0.18846223267E+02  0.25586549658E+02  0.00000000000E+00 0.  1.
</event>
<event>
 7    1  0.3986981E-008  0.4614232E+02  0.7816164E-02  0.1320468E+00
        -11   -1    0    0    0    0  0.00000000000E+00  0.00000000000E+00  0.45593999997E+02  0.45594000000E+02  0.51100000000E-03 0.  1.
         11   -1    0    0    0    0 -0.00000000000E+00 -0.00000000000E+00 -0.45593999997E+02  0.45594000000E+02  0.51100000000E-03 0. -1.
    9900012    2    1    2    0    0 -0.43150673712E+02 -0.71380852974E+01  0.10778706480E+02  0.46142318554E+02  0.10000007233E+02 0.  0.
        -12    1    1    2    0    0  0.43150673712E+02  0.71380852974E+01 -0.10778706480E+02  0.45045681446E+02  0.00000000000E+00 0.  1.
         11    1    3    3    0    0 -0.82644707630E+01 -0.77133402092E-01 -0.98849988918E-01  0.82654218365E+01  0.51100000000E-03 0. -1.
        -11    1    3    3    0    0 -0.17313173589E+02 -0.45454805832E+01  0.19485896735E+01  0.18005676200E+02  0.51100000000E-03 0.  1.
        -12    1    3    3    0    0 -0.17573029360E+02 -0.25154713121E+01  0.89289667959E+01  0.19871220518E+02  0.00000000000E+00 0.  1.
</event>
<event>
 7    1  0.3986981E-008  0.4614232E+02  0.7816164E-02  0.1320468E+00
        -11   -1    0    0    0    0  0.00000000000E+00  0.00000000000E+00  0.45593999997E+02  0.45594000000E+02  0.51100000000E-03 0. -1.
         11   -1    0    0    0    0 -0.00000000000E+00 -0.00000000000E+00 -0.45593999997E+02  0.45594000000E+02  0.51100000000E-03 0.  1.
    9900012    2    1    2    0    0 -0.37756041624E+02  0.24563187357E+02 -0.49468314294E+00  0.46142316925E+02  0.99999923771E+01 0.  0.
        -12    1    1    2    0    0  0.37756041624E+02 -0.24563187357E+02  0.49468314294E+00  0.45045683075E+02  0.00000000000E+00 0.  1.
         11    1    3    3    0    0 -0.74024606403E+01  0.32998553888E+01  0.22863932657E+01  0.84209894636E+01  0.51100000000E-03 0. -1.
        -11    1    3    3    0    0 -0.15496043703E+02  0.76211080624E+01 -0.31173515163E+01  0.17547835744E+02  0.51100000000E-03 0.  1.
        -12    1    3    3    0    0 -0.14857537281E+02  0.13642223906E+02  0.33627510761E+00  0.20173491718E+02  0.00000000000E+00 0.  1.
</event>
<event>
 7    1  0.3986981E-008  0.4614232E+02  0.7816164E-02  0.1320468E+00
        -11   -1    0    0    0    0  0.00000000000E+00  0.00000000000E+00  0.45593999997E+02  0.45594000000E+02  0.51100000000E-03 0.  1.
         11   -1    0    0    0    0 -0.00000000000E+00 -0.00000000000E+00 -0.45593999997E+02  0.45594000000E+02  0.51100000000E-03 0. -1.
    9900012    2    1    2    0    0  0.51091915889E+01  0.19414252363E+02 -0.40324886552E+02  0.46142317533E+02  0.99999979156E+01 0.  0.
        -12    1    1    2    0    0 -0.51091915889E+01 -0.19414252363E+02  0.40324886552E+02  0.45045682467E+02  0.00000000000E+00 0.  1.
         11    1    3    3    0    0 -0.33947400531E+00  0.41524997568E+01 -0.98028804865E+01  0.10651523972E+02  0.51100000000E-03 0. -1.
        -11    1    3    3    0    0  0.62424628441E+01  0.65574737480E+01 -0.18824474300E+02  0.20888504907E+02  0.51100000000E-03 0.  1.
        -12    1    3    3    0    0 -0.79379724987E+00  0.87042788577E+01 -0.11697531766E+02  0.14602288653E+02  0.00000000000E+00 0.  1.
</event>
<event>
 7    1  0.3986981E-008  0.4614232E+02  0.7816164E-02  0.1320468E+00
        -11   -1    0    0    0    0  0.00000000000E+00  0.00000000000E+00  0.45593999997E+02  0.45594000000E+02  0.51100000000E-03 0. -1.
         11   -1    0    0    0    0 -0.00000000000E+00 -0.00000000000E+00 -0.45593999997E+02  0.45594000000E+02  0.51100000000E-03 0.  1.
    9900012    2    1    2    0    0  0.15922775251E+02 -0.33702381150E+02 -0.25292848508E+02  0.46142318159E+02  0.10000003626E+02 0.  0.
        -12    1    1    2    0    0 -0.15922775251E+02  0.33702381150E+02  0.25292848508E+02  0.45045681841E+02  0.00000000000E+00 0.  1.
         11    1    3    3    0    0  0.62612131185E+01 -0.84869218796E+01 -0.37242276357E+01  0.11184833680E+02  0.51100000000E-03 0. -1.
        -11    1    3    3    0    0  0.35804442985E+01 -0.67626802065E+01 -0.90196246835E+01  0.11828231256E+02  0.51100000000E-03 0.  1.
        -12    1    3    3    0    0  0.60811178343E+01 -0.18452779064E+02 -0.12548996189E+02  0.23129253223E+02  0.00000000000E+00 0.  1.
</event>
<event>
 7    1  0.3986981E-008  0.4614232E+02  0.7816164E-02  0.1320468E+00
        -11   -1    0    0    0    0  0.00000000000E+00  0.00000000000E+00  0.45593999997E+02  0.45594000000E+02  0.51100000000E-03 0.  1.
         11   -1    0    0    0    0 -0.00000000000E+00 -0.00000000000E+00 -0.45593999997E+02  0.45594000000E+02  0.51100000000E-03 0. -1.
    9900012    2    1    2    0    0  0.43313415220E+02 -0.17953364197E+01  0.12240845342E+02  0.46142318014E+02  0.10000002308E+02 0.  0.
        -12    1    1    2    0    0 -0.43313415220E+02  0.17953364197E+01 -0.12240845342E+02  0.45045681986E+02  0.00000000000E+00 0.  1.
         11    1    3    3    0    0  0.34967118159E+02  0.39663197747E-01  0.92432693724E+01  0.36168203639E+02  0.51100000000E-03 0. -1.
        -11    1    3    3    0    0  0.35598357009E+01 -0.98601870198E+00  0.34979359323E+01  0.50872604755E+01  0.51100000000E-03 0.  1.
         12    1    3    3    0    0  0.47864613605E+01 -0.84898091546E+00 -0.50035996260E+00  0.48868539002E+01  0.00000000000E+00 0. -1.
</event>
<event>
 7    1  0.3986981E-008  0.4614232E+02  0.7816164E-02  0.1320468E+00
        -11   -1    0    0    0    0  0.00000000000E+00  0.00000000000E+00  0.45593999997E+02  0.45594000000E+02  0.51100000000E-03 0.  1.
         11   -1    0    0    0    0 -0.00000000000E+00 -0.00000000000E+00 -0.45593999997E+02  0.45594000000E+02  0.51100000000E-03 0. -1.
    9900012    2    1    2    0    0  0.44916516597E+02  0.18236949869E+01  0.28799962983E+01  0.46142315354E+02  0.99999780456E+01 0.  0.
        -12    1    1    2    0    0 -0.44916516597E+02 -0.18236949869E+01 -0.28799962983E+01  0.45045684646E+02  0.00000000000E+00 0.  1.
         11    1    3    3    0    0  0.73050787623E+01 -0.28039511986E+01  0.14566568732E+00  0.78260805516E+01  0.51100000000E-03 0. -1.
        -11    1    3    3    0    0  0.19754884003E+02  0.49246606950E+01  0.14228140309E+01  0.20409118672E+02  0.51100000000E-03 0.  1.
        -12    1    3    3    0    0  0.17856553831E+02 -0.29701450951E+00  0.13115165801E+01  0.17907116130E+02  0.00000000000E+00 0.  1.
</event>
<event>
 7    1  0.3986981E-008  0.4614232E+02  0.7816164E-02  0.1320468E+00
        -11   -1    0    0    0    0  0.00000000000E+00  0.00000000000E+00  0.45593999997E+02  0.45594000000E+02  0.51100000000E-03 0.  1.
         11   -1    0    0    0    0 -0.00000000000E+00 -0.00000000000E+00 -0.45593999997E+02  0.45594000000E+02  0.51100000000E-03 0. -1.
    9900012    2    1    2    0    0  0.12089990565E+02 -0.30162391389E+02  0.31195763987E+02  0.46142318554E+02  0.10000007234E+02 0.  0.
        -12    1    1    2    0    0 -0.12089990565E+02  0.30162391389E+02 -0.31195763987E+02  0.45045681446E+02  0.00000000000E+00 0.  1.
         11    1    3    3    0    0  0.72625228121E+01 -0.10979791267E+02  0.85491982181E+01  0.15696778150E+02  0.51100000000E-03 0. -1.
        -11    1    3    3    0    0  0.18341460348E+01 -0.33257799438E+01  0.70250958039E+01  0.79860425260E+01  0.51100000000E-03 0.  1.
         12    1    3    3    0    0  0.29933217180E+01 -0.15856820178E+02  0.15621469965E+02  0.22459497878E+02  0.00000000000E+00 0. -1.
</event>
<event>
 7    1  0.3986981E-008  0.4614232E+02  0.7816164E-02  0.1320468E+00
        -11   -1    0    0    0    0  0.00000000000E+00  0.00000000000E+00  0.45593999997E+02  0.45594000000E+02  0.51100000000E-03 0.  1.
         11   -1    0    0    0    0 -0.00000000000E+00 -0.00000000000E+00 -0.45593999997E+02  0.45594000000E+02  0.51100000000E-03 0. -1.
    9900012    2    1    2    0    0  0.31114138715E+02 -0.10184352560E+02 -0.30940310963E+02  0.46142317548E+02  0.99999980609E+01 0.  0.
        -12    1    1    2    0    0 -0.31114138715E+02  0.10184352560E+02  0.30940310963E+02  0.45045682452E+02  0.00000000000E+00 0.  1.
         11    1    3    3    0    0  0.17915878797E+02 -0.36371135942E+01 -0.18892336911E+02  0.26289307762E+02  0.51100000000E-03 0. -1.
        -11    1    3    3    0    0  0.10944757454E+02 -0.39971315968E+01 -0.11563036154E+02  0.16415498229E+02  0.51100000000E-03 0.  1.
        -12    1    3    3    0    0  0.22535024634E+01 -0.25501073692E+01 -0.48493789807E+00  0.34375115581E+01  0.00000000000E+00 0.  1.
</event>
<event>
 7    1  0.3986981E-008  0.4614232E+02  0.7816164E-02  0.1320468E+00
        -11   -1    0    0    0    0  0.00000000000E+00  0.00000000000E+00  0.45593999997E+02  0.45594000000E+02  0.51100000000E-03 0.  1.
         11   -1    0    0    0    0 -0.00000000000E+00 -0.00000000000E+00 -0.45593999997E+02  0.45594000000E+02  0.51100000000E-03 0. -1.
    9900012    2    1    2    0    0  0.63751815957E+01 -0.12104091093E+02 -0.42918079196E+02  0.46142317816E+02  0.10000000497E+02 0.  0.
        -12    1    1    2    0    0 -0.63751815957E+01  0.12104091093E+02  0.42918079196E+02  0.45045682184E+02  0.00000000000E+00 0.  1.
         11    1    3    3    0    0  0.61412927600E+01 -0.46183245052E+01 -0.21557826698E+02  0.22886334137E+02  0.51100000000E-03 0. -1.
        -11    1    3    3    0    0  0.25732404671E+01 -0.21431129034E+01 -0.71493252470E+01  0.78947673282E+01  0.51100000000E-03 0.  1.
        -12    1    3    3    0    0 -0.23393516314E+01 -0.53426536843E+01 -0.14210927251E+02  0.15361216351E+02  0.00000000000E+00 0.  1.
</event>
<event>
 7    1  0.3986981E-008  0.4614232E+02  0.7816164E-02  0.1320468E+00
        -11   -1    0    0    0    0  0.00000000000E+00  0.00000000000E+00  0.45593999997E+02  0.45594000000E+02  0.51100000000E-03 0.  1.
         11   -1    0    0    0    0 -0.00000000000E+00 -0.00000000000E+00 -0.45593999997E+02  0.45594000000E+02  0.51100000000E-03 0. -1.
    9900012    2    1    2    0    0  0.44198313338E+02 -0.86342892429E+01 -0.10351711123E+01  0.46142318388E+02  0.10000005717E+02 0.  0.
        -12    1    1    2    0    0 -0.44198313338E+02  0.86342892429E+01  0.10351711123E+01  0.45045681612E+02  0.00000000000E+00 0.  1.
         11    1    3    3    0    0  0.96493782401E+01  0.39621256698E+00  0.22092669303E+00  0.96600359049E+01  0.51100000000E-03 0. -1.
        -11    1    3    3    0    0  0.27941883983E+00 -0.57697287705E+00  0.91679060306E+00  0.11186947125E+01  0.51100000000E-03 0.  1.
         12    1    3    3    0    0  0.34269516258E+02 -0.84535289329E+01 -0.21728884084E+01  0.35363587771E+02  0.00000000000E+00 0. -1.
</event>
<event>
 7    1  0.3986981E-008  0.4614232E+02  0.7816164E-02  0.1320468E+00
        -11   -1    0    0    0    0  0.00000000000E+00  0.00000000000E+00  0.45593999997E+02  0.45594000000E+02  0.51100000000E-03 0.  1.
         11   -1    0    0    0    0 -0.00000000000E+00 -0.00000000000E+00 -0.45593999997E+02  0.45594000000E+02  0.51100000000E-03 0. -1.
    9900012    2    1    2    0    0 -0.43266511981E+01  0.43512864124E+02 -0.10817774953E+02  0.46142317524E+02  0.99999978351E+01 0.  0.
        -12    1    1    2    0    0  0.43266511981E+01 -0.43512864124E+02  0.10817774953E+02  0.45045682476E+02  0.00000000000E+00 0.  1.
         11    1    3    3    0    0 -0.56359350885E+00  0.26820390347E+01 -0.11147320067E+01  0.29586481262E+01  0.51100000000E-03 0.  1.
        -11    1    3    3    0    0 -0.63729629590E+01  0.17901626103E+02 -0.43994627786E+01  0.19504823686E+02  0.51100000000E-03 0. -1.
        -12    1    3    3    0    0  0.26099052697E+01  0.22929198986E+02 -0.53035801675E+01  0.23678845712E+02  0.00000000000E+00 0.  1.
</event>
<event>
 7    1  0.3986981E-008  0.4614232E+02  0.7816164E-02  0.1320468E+00
        -11   -1    0    0    0    0  0.00000000000E+00  0.00000000000E+00  0.45593999997E+02  0.45594000000E+02  0.51100000000E-03 0. -1.
         11   -1    0    0    0    0 -0.00000000000E+00 -0.00000000000E+00 -0.45593999997E+02  0.45594000000E+02  0.51100000000E-03 0.  1.
    9900012    2    1    2    0    0  0.15224021826E+02  0.13156167538E+02  0.40302083118E+02  0.46142317760E+02  0.99999999884E+01 0.  0.
        -12    1    1    2    0    0 -0.15224021826E+02 -0.13156167538E+02 -0.40302083118E+02  0.45045682240E+02  0.00000000000E+00 0.  1.
         11    1    3    3    0    0  0.49722165288E+01  0.49664546938E+01  0.13007165721E+02  0.14784281173E+02  0.51100000000E-03 0. -1.
        -11    1    3    3    0    0  0.35050736050E+00  0.27694750422E+01  0.12165964439E+02  0.12482128761E+02  0.51100000000E-03 0.  1.
         12    1    3    3    0    0  0.99012979364E+01  0.54202378018E+01  0.15128952958E+02  0.18875907826E+02  0.00000000000E+00 0. -1.
</event>
<event>
 7    1  0.3986981E-008  0.4614232E+02  0.7816164E-02  0.1320468E+00
        -11   -1    0    0    0    0  0.00000000000E+00  0.00000000000E+00  0.45593999997E+02  0.45594000000E+02  0.51100000000E-03 0.  1.
         11   -1    0    0    0    0 -0.00000000000E+00 -0.00000000000E+00 -0.45593999997E+02  0.45594000000E+02  0.51100000000E-03 0. -1.
    9900012    2    1    2    0    0  0.10049287390E+02 -0.27484122518E+02 -0.34245413581E+02  0.46142317421E+02  0.99999969025E+01 0.  0.
        -12    1    1    2    0    0 -0.10049287390E+02  0.27484122518E+02  0.34245413581E+02  0.45045682579E+02  0.00000000000E+00 0.  1.
         11    1    3    3    0    0  0.13936904486E+01 -0.29338726815E+01 -0.14297269007E+01  0.35488168802E+01  0.51100000000E-03 0. -1.
        -11    1    3    3    0    0 -0.99334862060E+00 -0.72322163944E+01 -0.79720452479E+01  0.10809495879E+02  0.51100000000E-03 0.  1.
         12    1    3    3    0    0  0.96489455617E+01 -0.17318033443E+02 -0.24843641432E+02  0.31784004662E+02  0.00000000000E+00 0. -1.
</event>
<event>
 7    1  0.3986981E-008  0.4614233E+02  0.7816164E-02  0.1320468E+00
        -11   -1    0    0    0    0  0.00000000000E+00  0.00000000000E+00  0.45593999997E+02  0.45594000000E+02  0.51100000000E-03 0.  1.
         11   -1    0    0    0    0 -0.00000000000E+00 -0.00000000000E+00 -0.45593999997E+02  0.45594000000E+02  0.51100000000E-03 0. -1.
    9900012    2    1    2    0    0  0.41820363842E+01 -0.37788952395E+02 -0.24158194128E+02  0.46142326568E+02  0.10000080305E+02 0.  0.
        -12    1    1    2    0    0 -0.41820363842E+01  0.37788952395E+02  0.24158194128E+02  0.45045673432E+02  0.00000000000E+00 0.  1.
         11    1    3    3    0    0  0.18536905743E+01 -0.26809064272E+02 -0.15876759597E+02  0.31212715220E+02  0.51100000000E-03 0. -1.
        -11    1    3    3    0    0 -0.12159572842E+01 -0.89274330924E+00 -0.18822357978E+00  0.15201878536E+01  0.51100000000E-03 0.  1.
         12    1    3    3    0    0  0.35443030941E+01 -0.10087144814E+02 -0.80932109516E+01  0.13409423494E+02  0.00000000000E+00 0. -1.
</event>
<event>
 7    1  0.3986981E-008  0.4614232E+02  0.7816164E-02  0.1320468E+00
        -11   -1    0    0    0    0  0.00000000000E+00  0.00000000000E+00  0.45593999997E+02  0.45594000000E+02  0.51100000000E-03 0. -1.
         11   -1    0    0    0    0 -0.00000000000E+00 -0.00000000000E+00 -0.45593999997E+02  0.45594000000E+02  0.51100000000E-03 0.  1.
    9900012    2    1    2    0    0 -0.21747583419E+02  0.35705279717E+02  0.16771672770E+02  0.46142318834E+02  0.10000009787E+02 0.  0.
        -12    1    1    2    0    0  0.21747583419E+02 -0.35705279717E+02 -0.16771672770E+02  0.45045681166E+02  0.00000000000E+00 0.  1.
         11    1    3    3    0    0 -0.73150438828E+01  0.63193557868E+01  0.16600846318E+01  0.98081601645E+01  0.51100000000E-03 0.  1.
        -11    1    3    3    0    0 -0.13245426957E+02  0.25189919914E+02  0.14467353726E+02  0.31926129183E+02  0.51100000000E-03 0. -1.
         12    1    3    3    0    0 -0.11871125791E+01  0.41960040158E+01  0.64423441157E+00  0.44080294864E+01  0.00000000000E+00 0. -1.
</event>
<event>
 7    1  0.3986981E-008  0.4614232E+02  0.7816164E-02  0.1320468E+00
        -11   -1    0    0    0    0  0.00000000000E+00  0.00000000000E+00  0.45593999997E+02  0.45594000000E+02  0.51100000000E-03 0. -1.
         11   -1    0    0    0    0 -0.00000000000E+00 -0.00000000000E+00 -0.45593999997E+02  0.45594000000E+02  0.51100000000E-03 0.  1.
    9900012    2    1    2    0    0 -0.17495829899E+01  0.31978662897E+02  0.31676766593E+02  0.46142318042E+02  0.10000002562E+02 0.  0.
        -12    1    1    2    0    0  0.17495829899E+01 -0.31978662897E+02 -0.31676766593E+02  0.45045681958E+02  0.00000000000E+00 0.  1.
         11    1    3    3    0    0  0.27967442871E+01  0.53829773932E+01  0.66062031065E+01  0.89688429560E+01  0.51100000000E-03 0. -1.
        -11    1    3    3    0    0 -0.12770280343E+01  0.97695171235E+00  0.12147995329E+01  0.20151857024E+01  0.51100000000E-03 0.  1.
        -12    1    3    3    0    0 -0.32692992426E+01  0.25618733791E+02  0.23855763953E+02  0.35158289384E+02  0.00000000000E+00 0.  1.
</event>
<event>
 7    1  0.3986981E-008  0.4614232E+02  0.7816164E-02  0.1320468E+00
        -11   -1    0    0    0    0  0.00000000000E+00  0.00000000000E+00  0.45593999997E+02  0.45594000000E+02  0.51100000000E-03 0.  1.
         11   -1    0    0    0    0 -0.00000000000E+00 -0.00000000000E+00 -0.45593999997E+02  0.45594000000E+02  0.51100000000E-03 0. -1.
    9900012    2    1    2    0    0 -0.16192181798E+02  0.25783919818E+02 -0.33198135869E+02  0.46142317657E+02  0.99999990498E+01 0.  0.
        -12    1    1    2    0    0  0.16192181798E+02 -0.25783919818E+02  0.33198135869E+02  0.45045682343E+02  0.00000000000E+00 0.  1.
         11    1    3    3    0    0 -0.41175967300E+01  0.44700804757E+01 -0.61781209383E+01  0.86663372240E+01  0.51100000000E-03 0. -1.
        -11    1    3    3    0    0 -0.12198872536E+02  0.16007240114E+02 -0.24167016665E+02  0.31449784132E+02  0.51100000000E-03 0.  1.
         12    1    3    3    0    0  0.12428746841E+00  0.53065992290E+01 -0.28529982661E+01  0.60261963010E+01  0.00000000000E+00 0. -1.
</event>
<event>
 7    1  0.3986981E-008  0.4614232E+02  0.7816164E-02  0.1320468E+00
        -11   -1    0    0    0    0  0.00000000000E+00  0.00000000000E+00  0.45593999997E+02  0.45594000000E+02  0.51100000000E-03 0. -1.
         11   -1    0    0    0    0 -0.00000000000E+00 -0.00000000000E+00 -0.45593999997E+02  0.45594000000E+02  0.51100000000E-03 0.  1.
    9900012    2    1    2    0    0  0.41842545658E+02 -0.16677026940E+02 -0.43794458256E+00  0.46142315965E+02  0.99999836237E+01 0.  0.
        -12    1    1    2    0    0 -0.41842545658E+02  0.16677026940E+02  0.43794458256E+00  0.45045684035E+02  0.00000000000E+00 0.  1.
         11    1    3    3    0    0  0.56435422570E+01 -0.33880679778E+01 -0.10571986874E+01  0.66668015685E+01  0.51100000000E-03 0. -1.
        -11    1    3    3    0    0  0.20233648465E+02 -0.36427304228E+01 -0.19281612746E+01  0.20649160305E+02  0.51100000000E-03 0.  1.
         12    1    3    3    0    0  0.15965354936E+02 -0.96462285397E+01  0.25474153795E+01  0.18826354092E+02  0.00000000000E+00 0. -1.
</event>
<event>
 7    1  0.3986981E-008  0.4614232E+02  0.7816164E-02  0.1320468E+00
        -11   -1    0    0    0    0  0.00000000000E+00  0.00000000000E+00  0.45593999997E+02  0.45594000000E+02  0.51100000000E-03 0.  1.
         11   -1    0    0    0    0 -0.00000000000E+00 -0.00000000000E+00 -0.45593999997E+02  0.45594000000E+02  0.51100000000E-03 0. -1.
    9900012    2    1    2    0    0 -0.20243965971E+02  0.76785589327E+01 -0.39501076928E+02  0.46142317588E+02  0.99999984197E+01 0.  0.
        -12    1    1    2    0    0  0.20243965971E+02 -0.76785589327E+01  0.39501076928E+02  0.45045682412E+02  0.00000000000E+00 0.  1.
         11    1    3    3    0    0 -0.18044173470E+02  0.81852763126E+01 -0.38218534714E+02  0.43049359351E+02  0.51100000000E-03 0. -1.
        -11    1    3    3    0    0 -0.18164566188E+01 -0.66746332110E+00 -0.16461939481E+01  0.25406646195E+01  0.51100000000E-03 0.  1.
         12    1    3    3    0    0 -0.38333588186E+00  0.16074594124E+00  0.36365173455E+00  0.55229361755E+00  0.00000000000E+00 0. -1.
</event>
<event>
 7    1  0.3986981E-008  0.4614232E+02  0.7816164E-02  0.1320468E+00
        -11   -1    0    0    0    0  0.00000000000E+00  0.00000000000E+00  0.45593999997E+02  0.45594000000E+02  0.51100000000E-03 0.  1.
         11   -1    0    0    0    0 -0.00000000000E+00 -0.00000000000E+00 -0.45593999997E+02  0.45594000000E+02  0.51100000000E-03 0. -1.
    9900012    2    1    2    0    0 -0.14668313967E+01 -0.45198007526E+01 -0.44794344670E+02  0.46142317548E+02  0.99999980544E+01 0.  0.
        -12    1    1    2    0    0  0.14668313967E+01  0.45198007526E+01  0.44794344670E+02  0.45045682452E+02  0.00000000000E+00 0.  1.
         11    1    3    3    0    0  0.11074857704E+01 -0.94253621776E+00 -0.29326151071E+01  0.32733974524E+01  0.51100000000E-03 0. -1.
        -11    1    3    3    0    0 -0.39722344624E+00  0.22259498375E+01 -0.49704803017E+01  0.54606147855E+01  0.51100000000E-03 0.  1.
         12    1    3    3    0    0 -0.21770937208E+01 -0.58032143723E+01 -0.36891249261E+02  0.37408305310E+02  0.00000000000E+00 0. -1.
</event>
<event>
 7    1  0.3986981E-008  0.4614232E+02  0.7816164E-02  0.1320468E+00
        -11   -1    0    0    0    0  0.00000000000E+00  0.00000000000E+00  0.45593999997E+02  0.45594000000E+02  0.51100000000E-03 0.  1.
         11   -1    0    0    0    0 -0.00000000000E+00 -0.00000000000E+00 -0.45593999997E+02  0.45594000000E+02  0.51100000000E-03 0. -1.
    9900012    2    1    2    0    0 -0.41988543495E+02  0.13297444024E+01 -0.16257536099E+02  0.46142317798E+02  0.10000000337E+02 0.  0.
        -12    1    1    2    0    0  0.41988543495E+02 -0.13297444024E+01  0.16257536099E+02  0.45045682202E+02  0.00000000000E+00 0.  1.
         11    1    3    3    0    0 -0.14437994503E+02  0.83166871325E+00 -0.59715276106E+01  0.15646293503E+02  0.51100000000E-03 0. -1.
        -11    1    3    3    0    0 -0.96173133982E+01  0.24121356052E+01 -0.70669173157E+01  0.12175895687E+02  0.51100000000E-03 0.  1.
        -12    1    3    3    0    0 -0.17933235594E+02 -0.19140599161E+01 -0.32190911727E+01  0.18320128607E+02  0.00000000000E+00 0.  1.
</event>
<event>
 7    1  0.3986981E-008  0.4614232E+02  0.7816164E-02  0.1320468E+00
        -11   -1    0    0    0    0  0.00000000000E+00  0.00000000000E+00  0.45593999997E+02  0.45594000000E+02  0.51100000000E-03 0.  1.
         11   -1    0    0    0    0 -0.00000000000E+00 -0.00000000000E+00 -0.45593999997E+02  0.45594000000E+02  0.51100000000E-03 0. -1.
    9900012    2    1    2    0    0  0.38637758189E+02 -0.14495045977E+02  0.18059090542E+02  0.46142317999E+02  0.10000002166E+02 0.  0.
        -12    1    1    2    0    0 -0.38637758189E+02  0.14495045977E+02 -0.18059090542E+02  0.45045682001E+02  0.00000000000E+00 0.  1.
         11    1    3    3    0    0  0.13253936576E+02 -0.88216144000E+01  0.69855607458E+01  0.17386367492E+02  0.51100000000E-03 0. -1.
        -11    1    3    3    0    0  0.94048830522E+01 -0.45153030868E+01  0.54974791135E+01  0.11792457931E+02  0.51100000000E-03 0.  1.
         12    1    3    3    0    0  0.15978938561E+02 -0.11581284903E+01  0.55760506831E+01  0.16963492575E+02  0.00000000000E+00 0. -1.
</event>
<event>
 7    1  0.3986981E-008  0.4614232E+02  0.7816164E-02  0.1320468E+00
        -11   -1    0    0    0    0  0.00000000000E+00  0.00000000000E+00  0.45593999997E+02  0.45594000000E+02  0.51100000000E-03 0.  1.
         11   -1    0    0    0    0 -0.00000000000E+00 -0.00000000000E+00 -0.45593999997E+02  0.45594000000E+02  0.51100000000E-03 0. -1.
    9900012    2    1    2    0    0  0.15705208379E+02  0.40003449061E+01 -0.42029240578E+02  0.46142318817E+02  0.10000009633E+02 0.  0.
        -12    1    1    2    0    0 -0.15705208379E+02 -0.40003449061E+01  0.42029240578E+02  0.45045681183E+02  0.00000000000E+00 0.  1.
         11    1    3    3    0    0  0.73082175611E+01  0.52268563826E+01 -0.28229010141E+02  0.29624433924E+02  0.51100000000E-03 0. -1.
        -11    1    3    3    0    0  0.66040890797E+00 -0.95279762942E+00 -0.87807946600E+00  0.14542995077E+01  0.51100000000E-03 0.  1.
        -12    1    3    3    0    0  0.77365819101E+01 -0.27371384708E+00 -0.12922150972E+02  0.15063585385E+02  0.00000000000E+00 0.  1.
</event>
<event>
 7    1  0.3986981E-008  0.4614232E+02  0.7816164E-02  0.1320468E+00
        -11   -1    0    0    0    0  0.00000000000E+00  0.00000000000E+00  0.45593999997E+02  0.45594000000E+02  0.51100000000E-03 0. -1.
         11   -1    0    0    0    0 -0.00000000000E+00 -0.00000000000E+00 -0.45593999997E+02  0.45594000000E+02  0.51100000000E-03 0.  1.
    9900012    2    1    2    0    0  0.44457392035E+02  0.47747740493E+01  0.54639925453E+01  0.46142318871E+02  0.10000010124E+02 0.  0.
        -12    1    1    2    0    0 -0.44457392035E+02 -0.47747740493E+01 -0.54639925453E+01  0.45045681129E+02  0.00000000000E+00 0.  1.
         11    1    3    3    0    0  0.22572844761E+02  0.15245066044E+01 -0.60764672359E+00  0.22632425319E+02  0.51100000000E-03 0. -1.
        -11    1    3    3    0    0  0.84616363695E+01  0.57774816268E+00 -0.13390937220E+00  0.84823944125E+01  0.51100000000E-03 0.  1.
         12    1    3    3    0    0  0.13422910905E+02  0.26725192821E+01  0.62055486411E+01  0.15027499140E+02  0.00000000000E+00 0. -1.
</event>
<event>
 7    1  0.3986981E-008  0.4614232E+02  0.7816164E-02  0.1320468E+00
        -11   -1    0    0    0    0  0.00000000000E+00  0.00000000000E+00  0.45593999997E+02  0.45594000000E+02  0.51100000000E-03 0.  1.
         11   -1    0    0    0    0 -0.00000000000E+00 -0.00000000000E+00 -0.45593999997E+02  0.45594000000E+02  0.51100000000E-03 0. -1.
    9900012    2    1    2    0    0 -0.32550163664E+02  0.29867284547E+02  0.88059930065E+01  0.46142319258E+02  0.10000013646E+02 0.  0.
        -12    1    1    2    0    0  0.32550163664E+02 -0.29867284547E+02 -0.88059930065E+01  0.45045680742E+02  0.00000000000E+00 0.  1.
         11    1    3    3    0    0 -0.12945836019E+02  0.15386689165E+02  0.63777227242E+01  0.21095502390E+02  0.51100000000E-03 0. -1.
        -11    1    3    3    0    0 -0.10141320939E+02  0.90940217975E+01  0.36164532485E+01  0.14093486340E+02  0.51100000000E-03 0.  1.
         12    1    3    3    0    0 -0.94630067056E+01  0.53865735840E+01 -0.11881829662E+01  0.10953330528E+02  0.00000000000E+00 0. -1.
</event>
<event>
 7    1  0.3986981E-008  0.4614232E+02  0.7816164E-02  0.1320468E+00
        -11   -1    0    0    0    0  0.00000000000E+00  0.00000000000E+00  0.45593999997E+02  0.45594000000E+02  0.51100000000E-03 0. -1.
         11   -1    0    0    0    0 -0.00000000000E+00 -0.00000000000E+00 -0.45593999997E+02  0.45594000000E+02  0.51100000000E-03 0.  1.
    9900012    2    1    2    0    0 -0.29013174140E+02 -0.15917538580E+02 -0.30561106581E+02  0.46142317148E+02  0.99999944136E+01 0.  0.
        -12    1    1    2    0    0  0.29013174140E+02  0.15917538580E+02  0.30561106581E+02  0.45045682852E+02  0.00000000000E+00 0.  1.
         11    1    3    3    0    0 -0.23848382563E+02 -0.13671665803E+02 -0.22950084866E+02  0.35810140915E+02  0.51100000000E-03 0. -1.
        -11    1    3    3    0    0 -0.39750534782E+01  0.24217515907E+00 -0.57899035161E+01  0.70272812629E+01  0.51100000000E-03 0.  1.
        -12    1    3    3    0    0 -0.11897380986E+01 -0.24880479359E+01 -0.18211181984E+01  0.33048949707E+01  0.00000000000E+00 0.  1.
</event>
<event>
 7    1  0.3986981E-008  0.4614232E+02  0.7816164E-02  0.1320468E+00
        -11   -1    0    0    0    0  0.00000000000E+00  0.00000000000E+00  0.45593999997E+02  0.45594000000E+02  0.51100000000E-03 0. -1.
         11   -1    0    0    0    0 -0.00000000000E+00 -0.00000000000E+00 -0.45593999997E+02  0.45594000000E+02  0.51100000000E-03 0.  1.
    9900012    2    1    2    0    0 -0.24484456479E+02 -0.21077234437E+02  0.31390675253E+02  0.46142324143E+02  0.10000058196E+02 0.  0.
        -12    1    1    2    0    0  0.24484456479E+02  0.21077234437E+02 -0.31390675253E+02  0.45045675857E+02  0.00000000000E+00 0.  1.
         11    1    3    3    0    0 -0.91324625356E+01 -0.67931969734E+01  0.11534252966E+02  0.16204579255E+02  0.51100000000E-03 0. -1.
        -11    1    3    3    0    0 -0.51305632055E+00 -0.45124371818E+01  0.29736484722E+01  0.54284345446E+01  0.51100000000E-03 0.  1.
        -12    1    3    3    0    0 -0.14838937623E+02 -0.97716002814E+01  0.16882773815E+02  0.24509310344E+02  0.00000000000E+00 0.  1.
</event>
<event>
 7    1  0.3986981E-008  0.4614232E+02  0.7816164E-02  0.1320468E+00
        -11   -1    0    0    0    0  0.00000000000E+00  0.00000000000E+00  0.45593999997E+02  0.45594000000E+02  0.51100000000E-03 0. -1.
         11   -1    0    0    0    0 -0.00000000000E+00 -0.00000000000E+00 -0.45593999997E+02  0.45594000000E+02  0.51100000000E-03 0.  1.
    9900012    2    1    2    0    0  0.38027194563E+02  0.53202772428E+01  0.23552932241E+02  0.46142317705E+02  0.99999994907E+01 0.  0.
        -12    1    1    2    0    0 -0.38027194563E+02 -0.53202772428E+01 -0.23552932241E+02  0.45045682295E+02  0.00000000000E+00 0.  1.
         11    1    3    3    0    0  0.17898936993E+02  0.28918525170E+01  0.15553887610E+02  0.23888452786E+02  0.51100000000E-03 0. -1.
        -11    1    3    3    0    0  0.17261659052E+02  0.42078161573E+00  0.66325477984E+01  0.18496827321E+02  0.51100000000E-03 0.  1.
        -12    1    3    3    0    0  0.28665985180E+01  0.20076431101E+01  0.13664968321E+01  0.37570375980E+01  0.00000000000E+00 0.  1.
</event>
<event>
 7    1  0.3986981E-008  0.4614232E+02  0.7816164E-02  0.1320468E+00
        -11   -1    0    0    0    0  0.00000000000E+00  0.00000000000E+00  0.45593999997E+02  0.45594000000E+02  0.51100000000E-03 0.  1.
         11   -1    0    0    0    0 -0.00000000000E+00 -0.00000000000E+00 -0.45593999997E+02  0.45594000000E+02  0.51100000000E-03 0. -1.
    9900012    2    1    2    0    0 -0.43252166247E+02  0.48640835241E+01 -0.11606217417E+02  0.46142317895E+02  0.10000001222E+02 0.  0.
        -12    1    1    2    0    0  0.43252166247E+02 -0.48640835241E+01  0.11606217417E+02  0.45045682105E+02  0.00000000000E+00 0.  1.
         11    1    3    3    0    0 -0.15684416586E+02  0.23429023292E+01 -0.31399824148E+01  0.16166310797E+02  0.51100000000E-03 0. -1.
        -11    1    3    3    0    0 -0.10921642552E+02 -0.27629782584E+01 -0.27089113125E+01  0.11586825521E+02  0.51100000000E-03 0.  1.
        -12    1    3    3    0    0 -0.16646107109E+02  0.52841594533E+01 -0.57573236901E+01  0.18389181577E+02  0.00000000000E+00 0.  1.
</event>
<event>
 7    1  0.3986981E-008  0.4614231E+02  0.7816164E-02  0.1320468E+00
        -11   -1    0    0    0    0  0.00000000000E+00  0.00000000000E+00  0.45593999997E+02  0.45594000000E+02  0.51100000000E-03 0.  1.
         11   -1    0    0    0    0 -0.00000000000E+00 -0.00000000000E+00 -0.45593999997E+02  0.45594000000E+02  0.51100000000E-03 0. -1.
    9900012    2    1    2    0    0  0.33073767201E+01  0.35943508535E+02 -0.26948827085E+02  0.46142313993E+02  0.99999656384E+01 0.  0.
        -12    1    1    2    0    0 -0.33073767201E+01 -0.35943508535E+02  0.26948827085E+02  0.45045686007E+02  0.00000000000E+00 0.  1.
         11    1    3    3    0    0  0.45699675894E+01  0.20204373134E+02 -0.12807231108E+02  0.24354187863E+02  0.51100000000E-03 0. -1.
        -11    1    3    3    0    0 -0.23804199085E+00  0.72240299271E+00  0.40005224347E+00  0.85940219450E+00  0.51100000000E-03 0.  1.
         12    1    3    3    0    0 -0.10245488784E+01  0.15016732408E+02 -0.14541648220E+02  0.20928723936E+02  0.00000000000E+00 0. -1.
</event>
<event>
 7    1  0.3986981E-008  0.4614232E+02  0.7816164E-02  0.1320468E+00
        -11   -1    0    0    0    0  0.00000000000E+00  0.00000000000E+00  0.45593999997E+02  0.45594000000E+02  0.51100000000E-03 0.  1.
         11   -1    0    0    0    0 -0.00000000000E+00 -0.00000000000E+00 -0.45593999997E+02  0.45594000000E+02  0.51100000000E-03 0. -1.
    9900012    2    1    2    0    0  0.60426421015E+01  0.30621888049E+02 -0.32479222511E+02  0.46142318230E+02  0.10000004273E+02 0.  0.
        -12    1    1    2    0    0 -0.60426421015E+01 -0.30621888049E+02  0.32479222511E+02  0.45045681770E+02  0.00000000000E+00 0.  1.
         11    1    3    3    0    0 -0.10177198079E+01  0.57183948921E+01 -0.64758588886E+01  0.86989966293E+01  0.51100000000E-03 0. -1.
        -11    1    3    3    0    0  0.24697693684E+01  0.20265633614E+02 -0.19726129888E+02  0.28388657368E+02  0.51100000000E-03 0.  1.
         12    1    3    3    0    0  0.45905925411E+01  0.46378595422E+01 -0.62772337346E+01  0.90546642329E+01  0.00000000000E+00 0. -1.
</event>
<event>
 7    1  0.3986981E-008  0.4614232E+02  0.7816164E-02  0.1320468E+00
        -11   -1    0    0    0    0  0.00000000000E+00  0.00000000000E+00  0.45593999997E+02  0.45594000000E+02  0.51100000000E-03 0.  1.
         11   -1    0    0    0    0 -0.00000000000E+00 -0.00000000000E+00 -0.45593999997E+02  0.45594000000E+02  0.51100000000E-03 0. -1.
    9900012    2    1    2    0    0  0.22018161341E+02  0.39295594242E+02 -0.41281397740E+00  0.46142316844E+02  0.99999916362E+01 0.  0.
        -12    1    1    2    0    0 -0.22018161341E+02 -0.39295594242E+02  0.41281397740E+00  0.45045683156E+02  0.00000000000E+00 0.  1.
         11    1    3    3    0    0  0.19247753848E+01  0.21022458598E+01 -0.55084911588E+00  0.29030385713E+01  0.51100000000E-03 0. -1.
        -11    1    3    3    0    0  0.40287859070E+01  0.16635170312E+02 -0.76591451353E+00  0.17133202634E+02  0.51100000000E-03 0.  1.
         12    1    3    3    0    0  0.16064600049E+02  0.20558178070E+02  0.90394965201E+00  0.26106075639E+02  0.00000000000E+00 0. -1.
</event>
<event>
 7    1  0.3986981E-008  0.4614232E+02  0.7816164E-02  0.1320468E+00
        -11   -1    0    0    0    0  0.00000000000E+00  0.00000000000E+00  0.45593999997E+02  0.45594000000E+02  0.51100000000E-03 0.  1.
         11   -1    0    0    0    0 -0.00000000000E+00 -0.00000000000E+00 -0.45593999997E+02  0.45594000000E+02  0.51100000000E-03 0. -1.
    9900012    2    1    2    0    0  0.32093786404E+02 -0.18956061277E+02 -0.25293678016E+02  0.46142317271E+02  0.99999955333E+01 0.  0.
        -12    1    1    2    0    0 -0.32093786404E+02  0.18956061277E+02  0.25293678016E+02  0.45045682729E+02  0.00000000000E+00 0.  1.
         11    1    3    3    0    0  0.16361430154E+02 -0.83933614741E+01 -0.94338376301E+01  0.20667418954E+02  0.51100000000E-03 0.  1.
        -11    1    3    3    0    0  0.10829193496E+02 -0.10380737437E+02 -0.11355348630E+02  0.18814225582E+02  0.51100000000E-03 0. -1.
         12    1    3    3    0    0  0.49031627545E+01 -0.18196236630E+00 -0.45044917564E+01  0.66606727351E+01  0.00000000000E+00 0. -1.
</event>
<event>
 7    1  0.3986981E-008  0.4614232E+02  0.7816164E-02  0.1320468E+00
        -11   -1    0    0    0    0  0.00000000000E+00  0.00000000000E+00  0.45593999997E+02  0.45594000000E+02  0.51100000000E-03 0.  1.
         11   -1    0    0    0    0 -0.00000000000E+00 -0.00000000000E+00 -0.45593999997E+02  0.45594000000E+02  0.51100000000E-03 0. -1.
    9900012    2    1    2    0    0 -0.45301173769E+01  0.12638713796E+02 -0.42998302995E+02  0.46142321957E+02  0.10000038264E+02 0.  0.
        -12    1    1    2    0    0  0.45301173769E+01 -0.12638713796E+02  0.42998302995E+02  0.45045678043E+02  0.00000000000E+00 0.  1.
         11    1    3    3    0    0 -0.35356088215E+01  0.19033509362E+01 -0.10986384783E+02  0.11697175958E+02  0.51100000000E-03 0. -1.
        -11    1    3    3    0    0  0.22312085830E+01  0.13880794403E+01 -0.45111438415E+01  0.52206776661E+01  0.51100000000E-03 0.  1.
        -12    1    3    3    0    0 -0.32257171384E+01  0.93472834195E+01 -0.27500774370E+02  0.29224468333E+02  0.00000000000E+00 0.  1.
</event>
<event>
 7    1  0.3986981E-008  0.4614232E+02  0.7816164E-02  0.1320468E+00
        -11   -1    0    0    0    0  0.00000000000E+00  0.00000000000E+00  0.45593999997E+02  0.45594000000E+02  0.51100000000E-03 0.  1.
         11   -1    0    0    0    0 -0.00000000000E+00 -0.00000000000E+00 -0.45593999997E+02  0.45594000000E+02  0.51100000000E-03 0. -1.
    9900012    2    1    2    0    0  0.92643899470E+01 -0.13142321193E+02 -0.42078070173E+02  0.46142317445E+02  0.99999971130E+01 0.  0.
        -12    1    1    2    0    0 -0.92643899470E+01  0.13142321193E+02  0.42078070173E+02  0.45045682555E+02  0.00000000000E+00 0.  1.
         11    1    3    3    0    0  0.58897788703E+01 -0.12533021261E+02 -0.34347644864E+02  0.37034130542E+02  0.51100000000E-03 0.  1.
        -11    1    3    3    0    0  0.12031070805E+01  0.13394792790E+01 -0.20961047569E+01  0.27632095105E+01  0.51100000000E-03 0. -1.
         12    1    3    3    0    0  0.21715039961E+01 -0.19487792115E+01 -0.56343205517E+01  0.63449773915E+01  0.00000000000E+00 0. -1.
</event>
<event>
 7    1  0.3986981E-008  0.4614232E+02  0.7816164E-02  0.1320468E+00
        -11   -1    0    0    0    0  0.00000000000E+00  0.00000000000E+00  0.45593999997E+02  0.45594000000E+02  0.51100000000E-03 0. -1.
         11   -1    0    0    0    0 -0.00000000000E+00 -0.00000000000E+00 -0.45593999997E+02  0.45594000000E+02  0.51100000000E-03 0.  1.
    9900012    2    1    2    0    0 -0.18928732772E+02 -0.37002700698E+02  0.17367114990E+02  0.46142318005E+02  0.10000002225E+02 0.  0.
        -12    1    1    2    0    0  0.18928732772E+02  0.37002700698E+02 -0.17367114990E+02  0.45045681995E+02  0.00000000000E+00 0.  1.
         11    1    3    3    0    0 -0.28445887615E+01 -0.57528023923E+01  0.14493342710E+01  0.65792849670E+01  0.51100000000E-03 0. -1.
        -11    1    3    3    0    0 -0.13083184214E+02 -0.16008956104E+02  0.86061976153E+01  0.22394709696E+02  0.51100000000E-03 0.  1.
        -12    1    3    3    0    0 -0.30009597966E+01 -0.15240942202E+02  0.73115831035E+01  0.17168323342E+02  0.00000000000E+00 0.  1.
</event>
<event>
 7    1  0.3986981E-008  0.4614232E+02  0.7816164E-02  0.1320468E+00
        -11   -1    0    0    0    0  0.00000000000E+00  0.00000000000E+00  0.45593999997E+02  0.45594000000E+02  0.51100000000E-03 0. -1.
         11   -1    0    0    0    0 -0.00000000000E+00 -0.00000000000E+00 -0.45593999997E+02  0.45594000000E+02  0.51100000000E-03 0.  1.
    9900012    2    1    2    0    0 -0.40461906638E+02  0.19184780386E+02  0.48879272199E+01  0.46142317413E+02  0.99999968256E+01 0.  0.
        -12    1    1    2    0    0  0.40461906638E+02 -0.19184780386E+02 -0.48879272199E+01  0.45045682587E+02  0.00000000000E+00 0.  1.
         11    1    3    3    0    0 -0.31012175505E+02  0.17107838101E+02  0.47121470122E+01  0.35730064144E+02  0.51100000000E-03 0. -1.
        -11    1    3    3    0    0 -0.68592829164E+01  0.31913892663E+01 -0.19566127997E+00  0.75678934436E+01  0.51100000000E-03 0.  1.
        -12    1    3    3    0    0 -0.25904482163E+01 -0.11144469811E+01  0.37144148768E+00  0.28443598250E+01  0.00000000000E+00 0.  1.
</event>
<event>
 7    1  0.3986981E-008  0.4614232E+02  0.7816164E-02  0.1320468E+00
        -11   -1    0    0    0    0  0.00000000000E+00  0.00000000000E+00  0.45593999997E+02  0.45594000000E+02  0.51100000000E-03 0.  1.
         11   -1    0    0    0    0 -0.00000000000E+00 -0.00000000000E+00 -0.45593999997E+02  0.45594000000E+02  0.51100000000E-03 0. -1.
    9900012    2    1    2    0    0 -0.30782820634E+02  0.25740306644E+02 -0.20468705696E+02  0.46142319350E+02  0.10000014493E+02 0.  0.
        -12    1    1    2    0    0  0.30782820634E+02 -0.25740306644E+02  0.20468705696E+02  0.45045680650E+02  0.00000000000E+00 0.  1.
         11    1    3    3    0    0 -0.23439272037E+02  0.19766640799E+02 -0.16483924738E+02  0.34811482835E+02  0.51100000000E-03 0. -1.
        -11    1    3    3    0    0 -0.78743051444E+01  0.46249208969E+01 -0.31609686898E+01  0.96636586306E+01  0.51100000000E-03 0.  1.
        -12    1    3    3    0    0  0.53075654775E+00  0.13487449478E+01 -0.82381226831E+00  0.16671778851E+01  0.00000000000E+00 0.  1.
</event>
<event>
 7    1  0.3986981E-008  0.4614231E+02  0.7816164E-02  0.1320468E+00
        -11   -1    0    0    0    0  0.00000000000E+00  0.00000000000E+00  0.45593999997E+02  0.45594000000E+02  0.51100000000E-03 0.  1.
         11   -1    0    0    0    0 -0.00000000000E+00 -0.00000000000E+00 -0.45593999997E+02  0.45594000000E+02  0.51100000000E-03 0. -1.
    9900012    2    1    2    0    0 -0.30484089636E+02  0.30517774576E+02 -0.12980768310E+02  0.46142305068E+02  0.99998842535E+01 0.  0.
        -12    1    1    2    0    0  0.30484089636E+02 -0.30517774576E+02  0.12980768310E+02  0.45045694932E+02  0.00000000000E+00 0.  1.
         11    1    3    3    0    0 -0.83977673158E+01  0.13370506740E+02 -0.18176530902E+01  0.15893294479E+02  0.51100000000E-03 0. -1.
        -11    1    3    3    0    0 -0.15099105600E+02  0.12395470868E+02 -0.64446297535E+01  0.20570948955E+02  0.51100000000E-03 0.  1.
         12    1    3    3    0    0 -0.69872167196E+01  0.47517969683E+01 -0.47184854658E+01  0.96780616348E+01  0.00000000000E+00 0. -1.
</event>
<event>
 7    1  0.3986981E-008  0.4614232E+02  0.7816164E-02  0.1320468E+00
        -11   -1    0    0    0    0  0.00000000000E+00  0.00000000000E+00  0.45593999997E+02  0.45594000000E+02  0.51100000000E-03 0.  1.
         11   -1    0    0    0    0 -0.00000000000E+00 -0.00000000000E+00 -0.45593999997E+02  0.45594000000E+02  0.51100000000E-03 0. -1.
    9900012    2    1    2    0    0  0.16416030122E+01 -0.15669456484E+02 -0.42200554586E+02  0.46142317251E+02  0.99999953467E+01 0.  0.
        -12    1    1    2    0    0 -0.16416030122E+01  0.15669456484E+02  0.42200554586E+02  0.45045682749E+02  0.00000000000E+00 0.  1.
         11    1    3    3    0    0 -0.16440469667E+01 -0.10091277863E+01 -0.99734384500E+01  0.10158282537E+02  0.51100000000E-03 0. -1.
        -11    1    3    3    0    0 -0.11185286337E+01 -0.62460293226E+01 -0.10442905107E+02  0.12219584933E+02  0.51100000000E-03 0.  1.
        -12    1    3    3    0    0  0.44041786126E+01 -0.84142993754E+01 -0.21784211029E+02  0.23764449781E+02  0.00000000000E+00 0.  1.
</event>
<event>
 7    1  0.3986981E-008  0.4614232E+02  0.7816164E-02  0.1320468E+00
        -11   -1    0    0    0    0  0.00000000000E+00  0.00000000000E+00  0.45593999997E+02  0.45594000000E+02  0.51100000000E-03 0.  1.
         11   -1    0    0    0    0 -0.00000000000E+00 -0.00000000000E+00 -0.45593999997E+02  0.45594000000E+02  0.51100000000E-03 0. -1.
    9900012    2    1    2    0    0  0.23667598331E+02 -0.30936445937E+02 -0.22625087435E+02  0.46142317861E+02  0.10000000907E+02 0.  0.
        -12    1    1    2    0    0 -0.23667598331E+02  0.30936445937E+02  0.22625087435E+02  0.45045682139E+02  0.00000000000E+00 0.  1.
         11    1    3    3    0    0  0.15489795809E+02 -0.16313402236E+02 -0.14488128816E+02  0.26757554888E+02  0.51100000000E-03 0.  1.
        -11    1    3    3    0    0  0.44264349693E+01 -0.46975078127E+01 -0.54284335186E+01  0.84337297156E+01  0.51100000000E-03 0. -1.
        -12    1    3    3    0    0  0.37513675530E+01 -0.99255358879E+01 -0.27085251000E+01  0.10951033257E+02  0.00000000000E+00 0.  1.
</event>
<event>
 7    1  0.3986981E-008  0.4614232E+02  0.7816164E-02  0.1320468E+00
        -11   -1    0    0    0    0  0.00000000000E+00  0.00000000000E+00  0.45593999997E+02  0.45594000000E+02  0.51100000000E-03 0. -1.
         11   -1    0    0    0    0 -0.00000000000E+00 -0.00000000000E+00 -0.45593999997E+02  0.45594000000E+02  0.51100000000E-03 0.  1.
    9900012    2    1    2    0    0 -0.43570657364E+02 -0.11430454788E+02 -0.23671721963E+00  0.46142317467E+02  0.99999973198E+01 0.  0.
        -12    1    1    2    0    0  0.43570657364E+02  0.11430454788E+02  0.23671721963E+00  0.45045682533E+02  0.00000000000E+00 0.  1.
         11    1    3    3    0    0 -0.25207963470E+02 -0.80829923720E+01 -0.15974831770E+01  0.26520334477E+02  0.51100000000E-03 0. -1.
        -11    1    3    3    0    0 -0.87119671187E+01 -0.39045920848E+01 -0.11991907134E+01  0.96219680448E+01  0.51100000000E-03 0.  1.
         12    1    3    3    0    0 -0.96507267750E+01  0.55712966846E+00  0.25599566708E+01  0.10000014945E+02  0.00000000000E+00 0. -1.
</event>
<event>
 7    1  0.3986981E-008  0.4614232E+02  0.7816164E-02  0.1320468E+00
        -11   -1    0    0    0    0  0.00000000000E+00  0.00000000000E+00  0.45593999997E+02  0.45594000000E+02  0.51100000000E-03 0.  1.
         11   -1    0    0    0    0 -0.00000000000E+00 -0.00000000000E+00 -0.45593999997E+02  0.45594000000E+02  0.51100000000E-03 0. -1.
    9900012    2    1    2    0    0  0.17930130223E+02 -0.21329566365E+02 -0.35393127358E+02  0.46142318350E+02  0.10000005374E+02 0.  0.
        -12    1    1    2    0    0 -0.17930130223E+02  0.21329566365E+02  0.35393127358E+02  0.45045681650E+02  0.00000000000E+00 0.  1.
         11    1    3    3    0    0  0.59726947001E+01 -0.60457245231E+01 -0.92614750242E+01  0.12569756834E+02  0.51100000000E-03 0. -1.
        -11    1    3    3    0    0  0.11463982246E+01 -0.73939007944E+01 -0.71687501162E+01  0.10362189746E+02  0.51100000000E-03 0.  1.
        -12    1    3    3    0    0  0.10811037298E+02 -0.78899410471E+01 -0.18962902217E+02  0.23210371770E+02  0.00000000000E+00 0.  1.
</event>
<event>
 7    1  0.3986981E-008  0.4614232E+02  0.7816164E-02  0.1320468E+00
        -11   -1    0    0    0    0  0.00000000000E+00  0.00000000000E+00  0.45593999997E+02  0.45594000000E+02  0.51100000000E-03 0. -1.
         11   -1    0    0    0    0 -0.00000000000E+00 -0.00000000000E+00 -0.45593999997E+02  0.45594000000E+02  0.51100000000E-03 0.  1.
    9900012    2    1    2    0    0 -0.94339217928E+01 -0.42040015023E+02 -0.13143505891E+02  0.46142317736E+02  0.99999997724E+01 0.  0.
        -12    1    1    2    0    0  0.94339217928E+01  0.42040015023E+02  0.13143505891E+02  0.45045682264E+02  0.00000000000E+00 0.  1.
         11    1    3    3    0    0 -0.61422191775E+00 -0.48568481801E+01  0.74931943087E+00  0.49525470901E+01  0.51100000000E-03 0. -1.
        -11    1    3    3    0    0 -0.46604256516E+00 -0.35180255786E+01  0.59733271711E+00  0.35986811862E+01  0.51100000000E-03 0.  1.
         12    1    3    3    0    0 -0.83536573099E+01 -0.33665141264E+02 -0.14490158039E+02  0.37591089460E+02  0.00000000000E+00 0. -1.
</event>
<event>
 7    1  0.3986981E-008  0.4614232E+02  0.7816164E-02  0.1320468E+00
        -11   -1    0    0    0    0  0.00000000000E+00  0.00000000000E+00  0.45593999997E+02  0.45594000000E+02  0.51100000000E-03 0.  1.
         11   -1    0    0    0    0 -0.00000000000E+00 -0.00000000000E+00 -0.45593999997E+02  0.45594000000E+02  0.51100000000E-03 0. -1.
    9900012    2    1    2    0    0  0.36656887507E+02  0.15037518513E+02 -0.21430335212E+02  0.46142316167E+02  0.99999854597E+01 0.  0.
        -12    1    1    2    0    0 -0.36656887507E+02 -0.15037518513E+02  0.21430335212E+02  0.45045683833E+02  0.00000000000E+00 0.  1.
         11    1    3    3    0    0  0.27022313222E+02  0.12920739037E+02 -0.13155418303E+02  0.32714155042E+02  0.51100000000E-03 0. -1.
        -11    1    3    3    0    0  0.22673570686E+01  0.16106244702E+01 -0.74001927982E+00  0.28779590087E+01  0.51100000000E-03 0.  1.
        -12    1    3    3    0    0  0.73672172169E+01  0.50615500604E+00 -0.75348976293E+01  0.10550202116E+02  0.00000000000E+00 0.  1.
</event>
<event>
 7    1  0.3986981E-008  0.4614232E+02  0.7816164E-02  0.1320468E+00
        -11   -1    0    0    0    0  0.00000000000E+00  0.00000000000E+00  0.45593999997E+02  0.45594000000E+02  0.51100000000E-03 0. -1.
         11   -1    0    0    0    0 -0.00000000000E+00 -0.00000000000E+00 -0.45593999997E+02  0.45594000000E+02  0.51100000000E-03 0.  1.
    9900012    2    1    2    0    0 -0.22884837932E+02 -0.37026383637E+02  0.11595018701E+02  0.46142319285E+02  0.10000013897E+02 0.  0.
        -12    1    1    2    0    0  0.22884837932E+02  0.37026383637E+02 -0.11595018701E+02  0.45045680715E+02  0.00000000000E+00 0.  1.
         11    1    3    3    0    0 -0.10439163624E+02 -0.20672094937E+02  0.39993136383E+01  0.23501194780E+02  0.51100000000E-03 0.  1.
        -11    1    3    3    0    0 -0.12381125861E+02 -0.16185127042E+02  0.82334483729E+01  0.21978177525E+02  0.51100000000E-03 0. -1.
        -12    1    3    3    0    0 -0.64548446464E-01 -0.16916165845E+00 -0.63774331036E+00  0.66294698018E+00  0.00000000000E+00 0.  1.
</event>
<event>
 7    1  0.3986981E-008  0.4614232E+02  0.7816164E-02  0.1320468E+00
        -11   -1    0    0    0    0  0.00000000000E+00  0.00000000000E+00  0.45593999997E+02  0.45594000000E+02  0.51100000000E-03 0.  1.
         11   -1    0    0    0    0 -0.00000000000E+00 -0.00000000000E+00 -0.45593999997E+02  0.45594000000E+02  0.51100000000E-03 0. -1.
    9900012    2    1    2    0    0  0.19353574377E+02 -0.51464751652E+01 -0.40349307018E+02  0.46142316249E+02  0.99999862092E+01 0.  0.
        -12    1    1    2    0    0 -0.19353574377E+02  0.51464751652E+01  0.40349307018E+02  0.45045683751E+02  0.00000000000E+00 0.  1.
         11    1    3    3    0    0  0.85513535450E+00 -0.24154649843E+01 -0.20343072048E+01  0.32717172294E+01  0.51100000000E-03 0. -1.
        -11    1    3    3    0    0  0.33077183537E+01  0.31830090800E-01 -0.36694673545E+01  0.49403446022E+01  0.51100000000E-03 0.  1.
         12    1    3    3    0    0  0.15190720669E+02 -0.27628402717E+01 -0.34645532459E+02  0.37930254417E+02  0.00000000000E+00 0. -1.
</event>
<event>
 7    1  0.3986981E-008  0.4614232E+02  0.7816164E-02  0.1320468E+00
        -11   -1    0    0    0    0  0.00000000000E+00  0.00000000000E+00  0.45593999997E+02  0.45594000000E+02  0.51100000000E-03 0.  1.
         11   -1    0    0    0    0 -0.00000000000E+00 -0.00000000000E+00 -0.45593999997E+02  0.45594000000E+02  0.51100000000E-03 0. -1.
    9900012    2    1    2    0    0  0.27415617316E+02 -0.17357460730E+02 -0.31244453614E+02  0.46142318771E+02  0.10000009207E+02 0.  0.
        -12    1    1    2    0    0 -0.27415617316E+02  0.17357460730E+02  0.31244453614E+02  0.45045681229E+02  0.00000000000E+00 0.  1.
         11    1    3    3    0    0  0.10448480025E+02 -0.92899032980E+01 -0.94697602596E+01  0.16886367216E+02  0.51100000000E-03 0. -1.
        -11    1    3    3    0    0  0.77153427689E+00 -0.21392884482E+01 -0.29597247142E+01  0.37325314265E+01  0.51100000000E-03 0.  1.
         12    1    3    3    0    0  0.16195603014E+02 -0.59282689837E+01 -0.18814968640E+02  0.25523420128E+02  0.00000000000E+00 0. -1.
</event>
<event>
 7    1  0.3986981E-008  0.4614232E+02  0.7816164E-02  0.1320468E+00
        -11   -1    0    0    0    0  0.00000000000E+00  0.00000000000E+00  0.45593999997E+02  0.45594000000E+02  0.51100000000E-03 0. -1.
         11   -1    0    0    0    0 -0.00000000000E+00 -0.00000000000E+00 -0.45593999997E+02  0.45594000000E+02  0.51100000000E-03 0.  1.
    9900012    2    1    2    0    0 -0.23833762611E+02 -0.37923983882E+02  0.47787555499E+01  0.46142319871E+02  0.10000019237E+02 0.  0.
        -12    1    1    2    0    0  0.23833762611E+02  0.37923983882E+02 -0.47787555499E+01  0.45045680129E+02  0.00000000000E+00 0.  1.
         11    1    3    3    0    0 -0.67326989456E+01 -0.91928661470E+01 -0.21832586280E+00  0.11396740303E+02  0.51100000000E-03 0.  1.
        -11    1    3    3    0    0 -0.49991518192E+01 -0.14625556459E+02 -0.16226055538E+00  0.15457190864E+02  0.51100000000E-03 0. -1.
         12    1    3    3    0    0 -0.12101911846E+02 -0.14105561276E+02  0.51593419680E+01  0.19288388704E+02  0.00000000000E+00 0. -1.
</event>
<event>
 7    1  0.3986981E-008  0.4614232E+02  0.7816164E-02  0.1320468E+00
        -11   -1    0    0    0    0  0.00000000000E+00  0.00000000000E+00  0.45593999997E+02  0.45594000000E+02  0.51100000000E-03 0.  1.
         11   -1    0    0    0    0 -0.00000000000E+00 -0.00000000000E+00 -0.45593999997E+02  0.45594000000E+02  0.51100000000E-03 0. -1.
    9900012    2    1    2    0    0 -0.42662184334E+02  0.10340646941E+02 -0.10105575825E+02  0.46142316366E+02  0.99999872750E+01 0.  0.
        -12    1    1    2    0    0  0.42662184334E+02 -0.10340646941E+02  0.10105575825E+02  0.45045683634E+02  0.00000000000E+00 0.  1.
         11    1    3    3    0    0 -0.23943509647E+02  0.52757020392E+01 -0.87328499946E+01  0.26026666239E+02  0.51100000000E-03 0. -1.
        -11    1    3    3    0    0 -0.70979326021E+01  0.74081103787E+00  0.17110431066E+01  0.73387408315E+01  0.51100000000E-03 0.  1.
         12    1    3    3    0    0 -0.11620742085E+02  0.43241338634E+01 -0.30837689372E+01  0.12776909295E+02  0.00000000000E+00 0. -1.
</event>
<event>
 7    1  0.3986981E-008  0.4614232E+02  0.7816164E-02  0.1320468E+00
        -11   -1    0    0    0    0  0.00000000000E+00  0.00000000000E+00  0.45593999997E+02  0.45594000000E+02  0.51100000000E-03 0. -1.
         11   -1    0    0    0    0 -0.00000000000E+00 -0.00000000000E+00 -0.45593999997E+02  0.45594000000E+02  0.51100000000E-03 0.  1.
    9900012    2    1    2    0    0 -0.22361416970E+02  0.34816223801E+02  0.17801996272E+02  0.46142317855E+02  0.10000000857E+02 0.  0.
        -12    1    1    2    0    0  0.22361416970E+02 -0.34816223801E+02 -0.17801996272E+02  0.45045682145E+02  0.00000000000E+00 0.  1.
         11    1    3    3    0    0 -0.13451423222E+02  0.25024521808E+02  0.13927300155E+02  0.31640751702E+02  0.51100000000E-03 0. -1.
        -11    1    3    3    0    0 -0.72623643730E+01  0.95033057380E+01  0.22512122791E+01  0.12170567498E+02  0.51100000000E-03 0.  1.
         12    1    3    3    0    0 -0.16476293747E+01  0.28839625443E+00  0.16234838379E+01  0.23309986547E+01  0.00000000000E+00 0. -1.
</event>
<event>
 7    1  0.3986981E-008  0.4614232E+02  0.7816164E-02  0.1320468E+00
        -11   -1    0    0    0    0  0.00000000000E+00  0.00000000000E+00  0.45593999997E+02  0.45594000000E+02  0.51100000000E-03 0.  1.
         11   -1    0    0    0    0 -0.00000000000E+00 -0.00000000000E+00 -0.45593999997E+02  0.45594000000E+02  0.51100000000E-03 0. -1.
    9900012    2    1    2    0    0 -0.28552143181E+02  0.27210808748E+01 -0.34734484245E+02  0.46142316998E+02  0.99999930428E+01 0.  0.
        -12    1    1    2    0    0  0.28552143181E+02 -0.27210808748E+01  0.34734484245E+02  0.45045683002E+02  0.00000000000E+00 0.  1.
         11    1    3    3    0    0 -0.13529426338E+02 -0.11171121667E+01 -0.13361367333E+02  0.19047820187E+02  0.51100000000E-03 0. -1.
        -11    1    3    3    0    0 -0.48743190607E+01  0.36714048438E+00 -0.27632979391E+01  0.56151219222E+01  0.51100000000E-03 0.  1.
        -12    1    3    3    0    0 -0.10148397783E+02  0.34710525571E+01 -0.18609818973E+02  0.21479374889E+02  0.00000000000E+00 0.  1.
</event>
<event>
 7    1  0.3986981E-008  0.4614232E+02  0.7816164E-02  0.1320468E+00
        -11   -1    0    0    0    0  0.00000000000E+00  0.00000000000E+00  0.45593999997E+02  0.45594000000E+02  0.51100000000E-03 0. -1.
         11   -1    0    0    0    0 -0.00000000000E+00 -0.00000000000E+00 -0.45593999997E+02  0.45594000000E+02  0.51100000000E-03 0.  1.
    9900012    2    1    2    0    0  0.24287275587E+02  0.27396856400E+02  0.26242217268E+02  0.46142318040E+02  0.10000002546E+02 0.  0.
        -12    1    1    2    0    0 -0.24287275587E+02 -0.27396856400E+02 -0.26242217268E+02  0.45045681960E+02  0.00000000000E+00 0.  1.
         11    1    3    3    0    0  0.13598958698E+01  0.37932650834E+01  0.43160101954E+01  0.59047541047E+01  0.51100000000E-03 0. -1.
        -11    1    3    3    0    0  0.14421745484E+02  0.12096239238E+02  0.86410534304E+01  0.20711676686E+02  0.51100000000E-03 0.  1.
         12    1    3    3    0    0  0.85056342338E+01  0.11507352079E+02  0.13285153642E+02  0.19525887249E+02  0.00000000000E+00 0. -1.
</event>
<event>
 7    1  0.3986981E-008  0.4614232E+02  0.7816164E-02  0.1320468E+00
        -11   -1    0    0    0    0  0.00000000000E+00  0.00000000000E+00  0.45593999997E+02  0.45594000000E+02  0.51100000000E-03 0.  1.
         11   -1    0    0    0    0 -0.00000000000E+00 -0.00000000000E+00 -0.45593999997E+02  0.45594000000E+02  0.51100000000E-03 0. -1.
    9900012    2    1    2    0    0 -0.33375172777E+02 -0.18954249943E+02 -0.23578544926E+02  0.46142317304E+02  0.99999958314E+01 0.  0.
        -12    1    1    2    0    0  0.33375172777E+02  0.18954249943E+02  0.23578544926E+02  0.45045682696E+02  0.00000000000E+00 0.  1.
         11    1    3    3    0    0  0.41985000903E-01 -0.39962502704E+00 -0.13974611967E+01  0.14540842341E+01  0.51100000000E-03 0. -1.
        -11    1    3    3    0    0 -0.11188897131E+02 -0.27610318294E+01 -0.63590835349E+01  0.13162547604E+02  0.51100000000E-03 0.  1.
         12    1    3    3    0    0 -0.22228260646E+02 -0.15793593086E+02 -0.15822000194E+02  0.31525685465E+02  0.00000000000E+00 0. -1.
</event>
<event>
 7    1  0.3986981E-008  0.4614232E+02  0.7816164E-02  0.1320468E+00
        -11   -1    0    0    0    0  0.00000000000E+00  0.00000000000E+00  0.45593999997E+02  0.45594000000E+02  0.51100000000E-03 0.  1.
         11   -1    0    0    0    0 -0.00000000000E+00 -0.00000000000E+00 -0.45593999997E+02  0.45594000000E+02  0.51100000000E-03 0. -1.
    9900012    2    1    2    0    0 -0.40270974111E+02 -0.19560640896E+02  0.49742613655E+01  0.46142319805E+02  0.10000018636E+02 0.  0.
        -12    1    1    2    0    0  0.40270974111E+02  0.19560640896E+02 -0.49742613655E+01  0.45045680195E+02  0.00000000000E+00 0.  1.
         11    1    3    3    0    0 -0.82818553979E+01 -0.58173179993E+01  0.40287972731E+01  0.10893187103E+02  0.51100000000E-03 0. -1.
        -11    1    3    3    0    0 -0.32699504980E+00 -0.14387250524E+00 -0.66225560607E+00  0.75246781277E+00  0.51100000000E-03 0.  1.
         12    1    3    3    0    0 -0.31662123663E+02 -0.13599450392E+02  0.16077196985E+01  0.34496664889E+02  0.00000000000E+00 0. -1.
</event>
<event>
 7    1  0.3986981E-008  0.4614232E+02  0.7816164E-02  0.1320468E+00
        -11   -1    0    0    0    0  0.00000000000E+00  0.00000000000E+00  0.45593999997E+02  0.45594000000E+02  0.51100000000E-03 0.  1.
         11   -1    0    0    0    0 -0.00000000000E+00 -0.00000000000E+00 -0.45593999997E+02  0.45594000000E+02  0.51100000000E-03 0. -1.
    9900012    2    1    2    0    0  0.27751824448E+02 -0.22385993886E+02 -0.27528476862E+02  0.46142317401E+02  0.99999967177E+01 0.  0.
        -12    1    1    2    0    0 -0.27751824448E+02  0.22385993886E+02  0.27528476862E+02  0.45045682599E+02  0.00000000000E+00 0.  1.
         11    1    3    3    0    0  0.29266768292E+01 -0.92473036618E+00 -0.43173572973E+01  0.52971820628E+01  0.51100000000E-03 0. -1.
        -11    1    3    3    0    0  0.70637494096E+01 -0.28438132375E+01 -0.32491295215E+01  0.82789294211E+01  0.51100000000E-03 0.  1.
         12    1    3    3    0    0  0.17761398209E+02 -0.18617450282E+02 -0.19961990043E+02  0.32566205917E+02  0.00000000000E+00 0. -1.
</event>
<event>
 7    1  0.3986981E-008  0.4614232E+02  0.7816164E-02  0.1320468E+00
        -11   -1    0    0    0    0  0.00000000000E+00  0.00000000000E+00  0.45593999997E+02  0.45594000000E+02  0.51100000000E-03 0.  1.
         11   -1    0    0    0    0 -0.00000000000E+00 -0.00000000000E+00 -0.45593999997E+02  0.45594000000E+02  0.51100000000E-03 0. -1.
    9900012    2    1    2    0    0  0.43782113239E+01 -0.23935846302E+02 -0.37908047047E+02  0.46142317593E+02  0.99999984702E+01 0.  0.
        -12    1    1    2    0    0 -0.43782113239E+01  0.23935846302E+02  0.37908047047E+02  0.45045682407E+02  0.00000000000E+00 0.  1.
         11    1    3    3    0    0  0.42337077514E-01 -0.14687676704E+01 -0.60210987658E+00  0.15879570090E+01  0.51100000000E-03 0. -1.
        -11    1    3    3    0    0  0.64803108080E+01 -0.11939477282E+02 -0.19720709556E+02  0.23946856403E+02  0.51100000000E-03 0.  1.
         12    1    3    3    0    0 -0.21444365617E+01 -0.10527601350E+02 -0.17585227614E+02  0.20607504181E+02  0.00000000000E+00 0. -1.
</event>
<event>
 7    1  0.3986981E-008  0.4614232E+02  0.7816164E-02  0.1320468E+00
        -11   -1    0    0    0    0  0.00000000000E+00  0.00000000000E+00  0.45593999997E+02  0.45594000000E+02  0.51100000000E-03 0.  1.
         11   -1    0    0    0    0 -0.00000000000E+00 -0.00000000000E+00 -0.45593999997E+02  0.45594000000E+02  0.51100000000E-03 0. -1.
    9900012    2    1    2    0    0  0.11961197718E+02  0.53445177970E+01 -0.43098485337E+02  0.46142316970E+02  0.99999927850E+01 0.  0.
        -12    1    1    2    0    0 -0.11961197718E+02 -0.53445177970E+01  0.43098485337E+02  0.45045683030E+02  0.00000000000E+00 0.  1.
         11    1    3    3    0    0  0.42529053677E+01  0.27349288209E+01 -0.23980101375E+02  0.24507392802E+02  0.51100000000E-03 0. -1.
        -11    1    3    3    0    0  0.63950059160E+01  0.24465838091E+01 -0.19122691326E+02  0.20311553284E+02  0.51100000000E-03 0.  1.
        -12    1    3    3    0    0  0.13132864342E+01  0.16300516703E+00  0.43073645200E-02  0.13233708839E+01  0.00000000000E+00 0.  1.
</event>
<event>
 7    1  0.3986981E-008  0.4614232E+02  0.7816164E-02  0.1320468E+00
        -11   -1    0    0    0    0  0.00000000000E+00  0.00000000000E+00  0.45593999997E+02  0.45594000000E+02  0.51100000000E-03 0. -1.
         11   -1    0    0    0    0 -0.00000000000E+00 -0.00000000000E+00 -0.45593999997E+02  0.45594000000E+02  0.51100000000E-03 0.  1.
    9900012    2    1    2    0    0  0.17676730021E+02  0.37732071312E+02  0.17115415681E+02  0.46142318257E+02  0.10000004526E+02 0.  0.
        -12    1    1    2    0    0 -0.17676730021E+02 -0.37732071312E+02 -0.17115415681E+02  0.45045681743E+02  0.00000000000E+00 0.  1.
         11    1    3    3    0    0  0.15268914671E+02  0.22774111437E+02  0.12033813899E+02  0.29943489847E+02  0.51100000000E-03 0. -1.
        -11    1    3    3    0    0  0.13964267382E+01  0.27467492317E+01  0.52364835693E+00  0.31255154518E+01  0.51100000000E-03 0.  1.
         12    1    3    3    0    0  0.10113886118E+01  0.12211210643E+02  0.45579534254E+01  0.13073312959E+02  0.00000000000E+00 0. -1.
</event>
<event>
 7    1  0.3986981E-008  0.4614232E+02  0.7816164E-02  0.1320468E+00
        -11   -1    0    0    0    0  0.00000000000E+00  0.00000000000E+00  0.45593999997E+02  0.45594000000E+02  0.51100000000E-03 0.  1.
         11   -1    0    0    0    0 -0.00000000000E+00 -0.00000000000E+00 -0.45593999997E+02  0.45594000000E+02  0.51100000000E-03 0. -1.
    9900012    2    1    2    0    0 -0.38802581469E+02  0.10448746072E+02 -0.20354283932E+02  0.46142317660E+02  0.99999990739E+01 0.  0.
        -12    1    1    2    0    0  0.38802581469E+02 -0.10448746072E+02  0.20354283932E+02  0.45045682340E+02  0.00000000000E+00 0.  1.
         11    1    3    3    0    0 -0.12297482215E+02  0.41448894676E+01 -0.25538585590E+01  0.13226124577E+02  0.51100000000E-03 0.  1.
        -11    1    3    3    0    0 -0.12613640198E+02  0.23712262542E+01 -0.55554854975E+01  0.13985351349E+02  0.51100000000E-03 0. -1.
         12    1    3    3    0    0 -0.13891459057E+02  0.39326303504E+01 -0.12244939875E+02  0.18930841734E+02  0.00000000000E+00 0. -1.
</event>
<event>
 7    1  0.3986981E-008  0.4614232E+02  0.7816164E-02  0.1320468E+00
        -11   -1    0    0    0    0  0.00000000000E+00  0.00000000000E+00  0.45593999997E+02  0.45594000000E+02  0.51100000000E-03 0.  1.
         11   -1    0    0    0    0 -0.00000000000E+00 -0.00000000000E+00 -0.45593999997E+02  0.45594000000E+02  0.51100000000E-03 0. -1.
    9900012    2    1    2    0    0  0.73713112879E+01 -0.29422731985E+02 -0.33302854061E+02  0.46142317897E+02  0.10000001236E+02 0.  0.
        -12    1    1    2    0    0 -0.73713112879E+01  0.29422731985E+02  0.33302854061E+02  0.45045682103E+02  0.00000000000E+00 0.  1.
         11    1    3    3    0    0  0.54551909594E+01 -0.12029073278E+02 -0.14168106305E+02  0.19369898008E+02  0.51100000000E-03 0. -1.
        -11    1    3    3    0    0  0.22549242266E+01 -0.13409235214E+02 -0.18106176876E+02  0.22643451893E+02  0.51100000000E-03 0.  1.
        -12    1    3    3    0    0 -0.33880389815E+00 -0.39844234924E+01 -0.10285708798E+01  0.41289679949E+01  0.00000000000E+00 0.  1.
</event>
<event>
 7    1  0.3986981E-008  0.4614232E+02  0.7816164E-02  0.1320468E+00
        -11   -1    0    0    0    0  0.00000000000E+00  0.00000000000E+00  0.45593999997E+02  0.45594000000E+02  0.51100000000E-03 0. -1.
         11   -1    0    0    0    0 -0.00000000000E+00 -0.00000000000E+00 -0.45593999997E+02  0.45594000000E+02  0.51100000000E-03 0.  1.
    9900012    2    1    2    0    0  0.16831860847E+02 -0.13101453052E+02  0.39675608475E+02  0.46142317415E+02  0.99999968469E+01 0.  0.
        -12    1    1    2    0    0 -0.16831860847E+02  0.13101453052E+02 -0.39675608475E+02  0.45045682585E+02  0.00000000000E+00 0.  1.
         11    1    3    3    0    0  0.10570248966E+02 -0.12405684521E+02  0.27962137498E+02  0.32365294767E+02  0.51100000000E-03 0. -1.
        -11    1    3    3    0    0  0.23704582062E+01 -0.84655679033E+00  0.80358284351E+01  0.84208235586E+01  0.51100000000E-03 0.  1.
         12    1    3    3    0    0  0.38911536748E+01  0.15078825960E+00  0.36776425418E+01  0.53561990894E+01  0.00000000000E+00 0. -1.
</event>
<event>
 7    1  0.3986981E-008  0.4614232E+02  0.7816164E-02  0.1320468E+00
        -11   -1    0    0    0    0  0.00000000000E+00  0.00000000000E+00  0.45593999997E+02  0.45594000000E+02  0.51100000000E-03 0.  1.
         11   -1    0    0    0    0 -0.00000000000E+00 -0.00000000000E+00 -0.45593999997E+02  0.45594000000E+02  0.51100000000E-03 0. -1.
    9900012    2    1    2    0    0 -0.12389654866E+02 -0.39021388597E+02 -0.18786728447E+02  0.46142317837E+02  0.10000000694E+02 0.  0.
        -12    1    1    2    0    0  0.12389654866E+02  0.39021388597E+02  0.18786728447E+02  0.45045682163E+02  0.00000000000E+00 0.  1.
         11    1    3    3    0    0 -0.59716087451E+01 -0.21379370755E+02 -0.12143934662E+02  0.25302425857E+02  0.51100000000E-03 0. -1.
        -11    1    3    3    0    0 -0.76849494039E+00  0.38036916464E+00 -0.41380283587E+00  0.95210200236E+00  0.51100000000E-03 0.  1.
         12    1    3    3    0    0 -0.56495511809E+01 -0.18022387007E+02 -0.62289909485E+01  0.19887789978E+02  0.00000000000E+00 0. -1.
</event>
<event>
 7    1  0.3986981E-008  0.4614232E+02  0.7816164E-02  0.1320468E+00
        -11   -1    0    0    0    0  0.00000000000E+00  0.00000000000E+00  0.45593999997E+02  0.45594000000E+02  0.51100000000E-03 0.  1.
         11   -1    0    0    0    0 -0.00000000000E+00 -0.00000000000E+00 -0.45593999997E+02  0.45594000000E+02  0.51100000000E-03 0. -1.
    9900012    2    1    2    0    0  0.26142918538E+02 -0.22361779592E+02 -0.29079410246E+02  0.46142317893E+02  0.10000001204E+02 0.  0.
        -12    1    1    2    0    0 -0.26142918538E+02  0.22361779592E+02  0.29079410246E+02  0.45045682107E+02  0.00000000000E+00 0.  1.
         11    1    3    3    0    0  0.13587151567E+02 -0.15549177661E+02 -0.16148587794E+02  0.26213822721E+02  0.51100000000E-03 0. -1.
        -11    1    3    3    0    0  0.47894860215E+01 -0.40623271128E+01 -0.85160397857E+01  0.10581333178E+02  0.51100000000E-03 0.  1.
        -12    1    3    3    0    0  0.77662809496E+01 -0.27502748183E+01 -0.44147826662E+01  0.93471619946E+01  0.00000000000E+00 0.  1.
</event>
<event>
 7    1  0.3986981E-008  0.4614232E+02  0.7816164E-02  0.1320468E+00
        -11   -1    0    0    0    0  0.00000000000E+00  0.00000000000E+00  0.45593999997E+02  0.45594000000E+02  0.51100000000E-03 0. -1.
         11   -1    0    0    0    0 -0.00000000000E+00 -0.00000000000E+00 -0.45593999997E+02  0.45594000000E+02  0.51100000000E-03 0.  1.
    9900012    2    1    2    0    0  0.18541918337E+02 -0.26945834753E+02  0.30971482412E+02  0.46142317977E+02  0.10000001964E+02 0.  0.
        -12    1    1    2    0    0 -0.18541918337E+02  0.26945834753E+02 -0.30971482412E+02  0.45045682023E+02  0.00000000000E+00 0.  1.
         11    1    3    3    0    0  0.11425745297E+02 -0.13018709413E+02  0.16773483779E+02  0.24111910101E+02  0.51100000000E-03 0. -1.
        -11    1    3    3    0    0  0.55989526856E+01 -0.78383840716E+01  0.48846268091E+01  0.10800375704E+02  0.51100000000E-03 0.  1.
        -12    1    3    3    0    0  0.15172203545E+01 -0.60887412687E+01  0.93133718231E+01  0.11230032171E+02  0.00000000000E+00 0.  1.
</event>
<event>
 7    1  0.3986981E-008  0.4614232E+02  0.7816164E-02  0.1320468E+00
        -11   -1    0    0    0    0  0.00000000000E+00  0.00000000000E+00  0.45593999997E+02  0.45594000000E+02  0.51100000000E-03 0.  1.
         11   -1    0    0    0    0 -0.00000000000E+00 -0.00000000000E+00 -0.45593999997E+02  0.45594000000E+02  0.51100000000E-03 0. -1.
    9900012    2    1    2    0    0 -0.88706757808E+01 -0.38983964495E+02 -0.20752713400E+02  0.46142317743E+02  0.99999998333E+01 0.  0.
        -12    1    1    2    0    0  0.88706757808E+01  0.38983964495E+02  0.20752713400E+02  0.45045682257E+02  0.00000000000E+00 0.  1.
         11    1    3    3    0    0  0.60418989016E+00 -0.72713605664E+01 -0.21124642780E+01  0.75960671071E+01  0.51100000000E-03 0. -1.
        -11    1    3    3    0    0  0.68362817787E-01 -0.86882841890E+01 -0.63180850434E+01  0.10742865283E+02  0.51100000000E-03 0.  1.
        -12    1    3    3    0    0 -0.95432284888E+01 -0.23024319740E+02 -0.12322164078E+02  0.27803385352E+02  0.00000000000E+00 0.  1.
</event>
<event>
 7    1  0.3986981E-008  0.4614232E+02  0.7816164E-02  0.1320468E+00
        -11   -1    0    0    0    0  0.00000000000E+00  0.00000000000E+00  0.45593999997E+02  0.45594000000E+02  0.51100000000E-03 0.  1.
         11   -1    0    0    0    0 -0.00000000000E+00 -0.00000000000E+00 -0.45593999997E+02  0.45594000000E+02  0.51100000000E-03 0. -1.
    9900012    2    1    2    0    0 -0.15035679593E+02  0.21724806008E+02 -0.36483896037E+02  0.46142317333E+02  0.99999960967E+01 0.  0.
        -12    1    1    2    0    0  0.15035679593E+02 -0.21724806008E+02  0.36483896037E+02  0.45045682667E+02  0.00000000000E+00 0.  1.
         11    1    3    3    0    0 -0.36982147295E+01  0.41680001047E+01 -0.93840850891E+01  0.10913756012E+02  0.51100000000E-03 0. -1.
        -11    1    3    3    0    0 -0.33701841439E+01  0.17980345995E+01 -0.97567280468E+01  0.10477824775E+02  0.51100000000E-03 0.  1.
        -12    1    3    3    0    0 -0.79672807200E+01  0.15758771304E+02 -0.17343082901E+02  0.24750736546E+02  0.00000000000E+00 0.  1.
</event>
<event>
 7    1  0.3986981E-008  0.4614232E+02  0.7816164E-02  0.1320468E+00
        -11   -1    0    0    0    0  0.00000000000E+00  0.00000000000E+00  0.45593999997E+02  0.45594000000E+02  0.51100000000E-03 0. -1.
         11   -1    0    0    0    0 -0.00000000000E+00 -0.00000000000E+00 -0.45593999997E+02  0.45594000000E+02  0.51100000000E-03 0.  1.
    9900012    2    1    2    0    0  0.25679501218E+02 -0.29493263034E+02  0.22356745579E+02  0.46142318519E+02  0.10000006915E+02 0.  0.
        -12    1    1    2    0    0 -0.25679501218E+02  0.29493263034E+02 -0.22356745579E+02  0.45045681481E+02  0.00000000000E+00 0.  1.
         11    1    3    3    0    0  0.73264049489E+01 -0.81357641676E+01  0.59496376301E+01  0.12460539966E+02  0.51100000000E-03 0. -1.
        -11    1    3    3    0    0 -0.24012519247E+00 -0.32782980016E+01  0.69554766910E+00  0.33598637943E+01  0.51100000000E-03 0.  1.
        -12    1    3    3    0    0  0.18593221461E+02 -0.18079200864E+02  0.15711560280E+02  0.30321914759E+02  0.00000000000E+00 0.  1.
</event>
<event>
 7    1  0.3986981E-008  0.4614232E+02  0.7816164E-02  0.1320468E+00
        -11   -1    0    0    0    0  0.00000000000E+00  0.00000000000E+00  0.45593999997E+02  0.45594000000E+02  0.51100000000E-03 0. -1.
         11   -1    0    0    0    0 -0.00000000000E+00 -0.00000000000E+00 -0.45593999997E+02  0.45594000000E+02  0.51100000000E-03 0.  1.
    9900012    2    1    2    0    0  0.13086392891E+02 -0.40436098311E+02 -0.14925877889E+02  0.46142317008E+02  0.99999931292E+01 0.  0.
        -12    1    1    2    0    0 -0.13086392891E+02  0.40436098311E+02  0.14925877889E+02  0.45045682992E+02  0.00000000000E+00 0.  1.
         11    1    3    3    0    0  0.73311270498E+01 -0.22449363752E+02 -0.80858242330E+01  0.24961969283E+02  0.51100000000E-03 0. -1.
        -11    1    3    3    0    0  0.65528458611E+01 -0.12021577218E+02 -0.64902577420E+01  0.15151948835E+02  0.51100000000E-03 0.  1.
        -12    1    3    3    0    0 -0.79758002009E+00 -0.59651573409E+01 -0.34979591368E+00  0.60283988896E+01  0.00000000000E+00 0.  1.
</event>
<event>
 7    1  0.3986981E-008  0.4614231E+02  0.7816164E-02  0.1320468E+00
        -11   -1    0    0    0    0  0.00000000000E+00  0.00000000000E+00  0.45593999997E+02  0.45594000000E+02  0.51100000000E-03 0.  1.
         11   -1    0    0    0    0 -0.00000000000E+00 -0.00000000000E+00 -0.45593999997E+02  0.45594000000E+02  0.51100000000E-03 0. -1.
    9900012    2    1    2    0    0 -0.28199025951E+02 -0.28588998175E+02  0.20410730221E+02  0.46142314420E+02  0.99999695317E+01 0.  0.
        -12    1    1    2    0    0  0.28199025951E+02  0.28588998175E+02 -0.20410730221E+02  0.45045685580E+02  0.00000000000E+00 0.  1.
         11    1    3    3    0    0 -0.65360764918E+01 -0.11868029056E+02  0.68131656196E+01  0.15165409180E+02  0.51100000000E-03 0. -1.
        -11    1    3    3    0    0 -0.26773068063E+00 -0.15744559413E+01  0.50332600546E+00  0.16744935227E+01  0.51100000000E-03 0.  1.
         12    1    3    3    0    0 -0.21395218779E+02 -0.15146513177E+02  0.13094238596E+02  0.29302411717E+02  0.00000000000E+00 0. -1.
</event>
<event>
 7    1  0.3986981E-008  0.4614232E+02  0.7816164E-02  0.1320468E+00
        -11   -1    0    0    0    0  0.00000000000E+00  0.00000000000E+00  0.45593999997E+02  0.45594000000E+02  0.51100000000E-03 0.  1.
         11   -1    0    0    0    0 -0.00000000000E+00 -0.00000000000E+00 -0.45593999997E+02  0.45594000000E+02  0.51100000000E-03 0. -1.
    9900012    2    1    2    0    0 -0.38995322384E+01  0.34797449410E+02 -0.28338044517E+02  0.46142316476E+02  0.99999882784E+01 0.  0.
        -12    1    1    2    0    0  0.38995322384E+01 -0.34797449410E+02  0.28338044517E+02  0.45045683524E+02  0.00000000000E+00 0.  1.
         11    1    3    3    0    0 -0.16003135620E+01  0.28749671913E+02 -0.23068623638E+02  0.36895338939E+02  0.51100000000E-03 0.  1.
        -11    1    3    3    0    0 -0.12083211581E+01  0.42054153596E+01 -0.55719014120E+01  0.70846061269E+01  0.51100000000E-03 0. -1.
        -12    1    3    3    0    0 -0.10908975183E+01  0.18423621379E+01  0.30248053303E+00  0.21623714102E+01  0.00000000000E+00 0.  1.
</event>
<event>
 7    1  0.3986981E-008  0.4614232E+02  0.7816164E-02  0.1320468E+00
        -11   -1    0    0    0    0  0.00000000000E+00  0.00000000000E+00  0.45593999997E+02  0.45594000000E+02  0.51100000000E-03 0. -1.
         11   -1    0    0    0    0 -0.00000000000E+00 -0.00000000000E+00 -0.45593999997E+02  0.45594000000E+02  0.51100000000E-03 0.  1.
    9900012    2    1    2    0    0  0.18711707793E+02 -0.27518103123E+02  0.30360162951E+02  0.46142317605E+02  0.99999985759E+01 0.  0.
        -12    1    1    2    0    0 -0.18711707793E+02  0.27518103123E+02 -0.30360162951E+02  0.45045682395E+02  0.00000000000E+00 0.  1.
         11    1    3    3    0    0  0.26263724682E+01 -0.26577579015E+01  0.65075830336E+01  0.75040087024E+01  0.51100000000E-03 0. -1.
        -11    1    3    3    0    0  0.74483078468E+01 -0.14936927385E+02  0.16922659725E+02  0.23769002964E+02  0.51100000000E-03 0.  1.
         12    1    3    3    0    0  0.86370274784E+01 -0.99234178363E+01  0.69299201928E+01  0.14869305939E+02  0.00000000000E+00 0. -1.
</event>
<event>
 7    1  0.3986981E-008  0.4614232E+02  0.7816164E-02  0.1320468E+00
        -11   -1    0    0    0    0  0.00000000000E+00  0.00000000000E+00  0.45593999997E+02  0.45594000000E+02  0.51100000000E-03 0.  1.
         11   -1    0    0    0    0 -0.00000000000E+00 -0.00000000000E+00 -0.45593999997E+02  0.45594000000E+02  0.51100000000E-03 0. -1.
    9900012    2    1    2    0    0 -0.39111990574E+02  0.33978942497E+01 -0.22086648328E+02  0.46142317339E+02  0.99999961538E+01 0.  0.
        -12    1    1    2    0    0  0.39111990574E+02 -0.33978942497E+01  0.22086648328E+02  0.45045682661E+02  0.00000000000E+00 0.  1.
         11    1    3    3    0    0 -0.12225540469E+02  0.31337509507E+01 -0.66454181352E+01  0.14263443386E+02  0.51100000000E-03 0.  1.
        -11    1    3    3    0    0 -0.14000915303E+01  0.10101633809E+01 -0.31081497321E+01  0.35554579687E+01  0.51100000000E-03 0. -1.
         12    1    3    3    0    0 -0.25486358576E+02 -0.74602008200E+00 -0.12333080460E+02  0.28323415985E+02  0.00000000000E+00 0. -1.
</event>
<event>
 7    1  0.3986981E-008  0.4614232E+02  0.7816164E-02  0.1320468E+00
        -11   -1    0    0    0    0  0.00000000000E+00  0.00000000000E+00  0.45593999997E+02  0.45594000000E+02  0.51100000000E-03 0.  1.
         11   -1    0    0    0    0 -0.00000000000E+00 -0.00000000000E+00 -0.45593999997E+02  0.45594000000E+02  0.51100000000E-03 0. -1.
    9900012    2    1    2    0    0  0.30034149877E+02 -0.10162808827E+02 -0.31996572029E+02  0.46142318035E+02  0.10000002497E+02 0.  0.
        -12    1    1    2    0    0 -0.30034149877E+02  0.10162808827E+02  0.31996572029E+02  0.45045681965E+02  0.00000000000E+00 0.  1.
         11    1    3    3    0    0  0.79131984989E+01  0.68500074307E+00 -0.49404704762E+01  0.93539395598E+01  0.51100000000E-03 0. -1.
        -11    1    3    3    0    0  0.84997420119E+01 -0.62514106674E+01 -0.11471376469E+02  0.15585834208E+02  0.51100000000E-03 0.  1.
         12    1    3    3    0    0  0.13621209367E+02 -0.45963989029E+01 -0.15584725083E+02  0.21202544267E+02  0.00000000000E+00 0. -1.
</event>
<event>
 7    1  0.3986981E-008  0.4614232E+02  0.7816164E-02  0.1320468E+00
        -11   -1    0    0    0    0  0.00000000000E+00  0.00000000000E+00  0.45593999997E+02  0.45594000000E+02  0.51100000000E-03 0.  1.
         11   -1    0    0    0    0 -0.00000000000E+00 -0.00000000000E+00 -0.45593999997E+02  0.45594000000E+02  0.51100000000E-03 0. -1.
    9900012    2    1    2    0    0  0.15236764786E+02 -0.41796203545E+02  0.70733293348E+01  0.46142316302E+02  0.99999866981E+01 0.  0.
        -12    1    1    2    0    0 -0.15236764786E+02  0.41796203545E+02 -0.70733293348E+01  0.45045683698E+02  0.00000000000E+00 0.  1.
         11    1    3    3    0    0  0.15142576867E+02 -0.33749171186E+02  0.54960674626E+01  0.37396670276E+02  0.51100000000E-03 0. -1.
        -11    1    3    3    0    0 -0.26880587024E+00 -0.12344086770E+01 -0.82944876272E+00  0.15112931181E+01  0.51100000000E-03 0.  1.
         12    1    3    3    0    0  0.36299378926E+00 -0.68126236814E+01  0.24067106349E+01  0.72343529079E+01  0.00000000000E+00 0. -1.
</event>
<event>
 7    1  0.3986981E-008  0.4614231E+02  0.7816164E-02  0.1320468E+00
        -11   -1    0    0    0    0  0.00000000000E+00  0.00000000000E+00  0.45593999997E+02  0.45594000000E+02  0.51100000000E-03 0.  1.
         11   -1    0    0    0    0 -0.00000000000E+00 -0.00000000000E+00 -0.45593999997E+02  0.45594000000E+02  0.51100000000E-03 0. -1.
    9900012    2    1    2    0    0 -0.98298762114E+00 -0.40345098235E+02 -0.20010521155E+02  0.46142310160E+02  0.99999306855E+01 0.  0.
        -12    1    1    2    0    0  0.98298762114E+00  0.40345098235E+02  0.20010521155E+02  0.45045689840E+02  0.00000000000E+00 0.  1.
         11    1    3    3    0    0 -0.19976140713E+01 -0.43343202831E+01 -0.27697610510E+01  0.55180042439E+01  0.51100000000E-03 0. -1.
        -11    1    3    3    0    0  0.36985227773E+01 -0.23505522923E+02 -0.91687844906E+01  0.25500103684E+02  0.51100000000E-03 0.  1.
        -12    1    3    3    0    0 -0.26838963271E+01 -0.12505255029E+02 -0.80719756134E+01  0.15124202232E+02  0.00000000000E+00 0.  1.
</event>
<event>
 7    1  0.3986981E-008  0.4614232E+02  0.7816164E-02  0.1320468E+00
        -11   -1    0    0    0    0  0.00000000000E+00  0.00000000000E+00  0.45593999997E+02  0.45594000000E+02  0.51100000000E-03 0.  1.
         11   -1    0    0    0    0 -0.00000000000E+00 -0.00000000000E+00 -0.45593999997E+02  0.45594000000E+02  0.51100000000E-03 0. -1.
    9900012    2    1    2    0    0 -0.22248106454E+02 -0.29268935082E+02 -0.26028150270E+02  0.46142318652E+02  0.10000008124E+02 0.  0.
        -12    1    1    2    0    0  0.22248106454E+02  0.29268935082E+02  0.26028150270E+02  0.45045681348E+02  0.00000000000E+00 0.  1.
         11    1    3    3    0    0 -0.14435030020E+02 -0.16994633402E+02 -0.12397514573E+02  0.25512468011E+02  0.51100000000E-03 0. -1.
        -11    1    3    3    0    0 -0.78030127194E+01 -0.87198032843E+01 -0.88431346086E+01  0.14667072195E+02  0.51100000000E-03 0.  1.
        -12    1    3    3    0    0 -0.10063714700E-01 -0.35544983955E+01 -0.47875010885E+01  0.59627784458E+01  0.00000000000E+00 0.  1.
</event>
<event>
 7    1  0.3986981E-008  0.4614232E+02  0.7816164E-02  0.1320468E+00
        -11   -1    0    0    0    0  0.00000000000E+00  0.00000000000E+00  0.45593999997E+02  0.45594000000E+02  0.51100000000E-03 0. -1.
         11   -1    0    0    0    0 -0.00000000000E+00 -0.00000000000E+00 -0.45593999997E+02  0.45594000000E+02  0.51100000000E-03 0.  1.
    9900012    2    1    2    0    0 -0.36515001578E+02  0.23286997521E+02  0.12388860416E+02  0.46142318119E+02  0.10000003262E+02 0.  0.
        -12    1    1    2    0    0  0.36515001578E+02 -0.23286997521E+02 -0.12388860416E+02  0.45045681881E+02  0.00000000000E+00 0.  1.
         11    1    3    3    0    0 -0.17573715579E+01 -0.39209136801E-01  0.27238186653E+00  0.17787873092E+01  0.51100000000E-03 0. -1.
        -11    1    3    3    0    0 -0.35042454790E+01  0.37753356655E+00  0.27602829919E+01  0.44767656212E+01  0.51100000000E-03 0.  1.
         12    1    3    3    0    0 -0.31253384541E+02  0.22948673091E+02  0.93561955575E+01  0.39886765188E+02  0.00000000000E+00 0. -1.
</event>
<event>
 7    1  0.3986981E-008  0.4614232E+02  0.7816164E-02  0.1320468E+00
        -11   -1    0    0    0    0  0.00000000000E+00  0.00000000000E+00  0.45593999997E+02  0.45594000000E+02  0.51100000000E-03 0.  1.
         11   -1    0    0    0    0 -0.00000000000E+00 -0.00000000000E+00 -0.45593999997E+02  0.45594000000E+02  0.51100000000E-03 0. -1.
    9900012    2    1    2    0    0 -0.46426178899E+01  0.39776590162E+02 -0.20624803533E+02  0.46142317115E+02  0.99999941108E+01 0.  0.
        -12    1    1    2    0    0  0.46426178899E+01 -0.39776590162E+02  0.20624803533E+02  0.45045682885E+02  0.00000000000E+00 0.  1.
         11    1    3    3    0    0 -0.90180265367E+00  0.27043399169E+02 -0.15578166128E+02  0.31222394956E+02  0.51100000000E-03 0. -1.
        -11    1    3    3    0    0 -0.42655310331E+00  0.40025150684E+01  0.50348718836E+00  0.40565470579E+01  0.51100000000E-03 0.  1.
         12    1    3    3    0    0 -0.33142621329E+01  0.87306759244E+01 -0.55501245933E+01  0.10863375101E+02  0.00000000000E+00 0. -1.
</event>
<event>
 7    1  0.3986981E-008  0.4614232E+02  0.7816164E-02  0.1320468E+00
        -11   -1    0    0    0    0  0.00000000000E+00  0.00000000000E+00  0.45593999997E+02  0.45594000000E+02  0.51100000000E-03 0. -1.
         11   -1    0    0    0    0 -0.00000000000E+00 -0.00000000000E+00 -0.45593999997E+02  0.45594000000E+02  0.51100000000E-03 0.  1.
    9900012    2    1    2    0    0  0.13721644143E+02 -0.10809226474E+02  0.41520965599E+02  0.46142317862E+02  0.10000000924E+02 0.  0.
        -12    1    1    2    0    0 -0.13721644143E+02  0.10809226474E+02 -0.41520965599E+02  0.45045682138E+02  0.00000000000E+00 0.  1.
         11    1    3    3    0    0  0.26711912851E+01 -0.34917115828E+01  0.39021297584E+01  0.58782590595E+01  0.51100000000E-03 0. -1.
        -11    1    3    3    0    0  0.14697021124E+01  0.66747843240E+00  0.23170128331E+01  0.28238449828E+01  0.51100000000E-03 0.  1.
         12    1    3    3    0    0  0.95807507450E+01 -0.79849933240E+01  0.35301823008E+02  0.37440213820E+02  0.00000000000E+00 0. -1.
</event>
<event>
 7    1  0.3986981E-008  0.4614232E+02  0.7816164E-02  0.1320468E+00
        -11   -1    0    0    0    0  0.00000000000E+00  0.00000000000E+00  0.45593999997E+02  0.45594000000E+02  0.51100000000E-03 0.  1.
         11   -1    0    0    0    0 -0.00000000000E+00 -0.00000000000E+00 -0.45593999997E+02  0.45594000000E+02  0.51100000000E-03 0. -1.
    9900012    2    1    2    0    0  0.40441968719E+01  0.43117711807E+02 -0.12394386271E+02  0.46142318622E+02  0.10000007847E+02 0.  0.
        -12    1    1    2    0    0 -0.40441968719E+01 -0.43117711807E+02  0.12394386271E+02  0.45045681378E+02  0.00000000000E+00 0.  1.
         11    1    3    3    0    0  0.12155685822E+01  0.50630166715E+01 -0.10787776484E+01  0.53174717930E+01  0.51100000000E-03 0. -1.
        -11    1    3    3    0    0  0.51212326746E+01  0.25119889506E+02 -0.45103081844E+01  0.26030342931E+02  0.51100000000E-03 0.  1.
        -12    1    3    3    0    0 -0.22926043849E+01  0.12934805629E+02 -0.68053004378E+01  0.14794503898E+02  0.00000000000E+00 0.  1.
</event>
<event>
 7    1  0.3986981E-008  0.4614232E+02  0.7816164E-02  0.1320468E+00
        -11   -1    0    0    0    0  0.00000000000E+00  0.00000000000E+00  0.45593999997E+02  0.45594000000E+02  0.51100000000E-03 0.  1.
         11   -1    0    0    0    0 -0.00000000000E+00 -0.00000000000E+00 -0.45593999997E+02  0.45594000000E+02  0.51100000000E-03 0. -1.
    9900012    2    1    2    0    0  0.22561220609E+02 -0.38601388438E+02 -0.54806776937E+01  0.46142315493E+02  0.99999793184E+01 0.  0.
        -12    1    1    2    0    0 -0.22561220609E+02  0.38601388438E+02  0.54806776937E+01  0.45045684507E+02  0.00000000000E+00 0.  1.
         11    1    3    3    0    0  0.10538725983E+02 -0.16574504586E+02  0.13660914601E+00  0.19641731337E+02  0.51100000000E-03 0. -1.
        -11    1    3    3    0    0 -0.62765911009E+00 -0.16238416056E+01  0.32170123929E+00  0.17703981098E+01  0.51100000000E-03 0.  1.
        -12    1    3    3    0    0  0.12650153737E+02 -0.20403042247E+02 -0.59389880790E+01  0.24730186046E+02  0.00000000000E+00 0.  1.
</event>
<event>
 7    1  0.3986981E-008  0.4614232E+02  0.7816164E-02  0.1320468E+00
        -11   -1    0    0    0    0  0.00000000000E+00  0.00000000000E+00  0.45593999997E+02  0.45594000000E+02  0.51100000000E-03 0.  1.
         11   -1    0    0    0    0 -0.00000000000E+00 -0.00000000000E+00 -0.45593999997E+02  0.45594000000E+02  0.51100000000E-03 0. -1.
    9900012    2    1    2    0    0 -0.28864143499E+02 -0.49360965421E+01 -0.34228784449E+02  0.46142317478E+02  0.99999974197E+01 0.  0.
        -12    1    1    2    0    0  0.28864143499E+02  0.49360965421E+01  0.34228784449E+02  0.45045682522E+02  0.00000000000E+00 0.  1.
         11    1    3    3    0    0 -0.12111168037E+02 -0.69085938748E+00 -0.16622097435E+02  0.20577944536E+02  0.51100000000E-03 0. -1.
        -11    1    3    3    0    0 -0.27927853597E+01 -0.20574264628E+01 -0.71523635402E+00  0.35417816165E+01  0.51100000000E-03 0.  1.
         12    1    3    3    0    0 -0.13960190102E+02 -0.21878106918E+01 -0.16891450660E+02  0.22022591326E+02  0.00000000000E+00 0. -1.
</event>
<event>
 7    1  0.3986981E-008  0.4614232E+02  0.7816164E-02  0.1320468E+00
        -11   -1    0    0    0    0  0.00000000000E+00  0.00000000000E+00  0.45593999997E+02  0.45594000000E+02  0.51100000000E-03 0. -1.
         11   -1    0    0    0    0 -0.00000000000E+00 -0.00000000000E+00 -0.45593999997E+02  0.45594000000E+02  0.51100000000E-03 0.  1.
    9900012    2    1    2    0    0  0.13088017482E+02 -0.41588935764E+02  0.11321557413E+02  0.46142318278E+02  0.10000004711E+02 0.  0.
        -12    1    1    2    0    0 -0.13088017482E+02  0.41588935764E+02 -0.11321557413E+02  0.45045681722E+02  0.00000000000E+00 0.  1.
         11    1    3    3    0    0  0.49867858524E+01 -0.19883727712E+02  0.70498150458E+00  0.20511646936E+02  0.51100000000E-03 0. -1.
        -11    1    3    3    0    0  0.19443518001E+01 -0.46305739223E+01  0.35620570708E+01  0.61571884501E+01  0.51100000000E-03 0.  1.
         12    1    3    3    0    0  0.61568798292E+01 -0.17074634130E+02  0.70545188377E+01  0.19473482892E+02  0.00000000000E+00 0. -1.
</event>
<event>
 7    1  0.3986981E-008  0.4614232E+02  0.7816164E-02  0.1320468E+00
        -11   -1    0    0    0    0  0.00000000000E+00  0.00000000000E+00  0.45593999997E+02  0.45594000000E+02  0.51100000000E-03 0. -1.
         11   -1    0    0    0    0 -0.00000000000E+00 -0.00000000000E+00 -0.45593999997E+02  0.45594000000E+02  0.51100000000E-03 0.  1.
    9900012    2    1    2    0    0 -0.19478101858E+02  0.27876015488E+02  0.29540558123E+02  0.46142320232E+02  0.10000022536E+02 0.  0.
        -12    1    1    2    0    0  0.19478101858E+02 -0.27876015488E+02 -0.29540558123E+02  0.45045679768E+02  0.00000000000E+00 0.  1.
         11    1    3    3    0    0 -0.82043314967E+01  0.10851633932E+02  0.10004869669E+02  0.16886871577E+02  0.51100000000E-03 0. -1.
        -11    1    3    3    0    0 -0.44608500989E+01  0.39845642105E+01  0.10220534840E+02  0.11842097290E+02  0.51100000000E-03 0.  1.
        -12    1    3    3    0    0 -0.68129202629E+01  0.13039817346E+02  0.93151536134E+01  0.17413351365E+02  0.00000000000E+00 0.  1.
</event>
<event>
 7    1  0.3986981E-008  0.4614232E+02  0.7816164E-02  0.1320468E+00
        -11   -1    0    0    0    0  0.00000000000E+00  0.00000000000E+00  0.45593999997E+02  0.45594000000E+02  0.51100000000E-03 0. -1.
         11   -1    0    0    0    0 -0.00000000000E+00 -0.00000000000E+00 -0.45593999997E+02  0.45594000000E+02  0.51100000000E-03 0.  1.
    9900012    2    1    2    0    0 -0.38668328083E+02 -0.23074608645E+02 -0.11985056106E+01  0.46142316782E+02  0.99999910720E+01 0.  0.
        -12    1    1    2    0    0  0.38668328083E+02  0.23074608645E+02  0.11985056106E+01  0.45045683218E+02  0.00000000000E+00 0.  1.
         11    1    3    3    0    0 -0.33325967860E+02 -0.22963725107E+02  0.42843217738E+00  0.40473897255E+02  0.51100000000E-03 0. -1.
        -11    1    3    3    0    0 -0.27929925853E+01 -0.13438501877E+00 -0.13465959058E+01  0.31035765995E+01  0.51100000000E-03 0.  1.
         12    1    3    3    0    0 -0.25493676376E+01  0.23501480855E-01 -0.28034188222E+00  0.25648429274E+01  0.00000000000E+00 0. -1.
</event>
<event>
 7    1  0.3986981E-008  0.4614232E+02  0.7816164E-02  0.1320468E+00
        -11   -1    0    0    0    0  0.00000000000E+00  0.00000000000E+00  0.45593999997E+02  0.45594000000E+02  0.51100000000E-03 0. -1.
         11   -1    0    0    0    0 -0.00000000000E+00 -0.00000000000E+00 -0.45593999997E+02  0.45594000000E+02  0.51100000000E-03 0.  1.
    9900012    2    1    2    0    0 -0.33167179811E+02  0.12961698244E+02  0.27587063923E+02  0.46142317256E+02  0.99999953931E+01 0.  0.
        -12    1    1    2    0    0  0.33167179811E+02 -0.12961698244E+02 -0.27587063923E+02  0.45045682744E+02  0.00000000000E+00 0.  1.
         11    1    3    3    0    0 -0.19978543205E+02  0.10179191192E+02  0.21681534748E+02  0.31190496489E+02  0.51100000000E-03 0. -1.
        -11    1    3    3    0    0 -0.74029859936E+00 -0.23372913434E+00  0.92852277344E+00  0.12103000150E+01  0.51100000000E-03 0.  1.
         12    1    3    3    0    0 -0.12448338007E+02  0.30162361866E+01  0.49770064011E+01  0.13741520752E+02  0.00000000000E+00 0. -1.
</event>
<event>
 7    1  0.3986981E-008  0.4614231E+02  0.7816164E-02  0.1320468E+00
        -11   -1    0    0    0    0  0.00000000000E+00  0.00000000000E+00  0.45593999997E+02  0.45594000000E+02  0.51100000000E-03 0.  1.
         11   -1    0    0    0    0 -0.00000000000E+00 -0.00000000000E+00 -0.45593999997E+02  0.45594000000E+02  0.51100000000E-03 0. -1.
    9900012    2    1    2    0    0 -0.11612192304E+02  0.37605696512E+02 -0.21910784481E+02  0.46142313227E+02  0.99999586554E+01 0.  0.
        -12    1    1    2    0    0  0.11612192304E+02 -0.37605696512E+02  0.21910784481E+02  0.45045686773E+02  0.00000000000E+00 0.  1.
         11    1    3    3    0    0 -0.86040136997E+01  0.25105418336E+02 -0.10660030611E+02  0.28599778573E+02  0.51100000000E-03 0. -1.
        -11    1    3    3    0    0 -0.69303005024E-01 -0.29493161344E+00 -0.44864736989E+00  0.54136151206E+00  0.51100000000E-03 0.  1.
         12    1    3    3    0    0 -0.29388755993E+01  0.12795209790E+02 -0.10802106500E+02  0.17001173142E+02  0.00000000000E+00 0. -1.
</event>
<event>
 7    1  0.3986981E-008  0.4614232E+02  0.7816164E-02  0.1320468E+00
        -11   -1    0    0    0    0  0.00000000000E+00  0.00000000000E+00  0.45593999997E+02  0.45594000000E+02  0.51100000000E-03 0.  1.
         11   -1    0    0    0    0 -0.00000000000E+00 -0.00000000000E+00 -0.45593999997E+02  0.45594000000E+02  0.51100000000E-03 0. -1.
    9900012    2    1    2    0    0 -0.34700695371E+02 -0.27759126270E+02 -0.73760443031E+01  0.46142318963E+02  0.10000010963E+02 0.  0.
        -12    1    1    2    0    0  0.34700695371E+02  0.27759126270E+02  0.73760443031E+01  0.45045681037E+02  0.00000000000E+00 0.  1.
         11    1    3    3    0    0 -0.24172324028E+02 -0.21726757074E+02 -0.67533162265E+01  0.33195790429E+02  0.51100000000E-03 0. -1.
        -11    1    3    3    0    0 -0.29809104660E+01 -0.27237595545E+01 -0.21357834265E+01  0.45679606416E+01  0.51100000000E-03 0.  1.
         12    1    3    3    0    0 -0.75474608769E+01 -0.33086096417E+01  0.15130553499E+01  0.83785678932E+01  0.00000000000E+00 0. -1.
</event>
<event>
 7    1  0.3986981E-008  0.4614232E+02  0.7816164E-02  0.1320468E+00
        -11   -1    0    0    0    0  0.00000000000E+00  0.00000000000E+00  0.45593999997E+02  0.45594000000E+02  0.51100000000E-03 0. -1.
         11   -1    0    0    0    0 -0.00000000000E+00 -0.00000000000E+00 -0.45593999997E+02  0.45594000000E+02  0.51100000000E-03 0.  1.
    9900012    2    1    2    0    0 -0.17174727475E+02  0.41242242402E+02 -0.57636692712E+01  0.46142315349E+02  0.99999780083E+01 0.  0.
        -12    1    1    2    0    0  0.17174727475E+02 -0.41242242402E+02  0.57636692712E+01  0.45045684651E+02  0.00000000000E+00 0.  1.
         11    1    3    3    0    0 -0.72059365230E+01  0.15086017465E+02 -0.36720988537E+01  0.17117177174E+02  0.51100000000E-03 0. -1.
        -11    1    3    3    0    0 -0.79083461455E+01  0.15291252148E+02 -0.43091733125E+01  0.17746360357E+02  0.51100000000E-03 0.  1.
         12    1    3    3    0    0 -0.20604448064E+01  0.10864972788E+02  0.22176028950E+01  0.11278777819E+02  0.00000000000E+00 0. -1.
</event>
<event>
 7    1  0.3986981E-008  0.4614231E+02  0.7816164E-02  0.1320468E+00
        -11   -1    0    0    0    0  0.00000000000E+00  0.00000000000E+00  0.45593999997E+02  0.45594000000E+02  0.51100000000E-03 0.  1.
         11   -1    0    0    0    0 -0.00000000000E+00 -0.00000000000E+00 -0.45593999997E+02  0.45594000000E+02  0.51100000000E-03 0. -1.
    9900012    2    1    2    0    0  0.15569761739E+02 -0.13917592438E+02 -0.39912367567E+02  0.46142312696E+02  0.99999538148E+01 0.  0.
        -12    1    1    2    0    0 -0.15569761739E+02  0.13917592438E+02  0.39912367567E+02  0.45045687304E+02  0.00000000000E+00 0.  1.
         11    1    3    3    0    0  0.98333244777E+00 -0.39344734389E+01 -0.87424245999E+01  0.96372720254E+01  0.51100000000E-03 0. -1.
        -11    1    3    3    0    0  0.10186381012E+01 -0.30892717250E+01 -0.27194771933E+01  0.42399032816E+01  0.51100000000E-03 0.  1.
        -12    1    3    3    0    0  0.13567791190E+02 -0.68938472741E+01 -0.28450465774E+02  0.32265137389E+02  0.00000000000E+00 0.  1.
</event>
<event>
 7    1  0.3986981E-008  0.4614232E+02  0.7816164E-02  0.1320468E+00
        -11   -1    0    0    0    0  0.00000000000E+00  0.00000000000E+00  0.45593999997E+02  0.45594000000E+02  0.51100000000E-03 0.  1.
         11   -1    0    0    0    0 -0.00000000000E+00 -0.00000000000E+00 -0.45593999997E+02  0.45594000000E+02  0.51100000000E-03 0. -1.
    9900012    2    1    2    0    0  0.23800206009E+02  0.31160074454E+02 -0.22174612145E+02  0.46142317967E+02  0.10000001874E+02 0.  0.
        -12    1    1    2    0    0 -0.23800206009E+02 -0.31160074454E+02  0.22174612145E+02  0.45045682033E+02  0.00000000000E+00 0.  1.
         11    1    3    3    0    0  0.26820748277E+01  0.34656976034E+01 -0.35092850767E+01  0.56142379064E+01  0.51100000000E-03 0. -1.
        -11    1    3    3    0    0  0.51052485717E+01  0.12285173076E+02 -0.10134177106E+02  0.16723952474E+02  0.51100000000E-03 0.  1.
         12    1    3    3    0    0  0.16012882610E+02  0.15409203775E+02 -0.85311499630E+01  0.23804127586E+02  0.00000000000E+00 0. -1.
</event>
<event>
 7    1  0.3986981E-008  0.4614232E+02  0.7816164E-02  0.1320468E+00
        -11   -1    0    0    0    0  0.00000000000E+00  0.00000000000E+00  0.45593999997E+02  0.45594000000E+02  0.51100000000E-03 0. -1.
         11   -1    0    0    0    0 -0.00000000000E+00 -0.00000000000E+00 -0.45593999997E+02  0.45594000000E+02  0.51100000000E-03 0.  1.
    9900012    2    1    2    0    0  0.18126530596E+02 -0.26389031187E+02  0.31688506582E+02  0.46142317323E+02  0.99999960062E+01 0.  0.
        -12    1    1    2    0    0 -0.18126530596E+02  0.26389031187E+02 -0.31688506582E+02  0.45045682677E+02  0.00000000000E+00 0.  1.
         11    1    3    3    0    0  0.18020769843E+02 -0.19462720384E+02  0.25361711450E+02  0.36698256613E+02  0.51100000000E-03 0. -1.
        -11    1    3    3    0    0 -0.64799987670E-01 -0.24467648881E+00  0.19103788043E-01  0.25383230373E+00  0.51100000000E-03 0.  1.
         12    1    3    3    0    0  0.17056074044E+00 -0.66816343147E+01  0.63076913433E+01  0.91902284065E+01  0.00000000000E+00 0. -1.
</event>
<event>
 7    1  0.3986981E-008  0.4614232E+02  0.7816164E-02  0.1320468E+00
        -11   -1    0    0    0    0  0.00000000000E+00  0.00000000000E+00  0.45593999997E+02  0.45594000000E+02  0.51100000000E-03 0.  1.
         11   -1    0    0    0    0 -0.00000000000E+00 -0.00000000000E+00 -0.45593999997E+02  0.45594000000E+02  0.51100000000E-03 0. -1.
    9900012    2    1    2    0    0  0.13975172629E+02  0.40553823385E+02 -0.13754821642E+02  0.46142321411E+02  0.10000033284E+02 0.  0.
        -12    1    1    2    0    0 -0.13975172629E+02 -0.40553823385E+02  0.13754821642E+02  0.45045678589E+02  0.00000000000E+00 0.  1.
         11    1    3    3    0    0  0.34680343464E+00  0.12897415407E+02 -0.40750263789E+01  0.13530315482E+02  0.51100000000E-03 0. -1.
        -11    1    3    3    0    0  0.35438127725E+01  0.79121982753E+01 -0.48042239008E+01  0.99117131751E+01  0.51100000000E-03 0.  1.
        -12    1    3    3    0    0  0.10084556422E+02  0.19744209702E+02 -0.48755713621E+01  0.22700292754E+02  0.00000000000E+00 0.  1.
</event>
<event>
 7    1  0.3986981E-008  0.4614233E+02  0.7816164E-02  0.1320468E+00
        -11   -1    0    0    0    0  0.00000000000E+00  0.00000000000E+00  0.45593999997E+02  0.45594000000E+02  0.51100000000E-03 0. -1.
         11   -1    0    0    0    0 -0.00000000000E+00 -0.00000000000E+00 -0.45593999997E+02  0.45594000000E+02  0.51100000000E-03 0.  1.
    9900012    2    1    2    0    0  0.24513489687E+02  0.79795435409E+01  0.36939522995E+02  0.46142327057E+02  0.10000084770E+02 0.  0.
        -12    1    1    2    0    0 -0.24513489687E+02 -0.79795435409E+01 -0.36939522995E+02  0.45045672943E+02  0.00000000000E+00 0.  1.
         11    1    3    3    0    0  0.92683856904E+01  0.37424951938E+01  0.19183689633E+02  0.21631532349E+02  0.51100000000E-03 0. -1.
        -11    1    3    3    0    0  0.11206711421E+02  0.72668970446E+00  0.14120799976E+02  0.18042046753E+02  0.51100000000E-03 0.  1.
        -12    1    3    3    0    0  0.40383925751E+01  0.35103586427E+01  0.36350333862E+01  0.64687479553E+01  0.00000000000E+00 0.  1.
</event>
<event>
 7    1  0.3986981E-008  0.4614232E+02  0.7816164E-02  0.1320468E+00
        -11   -1    0    0    0    0  0.00000000000E+00  0.00000000000E+00  0.45593999997E+02  0.45594000000E+02  0.51100000000E-03 0. -1.
         11   -1    0    0    0    0 -0.00000000000E+00 -0.00000000000E+00 -0.45593999997E+02  0.45594000000E+02  0.51100000000E-03 0.  1.
    9900012    2    1    2    0    0 -0.23964956531E+02  0.27041498415E+02  0.26898912715E+02  0.46142320037E+02  0.10000020753E+02 0.  0.
        -12    1    1    2    0    0  0.23964956531E+02 -0.27041498415E+02 -0.26898912715E+02  0.45045679963E+02  0.00000000000E+00 0.  1.
         11    1    3    3    0    0 -0.16738642470E+02  0.17716961084E+02  0.12659616124E+02  0.27465227879E+02  0.51100000000E-03 0. -1.
        -11    1    3    3    0    0 -0.16628340351E+01  0.25586185570E+01  0.20873121720E+01  0.36970824055E+01  0.51100000000E-03 0.  1.
        -12    1    3    3    0    0 -0.55634800260E+01  0.67659187748E+01  0.12151984419E+02  0.14980009753E+02  0.00000000000E+00 0.  1.
</event>
<event>
 7    1  0.3986981E-008  0.4614232E+02  0.7816164E-02  0.1320468E+00
        -11   -1    0    0    0    0  0.00000000000E+00  0.00000000000E+00  0.45593999997E+02  0.45594000000E+02  0.51100000000E-03 0. -1.
         11   -1    0    0    0    0 -0.00000000000E+00 -0.00000000000E+00 -0.45593999997E+02  0.45594000000E+02  0.51100000000E-03 0.  1.
    9900012    2    1    2    0    0 -0.87086455076E+01  0.40825601925E+02 -0.16927585538E+02  0.46142318395E+02  0.10000005776E+02 0.  0.
        -12    1    1    2    0    0  0.87086455076E+01 -0.40825601925E+02  0.16927585538E+02  0.45045681605E+02  0.00000000000E+00 0.  1.
         11    1    3    3    0    0 -0.81226092159E+00  0.14910893225E+02 -0.55978199542E+01  0.15947730029E+02  0.51100000000E-03 0. -1.
        -11    1    3    3    0    0 -0.61057857354E+01  0.24087482951E+02 -0.82327873975E+01  0.26177590473E+02  0.51100000000E-03 0.  1.
        -12    1    3    3    0    0 -0.17905988507E+01  0.18272257490E+01 -0.30969781866E+01  0.40169978927E+01  0.00000000000E+00 0.  1.
</event>
<event>
 7    1  0.3986981E-008  0.4614232E+02  0.7816164E-02  0.1320468E+00
        -11   -1    0    0    0    0  0.00000000000E+00  0.00000000000E+00  0.45593999997E+02  0.45594000000E+02  0.51100000000E-03 0.  1.
         11   -1    0    0    0    0 -0.00000000000E+00 -0.00000000000E+00 -0.45593999997E+02  0.45594000000E+02  0.51100000000E-03 0. -1.
    9900012    2    1    2    0    0 -0.92567095334E+01  0.30543898178E+02 -0.31788316715E+02  0.46142318000E+02  0.10000002181E+02 0.  0.
        -12    1    1    2    0    0  0.92567095334E+01 -0.30543898178E+02  0.31788316715E+02  0.45045682000E+02  0.00000000000E+00 0.  1.
         11    1    3    3    0    0 -0.23738530034E+01  0.10009416641E+02 -0.11887651534E+02  0.15720682518E+02  0.51100000000E-03 0. -1.
        -11    1    3    3    0    0 -0.74899410267E+01  0.20821899781E+02 -0.19884601968E+02  0.29749758365E+02  0.51100000000E-03 0.  1.
        -12    1    3    3    0    0  0.60708449672E+00 -0.28741824493E+00 -0.16063212555E-01  0.67187711710E+00  0.00000000000E+00 0.  1.
</event>
<event>
 7    1  0.3986981E-008  0.4614232E+02  0.7816164E-02  0.1320468E+00
        -11   -1    0    0    0    0  0.00000000000E+00  0.00000000000E+00  0.45593999997E+02  0.45594000000E+02  0.51100000000E-03 0.  1.
         11   -1    0    0    0    0 -0.00000000000E+00 -0.00000000000E+00 -0.45593999997E+02  0.45594000000E+02  0.51100000000E-03 0. -1.
    9900012    2    1    2    0    0  0.15929690409E+02  0.66536015769E+01 -0.41606345526E+02  0.46142318314E+02  0.10000005044E+02 0.  0.
        -12    1    1    2    0    0 -0.15929690409E+02 -0.66536015769E+01  0.41606345526E+02  0.45045681686E+02  0.00000000000E+00 0.  1.
         11    1    3    3    0    0  0.68204333585E+01  0.51779899805E+01 -0.14995397151E+02  0.17268231740E+02  0.51100000000E-03 0. -1.
        -11    1    3    3    0    0  0.91824325279E+01 -0.23736391768E+00 -0.19437701680E+02  0.21498782654E+02  0.51100000000E-03 0.  1.
        -12    1    3    3    0    0 -0.73175477583E-01  0.17129755141E+01 -0.71732466956E+01  0.73753039204E+01  0.00000000000E+00 0.  1.
</event>
<event>
 7    1  0.3986981E-008  0.4614232E+02  0.7816164E-02  0.1320468E+00
        -11   -1    0    0    0    0  0.00000000000E+00  0.00000000000E+00  0.45593999997E+02  0.45594000000E+02  0.51100000000E-03 0.  1.
         11   -1    0    0    0    0 -0.00000000000E+00 -0.00000000000E+00 -0.45593999997E+02  0.45594000000E+02  0.51100000000E-03 0. -1.
    9900012    2    1    2    0    0 -0.35993068935E+02 -0.25580461491E+02 -0.89023795640E+01  0.46142318927E+02  0.10000010631E+02 0.  0.
        -12    1    1    2    0    0  0.35993068935E+02  0.25580461491E+02  0.89023795640E+01  0.45045681073E+02  0.00000000000E+00 0.  1.
         11    1    3    3    0    0 -0.19776165906E+02 -0.10399355555E+02 -0.12233800570E+01  0.22377220403E+02  0.51100000000E-03 0. -1.
        -11    1    3    3    0    0 -0.14369770975E+02 -0.12017921881E+02 -0.72086957073E+01  0.20072021778E+02  0.51100000000E-03 0.  1.
         12    1    3    3    0    0 -0.18471320537E+01 -0.31631840552E+01 -0.47030379976E+00  0.36930767464E+01  0.00000000000E+00 0. -1.
</event>
<event>
 7    1  0.3986981E-008  0.4614232E+02  0.7816164E-02  0.1320468E+00
        -11   -1    0    0    0    0  0.00000000000E+00  0.00000000000E+00  0.45593999997E+02  0.45594000000E+02  0.51100000000E-03 0.  1.
         11   -1    0    0    0    0 -0.00000000000E+00 -0.00000000000E+00 -0.45593999997E+02  0.45594000000E+02  0.51100000000E-03 0. -1.
    9900012    2    1    2    0    0 -0.38608048051E+02 -0.63516813952E+01 -0.22320131675E+02  0.46142317534E+02  0.99999979301E+01 0.  0.
        -12    1    1    2    0    0  0.38608048051E+02  0.63516813952E+01  0.22320131675E+02  0.45045682466E+02  0.00000000000E+00 0.  1.
         11    1    3    3    0    0 -0.25760173490E+02 -0.40033583866E+01 -0.17610555152E+02  0.31460214075E+02  0.51100000000E-03 0. -1.
        -11    1    3    3    0    0 -0.11768000121E+02 -0.33309514563E+01 -0.33351342838E+01  0.12676915453E+02  0.51100000000E-03 0.  1.
        -12    1    3    3    0    0 -0.10798744390E+01  0.98262844762E+00 -0.13744422383E+01  0.20051880053E+01  0.00000000000E+00 0.  1.
</event>
<event>
 7    1  0.3986981E-008  0.4614232E+02  0.7816164E-02  0.1320468E+00
        -11   -1    0    0    0    0  0.00000000000E+00  0.00000000000E+00  0.45593999997E+02  0.45594000000E+02  0.51100000000E-03 0. -1.
         11   -1    0    0    0    0 -0.00000000000E+00 -0.00000000000E+00 -0.45593999997E+02  0.45594000000E+02  0.51100000000E-03 0.  1.
    9900012    2    1    2    0    0 -0.28152203342E+02  0.27942729947E+01  0.35053657836E+02  0.46142318273E+02  0.10000004672E+02 0.  0.
        -12    1    1    2    0    0  0.28152203342E+02 -0.27942729947E+01 -0.35053657836E+02  0.45045681727E+02  0.00000000000E+00 0.  1.
         11    1    3    3    0    0 -0.21651728536E+02  0.21595975710E+01  0.23195030893E+02  0.31803626659E+02  0.51100000000E-03 0. -1.
        -11    1    3    3    0    0 -0.26417333922E+01 -0.95446048938E+00  0.15292769374E+01  0.31981929826E+01  0.51100000000E-03 0.  1.
        -12    1    3    3    0    0 -0.38587414136E+01  0.15891359130E+01  0.10329350005E+02  0.11140498632E+02  0.00000000000E+00 0.  1.
</event>
<event>
 7    1  0.3986981E-008  0.4614232E+02  0.7816164E-02  0.1320468E+00
        -11   -1    0    0    0    0  0.00000000000E+00  0.00000000000E+00  0.45593999997E+02  0.45594000000E+02  0.51100000000E-03 0.  1.
         11   -1    0    0    0    0 -0.00000000000E+00 -0.00000000000E+00 -0.45593999997E+02  0.45594000000E+02  0.51100000000E-03 0. -1.
    9900012    2    1    2    0    0 -0.18645834403E+02 -0.36626528265E+02 -0.18437566531E+02  0.46142316823E+02  0.99999914416E+01 0.  0.
        -12    1    1    2    0    0  0.18645834403E+02  0.36626528265E+02  0.18437566531E+02  0.45045683177E+02  0.00000000000E+00 0.  1.
         11    1    3    3    0    0 -0.43305732292E+01 -0.16053602849E+02 -0.98694980898E+01  0.19335951534E+02  0.51100000000E-03 0.  1.
        -11    1    3    3    0    0 -0.12523103937E+02 -0.18465225373E+02 -0.88979905492E+01  0.24020135644E+02  0.51100000000E-03 0. -1.
        -12    1    3    3    0    0 -0.17921572360E+01 -0.21077000437E+01  0.32992210816E+00  0.27862296442E+01  0.00000000000E+00 0.  1.
</event>
<event>
 7    1  0.3986981E-008  0.4614232E+02  0.7816164E-02  0.1320468E+00
        -11   -1    0    0    0    0  0.00000000000E+00  0.00000000000E+00  0.45593999997E+02  0.45594000000E+02  0.51100000000E-03 0. -1.
         11   -1    0    0    0    0 -0.00000000000E+00 -0.00000000000E+00 -0.45593999997E+02  0.45594000000E+02  0.51100000000E-03 0.  1.
    9900012    2    1    2    0    0 -0.32797522543E+02  0.15168821211E+02  0.26895035476E+02  0.46142317020E+02  0.99999932413E+01 0.  0.
        -12    1    1    2    0    0  0.32797522543E+02 -0.15168821211E+02 -0.26895035476E+02  0.45045682980E+02  0.00000000000E+00 0.  1.
         11    1    3    3    0    0 -0.15940532829E+02  0.98482721775E+01  0.10146691879E+02  0.21308317815E+02  0.51100000000E-03 0. -1.
        -11    1    3    3    0    0 -0.42973108856E+01  0.29488417619E+01  0.71585968310E+01  0.88548324340E+01  0.51100000000E-03 0.  1.
        -12    1    3    3    0    0 -0.12559678829E+02  0.23717072712E+01  0.95897467660E+01  0.15979166771E+02  0.00000000000E+00 0.  1.
</event>
<event>
 7    1  0.3986981E-008  0.4614232E+02  0.7816164E-02  0.1320468E+00
        -11   -1    0    0    0    0  0.00000000000E+00  0.00000000000E+00  0.45593999997E+02  0.45594000000E+02  0.51100000000E-03 0.  1.
         11   -1    0    0    0    0 -0.00000000000E+00 -0.00000000000E+00 -0.45593999997E+02  0.45594000000E+02  0.51100000000E-03 0. -1.
    9900012    2    1    2    0    0  0.15249352414E+02  0.42383369920E+02 -0.46966370893E+00  0.46142318977E+02  0.10000011090E+02 0.  0.
        -12    1    1    2    0    0 -0.15249352414E+02 -0.42383369920E+02  0.46966370893E+00  0.45045681023E+02  0.00000000000E+00 0.  1.
         11    1    3    3    0    0  0.58736337545E+01  0.16131430339E+02 -0.36318197447E+01  0.17547442355E+02  0.51100000000E-03 0. -1.
        -11    1    3    3    0    0  0.14269902907E+01  0.11686937668E+02  0.45378826003E+00  0.11782475860E+02  0.51100000000E-03 0.  1.
         12    1    3    3    0    0  0.79487283688E+01  0.14565001912E+02  0.27083677757E+01  0.16812400763E+02  0.00000000000E+00 0. -1.
</event>
<event>
 7    1  0.3986981E-008  0.4614231E+02  0.7816164E-02  0.1320468E+00
        -11   -1    0    0    0    0  0.00000000000E+00  0.00000000000E+00  0.45593999997E+02  0.45594000000E+02  0.51100000000E-03 0.  1.
         11   -1    0    0    0    0 -0.00000000000E+00 -0.00000000000E+00 -0.45593999997E+02  0.45594000000E+02  0.51100000000E-03 0. -1.
    9900012    2    1    2    0    0  0.53278619283E+01  0.36728937322E+02 -0.25528668447E+02  0.46142313612E+02  0.99999621639E+01 0.  0.
        -12    1    1    2    0    0 -0.53278619283E+01 -0.36728937322E+02  0.25528668447E+02  0.45045686388E+02  0.00000000000E+00 0.  1.
         11    1    3    3    0    0 -0.19316450706E+00  0.17779029106E+02 -0.11880815863E+02  0.21384222556E+02  0.51100000000E-03 0. -1.
        -11    1    3    3    0    0  0.41835917636E+01  0.15816141073E+02 -0.13717720298E+02  0.21350143066E+02  0.51100000000E-03 0.  1.
         12    1    3    3    0    0  0.13374346718E+01  0.31337671431E+01  0.69867714827E-01  0.34079479905E+01  0.00000000000E+00 0. -1.
</event>
<event>
 7    1  0.3986981E-008  0.4614232E+02  0.7816164E-02  0.1320468E+00
        -11   -1    0    0    0    0  0.00000000000E+00  0.00000000000E+00  0.45593999997E+02  0.45594000000E+02  0.51100000000E-03 0.  1.
         11   -1    0    0    0    0 -0.00000000000E+00 -0.00000000000E+00 -0.45593999997E+02  0.45594000000E+02  0.51100000000E-03 0. -1.
    9900012    2    1    2    0    0 -0.39933991949E+01  0.15050661339E+02 -0.42268709833E+02  0.46142317912E+02  0.10000001375E+02 0.  0.
        -12    1    1    2    0    0  0.39933991949E+01 -0.15050661339E+02  0.42268709833E+02  0.45045682088E+02  0.00000000000E+00 0.  1.
         11    1    3    3    0    0 -0.29411877021E+01  0.41289707670E+01 -0.18286881479E+02  0.18976538651E+02  0.51100000000E-03 0. -1.
        -11    1    3    3    0    0 -0.25208686212E+01  0.19909491103E+01 -0.33768431041E+01  0.46606573116E+01  0.51100000000E-03 0.  1.
        -12    1    3    3    0    0  0.14686571284E+01  0.89307414612E+01 -0.20604985250E+02  0.22505121950E+02  0.00000000000E+00 0.  1.
</event>
<event>
 7    1  0.3986981E-008  0.4614232E+02  0.7816164E-02  0.1320468E+00
        -11   -1    0    0    0    0  0.00000000000E+00  0.00000000000E+00  0.45593999997E+02  0.45594000000E+02  0.51100000000E-03 0.  1.
         11   -1    0    0    0    0 -0.00000000000E+00 -0.00000000000E+00 -0.45593999997E+02  0.45594000000E+02  0.51100000000E-03 0. -1.
    9900012    2    1    2    0    0  0.73060257967E+01  0.12398044313E+02 -0.42685173789E+02  0.46142316776E+02  0.99999910132E+01 0.  0.
        -12    1    1    2    0    0 -0.73060257967E+01 -0.12398044313E+02  0.42685173789E+02  0.45045683224E+02  0.00000000000E+00 0.  1.
         11    1    3    3    0    0  0.50529831825E+01  0.10617951900E+02 -0.23742473898E+02  0.26494878913E+02  0.51100000000E-03 0. -1.
        -11    1    3    3    0    0  0.32835933712E+01  0.23416872370E+01 -0.14193381257E+02  0.14755255210E+02  0.51100000000E-03 0.  1.
        -12    1    3    3    0    0 -0.10305507571E+01 -0.56159482405E+00 -0.47493186345E+01  0.48921826521E+01  0.00000000000E+00 0.  1.
</event>
<event>
 7    1  0.3986981E-008  0.4614232E+02  0.7816164E-02  0.1320468E+00
        -11   -1    0    0    0    0  0.00000000000E+00  0.00000000000E+00  0.45593999997E+02  0.45594000000E+02  0.51100000000E-03 0. -1.
         11   -1    0    0    0    0 -0.00000000000E+00 -0.00000000000E+00 -0.45593999997E+02  0.45594000000E+02  0.51100000000E-03 0.  1.
    9900012    2    1    2    0    0 -0.27664058089E+02  0.33273064433E+02  0.12518651810E+02  0.46142316856E+02  0.99999917490E+01 0.  0.
        -12    1    1    2    0    0  0.27664058089E+02 -0.33273064433E+02 -0.12518651810E+02  0.45045683144E+02  0.00000000000E+00 0.  1.
         11    1    3    3    0    0 -0.56004213107E+01  0.70801841819E+01  0.41112955259E+01  0.99194998901E+01  0.51100000000E-03 0.  1.
        -11    1    3    3    0    0 -0.14207810299E+02  0.10493334533E+02  0.47548707282E+01  0.18291548294E+02  0.51100000000E-03 0. -1.
        -12    1    3    3    0    0 -0.78558264801E+01  0.15699545718E+02  0.36524855555E+01  0.17931268672E+02  0.00000000000E+00 0.  1.
</event>
<event>
 7    1  0.4772619E-008  0.4614231E+02  0.7816164E-02  0.1320468E+00
        -11   -1    0    0    0    0  0.00000000000E+00  0.00000000000E+00  0.45593999997E+02  0.45594000000E+02  0.51100000000E-03 0.  1.
         11   -1    0    0    0    0 -0.00000000000E+00 -0.00000000000E+00 -0.45593999997E+02  0.45594000000E+02  0.51100000000E-03 0. -1.
    9900012    2    1    2    0    0  0.11089768340E+02  0.43059755102E+02  0.72102890683E+01  0.46142314971E+02  0.99999745551E+01 0.  0.
        -12    1    1    2    0    0 -0.11089768340E+02 -0.43059755102E+02 -0.72102890683E+01  0.45045685029E+02  0.00000000000E+00 0.  1.
         11    1    3    3    0    0  0.63023688879E+01  0.22726391605E+02  0.24211140543E+01  0.23708026541E+02  0.51100000000E-03 0. -1.
        -11    1    3    3    0    0  0.27755648047E+01  0.92332534892E+01 -0.11081115908E+01  0.97048772038E+01  0.51100000000E-03 0.  1.
        -12    1    3    3    0    0  0.20118346477E+01  0.11100110008E+02  0.58972866049E+01  0.12729411226E+02  0.00000000000E+00 0.  1.
</event>
<event>
 7    1  0.3986981E-008  0.4614232E+02  0.7816164E-02  0.1320468E+00
        -11   -1    0    0    0    0  0.00000000000E+00  0.00000000000E+00  0.45593999997E+02  0.45594000000E+02  0.51100000000E-03 0. -1.
         11   -1    0    0    0    0 -0.00000000000E+00 -0.00000000000E+00 -0.45593999997E+02  0.45594000000E+02  0.51100000000E-03 0.  1.
    9900012    2    1    2    0    0  0.23134282603E+02 -0.32106168701E+02  0.21520043353E+02  0.46142319118E+02  0.10000012374E+02 0.  0.
        -12    1    1    2    0    0 -0.23134282603E+02  0.32106168701E+02 -0.21520043353E+02  0.45045680882E+02  0.00000000000E+00 0.  1.
         11    1    3    3    0    0  0.11869353184E+02 -0.17588066512E+02  0.61802102327E+01  0.22100149942E+02  0.51100000000E-03 0. -1.
        -11    1    3    3    0    0  0.62337512147E+01 -0.62084528515E+01  0.73809139503E+01  0.11484007664E+02  0.51100000000E-03 0.  1.
         12    1    3    3    0    0  0.50311782034E+01 -0.83096493371E+01  0.79589191705E+01  0.12558161513E+02  0.00000000000E+00 0. -1.
</event>
<event>
 7    1  0.3986981E-008  0.4614232E+02  0.7816164E-02  0.1320468E+00
        -11   -1    0    0    0    0  0.00000000000E+00  0.00000000000E+00  0.45593999997E+02  0.45594000000E+02  0.51100000000E-03 0.  1.
         11   -1    0    0    0    0 -0.00000000000E+00 -0.00000000000E+00 -0.45593999997E+02  0.45594000000E+02  0.51100000000E-03 0. -1.
    9900012    2    1    2    0    0 -0.19699188485E+01 -0.16030769711E+00 -0.45002302845E+02  0.46142317185E+02  0.99999947511E+01 0.  0.
        -12    1    1    2    0    0  0.19699188485E+01  0.16030769711E+00  0.45002302845E+02  0.45045682815E+02  0.00000000000E+00 0.  1.
         11    1    3    3    0    0  0.53956417331E-01  0.51514112423E-01  0.35656713841E-01  0.82684104355E-01  0.51100000000E-03 0. -1.
        -11    1    3    3    0    0 -0.16354373095E+01  0.64882903093E+00 -0.10243772677E+01  0.20359232187E+01  0.51100000000E-03 0.  1.
         12    1    3    3    0    0 -0.38843795631E+00 -0.86065084047E+00 -0.44013582292E+02  0.44023709862E+02  0.00000000000E+00 0. -1.
</event>
<event>
 7    1  0.3986981E-008  0.4614232E+02  0.7816164E-02  0.1320468E+00
        -11   -1    0    0    0    0  0.00000000000E+00  0.00000000000E+00  0.45593999997E+02  0.45594000000E+02  0.51100000000E-03 0. -1.
         11   -1    0    0    0    0 -0.00000000000E+00 -0.00000000000E+00 -0.45593999997E+02  0.45594000000E+02  0.51100000000E-03 0.  1.
    9900012    2    1    2    0    0  0.39567587977E+02 -0.13966598043E+02  0.16384555004E+02  0.46142317389E+02  0.99999966095E+01 0.  0.
        -12    1    1    2    0    0 -0.39567587977E+02  0.13966598043E+02 -0.16384555004E+02  0.45045682611E+02  0.00000000000E+00 0.  1.
         11    1    3    3    0    0  0.31962228484E+02 -0.95168053295E+01  0.13645041673E+02  0.36032496387E+02  0.51100000000E-03 0. -1.
        -11    1    3    3    0    0  0.62477795868E+01 -0.38425739228E+01  0.38215109800E+01  0.82706753381E+01  0.51100000000E-03 0.  1.
        -12    1    3    3    0    0  0.13575799056E+01 -0.60721879111E+00 -0.10819976495E+01  0.18391456641E+01  0.00000000000E+00 0.  1.
</event>
<event>
 7    1  0.3986981E-008  0.4614232E+02  0.7816164E-02  0.1320468E+00
        -11   -1    0    0    0    0  0.00000000000E+00  0.00000000000E+00  0.45593999997E+02  0.45594000000E+02  0.51100000000E-03 0.  1.
         11   -1    0    0    0    0 -0.00000000000E+00 -0.00000000000E+00 -0.45593999997E+02  0.45594000000E+02  0.51100000000E-03 0. -1.
    9900012    2    1    2    0    0  0.48593041846E+01  0.24526100989E+02 -0.37469601454E+02  0.46142317632E+02  0.99999988228E+01 0.  0.
        -12    1    1    2    0    0 -0.48593041846E+01 -0.24526100989E+02  0.37469601454E+02  0.45045682368E+02  0.00000000000E+00 0.  1.
         11    1    3    3    0    0  0.21698858487E+01  0.32135470755E+01 -0.10410160762E+02  0.11108858481E+02  0.51100000000E-03 0. -1.
        -11    1    3    3    0    0 -0.93864713615E+00  0.29859410673E+01 -0.67369101222E+01  0.74285167267E+01  0.51100000000E-03 0.  1.
         12    1    3    3    0    0  0.36280654721E+01  0.18326612846E+02 -0.20322530570E+02  0.27604942424E+02  0.00000000000E+00 0. -1.
</event>
<event>
 7    1  0.3986981E-008  0.4614232E+02  0.7816164E-02  0.1320468E+00
        -11   -1    0    0    0    0  0.00000000000E+00  0.00000000000E+00  0.45593999997E+02  0.45594000000E+02  0.51100000000E-03 0. -1.
         11   -1    0    0    0    0 -0.00000000000E+00 -0.00000000000E+00 -0.45593999997E+02  0.45594000000E+02  0.51100000000E-03 0.  1.
    9900012    2    1    2    0    0 -0.14737674436E+02 -0.23509353613E+02  0.35485555796E+02  0.46142318462E+02  0.10000006391E+02 0.  0.
        -12    1    1    2    0    0  0.14737674436E+02  0.23509353613E+02 -0.35485555796E+02  0.45045681538E+02  0.00000000000E+00 0.  1.
         11    1    3    3    0    0 -0.13570058262E+01 -0.14664170371E+01  0.20316084690E+01  0.28494345003E+01  0.51100000000E-03 0. -1.
        -11    1    3    3    0    0 -0.38328163391E+01 -0.15201672609E+01  0.21139542962E+01  0.46335939203E+01  0.51100000000E-03 0.  1.
         12    1    3    3    0    0 -0.95478522711E+01 -0.20522769315E+02  0.31339993031E+02  0.38659290041E+02  0.00000000000E+00 0. -1.
</event>
<event>
 7    1  0.3986981E-008  0.4614232E+02  0.7816164E-02  0.1320468E+00
        -11   -1    0    0    0    0  0.00000000000E+00  0.00000000000E+00  0.45593999997E+02  0.45594000000E+02  0.51100000000E-03 0.  1.
         11   -1    0    0    0    0 -0.00000000000E+00 -0.00000000000E+00 -0.45593999997E+02  0.45594000000E+02  0.51100000000E-03 0. -1.
    9900012    2    1    2    0    0 -0.36824953432E+02  0.55162161650E+01 -0.25349706082E+02  0.46142318359E+02  0.10000005451E+02 0.  0.
        -12    1    1    2    0    0  0.36824953432E+02 -0.55162161650E+01  0.25349706082E+02  0.45045681641E+02  0.00000000000E+00 0.  1.
         11    1    3    3    0    0 -0.10945078554E+02  0.68772038525E-01 -0.89134762645E+01  0.14115577690E+02  0.51100000000E-03 0. -1.
        -11    1    3    3    0    0 -0.10535313211E+01 -0.11682409062E+01 -0.91633992042E-01  0.15757893607E+01  0.51100000000E-03 0.  1.
         12    1    3    3    0    0 -0.24826343557E+02  0.66156850327E+01 -0.16344595826E+02  0.30450951308E+02  0.00000000000E+00 0. -1.
</event>
<event>
 7    1  0.3986981E-008  0.4614232E+02  0.7816164E-02  0.1320468E+00
        -11   -1    0    0    0    0  0.00000000000E+00  0.00000000000E+00  0.45593999997E+02  0.45594000000E+02  0.51100000000E-03 0.  1.
         11   -1    0    0    0    0 -0.00000000000E+00 -0.00000000000E+00 -0.45593999997E+02  0.45594000000E+02  0.51100000000E-03 0. -1.
    9900012    2    1    2    0    0 -0.28901636885E+02 -0.29936394042E+02 -0.17251701122E+02  0.46142317694E+02  0.99999993843E+01 0.  0.
        -12    1    1    2    0    0  0.28901636885E+02  0.29936394042E+02  0.17251701122E+02  0.45045682306E+02  0.00000000000E+00 0.  1.
         11    1    3    3    0    0 -0.34920619539E+01 -0.88245897688E+00 -0.60357206209E+00  0.36520583280E+01  0.51100000000E-03 0.  1.
        -11    1    3    3    0    0 -0.15480484937E+02 -0.13579313364E+02 -0.71700125041E+01  0.21804867459E+02  0.51100000000E-03 0. -1.
        -12    1    3    3    0    0 -0.99290899938E+01 -0.15474621701E+02 -0.94781165553E+01  0.20685391907E+02  0.00000000000E+00 0.  1.
</event>
<event>
 7    1  0.3986981E-008  0.4614232E+02  0.7816164E-02  0.1320468E+00
        -11   -1    0    0    0    0  0.00000000000E+00  0.00000000000E+00  0.45593999997E+02  0.45594000000E+02  0.51100000000E-03 0.  1.
         11   -1    0    0    0    0 -0.00000000000E+00 -0.00000000000E+00 -0.45593999997E+02  0.45594000000E+02  0.51100000000E-03 0. -1.
    9900012    2    1    2    0    0  0.14379557075E+01  0.17265558429E+02 -0.41580600106E+02  0.46142317303E+02  0.99999958193E+01 0.  0.
        -12    1    1    2    0    0 -0.14379557075E+01 -0.17265558429E+02  0.41580600106E+02  0.45045682697E+02  0.00000000000E+00 0.  1.
         11    1    3    3    0    0 -0.15200760617E+01  0.22124307082E+01 -0.60901263130E+01  0.66554578836E+01  0.51100000000E-03 0. -1.
        -11    1    3    3    0    0 -0.88466780567E+00  0.28571464883E+01 -0.18964548992E+01  0.35415342195E+01  0.51100000000E-03 0.  1.
         12    1    3    3    0    0  0.38426995748E+01  0.12195981232E+02 -0.33594018894E+02  0.35945325200E+02  0.00000000000E+00 0. -1.
</event>
<event>
 7    1  0.3986981E-008  0.4614232E+02  0.7816164E-02  0.1320468E+00
        -11   -1    0    0    0    0  0.00000000000E+00  0.00000000000E+00  0.45593999997E+02  0.45594000000E+02  0.51100000000E-03 0.  1.
         11   -1    0    0    0    0 -0.00000000000E+00 -0.00000000000E+00 -0.45593999997E+02  0.45594000000E+02  0.51100000000E-03 0. -1.
    9900012    2    1    2    0    0  0.75198808197E+01  0.49473089140E+01 -0.44137161481E+02  0.46142317669E+02  0.99999991627E+01 0.  0.
        -12    1    1    2    0    0 -0.75198808197E+01 -0.49473089140E+01  0.44137161481E+02  0.45045682331E+02  0.00000000000E+00 0.  1.
         11    1    3    3    0    0  0.16901453681E+00 -0.20965889678E+01 -0.17032798045E+02  0.17162181118E+02  0.51100000000E-03 0. -1.
        -11    1    3    3    0    0  0.33891188922E+01  0.36433023335E+01 -0.14792270721E+02  0.15606763025E+02  0.51100000000E-03 0.  1.
        -12    1    3    3    0    0  0.39617473906E+01  0.34005955483E+01 -0.12312092715E+02  0.13373373527E+02  0.00000000000E+00 0.  1.
</event>
<event>
 7    1  0.3986981E-008  0.4614232E+02  0.7816164E-02  0.1320468E+00
        -11   -1    0    0    0    0  0.00000000000E+00  0.00000000000E+00  0.45593999997E+02  0.45594000000E+02  0.51100000000E-03 0. -1.
         11   -1    0    0    0    0 -0.00000000000E+00 -0.00000000000E+00 -0.45593999997E+02  0.45594000000E+02  0.51100000000E-03 0.  1.
    9900012    2    1    2    0    0 -0.78705736075E+01 -0.24524325097E+02  0.36955712949E+02  0.46142321296E+02  0.10000032231E+02 0.  0.
        -12    1    1    2    0    0  0.78705736075E+01  0.24524325097E+02 -0.36955712949E+02  0.45045678704E+02  0.00000000000E+00 0.  1.
         11    1    3    3    0    0 -0.51066110603E+01 -0.11862753781E+02  0.14352014153E+02  0.19307581783E+02  0.51100000000E-03 0. -1.
        -11    1    3    3    0    0  0.15434918856E+01 -0.46199064292E+01  0.48466172798E+01  0.68713609957E+01  0.51100000000E-03 0.  1.
        -12    1    3    3    0    0 -0.43074544328E+01 -0.80416648861E+01  0.17757081517E+02  0.19963378517E+02  0.00000000000E+00 0.  1.
</event>
<event>
 7    1  0.3986981E-008  0.4614232E+02  0.7816164E-02  0.1320468E+00
        -11   -1    0    0    0    0  0.00000000000E+00  0.00000000000E+00  0.45593999997E+02  0.45594000000E+02  0.51100000000E-03 0.  1.
         11   -1    0    0    0    0 -0.00000000000E+00 -0.00000000000E+00 -0.45593999997E+02  0.45594000000E+02  0.51100000000E-03 0. -1.
    9900012    2    1    2    0    0  0.24768669627E+02 -0.10080467695E+02 -0.36249285126E+02  0.46142317674E+02  0.99999992064E+01 0.  0.
        -12    1    1    2    0    0 -0.24768669627E+02  0.10080467695E+02  0.36249285126E+02  0.45045682326E+02  0.00000000000E+00 0.  1.
         11    1    3    3    0    0  0.48284024657E+01 -0.33735626109E+01 -0.66304595587E+01  0.88689001168E+01  0.51100000000E-03 0. -1.
        -11    1    3    3    0    0 -0.50755167617E+00  0.49571612507E+00 -0.21453503280E+00  0.74119411901E+00  0.51100000000E-03 0.  1.
         12    1    3    3    0    0  0.20447818838E+02 -0.72026212088E+01 -0.29404290535E+02  0.36532223438E+02  0.00000000000E+00 0. -1.
</event>
<event>
 7    1  0.3986981E-008  0.4614232E+02  0.7816164E-02  0.1320468E+00
        -11   -1    0    0    0    0  0.00000000000E+00  0.00000000000E+00  0.45593999997E+02  0.45594000000E+02  0.51100000000E-03 0.  1.
         11   -1    0    0    0    0 -0.00000000000E+00 -0.00000000000E+00 -0.45593999997E+02  0.45594000000E+02  0.51100000000E-03 0. -1.
    9900012    2    1    2    0    0  0.11603849502E+01  0.13304551852E+02 -0.43020412499E+02  0.46142317800E+02  0.10000000358E+02 0.  0.
        -12    1    1    2    0    0 -0.11603849502E+01 -0.13304551852E+02  0.43020412499E+02  0.45045682200E+02  0.00000000000E+00 0.  1.
         11    1    3    3    0    0  0.27639985046E+01  0.54794612806E+00 -0.74453106736E+01  0.79606899187E+01  0.51100000000E-03 0. -1.
        -11    1    3    3    0    0 -0.34574474570E+00  0.27946732954E+01 -0.30925655628E+01  0.41825471042E+01  0.51100000000E-03 0.  1.
         12    1    3    3    0    0 -0.12578688088E+01  0.99619324289E+01 -0.32482536263E+02  0.33999080778E+02  0.00000000000E+00 0. -1.
</event>
<event>
 7    1  0.3986981E-008  0.4614232E+02  0.7816164E-02  0.1320468E+00
        -11   -1    0    0    0    0  0.00000000000E+00  0.00000000000E+00  0.45593999997E+02  0.45594000000E+02  0.51100000000E-03 0.  1.
         11   -1    0    0    0    0 -0.00000000000E+00 -0.00000000000E+00 -0.45593999997E+02  0.45594000000E+02  0.51100000000E-03 0. -1.
    9900012    2    1    2    0    0  0.73515455721E+01  0.44230340944E+02 -0.43295708241E+01  0.46142318011E+02  0.10000002283E+02 0.  0.
        -12    1    1    2    0    0 -0.73515455721E+01 -0.44230340944E+02  0.43295708241E+01  0.45045681989E+02  0.00000000000E+00 0.  1.
         11    1    3    3    0    0  0.46726813343E+01  0.24507162172E+02 -0.40731012630E+01  0.25278945839E+02  0.51100000000E-03 0. -1.
        -11    1    3    3    0    0  0.45467699568E+01  0.11556021615E+02 -0.96293300784E+00  0.12455600862E+02  0.51100000000E-03 0.  1.
         12    1    3    3    0    0 -0.18679057190E+01  0.81671571576E+01  0.70646344666E+00  0.84077713107E+01  0.00000000000E+00 0. -1.
</event>
<event>
 7    1  0.3986981E-008  0.4614232E+02  0.7816164E-02  0.1320468E+00
        -11   -1    0    0    0    0  0.00000000000E+00  0.00000000000E+00  0.45593999997E+02  0.45594000000E+02  0.51100000000E-03 0.  1.
         11   -1    0    0    0    0 -0.00000000000E+00 -0.00000000000E+00 -0.45593999997E+02  0.45594000000E+02  0.51100000000E-03 0. -1.
    9900012    2    1    2    0    0  0.26600817343E+02  0.81733867159E+01 -0.35421823688E+02  0.46142319551E+02  0.10000016318E+02 0.  0.
        -12    1    1    2    0    0 -0.26600817343E+02 -0.81733867159E+01  0.35421823688E+02  0.45045680449E+02  0.00000000000E+00 0.  1.
         11    1    3    3    0    0  0.47399150059E+01  0.46230293150E+00 -0.72989101272E+01  0.87151940638E+01  0.51100000000E-03 0. -1.
        -11    1    3    3    0    0  0.63309243054E+01  0.71911821389E+00 -0.29193553698E+01  0.70085925550E+01  0.51100000000E-03 0.  1.
        -12    1    3    3    0    0  0.15529978032E+02  0.69919655705E+01 -0.25203558191E+02  0.30418532932E+02  0.00000000000E+00 0.  1.
</event>
<event>
 7    1  0.3986981E-008  0.4614232E+02  0.7816164E-02  0.1320468E+00
        -11   -1    0    0    0    0  0.00000000000E+00  0.00000000000E+00  0.45593999997E+02  0.45594000000E+02  0.51100000000E-03 0.  1.
         11   -1    0    0    0    0 -0.00000000000E+00 -0.00000000000E+00 -0.45593999997E+02  0.45594000000E+02  0.51100000000E-03 0. -1.
    9900012    2    1    2    0    0  0.85781608951E+01 -0.42533168475E+02 -0.12101988820E+02  0.46142318761E+02  0.10000009118E+02 0.  0.
        -12    1    1    2    0    0 -0.85781608951E+01  0.42533168475E+02  0.12101988820E+02  0.45045681239E+02  0.00000000000E+00 0.  1.
         11    1    3    3    0    0  0.18080987136E+01 -0.57060206066E+01  0.69120977597E+00  0.60254181047E+01  0.51100000000E-03 0. -1.
        -11    1    3    3    0    0 -0.12854957829E+01 -0.70863540400E+01 -0.21047825816E+01  0.75032674859E+01  0.51100000000E-03 0.  1.
        -12    1    3    3    0    0  0.80555579643E+01 -0.29740793829E+02 -0.10688416015E+02  0.32613633170E+02  0.00000000000E+00 0.  1.
</event>
<event>
 7    1  0.3986981E-008  0.4614232E+02  0.7816164E-02  0.1320468E+00
        -11   -1    0    0    0    0  0.00000000000E+00  0.00000000000E+00  0.45593999997E+02  0.45594000000E+02  0.51100000000E-03 0.  1.
         11   -1    0    0    0    0 -0.00000000000E+00 -0.00000000000E+00 -0.45593999997E+02  0.45594000000E+02  0.51100000000E-03 0. -1.
    9900012    2    1    2    0    0  0.23258814608E+02 -0.31537526775E+02 -0.22215432238E+02  0.46142317836E+02  0.10000000686E+02 0.  0.
        -12    1    1    2    0    0 -0.23258814608E+02  0.31537526775E+02  0.22215432238E+02  0.45045682164E+02  0.00000000000E+00 0.  1.
         11    1    3    3    0    0  0.19285078906E+02 -0.26099262717E+02 -0.17334971947E+02  0.36791127129E+02  0.51100000000E-03 0. -1.
        -11    1    3    3    0    0  0.37287561531E+01 -0.15274430879E+01 -0.28697252153E+01  0.49469210534E+01  0.51100000000E-03 0.  1.
         12    1    3    3    0    0  0.24497954966E+00 -0.39108209699E+01 -0.20107350753E+01  0.44042696536E+01  0.00000000000E+00 0. -1.
</event>
<event>
 7    1  0.3986981E-008  0.4614232E+02  0.7816164E-02  0.1320468E+00
        -11   -1    0    0    0    0  0.00000000000E+00  0.00000000000E+00  0.45593999997E+02  0.45594000000E+02  0.51100000000E-03 0. -1.
         11   -1    0    0    0    0 -0.00000000000E+00 -0.00000000000E+00 -0.45593999997E+02  0.45594000000E+02  0.51100000000E-03 0.  1.
    9900012    2    1    2    0    0 -0.37193612902E+02 -0.10272399353E+02  0.23242772444E+02  0.46142317632E+02  0.99999988188E+01 0.  0.
        -12    1    1    2    0    0  0.37193612902E+02  0.10272399353E+02 -0.23242772444E+02  0.45045682368E+02  0.00000000000E+00 0.  1.
         11    1    3    3    0    0 -0.10354221513E+02 -0.70018105005E+00  0.67213566148E+01  0.12364335471E+02  0.51100000000E-03 0. -1.
        -11    1    3    3    0    0 -0.14630142514E+02 -0.26266383106E+01  0.52355345959E+01  0.15759159926E+02  0.51100000000E-03 0.  1.
        -12    1    3    3    0    0 -0.12209248875E+02 -0.69455799920E+01  0.11285881233E+02  0.18018822235E+02  0.00000000000E+00 0.  1.
</event>
<event>
 7    1  0.3986981E-008  0.4614232E+02  0.7816164E-02  0.1320468E+00
        -11   -1    0    0    0    0  0.00000000000E+00  0.00000000000E+00  0.45593999997E+02  0.45594000000E+02  0.51100000000E-03 0.  1.
         11   -1    0    0    0    0 -0.00000000000E+00 -0.00000000000E+00 -0.45593999997E+02  0.45594000000E+02  0.51100000000E-03 0. -1.
    9900012    2    1    2    0    0 -0.33357032096E+01  0.64842306675E+01 -0.44451561504E+02  0.46142317816E+02  0.10000000502E+02 0.  0.
        -12    1    1    2    0    0  0.33357032096E+01 -0.64842306675E+01  0.44451561504E+02  0.45045682184E+02  0.00000000000E+00 0.  1.
         11    1    3    3    0    0 -0.34444550407E+01  0.21712214999E+01 -0.22797350024E+02  0.23158100995E+02  0.51100000000E-03 0. -1.
        -11    1    3    3    0    0 -0.98588033166E+00 -0.83509136543E+00 -0.90390627531E+00  0.15768273313E+01  0.51100000000E-03 0.  1.
        -12    1    3    3    0    0  0.10946321628E+01  0.51481005330E+01 -0.20750305205E+02  0.21407389490E+02  0.00000000000E+00 0.  1.
</event>
<event>
 7    1  0.3986981E-008  0.4614232E+02  0.7816164E-02  0.1320468E+00
        -11   -1    0    0    0    0  0.00000000000E+00  0.00000000000E+00  0.45593999997E+02  0.45594000000E+02  0.51100000000E-03 0.  1.
         11   -1    0    0    0    0 -0.00000000000E+00 -0.00000000000E+00 -0.45593999997E+02  0.45594000000E+02  0.51100000000E-03 0. -1.
    9900012    2    1    2    0    0 -0.99107488859E+00  0.37792404306E+02 -0.24492149302E+02  0.46142318408E+02  0.10000005897E+02 0.  0.
        -12    1    1    2    0    0  0.99107488859E+00 -0.37792404306E+02  0.24492149302E+02  0.45045681592E+02  0.00000000000E+00 0.  1.
         11    1    3    3    0    0 -0.28264074033E+01  0.24716580098E+02 -0.19693066188E+02  0.31728768755E+02  0.51100000000E-03 0. -1.
        -11    1    3    3    0    0  0.56313917917E+00  0.11344122763E+01  0.39896447989E+00  0.13278515975E+01  0.51100000000E-03 0.  1.
         12    1    3    3    0    0  0.12721933355E+01  0.11941411932E+02 -0.51980475941E+01  0.13085698056E+02  0.00000000000E+00 0. -1.
</event>
<event>
 7    1  0.3986981E-008  0.4614232E+02  0.7816164E-02  0.1320468E+00
        -11   -1    0    0    0    0  0.00000000000E+00  0.00000000000E+00  0.45593999997E+02  0.45594000000E+02  0.51100000000E-03 0.  1.
         11   -1    0    0    0    0 -0.00000000000E+00 -0.00000000000E+00 -0.45593999997E+02  0.45594000000E+02  0.51100000000E-03 0. -1.
    9900012    2    1    2    0    0 -0.23110944636E+02  0.12485751138E+01 -0.38645035710E+02  0.46142317778E+02  0.10000000158E+02 0.  0.
        -12    1    1    2    0    0  0.23110944636E+02 -0.12485751138E+01  0.38645035710E+02  0.45045682222E+02  0.00000000000E+00 0.  1.
         11    1    3    3    0    0 -0.22001461544E+02  0.26359543653E+01 -0.37079499899E+02  0.43196086380E+02  0.51100000000E-03 0. -1.
        -11    1    3    3    0    0 -0.17945363655E+00 -0.11039553919E+01 -0.16243863538E+01  0.19721948186E+01  0.51100000000E-03 0.  1.
         12    1    3    3    0    0 -0.93002945574E+00 -0.28342385962E+00  0.58850543481E-01  0.97403658001E+00  0.00000000000E+00 0. -1.
</event>
<event>
 7    1  0.3986981E-008  0.4614232E+02  0.7816164E-02  0.1320468E+00
        -11   -1    0    0    0    0  0.00000000000E+00  0.00000000000E+00  0.45593999997E+02  0.45594000000E+02  0.51100000000E-03 0.  1.
         11   -1    0    0    0    0 -0.00000000000E+00 -0.00000000000E+00 -0.45593999997E+02  0.45594000000E+02  0.51100000000E-03 0. -1.
    9900012    2    1    2    0    0 -0.39239071008E+02  0.45620807215E+01 -0.21647082547E+02  0.46142318111E+02  0.10000003186E+02 0.  0.
        -12    1    1    2    0    0  0.39239071008E+02 -0.45620807215E+01  0.21647082547E+02  0.45045681889E+02  0.00000000000E+00 0.  1.
         11    1    3    3    0    0 -0.46683849897E+01 -0.87383291508E+00 -0.23518162295E+01  0.52998530370E+01  0.51100000000E-03 0. -1.
        -11    1    3    3    0    0 -0.13276469053E+02  0.30523541434E+00 -0.11580229134E+02  0.17619861130E+02  0.51100000000E-03 0.  1.
        -12    1    3    3    0    0 -0.21294216965E+02  0.51306782223E+01 -0.77150371839E+01  0.23222603944E+02  0.00000000000E+00 0.  1.
</event>
<event>
 7    1  0.3986981E-008  0.4614232E+02  0.7816164E-02  0.1320468E+00
        -11   -1    0    0    0    0  0.00000000000E+00  0.00000000000E+00  0.45593999997E+02  0.45594000000E+02  0.51100000000E-03 0.  1.
         11   -1    0    0    0    0 -0.00000000000E+00 -0.00000000000E+00 -0.45593999997E+02  0.45594000000E+02  0.51100000000E-03 0. -1.
    9900012    2    1    2    0    0 -0.26173450161E+02 -0.29165805228E+02 -0.22213056125E+02  0.46142317073E+02  0.99999937271E+01 0.  0.
        -12    1    1    2    0    0  0.26173450161E+02  0.29165805228E+02  0.22213056125E+02  0.45045682927E+02  0.00000000000E+00 0.  1.
         11    1    3    3    0    0 -0.21611486028E+02 -0.20530172239E+02 -0.16039235646E+02  0.33849688047E+02  0.51100000000E-03 0. -1.
        -11    1    3    3    0    0 -0.50114840392E+01 -0.55060149664E+01 -0.39595007973E+01  0.84326045746E+01  0.51100000000E-03 0.  1.
        -12    1    3    3    0    0  0.44951990647E+00 -0.31296180227E+01 -0.22143196824E+01  0.38600244520E+01  0.00000000000E+00 0.  1.
</event>
<event>
 7    1  0.3986981E-008  0.4614232E+02  0.7816164E-02  0.1320468E+00
        -11   -1    0    0    0    0  0.00000000000E+00  0.00000000000E+00  0.45593999997E+02  0.45594000000E+02  0.51100000000E-03 0. -1.
         11   -1    0    0    0    0 -0.00000000000E+00 -0.00000000000E+00 -0.45593999997E+02  0.45594000000E+02  0.51100000000E-03 0.  1.
    9900012    2    1    2    0    0  0.26508185113E+01 -0.36582562044E+02  0.26149623731E+02  0.46142317568E+02  0.99999982380E+01 0.  0.
        -12    1    1    2    0    0 -0.26508185113E+01  0.36582562044E+02 -0.26149623731E+02  0.45045682432E+02  0.00000000000E+00 0.  1.
         11    1    3    3    0    0  0.32210174282E+01 -0.17558790990E+02  0.85775227561E+01  0.19805554554E+02  0.51100000000E-03 0. -1.
        -11    1    3    3    0    0 -0.20490593082E+01 -0.10205004640E+02  0.72752612048E+01  0.12699220039E+02  0.51100000000E-03 0.  1.
         12    1    3    3    0    0  0.14788603913E+01 -0.88187664145E+01  0.10296839770E+02  0.13637542975E+02  0.00000000000E+00 0. -1.
</event>
<event>
 7    1  0.3986981E-008  0.4614232E+02  0.7816164E-02  0.1320468E+00
        -11   -1    0    0    0    0  0.00000000000E+00  0.00000000000E+00  0.45593999997E+02  0.45594000000E+02  0.51100000000E-03 0.  1.
         11   -1    0    0    0    0 -0.00000000000E+00 -0.00000000000E+00 -0.45593999997E+02  0.45594000000E+02  0.51100000000E-03 0. -1.
    9900012    2    1    2    0    0  0.39455338069E+02  0.13000532176E+02 -0.17417689529E+02  0.46142318215E+02  0.10000004137E+02 0.  0.
        -12    1    1    2    0    0 -0.39455338069E+02 -0.13000532176E+02  0.17417689529E+02  0.45045681785E+02  0.00000000000E+00 0.  1.
         11    1    3    3    0    0  0.34076454146E+01  0.23314699201E+01 -0.36514411819E+01  0.55118800990E+01  0.51100000000E-03 0. -1.
        -11    1    3    3    0    0  0.14753652622E+02  0.54468638341E+01 -0.23194301534E+01  0.15897117595E+02  0.51100000000E-03 0.  1.
        -12    1    3    3    0    0  0.21294040031E+02  0.52221984222E+01 -0.11446818194E+02  0.24733320521E+02  0.00000000000E+00 0.  1.
</event>
<event>
 7    1  0.3986981E-008  0.4614232E+02  0.7816164E-02  0.1320468E+00
        -11   -1    0    0    0    0  0.00000000000E+00  0.00000000000E+00  0.45593999997E+02  0.45594000000E+02  0.51100000000E-03 0.  1.
         11   -1    0    0    0    0 -0.00000000000E+00 -0.00000000000E+00 -0.45593999997E+02  0.45594000000E+02  0.51100000000E-03 0. -1.
    9900012    2    1    2    0    0  0.33801374173E+02 -0.27265128995E+02 -0.11966338203E+02  0.46142318685E+02  0.10000008428E+02 0.  0.
        -12    1    1    2    0    0 -0.33801374173E+02  0.27265128995E+02  0.11966338203E+02  0.45045681315E+02  0.00000000000E+00 0.  1.
         11    1    3    3    0    0  0.23955448100E+02 -0.22216957759E+02 -0.12155881191E+02  0.34860036625E+02  0.51100000000E-03 0. -1.
        -11    1    3    3    0    0  0.16117733507E+01 -0.29907014106E+00 -0.59617217481E+00  0.17443273221E+01  0.51100000000E-03 0.  1.
         12    1    3    3    0    0  0.82341527222E+01 -0.47491010957E+01  0.78571516242E+00  0.95379547381E+01  0.00000000000E+00 0. -1.
</event>
<event>
 7    1  0.3986981E-008  0.4614232E+02  0.7816164E-02  0.1320468E+00
        -11   -1    0    0    0    0  0.00000000000E+00  0.00000000000E+00  0.45593999997E+02  0.45594000000E+02  0.51100000000E-03 0.  1.
         11   -1    0    0    0    0 -0.00000000000E+00 -0.00000000000E+00 -0.45593999997E+02  0.45594000000E+02  0.51100000000E-03 0. -1.
    9900012    2    1    2    0    0  0.36439595201E+02 -0.51365930372E+01 -0.25978545992E+02  0.46142317207E+02  0.99999949470E+01 0.  0.
        -12    1    1    2    0    0 -0.36439595201E+02  0.51365930372E+01  0.25978545992E+02  0.45045682793E+02  0.00000000000E+00 0.  1.
         11    1    3    3    0    0  0.82594196870E+01 -0.30457696215E+01 -0.44212319576E+01  0.98509907338E+01  0.51100000000E-03 0. -1.
        -11    1    3    3    0    0  0.23518005983E+02 -0.43022494079E+01 -0.16376639641E+02  0.28979307817E+02  0.51100000000E-03 0.  1.
        -12    1    3    3    0    0  0.46621695314E+01  0.22114259922E+01 -0.51806743934E+01  0.73120186562E+01  0.00000000000E+00 0.  1.
</event>
<event>
 7    1  0.3986981E-008  0.4614232E+02  0.7816164E-02  0.1320468E+00
        -11   -1    0    0    0    0  0.00000000000E+00  0.00000000000E+00  0.45593999997E+02  0.45594000000E+02  0.51100000000E-03 0. -1.
         11   -1    0    0    0    0 -0.00000000000E+00 -0.00000000000E+00 -0.45593999997E+02  0.45594000000E+02  0.51100000000E-03 0.  1.
    9900012    2    1    2    0    0 -0.27173218630E+02 -0.10083690611E+02  0.34482590260E+02  0.46142315877E+02  0.99999828195E+01 0.  0.
        -12    1    1    2    0    0  0.27173218630E+02  0.10083690611E+02 -0.34482590260E+02  0.45045684123E+02  0.00000000000E+00 0.  1.
         11    1    3    3    0    0 -0.11206584171E+02 -0.81351035001E+01  0.13674441670E+02  0.19461700670E+02  0.51100000000E-03 0. -1.
        -11    1    3    3    0    0 -0.26281986917E+01 -0.43611684913E+00  0.66816622708E+01  0.71932077150E+01  0.51100000000E-03 0.  1.
         12    1    3    3    0    0 -0.13338435767E+02 -0.15124702617E+01  0.14126486320E+02  0.19487407492E+02  0.00000000000E+00 0. -1.
</event>
<event>
 7    1  0.3986981E-008  0.4614232E+02  0.7816164E-02  0.1320468E+00
        -11   -1    0    0    0    0  0.00000000000E+00  0.00000000000E+00  0.45593999997E+02  0.45594000000E+02  0.51100000000E-03 0.  1.
         11   -1    0    0    0    0 -0.00000000000E+00 -0.00000000000E+00 -0.45593999997E+02  0.45594000000E+02  0.51100000000E-03 0. -1.
    9900012    2    1    2    0    0 -0.33290561391E+01 -0.18127891312E+02 -0.41102438722E+02  0.46142317331E+02  0.99999960816E+01 0.  0.
        -12    1    1    2    0    0  0.33290561391E+01  0.18127891312E+02  0.41102438722E+02  0.45045682669E+02  0.00000000000E+00 0.  1.
         11    1    3    3    0    0 -0.14534312642E+01 -0.94176374477E+01 -0.21650254463E+02  0.23654552967E+02  0.51100000000E-03 0. -1.
        -11    1    3    3    0    0 -0.14172435656E+01 -0.88597154334E+01 -0.19900353504E+02  0.21829503126E+02  0.51100000000E-03 0.  1.
        -12    1    3    3    0    0 -0.45838130929E+00  0.14946156920E+00  0.44816924469E+00  0.65826123785E+00  0.00000000000E+00 0.  1.
</event>
<event>
 7    1  0.3986981E-008  0.4614232E+02  0.7816164E-02  0.1320468E+00
        -11   -1    0    0    0    0  0.00000000000E+00  0.00000000000E+00  0.45593999997E+02  0.45594000000E+02  0.51100000000E-03 0.  1.
         11   -1    0    0    0    0 -0.00000000000E+00 -0.00000000000E+00 -0.45593999997E+02  0.45594000000E+02  0.51100000000E-03 0. -1.
    9900012    2    1    2    0    0  0.40140195824E+02  0.99411862430E+01 -0.17861996409E+02  0.46142318515E+02  0.10000006873E+02 0.  0.
        -12    1    1    2    0    0 -0.40140195824E+02 -0.99411862430E+01  0.17861996409E+02  0.45045681485E+02  0.00000000000E+00 0.  1.
         11    1    3    3    0    0  0.93875604574E+01  0.30035339383E+01 -0.76479985493E+01  0.12475551672E+02  0.51100000000E-03 0.  1.
        -11    1    3    3    0    0  0.14668729762E+01 -0.35947786756E+00  0.57371541577E+00  0.16155773906E+01  0.51100000000E-03 0. -1.
         12    1    3    3    0    0  0.29285762391E+02  0.72971301723E+01 -0.10787713276E+02  0.32051189452E+02  0.00000000000E+00 0. -1.
</event>
<event>
 7    1  0.3986981E-008  0.4614232E+02  0.7816164E-02  0.1320468E+00
        -11   -1    0    0    0    0  0.00000000000E+00  0.00000000000E+00  0.45593999997E+02  0.45594000000E+02  0.51100000000E-03 0.  1.
         11   -1    0    0    0    0 -0.00000000000E+00 -0.00000000000E+00 -0.45593999997E+02  0.45594000000E+02  0.51100000000E-03 0. -1.
    9900012    2    1    2    0    0 -0.30514162118E+02 -0.19597257568E+02 -0.26719784112E+02  0.46142318110E+02  0.10000003184E+02 0.  0.
        -12    1    1    2    0    0  0.30514162118E+02  0.19597257568E+02  0.26719784112E+02  0.45045681890E+02  0.00000000000E+00 0.  1.
         11    1    3    3    0    0 -0.12939000991E+02 -0.46537786364E+01 -0.96347143187E+01  0.16789970891E+02  0.51100000000E-03 0. -1.
        -11    1    3    3    0    0  0.31247184177E+00 -0.51394695255E+00 -0.14116764159E+01  0.15344740748E+01  0.51100000000E-03 0.  1.
         12    1    3    3    0    0 -0.17887632968E+02 -0.14429531979E+02 -0.15673393377E+02  0.27817873145E+02  0.00000000000E+00 0. -1.
</event>
<event>
 7    1  0.3986981E-008  0.4614232E+02  0.7816164E-02  0.1320468E+00
        -11   -1    0    0    0    0  0.00000000000E+00  0.00000000000E+00  0.45593999997E+02  0.45594000000E+02  0.51100000000E-03 0. -1.
         11   -1    0    0    0    0 -0.00000000000E+00 -0.00000000000E+00 -0.45593999997E+02  0.45594000000E+02  0.51100000000E-03 0.  1.
    9900012    2    1    2    0    0  0.38503461977E+02  0.22456396526E+02 -0.65043984758E+01  0.46142317314E+02  0.99999959242E+01 0.  0.
        -12    1    1    2    0    0 -0.38503461977E+02 -0.22456396526E+02  0.65043984758E+01  0.45045682686E+02  0.00000000000E+00 0.  1.
         11    1    3    3    0    0  0.26851079349E+02  0.18115778727E+02 -0.54271641029E+01  0.32842289986E+02  0.51100000000E-03 0. -1.
        -11    1    3    3    0    0  0.60152911099E+01  0.42406063817E+01 -0.19031589956E+01  0.76018737194E+01  0.51100000000E-03 0.  1.
        -12    1    3    3    0    0  0.56370915179E+01  0.10001141713E+00  0.82592462270E+00  0.56981536086E+01  0.00000000000E+00 0.  1.
</event>
<event>
 7    1  0.3986981E-008  0.4614231E+02  0.7816164E-02  0.1320468E+00
        -11   -1    0    0    0    0  0.00000000000E+00  0.00000000000E+00  0.45593999997E+02  0.45594000000E+02  0.51100000000E-03 0. -1.
         11   -1    0    0    0    0 -0.00000000000E+00 -0.00000000000E+00 -0.45593999997E+02  0.45594000000E+02  0.51100000000E-03 0.  1.
    9900012    2    1    2    0    0 -0.28004108104E+02 -0.34771136235E+02 -0.59876718632E+01  0.46142309861E+02  0.99999279614E+01 0.  0.
        -12    1    1    2    0    0  0.28004108104E+02  0.34771136235E+02  0.59876718632E+01  0.45045690139E+02  0.00000000000E+00 0.  1.
         11    1    3    3    0    0 -0.15131186847E+02 -0.17611459594E+02 -0.65377386342E+01  0.24121740218E+02  0.51100000000E-03 0. -1.
        -11    1    3    3    0    0 -0.17445444598E+01 -0.55454788154E+01 -0.84753436543E+00  0.58748689710E+01  0.51100000000E-03 0.  1.
        -12    1    3    3    0    0 -0.11128376797E+02 -0.11614197825E+02  0.13976011364E+01  0.16145700672E+02  0.00000000000E+00 0.  1.
</event>
<event>
 7    1  0.3986981E-008  0.4614232E+02  0.7816164E-02  0.1320468E+00
        -11   -1    0    0    0    0  0.00000000000E+00  0.00000000000E+00  0.45593999997E+02  0.45594000000E+02  0.51100000000E-03 0.  1.
         11   -1    0    0    0    0 -0.00000000000E+00 -0.00000000000E+00 -0.45593999997E+02  0.45594000000E+02  0.51100000000E-03 0. -1.
    9900012    2    1    2    0    0  0.22711754273E+02 -0.19218766799E+02 -0.33822014916E+02  0.46142317938E+02  0.10000001611E+02 0.  0.
        -12    1    1    2    0    0 -0.22711754273E+02  0.19218766799E+02  0.33822014916E+02  0.45045682062E+02  0.00000000000E+00 0.  1.
         11    1    3    3    0    0  0.11202985533E+02 -0.55303553490E+01 -0.17732358446E+02  0.21691663179E+02  0.51100000000E-03 0. -1.
        -11    1    3    3    0    0  0.42503061759E+00 -0.36351196528E+00 -0.21114276230E+01  0.21842433114E+01  0.51100000000E-03 0.  1.
        -12    1    3    3    0    0  0.11083738122E+02 -0.13324899485E+02 -0.13978228847E+02  0.22266411447E+02  0.00000000000E+00 0.  1.
</event>
<event>
 7    1  0.3986981E-008  0.4614232E+02  0.7816164E-02  0.1320468E+00
        -11   -1    0    0    0    0  0.00000000000E+00  0.00000000000E+00  0.45593999997E+02  0.45594000000E+02  0.51100000000E-03 0.  1.
         11   -1    0    0    0    0 -0.00000000000E+00 -0.00000000000E+00 -0.45593999997E+02  0.45594000000E+02  0.51100000000E-03 0. -1.
    9900012    2    1    2    0    0  0.37025515614E+01 -0.13636779002E+02 -0.42771988825E+02  0.46142315882E+02  0.99999828678E+01 0.  0.
        -12    1    1    2    0    0 -0.37025515614E+01  0.13636779002E+02  0.42771988825E+02  0.45045684118E+02  0.00000000000E+00 0.  1.
         11    1    3    3    0    0  0.26942321912E+01 -0.35343561544E+01 -0.83318490153E+01  0.94430010484E+01  0.51100000000E-03 0. -1.
        -11    1    3    3    0    0  0.21258440434E+01 -0.79296848510E+00 -0.23465072311E+01  0.32640631676E+01  0.51100000000E-03 0.  1.
         12    1    3    3    0    0 -0.11175246732E+01 -0.93094543628E+01 -0.32093632578E+02  0.33435251666E+02  0.00000000000E+00 0. -1.
</event>
<event>
 7    1  0.3986981E-008  0.4614232E+02  0.7816164E-02  0.1320468E+00
        -11   -1    0    0    0    0  0.00000000000E+00  0.00000000000E+00  0.45593999997E+02  0.45594000000E+02  0.51100000000E-03 0. -1.
         11   -1    0    0    0    0 -0.00000000000E+00 -0.00000000000E+00 -0.45593999997E+02  0.45594000000E+02  0.51100000000E-03 0.  1.
    9900012    2    1    2    0    0  0.38435582078E+02  0.40046531666E+01  0.23146972029E+02  0.46142317290E+02  0.99999957053E+01 0.  0.
        -12    1    1    2    0    0 -0.38435582078E+02 -0.40046531666E+01 -0.23146972029E+02  0.45045682710E+02  0.00000000000E+00 0.  1.
         11    1    3    3    0    0  0.29499422868E+01  0.47514773432E+00  0.48772198702E+01  0.57197201669E+01  0.51100000000E-03 0.  1.
        -11    1    3    3    0    0  0.13764535867E+02 -0.36497425056E+00  0.92222128474E+01  0.16572412736E+02  0.51100000000E-03 0. -1.
         12    1    3    3    0    0  0.21721103924E+02  0.38944796828E+01  0.90475393117E+01  0.23850184387E+02  0.00000000000E+00 0. -1.
</event>
<event>
 7    1  0.3986981E-008  0.4614231E+02  0.7816164E-02  0.1320468E+00
        -11   -1    0    0    0    0  0.00000000000E+00  0.00000000000E+00  0.45593999997E+02  0.45594000000E+02  0.51100000000E-03 0. -1.
         11   -1    0    0    0    0 -0.00000000000E+00 -0.00000000000E+00 -0.45593999997E+02  0.45594000000E+02  0.51100000000E-03 0.  1.
    9900012    2    1    2    0    0  0.49312230586E+01 -0.96685436846E+01  0.43718603490E+02  0.46142312205E+02  0.99999493344E+01 0.  0.
        -12    1    1    2    0    0 -0.49312230586E+01  0.96685436846E+01 -0.43718603490E+02  0.45045687795E+02  0.00000000000E+00 0.  1.
         11    1    3    3    0    0 -0.31515834212E+00 -0.82388525227E+00  0.10699472394E+02  0.10735772980E+02  0.51100000000E-03 0. -1.
        -11    1    3    3    0    0  0.29967167006E+00 -0.27906078429E+01  0.20758786727E+01  0.34909264913E+01  0.51100000000E-03 0.  1.
         12    1    3    3    0    0  0.49467097307E+01 -0.60540505894E+01  0.30943252423E+02  0.31915612734E+02  0.00000000000E+00 0. -1.
</event>
<event>
 7    1  0.3986981E-008  0.4614232E+02  0.7816164E-02  0.1320468E+00
        -11   -1    0    0    0    0  0.00000000000E+00  0.00000000000E+00  0.45593999997E+02  0.45594000000E+02  0.51100000000E-03 0. -1.
         11   -1    0    0    0    0 -0.00000000000E+00 -0.00000000000E+00 -0.45593999997E+02  0.45594000000E+02  0.51100000000E-03 0.  1.
    9900012    2    1    2    0    0 -0.61754881460E+01 -0.62241969536E+01  0.44184116203E+02  0.46142318674E+02  0.10000008320E+02 0.  0.
        -12    1    1    2    0    0  0.61754881460E+01  0.62241969536E+01 -0.44184116203E+02  0.45045681326E+02  0.00000000000E+00 0.  1.
         11    1    3    3    0    0 -0.51770476594E+01 -0.62808233424E+01  0.33162519720E+02  0.34146790168E+02  0.51100000000E-03 0. -1.
        -11    1    3    3    0    0 -0.15293874724E+01 -0.16346646477E+01  0.91411537546E+01  0.94112616996E+01  0.51100000000E-03 0.  1.
        -12    1    3    3    0    0  0.53094698573E+00  0.16912910366E+01  0.18804427279E+01  0.25842668061E+01  0.00000000000E+00 0.  1.
</event>
<event>
 7    1  0.3986981E-008  0.4614232E+02  0.7816164E-02  0.1320468E+00
        -11   -1    0    0    0    0  0.00000000000E+00  0.00000000000E+00  0.45593999997E+02  0.45594000000E+02  0.51100000000E-03 0.  1.
         11   -1    0    0    0    0 -0.00000000000E+00 -0.00000000000E+00 -0.45593999997E+02  0.45594000000E+02  0.51100000000E-03 0. -1.
    9900012    2    1    2    0    0 -0.33101758096E+01 -0.44795994437E+02 -0.33874872301E+01  0.46142318174E+02  0.10000003761E+02 0.  0.
        -12    1    1    2    0    0  0.33101758096E+01  0.44795994437E+02  0.33874872301E+01  0.45045681826E+02  0.00000000000E+00 0.  1.
         11    1    3    3    0    0 -0.34702545216E+01 -0.20378908003E+02  0.15300737000E+01  0.20728812885E+02  0.51100000000E-03 0. -1.
        -11    1    3    3    0    0  0.53504434150E-01 -0.11028288621E+01 -0.14807057789E+01  0.18470473974E+01  0.51100000000E-03 0.  1.
         12    1    3    3    0    0  0.10657427783E+00 -0.23314257572E+02 -0.34368551512E+01  0.23566457891E+02  0.00000000000E+00 0. -1.
</event>
<event>
 7    1  0.3986981E-008  0.4614232E+02  0.7816164E-02  0.1320468E+00
        -11   -1    0    0    0    0  0.00000000000E+00  0.00000000000E+00  0.45593999997E+02  0.45594000000E+02  0.51100000000E-03 0. -1.
         11   -1    0    0    0    0 -0.00000000000E+00 -0.00000000000E+00 -0.45593999997E+02  0.45594000000E+02  0.51100000000E-03 0.  1.
    9900012    2    1    2    0    0 -0.12855437653E+02 -0.27450430837E+02  0.33321539540E+02  0.46142318434E+02  0.10000006140E+02 0.  0.
        -12    1    1    2    0    0  0.12855437653E+02  0.27450430837E+02 -0.33321539540E+02  0.45045681566E+02  0.00000000000E+00 0.  1.
         11    1    3    3    0    0  0.26927544762E-01  0.22233708981E+00 -0.62427251397E-01  0.23250010109E+00  0.51100000000E-03 0. -1.
        -11    1    3    3    0    0 -0.30505408867E+01 -0.13662347018E+01  0.46936404236E+01  0.57621747326E+01  0.51100000000E-03 0.  1.
         12    1    3    3    0    0 -0.98318243110E+01 -0.26306533225E+02  0.28690326368E+02  0.40147643601E+02  0.00000000000E+00 0. -1.
</event>
<event>
 7    1  0.3986981E-008  0.4614232E+02  0.7816164E-02  0.1320468E+00
        -11   -1    0    0    0    0  0.00000000000E+00  0.00000000000E+00  0.45593999997E+02  0.45594000000E+02  0.51100000000E-03 0.  1.
         11   -1    0    0    0    0 -0.00000000000E+00 -0.00000000000E+00 -0.45593999997E+02  0.45594000000E+02  0.51100000000E-03 0. -1.
    9900012    2    1    2    0    0  0.17671837515E+02 -0.17875427229E+02 -0.37380326927E+02  0.46142316734E+02  0.99999906302E+01 0.  0.
        -12    1    1    2    0    0 -0.17671837515E+02  0.17875427229E+02  0.37380326927E+02  0.45045683266E+02  0.00000000000E+00 0.  1.
         11    1    3    3    0    0  0.69276740628E+01 -0.84052620196E+01 -0.15498894194E+02  0.18943516543E+02  0.51100000000E-03 0. -1.
        -11    1    3    3    0    0  0.11533403305E+02 -0.72780914487E+01 -0.17036133693E+02  0.21822462244E+02  0.51100000000E-03 0.  1.
        -12    1    3    3    0    0 -0.78923985331E+00 -0.21920737610E+01 -0.48452990408E+01  0.53763379465E+01  0.00000000000E+00 0.  1.
</event>
<event>
 7    1  0.3986981E-008  0.4614232E+02  0.7816164E-02  0.1320468E+00
        -11   -1    0    0    0    0  0.00000000000E+00  0.00000000000E+00  0.45593999997E+02  0.45594000000E+02  0.51100000000E-03 0.  1.
         11   -1    0    0    0    0 -0.00000000000E+00 -0.00000000000E+00 -0.45593999997E+02  0.45594000000E+02  0.51100000000E-03 0. -1.
    9900012    2    1    2    0    0 -0.36584863976E+02 -0.25367244160E+02  0.68676275758E+01  0.46142315890E+02  0.99999829381E+01 0.  0.
        -12    1    1    2    0    0  0.36584863976E+02  0.25367244160E+02 -0.68676275758E+01  0.45045684110E+02  0.00000000000E+00 0.  1.
         11    1    3    3    0    0 -0.89892579195E+01 -0.59112863511E+01 -0.42819679840E+00  0.10767238134E+02  0.51100000000E-03 0. -1.
        -11    1    3    3    0    0 -0.11310792311E+02 -0.10328050384E+02 -0.40438819511E-01  0.15316797413E+02  0.51100000000E-03 0.  1.
         12    1    3    3    0    0 -0.16284813745E+02 -0.91279074253E+01  0.73362631937E+01  0.20058280343E+02  0.00000000000E+00 0. -1.
</event>
<event>
 7    1  0.3986981E-008  0.4614232E+02  0.7816164E-02  0.1320468E+00
        -11   -1    0    0    0    0  0.00000000000E+00  0.00000000000E+00  0.45593999997E+02  0.45594000000E+02  0.51100000000E-03 0.  1.
         11   -1    0    0    0    0 -0.00000000000E+00 -0.00000000000E+00 -0.45593999997E+02  0.45594000000E+02  0.51100000000E-03 0. -1.
    9900012    2    1    2    0    0 -0.20970628578E+02 -0.26378463719E+02 -0.29891853058E+02  0.46142317739E+02  0.99999997982E+01 0.  0.
        -12    1    1    2    0    0  0.20970628578E+02  0.26378463719E+02  0.29891853058E+02  0.45045682261E+02  0.00000000000E+00 0.  1.
         11    1    3    3    0    0 -0.12161239910E+02 -0.17303579955E+02 -0.20543073767E+02  0.29484360523E+02  0.51100000000E-03 0. -1.
        -11    1    3    3    0    0 -0.70613384323E+01 -0.71588122757E+01 -0.42088508573E+01  0.10900711878E+02  0.51100000000E-03 0.  1.
        -12    1    3    3    0    0 -0.17480502357E+01 -0.19160714887E+01 -0.51399284334E+01  0.57572453375E+01  0.00000000000E+00 0.  1.
</event>
<event>
 7    1  0.3986981E-008  0.4614232E+02  0.7816164E-02  0.1320468E+00
        -11   -1    0    0    0    0  0.00000000000E+00  0.00000000000E+00  0.45593999997E+02  0.45594000000E+02  0.51100000000E-03 0. -1.
         11   -1    0    0    0    0 -0.00000000000E+00 -0.00000000000E+00 -0.45593999997E+02  0.45594000000E+02  0.51100000000E-03 0.  1.
    9900012    2    1    2    0    0 -0.37101069157E+02  0.17262773129E+02  0.18831375737E+02  0.46142318955E+02  0.10000010888E+02 0.  0.
        -12    1    1    2    0    0  0.37101069157E+02 -0.17262773129E+02 -0.18831375737E+02  0.45045681045E+02  0.00000000000E+00 0.  1.
         11    1    3    3    0    0 -0.64010770448E+01  0.14025834889E+01  0.26317808098E+01  0.70616781482E+01  0.51100000000E-03 0. -1.
        -11    1    3    3    0    0 -0.72161676614E+01  0.29057278048E+01  0.60956977588E-01  0.77794630796E+01  0.51100000000E-03 0.  1.
        -12    1    3    3    0    0 -0.23483824450E+02  0.12954461835E+02  0.16138637949E+02  0.31301177727E+02  0.00000000000E+00 0.  1.
</event>
<event>
 7    1  0.3986981E-008  0.4614232E+02  0.7816164E-02  0.1320468E+00
        -11   -1    0    0    0    0  0.00000000000E+00  0.00000000000E+00  0.45593999997E+02  0.45594000000E+02  0.51100000000E-03 0. -1.
         11   -1    0    0    0    0 -0.00000000000E+00 -0.00000000000E+00 -0.45593999997E+02  0.45594000000E+02  0.51100000000E-03 0.  1.
    9900012    2    1    2    0    0  0.77827776993E+01 -0.42995506766E+02  0.10951177401E+02  0.46142317440E+02  0.99999970733E+01 0.  0.
        -12    1    1    2    0    0 -0.77827776993E+01  0.42995506766E+02 -0.10951177401E+02  0.45045682560E+02  0.00000000000E+00 0.  1.
         11    1    3    3    0    0  0.45908660504E+01 -0.37913155364E+02  0.11502874992E+02  0.39884828370E+02  0.51100000000E-03 0. -1.
        -11    1    3    3    0    0  0.10035484545E+01 -0.11961813426E+01  0.56392750221E+00  0.16601125847E+01  0.51100000000E-03 0.  1.
         12    1    3    3    0    0  0.21883631944E+01 -0.38861700594E+01 -0.11156250928E+01  0.45973764854E+01  0.00000000000E+00 0. -1.
</event>
<event>
 7    1  0.3986981E-008  0.4614232E+02  0.7816164E-02  0.1320468E+00
        -11   -1    0    0    0    0  0.00000000000E+00  0.00000000000E+00  0.45593999997E+02  0.45594000000E+02  0.51100000000E-03 0.  1.
         11   -1    0    0    0    0 -0.00000000000E+00 -0.00000000000E+00 -0.45593999997E+02  0.45594000000E+02  0.51100000000E-03 0. -1.
    9900012    2    1    2    0    0 -0.15306094546E+02 -0.52018480218E+01 -0.42044949080E+02  0.46142317674E+02  0.99999992073E+01 0.  0.
        -12    1    1    2    0    0  0.15306094546E+02  0.52018480218E+01  0.42044949080E+02  0.45045682326E+02  0.00000000000E+00 0.  1.
         11    1    3    3    0    0 -0.97510825345E+01 -0.26393370871E+01 -0.13953999550E+02  0.17226834142E+02  0.51100000000E-03 0. -1.
        -11    1    3    3    0    0 -0.24348504258E+01 -0.16072794633E+01 -0.71581233543E+01  0.77298495513E+01  0.51100000000E-03 0.  1.
         12    1    3    3    0    0 -0.31201615856E+01 -0.95523147137E+00 -0.20932826175E+02  0.21185633981E+02  0.00000000000E+00 0. -1.
</event>
<event>
 7    1  0.3986981E-008  0.4614231E+02  0.7816164E-02  0.1320468E+00
        -11   -1    0    0    0    0  0.00000000000E+00  0.00000000000E+00  0.45593999997E+02  0.45594000000E+02  0.51100000000E-03 0.  1.
         11   -1    0    0    0    0 -0.00000000000E+00 -0.00000000000E+00 -0.45593999997E+02  0.45594000000E+02  0.51100000000E-03 0. -1.
    9900012    2    1    2    0    0 -0.28268406037E+02 -0.35028969736E+02  0.17271578237E+01  0.46142305703E+02  0.99998900404E+01 0.  0.
        -12    1    1    2    0    0  0.28268406037E+02  0.35028969736E+02 -0.17271578237E+01  0.45045694297E+02  0.00000000000E+00 0.  1.
         11    1    3    3    0    0 -0.15597066778E+02 -0.15309644056E+02  0.68979434599E+00  0.21866172726E+02  0.51100000000E-03 0. -1.
        -11    1    3    3    0    0 -0.11931303635E+02 -0.15073987378E+02 -0.76256417157E+00  0.19239610347E+02  0.51100000000E-03 0.  1.
         12    1    3    3    0    0 -0.74003562360E+00 -0.46453383009E+01  0.17999276493E+01  0.50365226294E+01  0.00000000000E+00 0. -1.
</event>
<event>
 7    1  0.3986981E-008  0.4614232E+02  0.7816164E-02  0.1320468E+00
        -11   -1    0    0    0    0  0.00000000000E+00  0.00000000000E+00  0.45593999997E+02  0.45594000000E+02  0.51100000000E-03 0.  1.
         11   -1    0    0    0    0 -0.00000000000E+00 -0.00000000000E+00 -0.45593999997E+02  0.45594000000E+02  0.51100000000E-03 0. -1.
    9900012    2    1    2    0    0  0.31739809972E+02  0.22263305951E+02 -0.22935629987E+02  0.46142318167E+02  0.10000003701E+02 0.  0.
        -12    1    1    2    0    0 -0.31739809972E+02 -0.22263305951E+02  0.22935629987E+02  0.45045681833E+02  0.00000000000E+00 0.  1.
         11    1    3    3    0    0  0.11598907292E+02  0.48129790604E+01 -0.32849685268E+01  0.12980386600E+02  0.51100000000E-03 0. -1.
        -11    1    3    3    0    0  0.10855219065E+02  0.10408030383E+02 -0.10435589685E+02  0.18304764673E+02  0.51100000000E-03 0.  1.
         12    1    3    3    0    0  0.92856836148E+01  0.70422965071E+01 -0.92150717751E+01  0.14857166894E+02  0.00000000000E+00 0. -1.
</event>
<event>
 7    1  0.3986981E-008  0.4614232E+02  0.7816164E-02  0.1320468E+00
        -11   -1    0    0    0    0  0.00000000000E+00  0.00000000000E+00  0.45593999997E+02  0.45594000000E+02  0.51100000000E-03 0.  1.
         11   -1    0    0    0    0 -0.00000000000E+00 -0.00000000000E+00 -0.45593999997E+02  0.45594000000E+02  0.51100000000E-03 0. -1.
    9900012    2    1    2    0    0  0.47829530425E+01  0.22837290699E+02 -0.38531739119E+02  0.46142318678E+02  0.10000008361E+02 0.  0.
        -12    1    1    2    0    0 -0.47829530425E+01 -0.22837290699E+02  0.38531739119E+02  0.45045681322E+02  0.00000000000E+00 0.  1.
         11    1    3    3    0    0  0.25671898329E+01  0.16011553615E+02 -0.23734907468E+02  0.28745541317E+02  0.51100000000E-03 0. -1.
        -11    1    3    3    0    0  0.25993489659E+01  0.27063182129E+01 -0.27301102664E+01  0.46405038136E+01  0.51100000000E-03 0.  1.
         12    1    3    3    0    0 -0.38358575628E+00  0.41194188707E+01 -0.12066721384E+02  0.12756273548E+02  0.00000000000E+00 0. -1.
</event>
<event>
 7    1  0.3986981E-008  0.4614232E+02  0.7816164E-02  0.1320468E+00
        -11   -1    0    0    0    0  0.00000000000E+00  0.00000000000E+00  0.45593999997E+02  0.45594000000E+02  0.51100000000E-03 0. -1.
         11   -1    0    0    0    0 -0.00000000000E+00 -0.00000000000E+00 -0.45593999997E+02  0.45594000000E+02  0.51100000000E-03 0.  1.
    9900012    2    1    2    0    0  0.20917146719E+02 -0.30302891927E+02  0.25948433734E+02  0.46142317641E+02  0.99999989036E+01 0.  0.
        -12    1    1    2    0    0 -0.20917146719E+02  0.30302891927E+02 -0.25948433734E+02  0.45045682359E+02  0.00000000000E+00 0.  1.
         11    1    3    3    0    0  0.10649444987E+02 -0.10865799092E+02  0.11344563434E+02  0.18978287283E+02  0.51100000000E-03 0. -1.
        -11    1    3    3    0    0  0.16702586181E+01 -0.71273662662E+00 -0.15048363763E+00  0.18221972826E+01  0.51100000000E-03 0.  1.
        -12    1    3    3    0    0  0.85974431139E+01 -0.18724356208E+02  0.14754353937E+02  0.25341833075E+02  0.00000000000E+00 0.  1.
</event>
<event>
 7    1  0.3986981E-008  0.4614232E+02  0.7816164E-02  0.1320468E+00
        -11   -1    0    0    0    0  0.00000000000E+00  0.00000000000E+00  0.45593999997E+02  0.45594000000E+02  0.51100000000E-03 0. -1.
         11   -1    0    0    0    0 -0.00000000000E+00 -0.00000000000E+00 -0.45593999997E+02  0.45594000000E+02  0.51100000000E-03 0.  1.
    9900012    2    1    2    0    0  0.40461944653E+02 -0.63882994440E+00  0.19787278597E+02  0.46142318042E+02  0.10000002557E+02 0.  0.
        -12    1    1    2    0    0 -0.40461944653E+02  0.63882994440E+00 -0.19787278597E+02  0.45045681958E+02  0.00000000000E+00 0.  1.
         11    1    3    3    0    0  0.18059156515E+02  0.11996197387E+01  0.12579972875E+02  0.22041504924E+02  0.51100000000E-03 0. -1.
        -11    1    3    3    0    0  0.12447113362E+02  0.96249618806E+00  0.24744695418E+01  0.12727137531E+02  0.51100000000E-03 0.  1.
        -12    1    3    3    0    0  0.99556747769E+01 -0.28009458712E+01  0.47328361808E+01  0.11373675587E+02  0.00000000000E+00 0.  1.
</event>
<event>
 7    1  0.3986981E-008  0.4614232E+02  0.7816164E-02  0.1320468E+00
        -11   -1    0    0    0    0  0.00000000000E+00  0.00000000000E+00  0.45593999997E+02  0.45594000000E+02  0.51100000000E-03 0.  1.
         11   -1    0    0    0    0 -0.00000000000E+00 -0.00000000000E+00 -0.45593999997E+02  0.45594000000E+02  0.51100000000E-03 0. -1.
    9900012    2    1    2    0    0  0.10674342964E+02 -0.15483168854E+02 -0.40932180483E+02  0.46142317470E+02  0.99999973446E+01 0.  0.
        -12    1    1    2    0    0 -0.10674342964E+02  0.15483168854E+02  0.40932180483E+02  0.45045682530E+02  0.00000000000E+00 0.  1.
         11    1    3    3    0    0  0.58734731243E+01 -0.66648697920E+01 -0.17824814178E+02  0.19915877501E+02  0.51100000000E-03 0. -1.
        -11    1    3    3    0    0  0.39748142688E+01 -0.78954524163E+01 -0.11263317719E+02  0.14317808618E+02  0.51100000000E-03 0.  1.
         12    1    3    3    0    0  0.82605557136E+00 -0.92284664617E+00 -0.11844048586E+02  0.11908631351E+02  0.00000000000E+00 0. -1.
</event>
<event>
 7    1  0.3986981E-008  0.4614232E+02  0.7816164E-02  0.1320468E+00
        -11   -1    0    0    0    0  0.00000000000E+00  0.00000000000E+00  0.45593999997E+02  0.45594000000E+02  0.51100000000E-03 0.  1.
         11   -1    0    0    0    0 -0.00000000000E+00 -0.00000000000E+00 -0.45593999997E+02  0.45594000000E+02  0.51100000000E-03 0. -1.
    9900012    2    1    2    0    0  0.30267922440E+02 -0.12520234372E+02 -0.30922647098E+02  0.46142317620E+02  0.99999987128E+01 0.  0.
        -12    1    1    2    0    0 -0.30267922440E+02  0.12520234372E+02  0.30922647098E+02  0.45045682380E+02  0.00000000000E+00 0.  1.
         11    1    3    3    0    0  0.50117691568E+01  0.10875414233E+01 -0.41954919108E+01  0.66259134512E+01  0.51100000000E-03 0. -1.
        -11    1    3    3    0    0  0.53980526705E+01 -0.37584267457E+01 -0.89214114939E+01  0.11084057359E+02  0.51100000000E-03 0.  1.
         12    1    3    3    0    0  0.19858100613E+02 -0.98493490496E+01 -0.17805743693E+02  0.28432346810E+02  0.00000000000E+00 0. -1.
</event>
<event>
 7    1  0.3986981E-008  0.4614232E+02  0.7816164E-02  0.1320468E+00
        -11   -1    0    0    0    0  0.00000000000E+00  0.00000000000E+00  0.45593999997E+02  0.45594000000E+02  0.51100000000E-03 0. -1.
         11   -1    0    0    0    0 -0.00000000000E+00 -0.00000000000E+00 -0.45593999997E+02  0.45594000000E+02  0.51100000000E-03 0.  1.
    9900012    2    1    2    0    0  0.29241499306E+02  0.34192314477E+02 -0.22212117683E+01  0.46142318380E+02  0.10000005641E+02 0.  0.
        -12    1    1    2    0    0 -0.29241499306E+02 -0.34192314477E+02  0.22212117683E+01  0.45045681620E+02  0.00000000000E+00 0.  1.
         11    1    3    3    0    0  0.44858141804E+01  0.19787235318E+01  0.10382720722E+01  0.50115750850E+01  0.51100000000E-03 0. -1.
        -11    1    3    3    0    0  0.22445991563E+02  0.27951032947E+02 -0.12134520825E+01  0.35868582997E+02  0.51100000000E-03 0.  1.
        -12    1    3    3    0    0  0.23096935626E+01  0.42625579983E+01 -0.20460317580E+01  0.52621602975E+01  0.00000000000E+00 0.  1.
</event>
<event>
 7    1  0.3986981E-008  0.4614232E+02  0.7816164E-02  0.1320468E+00
        -11   -1    0    0    0    0  0.00000000000E+00  0.00000000000E+00  0.45593999997E+02  0.45594000000E+02  0.51100000000E-03 0.  1.
         11   -1    0    0    0    0 -0.00000000000E+00 -0.00000000000E+00 -0.45593999997E+02  0.45594000000E+02  0.51100000000E-03 0. -1.
    9900012    2    1    2    0    0  0.18917293476E+02 -0.34991347895E+02 -0.21138948195E+02  0.46142317069E+02  0.99999936853E+01 0.  0.
        -12    1    1    2    0    0 -0.18917293476E+02  0.34991347895E+02  0.21138948195E+02  0.45045682931E+02  0.00000000000E+00 0.  1.
         11    1    3    3    0    0  0.15317921394E+02 -0.27037770784E+02 -0.12788725765E+02  0.33604036539E+02  0.51100000000E-03 0. -1.
        -11    1    3    3    0    0  0.72358654025E+00 -0.55328899314E+01 -0.46478127966E+01  0.72621355349E+01  0.51100000000E-03 0.  1.
         12    1    3    3    0    0  0.28757855425E+01 -0.24206871796E+01 -0.37024096339E+01  0.52761449947E+01  0.00000000000E+00 0. -1.
</event>
<event>
 7    1  0.3986981E-008  0.4614232E+02  0.7816164E-02  0.1320468E+00
        -11   -1    0    0    0    0  0.00000000000E+00  0.00000000000E+00  0.45593999997E+02  0.45594000000E+02  0.51100000000E-03 0.  1.
         11   -1    0    0    0    0 -0.00000000000E+00 -0.00000000000E+00 -0.45593999997E+02  0.45594000000E+02  0.51100000000E-03 0. -1.
    9900012    2    1    2    0    0 -0.43143037564E+02 -0.57531685374E+01 -0.11605728287E+02  0.46142316883E+02  0.99999919882E+01 0.  0.
        -12    1    1    2    0    0  0.43143037564E+02  0.57531685374E+01  0.11605728287E+02  0.45045683117E+02  0.00000000000E+00 0.  1.
         11    1    3    3    0    0 -0.10293898845E+02 -0.13451169634E+01 -0.16485919286E+01  0.10511496025E+02  0.51100000000E-03 0. -1.
        -11    1    3    3    0    0 -0.30530299961E+02 -0.31092869170E+01 -0.66718947548E+01  0.31405112016E+02  0.51100000000E-03 0.  1.
        -12    1    3    3    0    0 -0.23188387575E+01 -0.12987646570E+01 -0.32852416038E+01  0.42257088415E+01  0.00000000000E+00 0.  1.
</event>
<event>
 7    1  0.3986981E-008  0.4614232E+02  0.7816164E-02  0.1320468E+00
        -11   -1    0    0    0    0  0.00000000000E+00  0.00000000000E+00  0.45593999997E+02  0.45594000000E+02  0.51100000000E-03 0.  1.
         11   -1    0    0    0    0 -0.00000000000E+00 -0.00000000000E+00 -0.45593999997E+02  0.45594000000E+02  0.51100000000E-03 0. -1.
    9900012    2    1    2    0    0  0.79062078002E+01 -0.21918197398E+02 -0.38551239987E+02  0.46142316483E+02  0.99999883456E+01 0.  0.
        -12    1    1    2    0    0 -0.79062078002E+01  0.21918197398E+02  0.38551239987E+02  0.45045683517E+02  0.00000000000E+00 0.  1.
         11    1    3    3    0    0  0.58007442802E+01 -0.10926048982E+02 -0.21731082775E+02  0.25005342217E+02  0.51100000000E-03 0. -1.
        -11    1    3    3    0    0 -0.10789478113E+01 -0.73165177562E+01 -0.12985308319E+02  0.14943687392E+02  0.51100000000E-03 0.  1.
        -12    1    3    3    0    0  0.31844113313E+01 -0.36756306598E+01 -0.38348488933E+01  0.61932868744E+01  0.00000000000E+00 0.  1.
</event>
<event>
 7    1  0.3986981E-008  0.4614232E+02  0.7816164E-02  0.1320468E+00
        -11   -1    0    0    0    0  0.00000000000E+00  0.00000000000E+00  0.45593999997E+02  0.45594000000E+02  0.51100000000E-03 0.  1.
         11   -1    0    0    0    0 -0.00000000000E+00 -0.00000000000E+00 -0.45593999997E+02  0.45594000000E+02  0.51100000000E-03 0. -1.
    9900012    2    1    2    0    0  0.40375125726E+02 -0.17530231164E+02 -0.95735884059E+01  0.46142318997E+02  0.10000011274E+02 0.  0.
        -12    1    1    2    0    0 -0.40375125726E+02  0.17530231164E+02  0.95735884059E+01  0.45045681003E+02  0.00000000000E+00 0.  1.
         11    1    3    3    0    0  0.13900402180E+02 -0.60852923399E+01 -0.67117028868E+01  0.16592134267E+02  0.51100000000E-03 0. -1.
        -11    1    3    3    0    0  0.16252049726E+02 -0.39480445768E+01 -0.12548987143E+01  0.16771730600E+02  0.51100000000E-03 0.  1.
         12    1    3    3    0    0  0.10222673820E+02 -0.74968942473E+01 -0.16069868047E+01  0.12778454131E+02  0.00000000000E+00 0. -1.
</event>
<event>
 7    1  0.3986981E-008  0.4614232E+02  0.7816164E-02  0.1320468E+00
        -11   -1    0    0    0    0  0.00000000000E+00  0.00000000000E+00  0.45593999997E+02  0.45594000000E+02  0.51100000000E-03 0.  1.
         11   -1    0    0    0    0 -0.00000000000E+00 -0.00000000000E+00 -0.45593999997E+02  0.45594000000E+02  0.51100000000E-03 0. -1.
    9900012    2    1    2    0    0 -0.16954069256E+02 -0.31146176751E+02 -0.27777485945E+02  0.46142317455E+02  0.99999972113E+01 0.  0.
        -12    1    1    2    0    0  0.16954069256E+02  0.31146176751E+02  0.27777485945E+02  0.45045682545E+02  0.00000000000E+00 0.  1.
         11    1    3    3    0    0 -0.50645453812E+00 -0.12731259818E+01 -0.51194451906E+00  0.14626802167E+01  0.51100000000E-03 0. -1.
        -11    1    3    3    0    0 -0.84859470480E+01 -0.13416194406E+02 -0.68916551052E+01  0.17306082167E+02  0.51100000000E-03 0.  1.
         12    1    3    3    0    0 -0.79616676696E+01 -0.16456856363E+02 -0.20373886320E+02  0.27373555071E+02  0.00000000000E+00 0. -1.
</event>
<event>
 7    1  0.3986981E-008  0.4614232E+02  0.7816164E-02  0.1320468E+00
        -11   -1    0    0    0    0  0.00000000000E+00  0.00000000000E+00  0.45593999997E+02  0.45594000000E+02  0.51100000000E-03 0.  1.
         11   -1    0    0    0    0 -0.00000000000E+00 -0.00000000000E+00 -0.45593999997E+02  0.45594000000E+02  0.51100000000E-03 0. -1.
    9900012    2    1    2    0    0 -0.34034351494E+02 -0.79831120065E+00 -0.29498117833E+02  0.46142319429E+02  0.10000015209E+02 0.  0.
        -12    1    1    2    0    0  0.34034351494E+02  0.79831120065E+00  0.29498117833E+02  0.45045680571E+02  0.00000000000E+00 0.  1.
         11    1    3    3    0    0 -0.20561833306E+02  0.14888270313E+01 -0.19014952813E+02  0.28045927076E+02  0.51100000000E-03 0. -1.
        -11    1    3    3    0    0 -0.64415902734E+01 -0.37625857220E+01 -0.42530524448E+01  0.85871760157E+01  0.51100000000E-03 0.  1.
        -12    1    3    3    0    0 -0.70309279152E+01  0.14754474900E+01 -0.62301125752E+01  0.95092163370E+01  0.00000000000E+00 0.  1.
</event>
<event>
 7    1  0.3986981E-008  0.4614232E+02  0.7816164E-02  0.1320468E+00
        -11   -1    0    0    0    0  0.00000000000E+00  0.00000000000E+00  0.45593999997E+02  0.45594000000E+02  0.51100000000E-03 0. -1.
         11   -1    0    0    0    0 -0.00000000000E+00 -0.00000000000E+00 -0.45593999997E+02  0.45594000000E+02  0.51100000000E-03 0.  1.
    9900012    2    1    2    0    0 -0.13996445514E+02  0.39492877803E+02  0.16538609630E+02  0.46142317713E+02  0.99999995622E+01 0.  0.
        -12    1    1    2    0    0  0.13996445514E+02 -0.39492877803E+02 -0.16538609630E+02  0.45045682287E+02  0.00000000000E+00 0.  1.
         11    1    3    3    0    0 -0.17725892100E+00  0.57696054257E+01  0.24520914332E+01  0.62715644102E+01  0.51100000000E-03 0. -1.
        -11    1    3    3    0    0 -0.69001144393E+01  0.75736648890E+01  0.41419818891E+01  0.11051153485E+02  0.51100000000E-03 0.  1.
         12    1    3    3    0    0 -0.69190721537E+01  0.26149607488E+02  0.99445363079E+01  0.28819599818E+02  0.00000000000E+00 0. -1.
</event>
<event>
 7    1  0.3986981E-008  0.4614232E+02  0.7816164E-02  0.1320468E+00
        -11   -1    0    0    0    0  0.00000000000E+00  0.00000000000E+00  0.45593999997E+02  0.45594000000E+02  0.51100000000E-03 0.  1.
         11   -1    0    0    0    0 -0.00000000000E+00 -0.00000000000E+00 -0.45593999997E+02  0.45594000000E+02  0.51100000000E-03 0. -1.
    9900012    2    1    2    0    0  0.37023128835E+02  0.25620174153E+02  0.14170754853E+01  0.46142317684E+02  0.99999992958E+01 0.  0.
        -12    1    1    2    0    0 -0.37023128835E+02 -0.25620174153E+02 -0.14170754853E+01  0.45045682316E+02  0.00000000000E+00 0.  1.
         11    1    3    3    0    0  0.67328579438E+01  0.16212879420E+01 -0.17187973605E+01  0.71354197711E+01  0.51100000000E-03 0. -1.
        -11    1    3    3    0    0  0.16630112412E+02  0.12736976999E+02  0.38057726988E+01  0.21290258994E+02  0.51100000000E-03 0.  1.
         12    1    3    3    0    0  0.13660158479E+02  0.11261909212E+02 -0.66989985304E+00  0.17716638919E+02  0.00000000000E+00 0. -1.
</event>
<event>
 7    1  0.3986981E-008  0.4614232E+02  0.7816164E-02  0.1320468E+00
        -11   -1    0    0    0    0  0.00000000000E+00  0.00000000000E+00  0.45593999997E+02  0.45594000000E+02  0.51100000000E-03 0.  1.
         11   -1    0    0    0    0 -0.00000000000E+00 -0.00000000000E+00 -0.45593999997E+02  0.45594000000E+02  0.51100000000E-03 0. -1.
    9900012    2    1    2    0    0  0.17354781734E+02  0.29863413459E+02 -0.28915420784E+02  0.46142317948E+02  0.10000001702E+02 0.  0.
        -12    1    1    2    0    0 -0.17354781734E+02 -0.29863413459E+02  0.28915420784E+02  0.45045682052E+02  0.00000000000E+00 0.  1.
         11    1    3    3    0    0  0.10216172886E+02  0.12646410547E+02 -0.14510399601E+02  0.21791135468E+02  0.51100000000E-03 0. -1.
        -11    1    3    3    0    0  0.20794558719E+01  0.85989274815E+01 -0.33784424888E+01  0.94699294858E+01  0.51100000000E-03 0.  1.
        -12    1    3    3    0    0  0.50591529755E+01  0.86180754301E+01 -0.11026578695E+02  0.14881252993E+02  0.00000000000E+00 0.  1.
</event>
<event>
 7    1  0.3986981E-008  0.4614232E+02  0.7816164E-02  0.1320468E+00
        -11   -1    0    0    0    0  0.00000000000E+00  0.00000000000E+00  0.45593999997E+02  0.45594000000E+02  0.51100000000E-03 0.  1.
         11   -1    0    0    0    0 -0.00000000000E+00 -0.00000000000E+00 -0.45593999997E+02  0.45594000000E+02  0.51100000000E-03 0. -1.
    9900012    2    1    2    0    0 -0.34343155762E+01  0.10092510320E+02 -0.43765970547E+02  0.46142318010E+02  0.10000002268E+02 0.  0.
        -12    1    1    2    0    0  0.34343155762E+01 -0.10092510320E+02  0.43765970547E+02  0.45045681990E+02  0.00000000000E+00 0.  1.
         11    1    3    3    0    0  0.15502517357E+01  0.49584855867E+00 -0.93079443501E+01  0.94491785105E+01  0.51100000000E-03 0. -1.
        -11    1    3    3    0    0 -0.45021125737E+00 -0.69980157234E+00 -0.63123882577E+00  0.10444496796E+01  0.51100000000E-03 0.  1.
         12    1    3    3    0    0 -0.45343560546E+01  0.10296463334E+02 -0.33826787371E+02  0.35648689820E+02  0.00000000000E+00 0. -1.
</event>
<event>
 7    1  0.3986981E-008  0.4614232E+02  0.7816164E-02  0.1320468E+00
        -11   -1    0    0    0    0  0.00000000000E+00  0.00000000000E+00  0.45593999997E+02  0.45594000000E+02  0.51100000000E-03 0.  1.
         11   -1    0    0    0    0 -0.00000000000E+00 -0.00000000000E+00 -0.45593999997E+02  0.45594000000E+02  0.51100000000E-03 0. -1.
    9900012    2    1    2    0    0  0.29733700113E+01  0.19938333633E+02 -0.40283190685E+02  0.46142317309E+02  0.99999958802E+01 0.  0.
        -12    1    1    2    0    0 -0.29733700113E+01 -0.19938333633E+02  0.40283190685E+02  0.45045682691E+02  0.00000000000E+00 0.  1.
         11    1    3    3    0    0 -0.16941813305E+01  0.99386055948E+01 -0.18890639882E+02  0.21412669309E+02  0.51100000000E-03 0. -1.
        -11    1    3    3    0    0  0.53658631823E+01  0.10000761768E+02 -0.18100576155E+02  0.21364423256E+02  0.51100000000E-03 0.  1.
        -12    1    3    3    0    0 -0.69831184054E+00 -0.10337298415E-02 -0.32919746481E+01  0.33652247442E+01  0.00000000000E+00 0.  1.
</event>
<event>
 7    1  0.3986981E-008  0.4614232E+02  0.7816164E-02  0.1320468E+00
        -11   -1    0    0    0    0  0.00000000000E+00  0.00000000000E+00  0.45593999997E+02  0.45594000000E+02  0.51100000000E-03 0. -1.
         11   -1    0    0    0    0 -0.00000000000E+00 -0.00000000000E+00 -0.45593999997E+02  0.45594000000E+02  0.51100000000E-03 0.  1.
    9900012    2    1    2    0    0  0.77393957019E+01  0.65101526989E+01  0.43895706848E+02  0.46142318590E+02  0.10000007559E+02 0.  0.
        -12    1    1    2    0    0 -0.77393957019E+01 -0.65101526989E+01 -0.43895706848E+02  0.45045681410E+02  0.00000000000E+00 0.  1.
         11    1    3    3    0    0  0.41508619947E+01 -0.39757256469E-01  0.13477824326E+02  0.14102587875E+02  0.51100000000E-03 0. -1.
        -11    1    3    3    0    0 -0.63304482848E+00  0.94497303682E+00  0.38928121066E+00  0.12021896345E+01  0.51100000000E-03 0.  1.
        -12    1    3    3    0    0  0.42215785357E+01  0.56049369185E+01  0.30028601311E+02  0.30837541081E+02  0.00000000000E+00 0.  1.
</event>
<event>
 7    1  0.3986981E-008  0.4614232E+02  0.7816164E-02  0.1320468E+00
        -11   -1    0    0    0    0  0.00000000000E+00  0.00000000000E+00  0.45593999997E+02  0.45594000000E+02  0.51100000000E-03 0.  1.
         11   -1    0    0    0    0 -0.00000000000E+00 -0.00000000000E+00 -0.45593999997E+02  0.45594000000E+02  0.51100000000E-03 0. -1.
    9900012    2    1    2    0    0 -0.13209481555E+02 -0.33690967490E+02 -0.26824272910E+02  0.46142319735E+02  0.10000017998E+02 0.  0.
        -12    1    1    2    0    0  0.13209481555E+02  0.33690967490E+02  0.26824272910E+02  0.45045680265E+02  0.00000000000E+00 0.  1.
         11    1    3    3    0    0 -0.12900267747E+01 -0.15848451061E+01 -0.50796600471E+00  0.21056905786E+01  0.51100000000E-03 0.  1.
        -11    1    3    3    0    0 -0.88998228149E+01 -0.13973658816E+02 -0.15616326563E+02  0.22767073647E+02  0.51100000000E-03 0. -1.
        -12    1    3    3    0    0 -0.30196319658E+01 -0.18132463568E+02 -0.10699980342E+02  0.21269555510E+02  0.00000000000E+00 0.  1.
</event>
<event>
 7    1  0.3986981E-008  0.4614232E+02  0.7816164E-02  0.1320468E+00
        -11   -1    0    0    0    0  0.00000000000E+00  0.00000000000E+00  0.45593999997E+02  0.45594000000E+02  0.51100000000E-03 0.  1.
         11   -1    0    0    0    0 -0.00000000000E+00 -0.00000000000E+00 -0.45593999997E+02  0.45594000000E+02  0.51100000000E-03 0. -1.
    9900012    2    1    2    0    0  0.86189663054E+01  0.44041761548E+02  0.38923014188E+01  0.46142319289E+02  0.10000013928E+02 0.  0.
        -12    1    1    2    0    0 -0.86189663054E+01 -0.44041761548E+02 -0.38923014188E+01  0.45045680711E+02  0.00000000000E+00 0.  1.
         11    1    3    3    0    0  0.81011700590E+01  0.32388037255E+02  0.43541519417E+01  0.33668569215E+02  0.51100000000E-03 0. -1.
        -11    1    3    3    0    0  0.16741337482E+01  0.42191619664E+01  0.13481668524E+01  0.47351457874E+01  0.51100000000E-03 0.  1.
         12    1    3    3    0    0 -0.11563375017E+01  0.74345623265E+01 -0.18100173752E+01  0.77386042865E+01  0.00000000000E+00 0. -1.
</event>
<event>
 7    1  0.3986981E-008  0.4614232E+02  0.7816164E-02  0.1320468E+00
        -11   -1    0    0    0    0  0.00000000000E+00  0.00000000000E+00  0.45593999997E+02  0.45594000000E+02  0.51100000000E-03 0. -1.
         11   -1    0    0    0    0 -0.00000000000E+00 -0.00000000000E+00 -0.45593999997E+02  0.45594000000E+02  0.51100000000E-03 0.  1.
    9900012    2    1    2    0    0 -0.43599302066E+02 -0.45598574201E+01  0.10364469305E+02  0.46142315808E+02  0.99999821942E+01 0.  0.
        -12    1    1    2    0    0  0.43599302066E+02  0.45598574201E+01 -0.10364469305E+02  0.45045684192E+02  0.00000000000E+00 0.  1.
         11    1    3    3    0    0 -0.14985539700E+02  0.10643713480E+01  0.10486483326E+01  0.15059845618E+02  0.51100000000E-03 0. -1.
        -11    1    3    3    0    0 -0.25563437789E+02 -0.40264931719E+01  0.96580055942E+01  0.27622075795E+02  0.51100000000E-03 0.  1.
         12    1    3    3    0    0 -0.30503245764E+01 -0.15977355962E+01 -0.34218462210E+00  0.34603943955E+01  0.00000000000E+00 0. -1.
</event>
<event>
 7    1  0.3986981E-008  0.4614232E+02  0.7816164E-02  0.1320468E+00
        -11   -1    0    0    0    0  0.00000000000E+00  0.00000000000E+00  0.45593999997E+02  0.45594000000E+02  0.51100000000E-03 0.  1.
         11   -1    0    0    0    0 -0.00000000000E+00 -0.00000000000E+00 -0.45593999997E+02  0.45594000000E+02  0.51100000000E-03 0. -1.
    9900012    2    1    2    0    0 -0.33422302652E+02 -0.13835942473E+02 -0.26844550183E+02  0.46142317708E+02  0.99999995140E+01 0.  0.
        -12    1    1    2    0    0  0.33422302652E+02  0.13835942473E+02  0.26844550183E+02  0.45045682292E+02  0.00000000000E+00 0.  1.
         11    1    3    3    0    0 -0.10360675622E+02 -0.44259269838E+01 -0.48758874256E+01  0.12276266023E+02  0.51100000000E-03 0. -1.
        -11    1    3    3    0    0 -0.35987472881E+01 -0.30841246148E+01 -0.72342169837E+01  0.86485086756E+01  0.51100000000E-03 0.  1.
        -12    1    3    3    0    0 -0.19462879741E+02 -0.63258908739E+01 -0.14734445774E+02  0.25217543009E+02  0.00000000000E+00 0.  1.
</event>
<event>
 7    1  0.3986981E-008  0.4614232E+02  0.7816164E-02  0.1320468E+00
        -11   -1    0    0    0    0  0.00000000000E+00  0.00000000000E+00  0.45593999997E+02  0.45594000000E+02  0.51100000000E-03 0. -1.
         11   -1    0    0    0    0 -0.00000000000E+00 -0.00000000000E+00 -0.45593999997E+02  0.45594000000E+02  0.51100000000E-03 0.  1.
    9900012    2    1    2    0    0  0.33229976483E+02  0.30411411474E+02  0.16812908529E+00  0.46142317052E+02  0.99999935295E+01 0.  0.
        -12    1    1    2    0    0 -0.33229976483E+02 -0.30411411474E+02 -0.16812908529E+00  0.45045682948E+02  0.00000000000E+00 0.  1.
         11    1    3    3    0    0  0.25923392425E+02  0.18517186461E+02  0.18489571087E+01  0.31911238019E+02  0.51100000000E-03 0. -1.
        -11    1    3    3    0    0 -0.75205264031E-01  0.14097211657E-01  0.10595405370E+00  0.13069462778E+00  0.51100000000E-03 0.  1.
         12    1    3    3    0    0  0.73817893222E+01  0.11880127801E+02 -0.17867820771E+01  0.14100384405E+02  0.00000000000E+00 0. -1.
</event>
<event>
 7    1  0.3986981E-008  0.4614232E+02  0.7816164E-02  0.1320468E+00
        -11   -1    0    0    0    0  0.00000000000E+00  0.00000000000E+00  0.45593999997E+02  0.45594000000E+02  0.51100000000E-03 0. -1.
         11   -1    0    0    0    0 -0.00000000000E+00 -0.00000000000E+00 -0.45593999997E+02  0.45594000000E+02  0.51100000000E-03 0.  1.
    9900012    2    1    2    0    0  0.21668921185E+02 -0.37631982180E+02  0.11975192527E+02  0.46142318029E+02  0.10000002447E+02 0.  0.
        -12    1    1    2    0    0 -0.21668921185E+02  0.37631982180E+02 -0.11975192527E+02  0.45045681971E+02  0.00000000000E+00 0.  1.
         11    1    3    3    0    0  0.13906521755E+02 -0.17686169764E+02  0.52091168834E+01  0.23093870338E+02  0.51100000000E-03 0. -1.
        -11    1    3    3    0    0  0.79855205212E+01 -0.14335903448E+02  0.53215606823E+01  0.17251251376E+02  0.51100000000E-03 0.  1.
        -12    1    3    3    0    0 -0.22312109047E+00 -0.56099089680E+01  0.14445149610E+01  0.57971963157E+01  0.00000000000E+00 0.  1.
</event>
<event>
 7    1  0.3986981E-008  0.4614232E+02  0.7816164E-02  0.1320468E+00
        -11   -1    0    0    0    0  0.00000000000E+00  0.00000000000E+00  0.45593999997E+02  0.45594000000E+02  0.51100000000E-03 0.  1.
         11   -1    0    0    0    0 -0.00000000000E+00 -0.00000000000E+00 -0.45593999997E+02  0.45594000000E+02  0.51100000000E-03 0. -1.
    9900012    2    1    2    0    0  0.27611391683E+02  0.19901025896E+02 -0.29507180972E+02  0.46142317507E+02  0.99999976785E+01 0.  0.
        -12    1    1    2    0    0 -0.27611391683E+02 -0.19901025896E+02  0.29507180972E+02  0.45045682493E+02  0.00000000000E+00 0.  1.
         11    1    3    3    0    0  0.42181587760E-01  0.45046219683E+00  0.35888018265E-01  0.45385425865E+00  0.51100000000E-03 0. -1.
        -11    1    3    3    0    0  0.93726351632E+01  0.25811514861E+01 -0.11204342486E+02  0.14833944981E+02  0.51100000000E-03 0.  1.
         12    1    3    3    0    0  0.18196574932E+02  0.16869412213E+02 -0.18338726504E+02  0.30854518267E+02  0.00000000000E+00 0. -1.
</event>
<event>
 7    1  0.3986981E-008  0.4614232E+02  0.7816164E-02  0.1320468E+00
        -11   -1    0    0    0    0  0.00000000000E+00  0.00000000000E+00  0.45593999997E+02  0.45594000000E+02  0.51100000000E-03 0. -1.
         11   -1    0    0    0    0 -0.00000000000E+00 -0.00000000000E+00 -0.45593999997E+02  0.45594000000E+02  0.51100000000E-03 0.  1.
    9900012    2    1    2    0    0 -0.27356461243E+02 -0.12611163689E+02  0.33491732808E+02  0.46142316657E+02  0.99999899318E+01 0.  0.
        -12    1    1    2    0    0  0.27356461243E+02  0.12611163689E+02 -0.33491732808E+02  0.45045683343E+02  0.00000000000E+00 0.  1.
         11    1    3    3    0    0 -0.18464126447E+02 -0.49301594969E+01  0.16905452843E+02  0.25515187128E+02  0.51100000000E-03 0. -1.
        -11    1    3    3    0    0 -0.80855380526E+00 -0.21600886329E+01  0.19574440615E+01  0.30251164727E+01  0.51100000000E-03 0.  1.
         12    1    3    3    0    0 -0.80837809912E+01 -0.55209155593E+01  0.14628835904E+02  0.17602013056E+02  0.00000000000E+00 0. -1.
</event>
<event>
 7    1  0.3986981E-008  0.4614232E+02  0.7816164E-02  0.1320468E+00
        -11   -1    0    0    0    0  0.00000000000E+00  0.00000000000E+00  0.45593999997E+02  0.45594000000E+02  0.51100000000E-03 0. -1.
         11   -1    0    0    0    0 -0.00000000000E+00 -0.00000000000E+00 -0.45593999997E+02  0.45594000000E+02  0.51100000000E-03 0.  1.
    9900012    2    1    2    0    0 -0.44893544925E+02 -0.36930362469E+01  0.21091458623E+00  0.46142318991E+02  0.10000011214E+02 0.  0.
        -12    1    1    2    0    0  0.44893544925E+02  0.36930362469E+01 -0.21091458623E+00  0.45045681009E+02  0.00000000000E+00 0.  1.
         11    1    3    3    0    0 -0.28745695167E+02 -0.45004409791E-01  0.19280803586E+01  0.28810319508E+02  0.51100000000E-03 0. -1.
        -11    1    3    3    0    0 -0.10078984900E+02  0.15941645306E-01 -0.18206149920E+01  0.10242110620E+02  0.51100000000E-03 0.  1.
         12    1    3    3    0    0 -0.60688648580E+01 -0.36639734824E+01  0.10344921960E+00  0.70898888627E+01  0.00000000000E+00 0. -1.
</event>
<event>
 7    1  0.3986981E-008  0.4614232E+02  0.7816164E-02  0.1320468E+00
        -11   -1    0    0    0    0  0.00000000000E+00  0.00000000000E+00  0.45593999997E+02  0.45594000000E+02  0.51100000000E-03 0. -1.
         11   -1    0    0    0    0 -0.00000000000E+00 -0.00000000000E+00 -0.45593999997E+02  0.45594000000E+02  0.51100000000E-03 0.  1.
    9900012    2    1    2    0    0 -0.10065777584E+02 -0.18143050363E+02  0.39982785988E+02  0.46142319517E+02  0.10000016008E+02 0.  0.
        -12    1    1    2    0    0  0.10065777584E+02  0.18143050363E+02 -0.39982785988E+02  0.45045680483E+02  0.00000000000E+00 0.  1.
         11    1    3    3    0    0 -0.45668897782E+01 -0.65656908221E+01  0.13953243603E+02  0.16082841339E+02  0.51100000000E-03 0. -1.
        -11    1    3    3    0    0 -0.63200811284E+01 -0.89886376468E+01  0.24703799004E+02  0.27037320831E+02  0.51100000000E-03 0.  1.
        -12    1    3    3    0    0  0.82119332281E+00 -0.25887218940E+01  0.13257433810E+01  0.30221573470E+01  0.00000000000E+00 0.  1.
</event>
<event>
 7    1  0.3986981E-008  0.4614232E+02  0.7816164E-02  0.1320468E+00
        -11   -1    0    0    0    0  0.00000000000E+00  0.00000000000E+00  0.45593999997E+02  0.45594000000E+02  0.51100000000E-03 0. -1.
         11   -1    0    0    0    0 -0.00000000000E+00 -0.00000000000E+00 -0.45593999997E+02  0.45594000000E+02  0.51100000000E-03 0.  1.
    9900012    2    1    2    0    0 -0.33872093180E+02  0.29661011788E+02 -0.14210000710E+01  0.46142316990E+02  0.99999929650E+01 0.  0.
        -12    1    1    2    0    0  0.33872093180E+02 -0.29661011788E+02  0.14210000710E+01  0.45045683010E+02  0.00000000000E+00 0.  1.
         11    1    3    3    0    0 -0.25526566587E+01  0.16297561587E+01  0.14911677761E+01  0.33757581003E+01  0.51100000000E-03 0. -1.
        -11    1    3    3    0    0 -0.69834379737E+01  0.84798182629E+01 -0.35452683071E+01  0.11543164702E+02  0.51100000000E-03 0.  1.
        -12    1    3    3    0    0 -0.24335998548E+02  0.19551437366E+02  0.63310045999E+00  0.31223394188E+02  0.00000000000E+00 0.  1.
</event>
<event>
 7    1  0.3986981E-008  0.4614232E+02  0.7816164E-02  0.1320468E+00
        -11   -1    0    0    0    0  0.00000000000E+00  0.00000000000E+00  0.45593999997E+02  0.45594000000E+02  0.51100000000E-03 0.  1.
         11   -1    0    0    0    0 -0.00000000000E+00 -0.00000000000E+00 -0.45593999997E+02  0.45594000000E+02  0.51100000000E-03 0. -1.
    9900012    2    1    2    0    0  0.11993503217E+02 -0.43399461624E+02 -0.13251584010E+01  0.46142318370E+02  0.10000005556E+02 0.  0.
        -12    1    1    2    0    0 -0.11993503217E+02  0.43399461624E+02  0.13251584010E+01  0.45045681630E+02  0.00000000000E+00 0.  1.
         11    1    3    3    0    0  0.12557763428E+01 -0.57944522043E+00  0.15227102028E+00  0.13913725998E+01  0.51100000000E-03 0. -1.
        -11    1    3    3    0    0  0.70527474285E+00 -0.15298383500E+02 -0.20561811710E+01  0.15452049426E+02  0.51100000000E-03 0.  1.
         12    1    3    3    0    0  0.10032452132E+02 -0.27521632903E+02  0.57875174969E+00  0.29298896345E+02  0.00000000000E+00 0. -1.
</event>
<event>
 7    1  0.3986981E-008  0.4614232E+02  0.7816164E-02  0.1320468E+00
        -11   -1    0    0    0    0  0.00000000000E+00  0.00000000000E+00  0.45593999997E+02  0.45594000000E+02  0.51100000000E-03 0.  1.
         11   -1    0    0    0    0 -0.00000000000E+00 -0.00000000000E+00 -0.45593999997E+02  0.45594000000E+02  0.51100000000E-03 0. -1.
    9900012    2    1    2    0    0 -0.30747143377E+02  0.18895822101E+02 -0.26956900976E+02  0.46142318420E+02  0.10000006012E+02 0.  0.
        -12    1    1    2    0    0  0.30747143377E+02 -0.18895822101E+02  0.26956900976E+02  0.45045681580E+02  0.00000000000E+00 0.  1.
         11    1    3    3    0    0 -0.77297979830E+01  0.72269963137E+01 -0.10185999259E+02  0.14687880505E+02  0.51100000000E-03 0. -1.
        -11    1    3    3    0    0 -0.18659249028E+02  0.66845178440E+01 -0.14055696189E+02  0.24298414530E+02  0.51100000000E-03 0.  1.
         12    1    3    3    0    0 -0.43580963669E+01  0.49843079438E+01 -0.27152055277E+01  0.71560233845E+01  0.00000000000E+00 0. -1.
</event>
<event>
 7    1  0.3986981E-008  0.4614232E+02  0.7816164E-02  0.1320468E+00
        -11   -1    0    0    0    0  0.00000000000E+00  0.00000000000E+00  0.45593999997E+02  0.45594000000E+02  0.51100000000E-03 0.  1.
         11   -1    0    0    0    0 -0.00000000000E+00 -0.00000000000E+00 -0.45593999997E+02  0.45594000000E+02  0.51100000000E-03 0. -1.
    9900012    2    1    2    0    0 -0.35021886889E+02  0.25545583735E+02 -0.12247615432E+02  0.46142317705E+02  0.99999994866E+01 0.  0.
        -12    1    1    2    0    0  0.35021886889E+02 -0.25545583735E+02  0.12247615432E+02  0.45045682295E+02  0.00000000000E+00 0.  1.
         11    1    3    3    0    0 -0.17646990783E+02  0.94272229867E+01 -0.22996490311E+01  0.20138947412E+02  0.51100000000E-03 0. -1.
        -11    1    3    3    0    0 -0.23420721432E+01  0.12620392013E+01 -0.23320898325E+01  0.35378931750E+01  0.51100000000E-03 0.  1.
         12    1    3    3    0    0 -0.15032823963E+02  0.14856321547E+02 -0.76158765687E+01  0.22465477118E+02  0.00000000000E+00 0. -1.
</event>
<event>
 7    1  0.3986981E-008  0.4614232E+02  0.7816164E-02  0.1320468E+00
        -11   -1    0    0    0    0  0.00000000000E+00  0.00000000000E+00  0.45593999997E+02  0.45594000000E+02  0.51100000000E-03 0.  1.
         11   -1    0    0    0    0 -0.00000000000E+00 -0.00000000000E+00 -0.45593999997E+02  0.45594000000E+02  0.51100000000E-03 0. -1.
    9900012    2    1    2    0    0  0.17547384388E+02  0.37537160134E+01 -0.41317216350E+02  0.46142318190E+02  0.10000003914E+02 0.  0.
        -12    1    1    2    0    0 -0.17547384388E+02 -0.37537160134E+01  0.41317216350E+02  0.45045681810E+02  0.00000000000E+00 0.  1.
         11    1    3    3    0    0  0.78538387775E+00  0.91479984002E+00 -0.77787864571E+00  0.14348456472E+01  0.51100000000E-03 0.  1.
        -11    1    3    3    0    0  0.11861732600E+02 -0.80627312787E+00 -0.32534944257E+02  0.34639188425E+02  0.51100000000E-03 0. -1.
         12    1    3    3    0    0  0.49002679095E+01  0.36451893012E+01 -0.80043934472E+01  0.10068284118E+02  0.00000000000E+00 0. -1.
</event>
<event>
 7    1  0.3986981E-008  0.4614232E+02  0.7816164E-02  0.1320468E+00
        -11   -1    0    0    0    0  0.00000000000E+00  0.00000000000E+00  0.45593999997E+02  0.45594000000E+02  0.51100000000E-03 0. -1.
         11   -1    0    0    0    0 -0.00000000000E+00 -0.00000000000E+00 -0.45593999997E+02  0.45594000000E+02  0.51100000000E-03 0.  1.
    9900012    2    1    2    0    0  0.18504050604E+01  0.40824196616E+02  0.18949263090E+02  0.46142316523E+02  0.99999887110E+01 0.  0.
        -12    1    1    2    0    0 -0.18504050604E+01 -0.40824196616E+02 -0.18949263090E+02  0.45045683477E+02  0.00000000000E+00 0.  1.
         11    1    3    3    0    0  0.14452392294E+01  0.28186188997E+02  0.15663590894E+02  0.32278445541E+02  0.51100000000E-03 0. -1.
        -11    1    3    3    0    0 -0.16014484216E+01  0.83713706843E+01  0.87378779859E+00  0.85678462614E+01  0.51100000000E-03 0.  1.
         12    1    3    3    0    0  0.20066142525E+01  0.42666369348E+01  0.24118843972E+01  0.52960247202E+01  0.00000000000E+00 0. -1.
</event>
<event>
 7    1  0.3986981E-008  0.4614232E+02  0.7816164E-02  0.1320468E+00
        -11   -1    0    0    0    0  0.00000000000E+00  0.00000000000E+00  0.45593999997E+02  0.45594000000E+02  0.51100000000E-03 0.  1.
         11   -1    0    0    0    0 -0.00000000000E+00 -0.00000000000E+00 -0.45593999997E+02  0.45594000000E+02  0.51100000000E-03 0. -1.
    9900012    2    1    2    0    0  0.54766934654E+01 -0.10813946823E+01 -0.44698433417E+02  0.46142317236E+02  0.99999952121E+01 0.  0.
        -12    1    1    2    0    0 -0.54766934654E+01  0.10813946823E+01  0.44698433417E+02  0.45045682764E+02  0.00000000000E+00 0.  1.
         11    1    3    3    0    0  0.22933861811E+01 -0.47338857458E+00 -0.22117114524E+02  0.22240739017E+02  0.51100000000E-03 0. -1.
        -11    1    3    3    0    0  0.16067207996E+00  0.23101202970E+01 -0.15466249564E+02  0.15638649147E+02  0.51100000000E-03 0.  1.
        -12    1    3    3    0    0  0.30226352043E+01 -0.29181264047E+01 -0.71150693291E+01  0.82629290721E+01  0.00000000000E+00 0.  1.
</event>
<event>
 7    1  0.3986981E-008  0.4614232E+02  0.7816164E-02  0.1320468E+00
        -11   -1    0    0    0    0  0.00000000000E+00  0.00000000000E+00  0.45593999997E+02  0.45594000000E+02  0.51100000000E-03 0. -1.
         11   -1    0    0    0    0 -0.00000000000E+00 -0.00000000000E+00 -0.45593999997E+02  0.45594000000E+02  0.51100000000E-03 0.  1.
    9900012    2    1    2    0    0 -0.37954946834E+02 -0.23770929890E+02  0.48454495288E+01  0.46142317875E+02  0.10000001036E+02 0.  0.
        -12    1    1    2    0    0  0.37954946834E+02  0.23770929890E+02 -0.48454495288E+01  0.45045682125E+02  0.00000000000E+00 0.  1.
         11    1    3    3    0    0 -0.10277177822E+01 -0.57178058835E+00  0.80672789040E+00  0.14261651487E+01  0.51100000000E-03 0. -1.
        -11    1    3    3    0    0 -0.20634116557E+02 -0.78315014989E+01  0.32210357912E+01  0.22304130865E+02  0.51100000000E-03 0.  1.
         12    1    3    3    0    0 -0.16293112495E+02 -0.15367647803E+02  0.81768584725E+00  0.22412021861E+02  0.00000000000E+00 0. -1.
</event>
<event>
 7    1  0.3986981E-008  0.4614232E+02  0.7816164E-02  0.1320468E+00
        -11   -1    0    0    0    0  0.00000000000E+00  0.00000000000E+00  0.45593999997E+02  0.45594000000E+02  0.51100000000E-03 0.  1.
         11   -1    0    0    0    0 -0.00000000000E+00 -0.00000000000E+00 -0.45593999997E+02  0.45594000000E+02  0.51100000000E-03 0. -1.
    9900012    2    1    2    0    0  0.10478042575E+02 -0.24263997877E+02 -0.36477151491E+02  0.46142317076E+02  0.99999937565E+01 0.  0.
        -12    1    1    2    0    0 -0.10478042575E+02  0.24263997877E+02  0.36477151491E+02  0.45045682924E+02  0.00000000000E+00 0.  1.
         11    1    3    3    0    0  0.66954301114E+01 -0.92407143095E+01 -0.20741009834E+02  0.23672960831E+02  0.51100000000E-03 0. -1.
        -11    1    3    3    0    0  0.24731504571E+01 -0.45541269961E+01 -0.32272401850E+01  0.61050491687E+01  0.51100000000E-03 0.  1.
         12    1    3    3    0    0  0.13094620063E+01 -0.10469156571E+02 -0.12508901472E+02  0.16364307077E+02  0.00000000000E+00 0. -1.
</event>
<event>
 7    1  0.3986981E-008  0.4614232E+02  0.7816164E-02  0.1320468E+00
        -11   -1    0    0    0    0  0.00000000000E+00  0.00000000000E+00  0.45593999997E+02  0.45594000000E+02  0.51100000000E-03 0. -1.
         11   -1    0    0    0    0 -0.00000000000E+00 -0.00000000000E+00 -0.45593999997E+02  0.45594000000E+02  0.51100000000E-03 0.  1.
    9900012    2    1    2    0    0  0.11128550028E+02 -0.42492912401E+02  0.99810565096E+01  0.46142315200E+02  0.99999766484E+01 0.  0.
        -12    1    1    2    0    0 -0.11128550028E+02  0.42492912401E+02 -0.99810565096E+01  0.45045684800E+02  0.00000000000E+00 0.  1.
         11    1    3    3    0    0  0.29833731673E+01 -0.12274595735E+02  0.27820093437E+01  0.12934674026E+02  0.51100000000E-03 0.  1.
        -11    1    3    3    0    0  0.52504896941E+01 -0.28632492390E+02  0.66790252438E+01  0.29866312811E+02  0.51100000000E-03 0. -1.
        -12    1    3    3    0    0  0.28946871670E+01 -0.15858242760E+01  0.52002192203E+00  0.33413283629E+01  0.00000000000E+00 0.  1.
</event>
<event>
 7    1  0.3986981E-008  0.4614232E+02  0.7816164E-02  0.1320468E+00
        -11   -1    0    0    0    0  0.00000000000E+00  0.00000000000E+00  0.45593999997E+02  0.45594000000E+02  0.51100000000E-03 0. -1.
         11   -1    0    0    0    0 -0.00000000000E+00 -0.00000000000E+00 -0.45593999997E+02  0.45594000000E+02  0.51100000000E-03 0.  1.
    9900012    2    1    2    0    0 -0.34403284105E+02 -0.28285548103E+02  0.67420571474E+01  0.46142317374E+02  0.99999964679E+01 0.  0.
        -12    1    1    2    0    0  0.34403284105E+02  0.28285548103E+02 -0.67420571474E+01  0.45045682626E+02  0.00000000000E+00 0.  1.
         11    1    3    3    0    0 -0.14517488960E+02 -0.14177085053E+02  0.40142908171E+01  0.20684819490E+02  0.51100000000E-03 0. -1.
        -11    1    3    3    0    0 -0.14296083204E+02 -0.13486392130E+02  0.15764154345E+01  0.19716639002E+02  0.51100000000E-03 0.  1.
         12    1    3    3    0    0 -0.55897119413E+01 -0.62207091970E+00  0.11513508958E+01  0.57408588819E+01  0.00000000000E+00 0. -1.
</event>
<event>
 7    1  0.3986981E-008  0.4614232E+02  0.7816164E-02  0.1320468E+00
        -11   -1    0    0    0    0  0.00000000000E+00  0.00000000000E+00  0.45593999997E+02  0.45594000000E+02  0.51100000000E-03 0.  1.
         11   -1    0    0    0    0 -0.00000000000E+00 -0.00000000000E+00 -0.45593999997E+02  0.45594000000E+02  0.51100000000E-03 0. -1.
    9900012    2    1    2    0    0 -0.89409604265E+01 -0.79113936460E+01 -0.43434808662E+02  0.46142317341E+02  0.99999961672E+01 0.  0.
        -12    1    1    2    0    0  0.89409604265E+01  0.79113936460E+01  0.43434808662E+02  0.45045682659E+02  0.00000000000E+00 0.  1.
         11    1    3    3    0    0 -0.78441853053E+01 -0.72474206626E+01 -0.26046595460E+02  0.28151047665E+02  0.51100000000E-03 0. -1.
        -11    1    3    3    0    0 -0.27446859692E+01 -0.81836642005E+00 -0.91249809697E+01  0.95639062430E+01  0.51100000000E-03 0.  1.
        -12    1    3    3    0    0  0.16479108480E+01  0.15439343665E+00 -0.82632322322E+01  0.84273634323E+01  0.00000000000E+00 0.  1.
</event>
<event>
 7    1  0.3986981E-008  0.4614232E+02  0.7816164E-02  0.1320468E+00
        -11   -1    0    0    0    0  0.00000000000E+00  0.00000000000E+00  0.45593999997E+02  0.45594000000E+02  0.51100000000E-03 0.  1.
         11   -1    0    0    0    0 -0.00000000000E+00 -0.00000000000E+00 -0.45593999997E+02  0.45594000000E+02  0.51100000000E-03 0. -1.
    9900012    2    1    2    0    0 -0.26710516884E+01  0.13661271523E+01 -0.44945664528E+02  0.46142316740E+02  0.99999906879E+01 0.  0.
        -12    1    1    2    0    0  0.26710516884E+01 -0.13661271523E+01  0.44945664528E+02  0.45045683260E+02  0.00000000000E+00 0.  1.
         11    1    3    3    0    0  0.90790829396E-01 -0.16924084367E+01 -0.85159926617E+01  0.86830075760E+01  0.51100000000E-03 0. -1.
        -11    1    3    3    0    0 -0.53125036591E+00 -0.25831584191E+01 -0.99488629648E+01  0.10292463696E+02  0.51100000000E-03 0.  1.
        -12    1    3    3    0    0 -0.22305921519E+01  0.56416940082E+01 -0.26480808901E+02  0.27166845468E+02  0.00000000000E+00 0.  1.
</event>
<event>
 7    1  0.3986981E-008  0.4614232E+02  0.7816164E-02  0.1320468E+00
        -11   -1    0    0    0    0  0.00000000000E+00  0.00000000000E+00  0.45593999997E+02  0.45594000000E+02  0.51100000000E-03 0. -1.
         11   -1    0    0    0    0 -0.00000000000E+00 -0.00000000000E+00 -0.45593999997E+02  0.45594000000E+02  0.51100000000E-03 0.  1.
    9900012    2    1    2    0    0  0.16467657527E+02  0.31396808538E+02  0.27787950358E+02  0.46142317456E+02  0.99999972184E+01 0.  0.
        -12    1    1    2    0    0 -0.16467657527E+02 -0.31396808538E+02 -0.27787950358E+02  0.45045682544E+02  0.00000000000E+00 0.  1.
         11    1    3    3    0    0  0.30880336796E+01  0.14729649139E+01  0.44573368766E+01  0.56190239310E+01  0.51100000000E-03 0. -1.
        -11    1    3    3    0    0  0.14593600878E+01  0.46984803466E+01  0.56541424091E+01  0.74949833940E+01  0.51100000000E-03 0.  1.
        -12    1    3    3    0    0  0.11920263759E+02  0.25225363277E+02  0.17676471072E+02  0.33028310131E+02  0.00000000000E+00 0.  1.
</event>
<event>
 7    1  0.3986981E-008  0.4614232E+02  0.7816164E-02  0.1320468E+00
        -11   -1    0    0    0    0  0.00000000000E+00  0.00000000000E+00  0.45593999997E+02  0.45594000000E+02  0.51100000000E-03 0. -1.
         11   -1    0    0    0    0 -0.00000000000E+00 -0.00000000000E+00 -0.45593999997E+02  0.45594000000E+02  0.51100000000E-03 0.  1.
    9900012    2    1    2    0    0 -0.44651095413E+02 -0.41893599027E+01 -0.42240320499E+01  0.46142317579E+02  0.99999983431E+01 0.  0.
        -12    1    1    2    0    0  0.44651095413E+02  0.41893599027E+01  0.42240320499E+01  0.45045682421E+02  0.00000000000E+00 0.  1.
         11    1    3    3    0    0 -0.11910512267E+02  0.54056367570E+00  0.17029306491E+01  0.12043773686E+02  0.51100000000E-03 0. -1.
        -11    1    3    3    0    0 -0.29987198630E+01 -0.13913366187E+01 -0.21238106830E+01  0.39292124505E+01  0.51100000000E-03 0.  1.
         12    1    3    3    0    0 -0.29741863283E+02 -0.33385869597E+01 -0.38031520159E+01  0.30169331443E+02  0.00000000000E+00 0. -1.
</event>
<event>
 7    1  0.3986981E-008  0.4614232E+02  0.7816164E-02  0.1320468E+00
        -11   -1    0    0    0    0  0.00000000000E+00  0.00000000000E+00  0.45593999997E+02  0.45594000000E+02  0.51100000000E-03 0.  1.
         11   -1    0    0    0    0 -0.00000000000E+00 -0.00000000000E+00 -0.45593999997E+02  0.45594000000E+02  0.51100000000E-03 0. -1.
    9900012    2    1    2    0    0  0.32878109280E+02  0.11258750733E+02 -0.28659797271E+02  0.46142317437E+02  0.99999970471E+01 0.  0.
        -12    1    1    2    0    0 -0.32878109280E+02 -0.11258750733E+02  0.28659797271E+02  0.45045682563E+02  0.00000000000E+00 0.  1.
         11    1    3    3    0    0  0.19882706805E+01  0.16598982117E+01 -0.34855824408E+01  0.43425531182E+01  0.51100000000E-03 0. -1.
        -11    1    3    3    0    0  0.52267356247E+01  0.54622552229E+00 -0.81596766364E+01  0.97055371146E+01  0.51100000000E-03 0.  1.
         12    1    3    3    0    0  0.25663102975E+02  0.90526269994E+01 -0.17014538194E+02  0.32094227204E+02  0.00000000000E+00 0. -1.
</event>
<event>
 7    1  0.3986981E-008  0.4614232E+02  0.7816164E-02  0.1320468E+00
        -11   -1    0    0    0    0  0.00000000000E+00  0.00000000000E+00  0.45593999997E+02  0.45594000000E+02  0.51100000000E-03 0.  1.
         11   -1    0    0    0    0 -0.00000000000E+00 -0.00000000000E+00 -0.45593999997E+02  0.45594000000E+02  0.51100000000E-03 0. -1.
    9900012    2    1    2    0    0  0.32889995346E+02  0.29582482571E+02 -0.84993041474E+01  0.46142320519E+02  0.10000025147E+02 0.  0.
        -12    1    1    2    0    0 -0.32889995346E+02 -0.29582482571E+02  0.84993041474E+01  0.45045679481E+02  0.00000000000E+00 0.  1.
         11    1    3    3    0    0  0.12070798768E+01  0.47250729733E+01 -0.45820488965E+00  0.48982964808E+01  0.51100000000E-03 0.  1.
        -11    1    3    3    0    0  0.17879616472E+02  0.16412235191E+02 -0.49283049175E+01  0.24765507037E+02  0.51100000000E-03 0. -1.
        -12    1    3    3    0    0  0.13803298997E+02  0.84451744068E+01 -0.31127943402E+01  0.16478517001E+02  0.00000000000E+00 0.  1.
</event>
<event>
 7    1  0.3986981E-008  0.4614232E+02  0.7816164E-02  0.1320468E+00
        -11   -1    0    0    0    0  0.00000000000E+00  0.00000000000E+00  0.45593999997E+02  0.45594000000E+02  0.51100000000E-03 0.  1.
         11   -1    0    0    0    0 -0.00000000000E+00 -0.00000000000E+00 -0.45593999997E+02  0.45594000000E+02  0.51100000000E-03 0. -1.
    9900012    2    1    2    0    0  0.29129441254E+01  0.24900224337E+01 -0.44882381380E+02  0.46142316372E+02  0.99999873338E+01 0.  0.
        -12    1    1    2    0    0 -0.29129441254E+01 -0.24900224337E+01  0.44882381380E+02  0.45045683628E+02  0.00000000000E+00 0.  1.
         11    1    3    3    0    0  0.25894181411E+01  0.26030738116E+00 -0.47547871437E+01  0.54204102506E+01  0.51100000000E-03 0.  1.
        -11    1    3    3    0    0  0.87537617725E+00 -0.21975674919E+01 -0.17449882044E+02  0.17609485226E+02  0.51100000000E-03 0. -1.
        -12    1    3    3    0    0 -0.55185019290E+00  0.44272825444E+01 -0.22677712192E+02  0.23112420895E+02  0.00000000000E+00 0.  1.
</event>
<event>
 7    1  0.3986981E-008  0.4614232E+02  0.7816164E-02  0.1320468E+00
        -11   -1    0    0    0    0  0.00000000000E+00  0.00000000000E+00  0.45593999997E+02  0.45594000000E+02  0.51100000000E-03 0. -1.
         11   -1    0    0    0    0 -0.00000000000E+00 -0.00000000000E+00 -0.45593999997E+02  0.45594000000E+02  0.51100000000E-03 0.  1.
    9900012    2    1    2    0    0 -0.17034198756E+02  0.54905171142E+01  0.41337678099E+02  0.46142319452E+02  0.10000015418E+02 0.  0.
        -12    1    1    2    0    0  0.17034198756E+02 -0.54905171142E+01 -0.41337678099E+02  0.45045680548E+02  0.00000000000E+00 0.  1.
         11    1    3    3    0    0 -0.10819963206E+01 -0.25112936522E+00  0.63214572071E+01  0.64183022271E+01  0.51100000000E-03 0.  1.
        -11    1    3    3    0    0 -0.43981962915E+01  0.56823200218E+01  0.12583483406E+02  0.14490581297E+02  0.51100000000E-03 0. -1.
         12    1    3    3    0    0 -0.11554006144E+02  0.59326457692E-01  0.22432737486E+02  0.25233435927E+02  0.00000000000E+00 0. -1.
</event>
<event>
 7    1  0.3986981E-008  0.4614232E+02  0.7816164E-02  0.1320468E+00
        -11   -1    0    0    0    0  0.00000000000E+00  0.00000000000E+00  0.45593999997E+02  0.45594000000E+02  0.51100000000E-03 0.  1.
         11   -1    0    0    0    0 -0.00000000000E+00 -0.00000000000E+00 -0.45593999997E+02  0.45594000000E+02  0.51100000000E-03 0. -1.
    9900012    2    1    2    0    0  0.33888070651E+02  0.13943173851E+02 -0.26197328619E+02  0.46142318117E+02  0.10000003249E+02 0.  0.
        -12    1    1    2    0    0 -0.33888070651E+02 -0.13943173851E+02  0.26197328619E+02  0.45045681883E+02  0.00000000000E+00 0.  1.
         11    1    3    3    0    0  0.20942366154E+02  0.85267132490E+01 -0.16859463219E+02  0.28205124344E+02  0.51100000000E-03 0. -1.
        -11    1    3    3    0    0  0.12944736672E+02  0.35155672161E+01 -0.82219981874E+01  0.15732980481E+02  0.51100000000E-03 0.  1.
         12    1    3    3    0    0  0.96782478879E-03  0.19008933861E+01 -0.11158672121E+01  0.22042132921E+01  0.00000000000E+00 0. -1.
</event>
<event>
 7    1  0.3986981E-008  0.4614232E+02  0.7816164E-02  0.1320468E+00
        -11   -1    0    0    0    0  0.00000000000E+00  0.00000000000E+00  0.45593999997E+02  0.45594000000E+02  0.51100000000E-03 0.  1.
         11   -1    0    0    0    0 -0.00000000000E+00 -0.00000000000E+00 -0.45593999997E+02  0.45594000000E+02  0.51100000000E-03 0. -1.
    9900012    2    1    2    0    0  0.35157151682E+02 -0.73908629024E+01 -0.27174681576E+02  0.46142317770E+02  0.10000000077E+02 0.  0.
        -12    1    1    2    0    0 -0.35157151682E+02  0.73908629024E+01  0.27174681576E+02  0.45045682230E+02  0.00000000000E+00 0.  1.
         11    1    3    3    0    0  0.21904379429E+02 -0.45607027186E+01 -0.11012528190E+02  0.24937474308E+02  0.51100000000E-03 0. -1.
        -11    1    3    3    0    0  0.40644115010E+01 -0.89603547899E+00 -0.66043720021E+01  0.78064108419E+01  0.51100000000E-03 0.  1.
         12    1    3    3    0    0  0.91883607524E+01 -0.19341247048E+01 -0.95577813839E+01  0.13398432620E+02  0.00000000000E+00 0. -1.
</event>
<event>
 7    1  0.3986981E-008  0.4614232E+02  0.7816164E-02  0.1320468E+00
        -11   -1    0    0    0    0  0.00000000000E+00  0.00000000000E+00  0.45593999997E+02  0.45594000000E+02  0.51100000000E-03 0.  1.
         11   -1    0    0    0    0 -0.00000000000E+00 -0.00000000000E+00 -0.45593999997E+02  0.45594000000E+02  0.51100000000E-03 0. -1.
    9900012    2    1    2    0    0 -0.11867111365E+01  0.19920125652E+01 -0.44985962996E+02  0.46142320251E+02  0.10000022701E+02 0.  0.
        -12    1    1    2    0    0  0.11867111365E+01 -0.19920125652E+01  0.44985962996E+02  0.45045679749E+02  0.00000000000E+00 0.  1.
         11    1    3    3    0    0  0.12247296687E+01 -0.18159870977E+01 -0.26971672199E+01  0.34745479092E+01  0.51100000000E-03 0. -1.
        -11    1    3    3    0    0 -0.16485555983E+01  0.26006974562E+01 -0.13632972394E+02  0.13976383630E+02  0.51100000000E-03 0.  1.
         12    1    3    3    0    0 -0.76288520683E+00  0.12073022066E+01 -0.28655823382E+02  0.28691388711E+02  0.00000000000E+00 0. -1.
</event>
<event>
 7    1  0.3986981E-008  0.4614232E+02  0.7816164E-02  0.1320468E+00
        -11   -1    0    0    0    0  0.00000000000E+00  0.00000000000E+00  0.45593999997E+02  0.45594000000E+02  0.51100000000E-03 0.  1.
         11   -1    0    0    0    0 -0.00000000000E+00 -0.00000000000E+00 -0.45593999997E+02  0.45594000000E+02  0.51100000000E-03 0. -1.
    9900012    2    1    2    0    0  0.70572729798E+01  0.14904007717E+02 -0.41918718356E+02  0.46142317671E+02  0.99999991756E+01 0.  0.
        -12    1    1    2    0    0 -0.70572729798E+01 -0.14904007717E+02  0.41918718356E+02  0.45045682329E+02  0.00000000000E+00 0.  1.
         11    1    3    3    0    0  0.30028198873E+01  0.88685774694E+01 -0.32836477728E+02  0.34145319789E+02  0.51100000000E-03 0. -1.
        -11    1    3    3    0    0  0.52181259499E+00  0.35956302501E+00 -0.26319022182E+01  0.27071171937E+01  0.51100000000E-03 0.  1.
         12    1    3    3    0    0  0.35326404976E+01  0.56758672225E+01 -0.64503384092E+01  0.92898806885E+01  0.00000000000E+00 0. -1.
</event>
<event>
 7    1  0.3986981E-008  0.4614232E+02  0.7816164E-02  0.1320468E+00
        -11   -1    0    0    0    0  0.00000000000E+00  0.00000000000E+00  0.45593999997E+02  0.45594000000E+02  0.51100000000E-03 0.  1.
         11   -1    0    0    0    0 -0.00000000000E+00 -0.00000000000E+00 -0.45593999997E+02  0.45594000000E+02  0.51100000000E-03 0. -1.
    9900012    2    1    2    0    0 -0.20054871183E+02 -0.61944762686E+01  0.39856543928E+02  0.46142317762E+02  0.10000000007E+02 0.  0.
        -12    1    1    2    0    0  0.20054871183E+02  0.61944762686E+01 -0.39856543928E+02  0.45045682238E+02  0.00000000000E+00 0.  1.
         11    1    3    3    0    0 -0.70749001842E+01 -0.45173292313E+01  0.18379210865E+02  0.20205342567E+02  0.51100000000E-03 0. -1.
        -11    1    3    3    0    0  0.69659091028E-01  0.10785543350E+01  0.85769659259E+00  0.13797737310E+01  0.51100000000E-03 0.  1.
         12    1    3    3    0    0 -0.13049630090E+02 -0.27557013724E+01  0.20619636471E+02  0.24557201464E+02  0.00000000000E+00 0. -1.
</event>
<event>
 7    1  0.3986981E-008  0.4614232E+02  0.7816164E-02  0.1320468E+00
        -11   -1    0    0    0    0  0.00000000000E+00  0.00000000000E+00  0.45593999997E+02  0.45594000000E+02  0.51100000000E-03 0. -1.
         11   -1    0    0    0    0 -0.00000000000E+00 -0.00000000000E+00 -0.45593999997E+02  0.45594000000E+02  0.51100000000E-03 0.  1.
    9900012    2    1    2    0    0 -0.43369936698E+02 -0.10602333349E+02  0.59793484918E+01  0.46142317743E+02  0.99999998323E+01 0.  0.
        -12    1    1    2    0    0  0.43369936698E+02  0.10602333349E+02 -0.59793484918E+01  0.45045682257E+02  0.00000000000E+00 0.  1.
         11    1    3    3    0    0 -0.50515165396E+01 -0.32920302844E+00  0.29734759729E+01  0.58709244252E+01  0.51100000000E-03 0.  1.
        -11    1    3    3    0    0 -0.25250527320E+02 -0.78370131633E+01  0.47577265128E+01  0.26863429920E+02  0.51100000000E-03 0. -1.
         12    1    3    3    0    0 -0.13067892839E+02 -0.24361171576E+01 -0.17518539939E+01  0.13407963397E+02  0.00000000000E+00 0. -1.
</event>
<event>
 7    1  0.3986981E-008  0.4614232E+02  0.7816164E-02  0.1320468E+00
        -11   -1    0    0    0    0  0.00000000000E+00  0.00000000000E+00  0.45593999997E+02  0.45594000000E+02  0.51100000000E-03 0.  1.
         11   -1    0    0    0    0 -0.00000000000E+00 -0.00000000000E+00 -0.45593999997E+02  0.45594000000E+02  0.51100000000E-03 0. -1.
    9900012    2    1    2    0    0 -0.40649567506E+02 -0.11751567297E+02  0.15447555000E+02  0.46142316213E+02  0.99999858813E+01 0.  0.
        -12    1    1    2    0    0  0.40649567506E+02  0.11751567297E+02 -0.15447555000E+02  0.45045683787E+02  0.00000000000E+00 0.  1.
         11    1    3    3    0    0 -0.53868792386E+01 -0.27335222689E+01  0.30633718536E+01  0.67730982054E+01  0.51100000000E-03 0. -1.
        -11    1    3    3    0    0 -0.10612781939E+02 -0.67868619227E+01  0.35312929806E+01  0.13082915028E+02  0.51100000000E-03 0.  1.
        -12    1    3    3    0    0 -0.24649906329E+02 -0.22311831054E+01  0.88528901660E+01  0.26286302980E+02  0.00000000000E+00 0.  1.
</event>
<event>
 7    1  0.3986981E-008  0.4614231E+02  0.7816164E-02  0.1320468E+00
        -11   -1    0    0    0    0  0.00000000000E+00  0.00000000000E+00  0.45593999997E+02  0.45594000000E+02  0.51100000000E-03 0.  1.
         11   -1    0    0    0    0 -0.00000000000E+00 -0.00000000000E+00 -0.45593999997E+02  0.45594000000E+02  0.51100000000E-03 0. -1.
    9900012    2    1    2    0    0 -0.90637307792E+01  0.17723472313E+02 -0.40408431793E+02  0.46142311567E+02  0.99999435135E+01 0.  0.
        -12    1    1    2    0    0  0.90637307792E+01 -0.17723472313E+02  0.40408431793E+02  0.45045688433E+02  0.00000000000E+00 0.  1.
         11    1    3    3    0    0 -0.64688620756E+01  0.12452408044E+02 -0.27859544117E+02  0.31193955205E+02  0.51100000000E-03 0. -1.
        -11    1    3    3    0    0  0.85511978351E+00  0.44610809796E+01 -0.77459704750E+01  0.89795619165E+01  0.51100000000E-03 0.  1.
        -12    1    3    3    0    0 -0.34499884872E+01  0.80998328904E+00 -0.48029172008E+01  0.59687944451E+01  0.00000000000E+00 0.  1.
</event>
<event>
 7    1  0.3986981E-008  0.4614231E+02  0.7816164E-02  0.1320468E+00
        -11   -1    0    0    0    0  0.00000000000E+00  0.00000000000E+00  0.45593999997E+02  0.45594000000E+02  0.51100000000E-03 0.  1.
         11   -1    0    0    0    0 -0.00000000000E+00 -0.00000000000E+00 -0.45593999997E+02  0.45594000000E+02  0.51100000000E-03 0. -1.
    9900012    2    1    2    0    0 -0.19819281685E+02 -0.24736618057E+02 -0.32006399783E+02  0.46142314008E+02  0.99999657750E+01 0.  0.
        -12    1    1    2    0    0  0.19819281685E+02  0.24736618057E+02  0.32006399783E+02  0.45045685992E+02  0.00000000000E+00 0.  1.
         11    1    3    3    0    0 -0.10714314705E+01 -0.57948626999E+01 -0.72728931107E+01  0.93607357386E+01  0.51100000000E-03 0. -1.
        -11    1    3    3    0    0 -0.10209890787E+01  0.68942171380E-02 -0.13996518980E+00  0.10305613735E+01  0.51100000000E-03 0.  1.
         12    1    3    3    0    0 -0.17726861136E+02 -0.18948649574E+02 -0.24593541483E+02  0.35751016896E+02  0.00000000000E+00 0. -1.
</event>
<event>
 7    1  0.3986981E-008  0.4614232E+02  0.7816164E-02  0.1320468E+00
        -11   -1    0    0    0    0  0.00000000000E+00  0.00000000000E+00  0.45593999997E+02  0.45594000000E+02  0.51100000000E-03 0.  1.
         11   -1    0    0    0    0 -0.00000000000E+00 -0.00000000000E+00 -0.45593999997E+02  0.45594000000E+02  0.51100000000E-03 0. -1.
    9900012    2    1    2    0    0  0.13533461205E+02  0.21491789390E+02 -0.37202983146E+02  0.46142317206E+02  0.99999949390E+01 0.  0.
        -12    1    1    2    0    0 -0.13533461205E+02 -0.21491789390E+02  0.37202983146E+02  0.45045682794E+02  0.00000000000E+00 0.  1.
         11    1    3    3    0    0  0.33203705739E+01  0.15022846086E+01 -0.65021841253E+01  0.74538660072E+01  0.51100000000E-03 0. -1.
        -11    1    3    3    0    0  0.23834976949E+01  0.24577340566E+01 -0.94356814209E+01  0.10037609381E+02  0.51100000000E-03 0.  1.
         12    1    3    3    0    0  0.78295929363E+01  0.17531770725E+02 -0.21265117600E+02  0.28650841818E+02  0.00000000000E+00 0. -1.
</event>
<event>
 7    1  0.3986981E-008  0.4614232E+02  0.7816164E-02  0.1320468E+00
        -11   -1    0    0    0    0  0.00000000000E+00  0.00000000000E+00  0.45593999997E+02  0.45594000000E+02  0.51100000000E-03 0.  1.
         11   -1    0    0    0    0 -0.00000000000E+00 -0.00000000000E+00 -0.45593999997E+02  0.45594000000E+02  0.51100000000E-03 0. -1.
    9900012    2    1    2    0    0 -0.31056852773E+02 -0.10479590856E+02 -0.30899248621E+02  0.46142317699E+02  0.99999994324E+01 0.  0.
        -12    1    1    2    0    0  0.31056852773E+02  0.10479590856E+02  0.30899248621E+02  0.45045682301E+02  0.00000000000E+00 0.  1.
         11    1    3    3    0    0 -0.25225469318E+01 -0.23980630381E+01 -0.87039868168E+00  0.35876933375E+01  0.51100000000E-03 0. -1.
        -11    1    3    3    0    0 -0.14568309414E+02 -0.29531665899E+01 -0.11511370462E+02  0.18800757492E+02  0.51100000000E-03 0.  1.
         12    1    3    3    0    0 -0.13965996427E+02 -0.51283612277E+01 -0.18517479477E+02  0.23753866869E+02  0.00000000000E+00 0. -1.
</event>
<event>
 7    1  0.3986981E-008  0.4614232E+02  0.7816164E-02  0.1320468E+00
        -11   -1    0    0    0    0  0.00000000000E+00  0.00000000000E+00  0.45593999997E+02  0.45594000000E+02  0.51100000000E-03 0.  1.
         11   -1    0    0    0    0 -0.00000000000E+00 -0.00000000000E+00 -0.45593999997E+02  0.45594000000E+02  0.51100000000E-03 0. -1.
    9900012    2    1    2    0    0 -0.14689854374E+02  0.11246295685E+02 -0.41071188442E+02  0.46142317541E+02  0.99999979925E+01 0.  0.
        -12    1    1    2    0    0  0.14689854374E+02 -0.11246295685E+02  0.41071188442E+02  0.45045682459E+02  0.00000000000E+00 0.  1.
         11    1    3    3    0    0 -0.12847132586E+02  0.98403359711E+01 -0.25168457819E+02  0.29922103819E+02  0.51100000000E-03 0. -1.
        -11    1    3    3    0    0 -0.14279489830E+01 -0.23871114841E+00 -0.59232946249E+01  0.60976586314E+01  0.51100000000E-03 0.  1.
         12    1    3    3    0    0 -0.41477280540E+00  0.16446708622E+01 -0.99794359977E+01  0.10122555090E+02  0.00000000000E+00 0. -1.
</event>
<event>
 7    1  0.3986981E-008  0.4614232E+02  0.7816164E-02  0.1320468E+00
        -11   -1    0    0    0    0  0.00000000000E+00  0.00000000000E+00  0.45593999997E+02  0.45594000000E+02  0.51100000000E-03 0. -1.
         11   -1    0    0    0    0 -0.00000000000E+00 -0.00000000000E+00 -0.45593999997E+02  0.45594000000E+02  0.51100000000E-03 0.  1.
    9900012    2    1    2    0    0  0.19599802076E+02 -0.31899225964E+02  0.25047969076E+02  0.46142316374E+02  0.99999873547E+01 0.  0.
        -12    1    1    2    0    0 -0.19599802076E+02  0.31899225964E+02 -0.25047969076E+02  0.45045683626E+02  0.00000000000E+00 0.  1.
         11    1    3    3    0    0  0.10234536335E+02 -0.77994474119E+01  0.86695439054E+01  0.15515737356E+02  0.51100000000E-03 0. -1.
        -11    1    3    3    0    0  0.22924073507E+01 -0.63176754341E+01  0.37170720432E+01  0.76801548935E+01  0.51100000000E-03 0.  1.
         12    1    3    3    0    0  0.70728583897E+01 -0.17782103118E+02  0.12661353127E+02  0.22946424124E+02  0.00000000000E+00 0. -1.
</event>
<event>
 7    1  0.3986981E-008  0.4614232E+02  0.7816164E-02  0.1320468E+00
        -11   -1    0    0    0    0  0.00000000000E+00  0.00000000000E+00  0.45593999997E+02  0.45594000000E+02  0.51100000000E-03 0.  1.
         11   -1    0    0    0    0 -0.00000000000E+00 -0.00000000000E+00 -0.45593999997E+02  0.45594000000E+02  0.51100000000E-03 0. -1.
    9900012    2    1    2    0    0 -0.17783409835E+02  0.23005389441E+02 -0.34403718830E+02  0.46142317876E+02  0.10000001045E+02 0.  0.
        -12    1    1    2    0    0  0.17783409835E+02 -0.23005389441E+02  0.34403718830E+02  0.45045682124E+02  0.00000000000E+00 0.  1.
         11    1    3    3    0    0 -0.83579740316E+01  0.84724795230E+01 -0.13262460904E+02  0.17819413814E+02  0.51100000000E-03 0. -1.
        -11    1    3    3    0    0 -0.57160683511E+01  0.27297915451E+01 -0.55721378266E+01  0.84364636842E+01  0.51100000000E-03 0.  1.
         12    1    3    3    0    0 -0.37093674524E+01  0.11803118373E+02 -0.15569120099E+02  0.19886440377E+02  0.00000000000E+00 0. -1.
</event>
<event>
 7    1  0.3986981E-008  0.4614232E+02  0.7816164E-02  0.1320468E+00
        -11   -1    0    0    0    0  0.00000000000E+00  0.00000000000E+00  0.45593999997E+02  0.45594000000E+02  0.51100000000E-03 0.  1.
         11   -1    0    0    0    0 -0.00000000000E+00 -0.00000000000E+00 -0.45593999997E+02  0.45594000000E+02  0.51100000000E-03 0. -1.
    9900012    2    1    2    0    0 -0.38013069848E+02 -0.19386892781E+02 -0.14431504111E+02  0.46142318721E+02  0.10000008757E+02 0.  0.
        -12    1    1    2    0    0  0.38013069848E+02  0.19386892781E+02  0.14431504111E+02  0.45045681279E+02  0.00000000000E+00 0.  1.
         11    1    3    3    0    0 -0.93019047046E+01 -0.66287751530E+01 -0.68387799778E+01  0.13312963720E+02  0.51100000000E-03 0. -1.
        -11    1    3    3    0    0 -0.47885166672E+01 -0.45788805213E+01 -0.98849544595E+00  0.66987433305E+01  0.51100000000E-03 0.  1.
        -12    1    3    3    0    0 -0.23922648476E+02 -0.81792371064E+01 -0.66042286873E+01  0.26130611671E+02  0.00000000000E+00 0.  1.
</event>
<event>
 7    1  0.3986981E-008  0.4614232E+02  0.7816164E-02  0.1320468E+00
        -11   -1    0    0    0    0  0.00000000000E+00  0.00000000000E+00  0.45593999997E+02  0.45594000000E+02  0.51100000000E-03 0.  1.
         11   -1    0    0    0    0 -0.00000000000E+00 -0.00000000000E+00 -0.45593999997E+02  0.45594000000E+02  0.51100000000E-03 0. -1.
    9900012    2    1    2    0    0 -0.32719638096E+01  0.26357325205E+02 -0.36382678908E+02  0.46142315816E+02  0.99999822602E+01 0.  0.
        -12    1    1    2    0    0  0.32719638096E+01 -0.26357325205E+02  0.36382678908E+02  0.45045684184E+02  0.00000000000E+00 0.  1.
         11    1    3    3    0    0 -0.20903428217E+01  0.14904256644E+02 -0.25400847837E+02  0.29524726422E+02  0.51100000000E-03 0. -1.
        -11    1    3    3    0    0 -0.20242195873E+01  0.19577031255E+01 -0.35437624583E+01  0.45264024442E+01  0.51100000000E-03 0.  1.
        -12    1    3    3    0    0  0.84259859941E+00  0.94953654358E+01 -0.74380686128E+01  0.12091186950E+02  0.00000000000E+00 0.  1.
</event>
<event>
 7    1  0.3986981E-008  0.4614232E+02  0.7816164E-02  0.1320468E+00
        -11   -1    0    0    0    0  0.00000000000E+00  0.00000000000E+00  0.45593999997E+02  0.45594000000E+02  0.51100000000E-03 0.  1.
         11   -1    0    0    0    0 -0.00000000000E+00 -0.00000000000E+00 -0.45593999997E+02  0.45594000000E+02  0.51100000000E-03 0. -1.
    9900012    2    1    2    0    0 -0.32214235933E+02  0.24756069236E+02 -0.19454909217E+02  0.46142318150E+02  0.10000003543E+02 0.  0.
        -12    1    1    2    0    0  0.32214235933E+02 -0.24756069236E+02  0.19454909217E+02  0.45045681850E+02  0.00000000000E+00 0.  1.
         11    1    3    3    0    0 -0.11990331627E+02  0.11590082886E+02 -0.41019163957E+01  0.17173345399E+02  0.51100000000E-03 0. -1.
        -11    1    3    3    0    0 -0.84369640470E+01  0.54039143306E+01 -0.37483301490E+01  0.10697412378E+02  0.51100000000E-03 0.  1.
        -12    1    3    3    0    0 -0.11786940259E+02  0.77620720188E+01 -0.11604662672E+02  0.18271560372E+02  0.00000000000E+00 0.  1.
</event>
<event>
 7    1  0.3986981E-008  0.4614232E+02  0.7816164E-02  0.1320468E+00
        -11   -1    0    0    0    0  0.00000000000E+00  0.00000000000E+00  0.45593999997E+02  0.45594000000E+02  0.51100000000E-03 0.  1.
         11   -1    0    0    0    0 -0.00000000000E+00 -0.00000000000E+00 -0.45593999997E+02  0.45594000000E+02  0.51100000000E-03 0. -1.
    9900012    2    1    2    0    0  0.32108033160E+02  0.72919181819E+01 -0.30741105737E+02  0.46142318230E+02  0.10000004274E+02 0.  0.
        -12    1    1    2    0    0 -0.32108033160E+02 -0.72919181819E+01  0.30741105737E+02  0.45045681770E+02  0.00000000000E+00 0.  1.
         11    1    3    3    0    0  0.22334314361E+01  0.60546939585E+00 -0.14933222768E+01  0.27540553467E+01  0.51100000000E-03 0. -1.
        -11    1    3    3    0    0  0.66211917641E+01  0.19554908544E+01 -0.12710552190E+02  0.14464517347E+02  0.51100000000E-03 0.  1.
        -12    1    3    3    0    0  0.23253409960E+02  0.47309579316E+01 -0.16537231270E+02  0.28923745536E+02  0.00000000000E+00 0.  1.
</event>
<event>
 7    1  0.3986981E-008  0.4614232E+02  0.7816164E-02  0.1320468E+00
        -11   -1    0    0    0    0  0.00000000000E+00  0.00000000000E+00  0.45593999997E+02  0.45594000000E+02  0.51100000000E-03 0.  1.
         11   -1    0    0    0    0 -0.00000000000E+00 -0.00000000000E+00 -0.45593999997E+02  0.45594000000E+02  0.51100000000E-03 0. -1.
    9900012    2    1    2    0    0  0.42880841580E+02  0.46236342729E+01 -0.12998807015E+02  0.46142317051E+02  0.99999935268E+01 0.  0.
        -12    1    1    2    0    0 -0.42880841580E+02 -0.46236342729E+01  0.12998807015E+02  0.45045682949E+02  0.00000000000E+00 0.  1.
         11    1    3    3    0    0  0.24796100904E+02  0.48418704256E+01 -0.10406006088E+02  0.27323530010E+02  0.51100000000E-03 0. -1.
        -11    1    3    3    0    0  0.13714004518E+02  0.17446398279E+01 -0.23372319085E+01  0.14020711155E+02  0.51100000000E-03 0.  1.
        -12    1    3    3    0    0  0.43707361584E+01 -0.19628759806E+01 -0.25556901822E+00  0.47980758857E+01  0.00000000000E+00 0.  1.
</event>
<event>
 7    1  0.3986981E-008  0.4614232E+02  0.7816164E-02  0.1320468E+00
        -11   -1    0    0    0    0  0.00000000000E+00  0.00000000000E+00  0.45593999997E+02  0.45594000000E+02  0.51100000000E-03 0.  1.
         11   -1    0    0    0    0 -0.00000000000E+00 -0.00000000000E+00 -0.45593999997E+02  0.45594000000E+02  0.51100000000E-03 0. -1.
    9900012    2    1    2    0    0  0.59808466485E+01 -0.10200482371E+02 -0.43465999325E+02  0.46142318025E+02  0.10000002410E+02 0.  0.
        -12    1    1    2    0    0 -0.59808466485E+01  0.10200482371E+02  0.43465999325E+02  0.45045681975E+02  0.00000000000E+00 0.  1.
         11    1    3    3    0    0  0.50470859598E+00 -0.11543667074E+01 -0.49475658466E+01  0.51054579941E+01  0.51100000000E-03 0. -1.
        -11    1    3    3    0    0 -0.19270246853E+01 -0.19049804575E+01 -0.16663089303E+02  0.16881970266E+02  0.51100000000E-03 0.  1.
        -12    1    3    3    0    0  0.74031627378E+01 -0.71411352058E+01 -0.21855344176E+02  0.24154889766E+02  0.00000000000E+00 0.  1.
</event>
<event>
 7    1  0.3986981E-008  0.4614232E+02  0.7816164E-02  0.1320468E+00
        -11   -1    0    0    0    0  0.00000000000E+00  0.00000000000E+00  0.45593999997E+02  0.45594000000E+02  0.51100000000E-03 0.  1.
         11   -1    0    0    0    0 -0.00000000000E+00 -0.00000000000E+00 -0.45593999997E+02  0.45594000000E+02  0.51100000000E-03 0. -1.
    9900012    2    1    2    0    0  0.42837309213E+02  0.11422935845E+02 -0.79746441325E+01  0.46142317932E+02  0.10000001556E+02 0.  0.
        -12    1    1    2    0    0 -0.42837309213E+02 -0.11422935845E+02  0.79746441325E+01  0.45045682068E+02  0.00000000000E+00 0.  1.
         11    1    3    3    0    0  0.29436504490E+02  0.10033506367E+02 -0.65768279673E+01  0.31787320004E+02  0.51100000000E-03 0. -1.
        -11    1    3    3    0    0  0.11870248448E+02 -0.40738334231E+00 -0.16068308114E+01  0.11985435533E+02  0.51100000000E-03 0.  1.
         12    1    3    3    0    0  0.15305562746E+01  0.17968128201E+01  0.20901464619E+00  0.23695623947E+01  0.00000000000E+00 0. -1.
</event>
<event>
 7    1  0.3986981E-008  0.4614232E+02  0.7816164E-02  0.1320468E+00
        -11   -1    0    0    0    0  0.00000000000E+00  0.00000000000E+00  0.45593999997E+02  0.45594000000E+02  0.51100000000E-03 0.  1.
         11   -1    0    0    0    0 -0.00000000000E+00 -0.00000000000E+00 -0.45593999997E+02  0.45594000000E+02  0.51100000000E-03 0. -1.
    9900012    2    1    2    0    0  0.23488821537E+02 -0.29552910563E+02 -0.24576701089E+02  0.46142317672E+02  0.99999991867E+01 0.  0.
        -12    1    1    2    0    0 -0.23488821537E+02  0.29552910563E+02  0.24576701089E+02  0.45045682328E+02  0.00000000000E+00 0.  1.
         11    1    3    3    0    0  0.14781778578E+02 -0.17667658841E+02 -0.16421267779E+02  0.28289665650E+02  0.51100000000E-03 0. -1.
        -11    1    3    3    0    0  0.94994728217E+01 -0.10332176765E+02 -0.65740655684E+01  0.15498780563E+02  0.51100000000E-03 0.  1.
         12    1    3    3    0    0 -0.79242986223E+00 -0.15530749569E+01 -0.15813677418E+01  0.23538714585E+01  0.00000000000E+00 0. -1.
</event>
<event>
 7    1  0.3986981E-008  0.4614232E+02  0.7816164E-02  0.1320468E+00
        -11   -1    0    0    0    0  0.00000000000E+00  0.00000000000E+00  0.45593999997E+02  0.45594000000E+02  0.51100000000E-03 0.  1.
         11   -1    0    0    0    0 -0.00000000000E+00 -0.00000000000E+00 -0.45593999997E+02  0.45594000000E+02  0.51100000000E-03 0. -1.
    9900012    2    1    2    0    0 -0.28295929200E+02  0.35010316209E+02 -0.16527207784E+01  0.46142319449E+02  0.10000015393E+02 0.  0.
        -12    1    1    2    0    0  0.28295929200E+02 -0.35010316209E+02  0.16527207784E+01  0.45045680551E+02  0.00000000000E+00 0.  1.
         11    1    3    3    0    0 -0.11953297682E+02  0.14955538241E+02  0.13667401237E+01  0.19194202989E+02  0.51100000000E-03 0. -1.
        -11    1    3    3    0    0 -0.12765620303E+02  0.10650674991E+02 -0.79790396416E+00  0.16644356115E+02  0.51100000000E-03 0.  1.
         12    1    3    3    0    0 -0.35770112151E+01  0.94041029763E+01 -0.22215569379E+01  0.10303760345E+02  0.00000000000E+00 0. -1.
</event>
<event>
 7    1  0.3986981E-008  0.4614232E+02  0.7816164E-02  0.1320468E+00
        -11   -1    0    0    0    0  0.00000000000E+00  0.00000000000E+00  0.45593999997E+02  0.45594000000E+02  0.51100000000E-03 0. -1.
         11   -1    0    0    0    0 -0.00000000000E+00 -0.00000000000E+00 -0.45593999997E+02  0.45594000000E+02  0.51100000000E-03 0.  1.
    9900012    2    1    2    0    0  0.60742252706E+01 -0.43781600417E+02 -0.86826601505E+01  0.46142319463E+02  0.10000015524E+02 0.  0.
        -12    1    1    2    0    0 -0.60742252706E+01  0.43781600417E+02  0.86826601505E+01  0.45045680537E+02  0.00000000000E+00 0.  1.
         11    1    3    3    0    0  0.53952685609E+01 -0.26237982484E+02 -0.87683065760E+01  0.28185525508E+02  0.51100000000E-03 0. -1.
        -11    1    3    3    0    0 -0.49842324115E+00 -0.42324150379E+00 -0.43965261210E+00  0.78794275065E+00  0.51100000000E-03 0.  1.
         12    1    3    3    0    0  0.11773799509E+01 -0.17120376429E+02  0.52529903763E+00  0.17168851205E+02  0.00000000000E+00 0. -1.
</event>
<event>
 7    1  0.3986981E-008  0.4614232E+02  0.7816164E-02  0.1320468E+00
        -11   -1    0    0    0    0  0.00000000000E+00  0.00000000000E+00  0.45593999997E+02  0.45594000000E+02  0.51100000000E-03 0. -1.
         11   -1    0    0    0    0 -0.00000000000E+00 -0.00000000000E+00 -0.45593999997E+02  0.45594000000E+02  0.51100000000E-03 0.  1.
    9900012    2    1    2    0    0 -0.20516158123E+02 -0.32499109617E+02  0.23494863748E+02  0.46142317715E+02  0.99999995777E+01 0.  0.
        -12    1    1    2    0    0  0.20516158123E+02  0.32499109617E+02 -0.23494863748E+02  0.45045682285E+02  0.00000000000E+00 0.  1.
         11    1    3    3    0    0 -0.42168960347E+01 -0.40140335704E+01  0.31447509823E+01  0.66169582644E+01  0.51100000000E-03 0. -1.
        -11    1    3    3    0    0 -0.51717553438E+01 -0.13450759556E+02  0.13067534205E+02  0.19453288576E+02  0.51100000000E-03 0.  1.
        -12    1    3    3    0    0 -0.11127506744E+02 -0.15034316491E+02  0.72825785601E+01  0.20072070874E+02  0.00000000000E+00 0.  1.
</event>
<event>
 7    1  0.3986981E-008  0.4614232E+02  0.7816164E-02  0.1320468E+00
        -11   -1    0    0    0    0  0.00000000000E+00  0.00000000000E+00  0.45593999997E+02  0.45594000000E+02  0.51100000000E-03 0. -1.
         11   -1    0    0    0    0 -0.00000000000E+00 -0.00000000000E+00 -0.45593999997E+02  0.45594000000E+02  0.51100000000E-03 0.  1.
    9900012    2    1    2    0    0 -0.22614577184E+02 -0.20635561336E+02  0.33043425724E+02  0.46142317893E+02  0.10000001205E+02 0.  0.
        -12    1    1    2    0    0  0.22614577184E+02  0.20635561336E+02 -0.33043425724E+02  0.45045682107E+02  0.00000000000E+00 0.  1.
         11    1    3    3    0    0 -0.20410549805E+02 -0.18836394945E+02  0.26842329642E+02  0.38625263478E+02  0.51100000000E-03 0. -1.
        -11    1    3    3    0    0 -0.11142748811E+01 -0.77792800713E+00  0.58188486905E+01  0.59754314354E+01  0.51100000000E-03 0.  1.
         12    1    3    3    0    0 -0.10897524972E+01 -0.10212383845E+01  0.38224739166E+00  0.15416229797E+01  0.00000000000E+00 0. -1.
</event>
<event>
 7    1  0.3986981E-008  0.4614232E+02  0.7816164E-02  0.1320468E+00
        -11   -1    0    0    0    0  0.00000000000E+00  0.00000000000E+00  0.45593999997E+02  0.45594000000E+02  0.51100000000E-03 0.  1.
         11   -1    0    0    0    0 -0.00000000000E+00 -0.00000000000E+00 -0.45593999997E+02  0.45594000000E+02  0.51100000000E-03 0. -1.
    9900012    2    1    2    0    0  0.89222186551E+01  0.30388733898E+02 -0.32031740021E+02  0.46142317605E+02  0.99999985760E+01 0.  0.
        -12    1    1    2    0    0 -0.89222186551E+01 -0.30388733898E+02  0.32031740021E+02  0.45045682395E+02  0.00000000000E+00 0.  1.
         11    1    3    3    0    0  0.41431302496E+01  0.19902552359E+02 -0.17999178848E+02  0.27152302998E+02  0.51100000000E-03 0. -1.
        -11    1    3    3    0    0 -0.10712571393E+01  0.49374859894E+00 -0.91394551425E+00  0.14922051473E+01  0.51100000000E-03 0.  1.
         12    1    3    3    0    0  0.58503455448E+01  0.99924329400E+01 -0.13118615659E+02  0.17497809459E+02  0.00000000000E+00 0. -1.
</event>
<event>
 7    1  0.3986981E-008  0.4614232E+02  0.7816164E-02  0.1320468E+00
        -11   -1    0    0    0    0  0.00000000000E+00  0.00000000000E+00  0.45593999997E+02  0.45594000000E+02  0.51100000000E-03 0.  1.
         11   -1    0    0    0    0 -0.00000000000E+00 -0.00000000000E+00 -0.45593999997E+02  0.45594000000E+02  0.51100000000E-03 0. -1.
    9900012    2    1    2    0    0  0.21632718642E+02 -0.18719720151E+02 -0.34795273923E+02  0.46142317346E+02  0.99999962185E+01 0.  0.
        -12    1    1    2    0    0 -0.21632718642E+02  0.18719720151E+02  0.34795273923E+02  0.45045682654E+02  0.00000000000E+00 0.  1.
         11    1    3    3    0    0  0.19256609329E+01 -0.36682763290E+01 -0.40588196334E+01  0.57998653718E+01  0.51100000000E-03 0. -1.
        -11    1    3    3    0    0  0.79361701821E+01 -0.10966723555E+02 -0.18034133119E+02  0.22549540579E+02  0.51100000000E-03 0.  1.
        -12    1    3    3    0    0  0.11770887527E+02 -0.40847202668E+01 -0.12702321171E+02  0.17792911396E+02  0.00000000000E+00 0.  1.
</event>
<event>
 7    1  0.3986981E-008  0.4614232E+02  0.7816164E-02  0.1320468E+00
        -11   -1    0    0    0    0  0.00000000000E+00  0.00000000000E+00  0.45593999997E+02  0.45594000000E+02  0.51100000000E-03 0.  1.
         11   -1    0    0    0    0 -0.00000000000E+00 -0.00000000000E+00 -0.45593999997E+02  0.45594000000E+02  0.51100000000E-03 0. -1.
    9900012    2    1    2    0    0 -0.16814384533E+01  0.58751481715E+01 -0.44629237248E+02  0.46142318535E+02  0.10000007055E+02 0.  0.
        -12    1    1    2    0    0  0.16814384533E+01 -0.58751481715E+01  0.44629237248E+02  0.45045681465E+02  0.00000000000E+00 0.  1.
         11    1    3    3    0    0 -0.41550182517E+01 -0.31796299043E+00 -0.23047030568E+02  0.23420736440E+02  0.51100000000E-03 0. -1.
        -11    1    3    3    0    0  0.22469040465E+01  0.24586764551E+01 -0.90816430602E+01  0.96731540171E+01  0.51100000000E-03 0.  1.
         12    1    3    3    0    0  0.22667575197E+00  0.37344347068E+01 -0.12500563620E+02  0.13048428078E+02  0.00000000000E+00 0. -1.
</event>
<event>
 7    1  0.3986981E-008  0.4614232E+02  0.7816164E-02  0.1320468E+00
        -11   -1    0    0    0    0  0.00000000000E+00  0.00000000000E+00  0.45593999997E+02  0.45594000000E+02  0.51100000000E-03 0.  1.
         11   -1    0    0    0    0 -0.00000000000E+00 -0.00000000000E+00 -0.45593999997E+02  0.45594000000E+02  0.51100000000E-03 0. -1.
    9900012    2    1    2    0    0 -0.29308161605E+01  0.31449973018E+02 -0.32115773744E+02  0.46142318638E+02  0.10000007996E+02 0.  0.
        -12    1    1    2    0    0  0.29308161605E+01 -0.31449973018E+02  0.32115773744E+02  0.45045681362E+02  0.00000000000E+00 0.  1.
         11    1    3    3    0    0  0.21588344158E+01  0.41793544990E+01 -0.37766468327E+01  0.60324648050E+01  0.51100000000E-03 0.  1.
        -11    1    3    3    0    0 -0.41725057170E+01  0.26116119402E+02 -0.28147340947E+02  0.38622976313E+02  0.51100000000E-03 0. -1.
         12    1    3    3    0    0 -0.91714485940E+00  0.11544991169E+01 -0.19178596366E+00  0.14868775201E+01  0.00000000000E+00 0. -1.
</event>
<event>
 7    1  0.3986981E-008  0.4614232E+02  0.7816164E-02  0.1320468E+00
        -11   -1    0    0    0    0  0.00000000000E+00  0.00000000000E+00  0.45593999997E+02  0.45594000000E+02  0.51100000000E-03 0.  1.
         11   -1    0    0    0    0 -0.00000000000E+00 -0.00000000000E+00 -0.45593999997E+02  0.45594000000E+02  0.51100000000E-03 0. -1.
    9900012    2    1    2    0    0 -0.59039372679E+01 -0.14631683616E+02 -0.42192071856E+02  0.46142316874E+02  0.99999919147E+01 0.  0.
        -12    1    1    2    0    0  0.59039372679E+01  0.14631683616E+02  0.42192071856E+02  0.45045683126E+02  0.00000000000E+00 0.  1.
         11    1    3    3    0    0 -0.23808068216E+01 -0.41037975872E+01 -0.14010439039E+02  0.14791950449E+02  0.51100000000E-03 0. -1.
        -11    1    3    3    0    0  0.10992876579E+01 -0.65967036389E+01 -0.88751687550E+01  0.11112765315E+02  0.51100000000E-03 0.  1.
        -12    1    3    3    0    0 -0.46224181043E+01 -0.39311823903E+01 -0.19306464062E+02  0.20237601110E+02  0.00000000000E+00 0.  1.
</event>
<event>
 7    1  0.3986981E-008  0.4614232E+02  0.7816164E-02  0.1320468E+00
        -11   -1    0    0    0    0  0.00000000000E+00  0.00000000000E+00  0.45593999997E+02  0.45594000000E+02  0.51100000000E-03 0.  1.
         11   -1    0    0    0    0 -0.00000000000E+00 -0.00000000000E+00 -0.45593999997E+02  0.45594000000E+02  0.51100000000E-03 0. -1.
    9900012    2    1    2    0    0  0.16526760161E+02  0.81833151145E+01 -0.41097603683E+02  0.46142317896E+02  0.10000001233E+02 0.  0.
        -12    1    1    2    0    0 -0.16526760161E+02 -0.81833151145E+01  0.41097603683E+02  0.45045682104E+02  0.00000000000E+00 0.  1.
         11    1    3    3    0    0  0.39347775899E+00  0.57113974178E+00 -0.80315692157E+01  0.80614595254E+01  0.51100000000E-03 0. -1.
        -11    1    3    3    0    0  0.16211199082E+02  0.80801669838E+01 -0.30514460117E+02  0.35485551295E+02  0.51100000000E-03 0.  1.
        -12    1    3    3    0    0 -0.77916679944E-01 -0.46799161108E+00 -0.25515743499E+01  0.25953070763E+01  0.00000000000E+00 0.  1.
</event>
<event>
 7    1  0.3986981E-008  0.4614232E+02  0.7816164E-02  0.1320468E+00
        -11   -1    0    0    0    0  0.00000000000E+00  0.00000000000E+00  0.45593999997E+02  0.45594000000E+02  0.51100000000E-03 0.  1.
         11   -1    0    0    0    0 -0.00000000000E+00 -0.00000000000E+00 -0.45593999997E+02  0.45594000000E+02  0.51100000000E-03 0. -1.
    9900012    2    1    2    0    0  0.29460474639E+02 -0.12912900452E+02 -0.31534916681E+02  0.46142317254E+02  0.99999953716E+01 0.  0.
        -12    1    1    2    0    0 -0.29460474639E+02  0.12912900452E+02  0.31534916681E+02  0.45045682746E+02  0.00000000000E+00 0.  1.
         11    1    3    3    0    0  0.11249818757E+01 -0.44221372456E+00 -0.34492633892E+01  0.36549357570E+01  0.51100000000E-03 0. -1.
        -11    1    3    3    0    0  0.11328022551E+02 -0.91173741217E+01 -0.12461915179E+02  0.19150716331E+02  0.51100000000E-03 0.  1.
         12    1    3    3    0    0  0.17007470213E+02 -0.33533126061E+01 -0.15623738112E+02  0.23336665166E+02  0.00000000000E+00 0. -1.
</event>
