<event>
 8    1  0.5834107E-011  0.9118800E+02  0.7816164E-02  0.1184000E+00
        -11   -1    0    0    0    0  0.00000000000E+00  0.00000000000E+00  0.45593999997E+02  0.45594000000E+02  0.51100000000E-03 0. -1.
         11   -1    0    0    0    0 -0.00000000000E+00 -0.00000000000E+00 -0.45593999997E+02  0.45594000000E+02  0.51100000000E-03 0.  1.
         23    2    1    2    0    0 -0.44408920985E-15  0.00000000000E+00  0.00000000000E+00  0.91188000000E+02  0.91188000000E+02 0.  0.
    9900012    2    3    3    0    0  0.16168363858E+01 -0.83397087657E+01  0.42561233098E+02  0.47787268843E+02  0.19999989961E+02 0.  0.
        -12    1    3    3    0    0 -0.16168363858E+01  0.83397087657E+01 -0.42561233098E+02  0.43400731157E+02  0.00000000000E+00 0.  1.
         11    1    4    4    0    0  0.25445465934E+01 -0.56624342934E+01  0.11429897271E+02  0.13006937817E+02  0.51100000000E-03 0. -1.
        -11    1    4    4    0    0  0.11011571889E+01  0.61786307722E+01  0.10422695885E+02  0.12166372308E+02  0.51100000000E-03 0.  1.
        -12    1    4    4    0    0 -0.20288673965E+01 -0.88559052446E+01  0.20708639942E+02  0.22613958717E+02  0.00000000000E+00 0.  1.
</event>
<event>
 8    1  0.5834107E-011  0.9118800E+02  0.7816164E-02  0.1184000E+00
        -11   -1    0    0    0    0  0.00000000000E+00  0.00000000000E+00  0.45593999997E+02  0.45594000000E+02  0.51100000000E-03 0. -1.
         11   -1    0    0    0    0 -0.00000000000E+00 -0.00000000000E+00 -0.45593999997E+02  0.45594000000E+02  0.51100000000E-03 0.  1.
         23    2    1    2    0    0  0.22204460493E-15  0.00000000000E+00  0.00000000000E+00  0.91188000000E+02  0.91188000000E+02 0.  0.
    9900012    2    3    3    0    0 -0.12399498967E+01  0.10891570873E+02  0.41993565229E+02  0.47787270600E+02  0.19999997975E+02 0.  0.
        -12    1    3    3    0    0  0.12399498967E+01 -0.10891570873E+02 -0.41993565229E+02  0.43400729400E+02  0.00000000000E+00 0.  1.
         11    1    4    4    0    0  0.32512824160E+01  0.82563703115E+01  0.34437713540E+02  0.35562544934E+02  0.51100000000E-03 0. -1.
        -11    1    4    4    0    0 -0.87341978060E+00 -0.28507907823E+01  0.29913915933E+01  0.42235404726E+01  0.51100000000E-03 0.  1.
        -12    1    4    4    0    0 -0.36178125321E+01  0.54859913438E+01  0.45644600955E+01  0.80011851938E+01  0.00000000000E+00 0.  1.
</event>
<event>
 8    1  0.5834107E-011  0.9118800E+02  0.7816164E-02  0.1184000E+00
        -11   -1    0    0    0    0  0.00000000000E+00  0.00000000000E+00  0.45593999997E+02  0.45594000000E+02  0.51100000000E-03 0. -1.
         11   -1    0    0    0    0 -0.00000000000E+00 -0.00000000000E+00 -0.45593999997E+02  0.45594000000E+02  0.51100000000E-03 0.  1.
         23    2    1    2    0    0  0.17763568394E-14  0.00000000000E+00  0.71054273576E-14  0.91188000000E+02  0.91188000000E+02 0.  0.
    9900012    2    3    3    0    0 -0.15236639431E+02 -0.11474402916E+02  0.38984696441E+02  0.47787266596E+02  0.19999979716E+02 0.  0.
        -12    1    3    3    0    0  0.15236639431E+02  0.11474402916E+02 -0.38984696441E+02  0.43400733404E+02  0.00000000000E+00 0.  1.
         11    1    4    4    0    0 -0.64812766079E+01 -0.93814612140E+01  0.26518217596E+02  0.28865803743E+02  0.51100000000E-03 0. -1.
        -11    1    4    4    0    0 -0.65820096643E+01 -0.56515200222E+01  0.41472266673E+01  0.96157172938E+01  0.51100000000E-03 0.  1.
        -12    1    4    4    0    0 -0.21733531585E+01  0.35585783200E+01  0.83192521779E+01  0.93057455591E+01  0.00000000000E+00 0.  1.
</event>
<event>
 8    1  0.5834107E-011  0.9118800E+02  0.7816164E-02  0.1184000E+00
        -11   -1    0    0    0    0  0.00000000000E+00  0.00000000000E+00  0.45593999997E+02  0.45594000000E+02  0.51100000000E-03 0. -1.
         11   -1    0    0    0    0 -0.00000000000E+00 -0.00000000000E+00 -0.45593999997E+02  0.45594000000E+02  0.51100000000E-03 0.  1.
         23    2    1    2    0    0  0.44408920985E-15  0.00000000000E+00  0.00000000000E+00  0.91188000000E+02  0.91188000000E+02 0.  0.
    9900012    2    3    3    0    0 -0.36001501339E+01  0.36817348016E+02 -0.22696816760E+02  0.47787266286E+02  0.19999978304E+02 0.  0.
         12    1    3    3    0    0  0.36001501339E+01 -0.36817348016E+02  0.22696816760E+02  0.43400733714E+02  0.00000000000E+00 0. -1.
         11    1    4    4    0    0 -0.34123148837E+01  0.24712587608E+02 -0.13199858773E+02  0.28223964127E+02  0.51100000000E-03 0. -1.
        -11    1    4    4    0    0 -0.36496140338E+01  0.38880495228E+01 -0.92101258984E+01  0.10642510560E+02  0.51100000000E-03 0.  1.
         12    1    4    4    0    0  0.34617787836E+01  0.82167108849E+01 -0.28683208816E+00  0.89207915993E+01  0.00000000000E+00 0. -1.
</event>
<event>
 8    1  0.5834107E-011  0.9118800E+02  0.7816164E-02  0.1184000E+00
        -11   -1    0    0    0    0  0.00000000000E+00  0.00000000000E+00  0.45593999997E+02  0.45594000000E+02  0.51100000000E-03 0. -1.
         11   -1    0    0    0    0 -0.00000000000E+00 -0.00000000000E+00 -0.45593999997E+02  0.45594000000E+02  0.51100000000E-03 0.  1.
         23    2    1    2    0    0  0.00000000000E+00  0.17763568394E-14  0.00000000000E+00  0.91188000000E+02  0.91188000000E+02 0.  0.
    9900012    2    3    3    0    0 -0.10914641036E+02  0.88366165201E+01  0.41065876096E+02  0.47787293093E+02  0.20000100528E+02 0.  0.
        -12    1    3    3    0    0  0.10914641036E+02 -0.88366165201E+01 -0.41065876096E+02  0.43400706907E+02  0.00000000000E+00 0.  1.
         11    1    4    4    0    0  0.18985979333E+00 -0.58138487133E+01  0.12396962397E+02  0.13693851195E+02  0.51100000000E-03 0.  1.
        -11    1    4    4    0    0 -0.22436075797E+01  0.40546826766E+01  0.75463551346E+01  0.88556028963E+01  0.51100000000E-03 0. -1.
        -12    1    4    4    0    0 -0.88608932498E+01  0.10595782557E+02  0.21122558564E+02  0.25237839002E+02  0.00000000000E+00 0.  1.
</event>
<event>
 8    1  0.5834107E-011  0.9118800E+02  0.7816164E-02  0.1184000E+00
        -11   -1    0    0    0    0  0.00000000000E+00  0.00000000000E+00  0.45593999997E+02  0.45594000000E+02  0.51100000000E-03 0. -1.
         11   -1    0    0    0    0 -0.00000000000E+00 -0.00000000000E+00 -0.45593999997E+02  0.45594000000E+02  0.51100000000E-03 0.  1.
         23    2    1    2    0    0  0.00000000000E+00 -0.44408920985E-15  0.00000000000E+00  0.91188000000E+02  0.91188000000E+02 0.  0.
    9900012    2    3    3    0    0  0.42343172592E+02  0.24790568497E+01  0.91941962880E+01  0.47787271511E+02  0.20000002128E+02 0.  0.
        -12    1    3    3    0    0 -0.42343172592E+02 -0.24790568497E+01 -0.91941962880E+01  0.43400728489E+02  0.00000000000E+00 0.  1.
         11    1    4    4    0    0  0.14384013083E+02  0.86186718364E+01  0.35981652118E+01  0.17150164132E+02  0.51100000000E-03 0. -1.
        -11    1    4    4    0    0  0.18231003781E+02 -0.12828862496E+01  0.72060716325E+01  0.19645426049E+02  0.51100000000E-03 0.  1.
         12    1    4    4    0    0  0.97281557272E+01 -0.48567287371E+01 -0.16100405562E+01  0.10991681331E+02  0.00000000000E+00 0. -1.
</event>
<event>
 8    1  0.5834107E-011  0.9118800E+02  0.7816164E-02  0.1184000E+00
        -11   -1    0    0    0    0  0.00000000000E+00  0.00000000000E+00  0.45593999997E+02  0.45594000000E+02  0.51100000000E-03 0. -1.
         11   -1    0    0    0    0 -0.00000000000E+00 -0.00000000000E+00 -0.45593999997E+02  0.45594000000E+02  0.51100000000E-03 0.  1.
         23    2    1    2    0    0 -0.88817841970E-15  0.00000000000E+00  0.00000000000E+00  0.91188000000E+02  0.91188000000E+02 0.  0.
    9900012    2    3    3    0    0 -0.58068386297E+01  0.38179909323E+02 -0.19803994620E+02  0.47787273581E+02  0.20000011567E+02 0.  0.
         12    1    3    3    0    0  0.58068386297E+01 -0.38179909323E+02  0.19803994620E+02  0.43400726419E+02  0.00000000000E+00 0. -1.
         11    1    4    4    0    0  0.34396782953E+01  0.10078792497E+01 -0.58095493433E+01  0.68262779896E+01  0.51100000000E-03 0. -1.
        -11    1    4    4    0    0 -0.22907039318E+01  0.17011540023E+02 -0.59320860097E+01  0.18161207646E+02  0.51100000000E-03 0.  1.
        -12    1    4    4    0    0 -0.69558129932E+01  0.20160490050E+02 -0.80623592667E+01  0.22799787946E+02  0.00000000000E+00 0.  1.
</event>
<event>
 8    1  0.5834107E-011  0.9118800E+02  0.7816164E-02  0.1184000E+00
        -11   -1    0    0    0    0  0.00000000000E+00  0.00000000000E+00  0.45593999997E+02  0.45594000000E+02  0.51100000000E-03 0.  1.
         11   -1    0    0    0    0 -0.00000000000E+00 -0.00000000000E+00 -0.45593999997E+02  0.45594000000E+02  0.51100000000E-03 0. -1.
         23    2    1    2    0    0  0.00000000000E+00  0.17763568394E-14  0.00000000000E+00  0.91188000000E+02  0.91188000000E+02 0.  0.
    9900012    2    3    3    0    0 -0.36451227254E+02 -0.86670585556E+01  0.21904646415E+02  0.47787269512E+02  0.19999993012E+02 0.  0.
        -12    1    3    3    0    0  0.36451227254E+02  0.86670585556E+01 -0.21904646415E+02  0.43400730488E+02  0.00000000000E+00 0.  1.
         11    1    4    4    0    0 -0.21865116963E+02 -0.11353867926E+02  0.57866910322E+01  0.25307695471E+02  0.51100000000E-03 0.  1.
        -11    1    4    4    0    0 -0.73033322558E+01 -0.17437500296E+00  0.48781842159E+01  0.87844038037E+01  0.51100000000E-03 0. -1.
        -12    1    4    4    0    0 -0.72827780353E+01  0.28611843737E+01  0.11239771167E+02  0.13695170237E+02  0.00000000000E+00 0.  1.
</event>
<event>
 8    1  0.5834107E-011  0.9118800E+02  0.7816164E-02  0.1184000E+00
        -11   -1    0    0    0    0  0.00000000000E+00  0.00000000000E+00  0.45593999997E+02  0.45594000000E+02  0.51100000000E-03 0. -1.
         11   -1    0    0    0    0 -0.00000000000E+00 -0.00000000000E+00 -0.45593999997E+02  0.45594000000E+02  0.51100000000E-03 0.  1.
         23    2    1    2    0    0  0.17763568394E-14  0.00000000000E+00  0.00000000000E+00  0.91188000000E+02  0.91188000000E+02 0.  0.
    9900012    2    3    3    0    0 -0.14771928664E+02  0.15168581251E+02 -0.37885718105E+02  0.47787269938E+02  0.19999994954E+02 0.  0.
         12    1    3    3    0    0  0.14771928664E+02 -0.15168581251E+02  0.37885718105E+02  0.43400730062E+02  0.00000000000E+00 0. -1.
         11    1    4    4    0    0 -0.75253293947E+01 -0.13881347548E+01 -0.22427313531E+02  0.23696875175E+02  0.51100000000E-03 0. -1.
        -11    1    4    4    0    0 -0.48788646732E+01  0.66422856977E+01 -0.61093124192E+01  0.10258994994E+02  0.51100000000E-03 0.  1.
         12    1    4    4    0    0 -0.23677345960E+01  0.99144303077E+01 -0.93490921551E+01  0.13831399769E+02  0.00000000000E+00 0. -1.
</event>
<event>
 8    1  0.5834107E-011  0.9118800E+02  0.7816164E-02  0.1184000E+00
        -11   -1    0    0    0    0  0.00000000000E+00  0.00000000000E+00  0.45593999997E+02  0.45594000000E+02  0.51100000000E-03 0. -1.
         11   -1    0    0    0    0 -0.00000000000E+00 -0.00000000000E+00 -0.45593999997E+02  0.45594000000E+02  0.51100000000E-03 0.  1.
         23    2    1    2    0    0  0.00000000000E+00 -0.22204460493E-15  0.00000000000E+00  0.91188000000E+02  0.91188000000E+02 0.  0.
    9900012    2    3    3    0    0  0.38616045122E+02  0.19732187600E+01  0.19711187820E+02  0.47787268918E+02  0.19999990306E+02 0.  0.
         12    1    3    3    0    0 -0.38616045122E+02 -0.19732187600E+01 -0.19711187820E+02  0.43400731082E+02  0.00000000000E+00 0. -1.
         11    1    4    4    0    0  0.70465169582E+01 -0.26280149562E+01  0.83034923974E+01  0.11203028613E+02  0.51100000000E-03 0.  1.
        -11    1    4    4    0    0  0.13897428599E+02 -0.10850866755E+01  0.11419203010E+02  0.18019826093E+02  0.51100000000E-03 0. -1.
         12    1    4    4    0    0  0.17672099565E+02  0.56863203916E+01 -0.11507587317E-01  0.18564414212E+02  0.00000000000E+00 0. -1.
</event>
<event>
 8    1  0.5834107E-011  0.9118800E+02  0.7816164E-02  0.1184000E+00
        -11   -1    0    0    0    0  0.00000000000E+00  0.00000000000E+00  0.45593999997E+02  0.45594000000E+02  0.51100000000E-03 0. -1.
         11   -1    0    0    0    0 -0.00000000000E+00 -0.00000000000E+00 -0.45593999997E+02  0.45594000000E+02  0.51100000000E-03 0.  1.
         23    2    1    2    0    0  0.35527136788E-14  0.00000000000E+00  0.35527136788E-14  0.91188000000E+02  0.91188000000E+02 0.  0.
    9900012    2    3    3    0    0  0.30887037731E+02 -0.14713731889E+02 -0.26704305903E+02  0.47787274664E+02  0.20000016504E+02 0.  0.
         12    1    3    3    0    0 -0.30887037731E+02  0.14713731889E+02  0.26704305903E+02  0.43400725336E+02  0.00000000000E+00 0. -1.
         11    1    4    4    0    0  0.62291740814E+01 -0.12795737610E+00 -0.58750490904E+01  0.85635964934E+01  0.51100000000E-03 0.  1.
        -11    1    4    4    0    0  0.18697788087E+02 -0.15213391536E+01 -0.13416748685E+02  0.23063627159E+02  0.51100000000E-03 0. -1.
         12    1    4    4    0    0  0.59600755627E+01 -0.13064435360E+02 -0.74125081272E+01  0.16160051012E+02  0.00000000000E+00 0. -1.
</event>
<event>
 8    1  0.5834107E-011  0.9118800E+02  0.7816164E-02  0.1184000E+00
        -11   -1    0    0    0    0  0.00000000000E+00  0.00000000000E+00  0.45593999997E+02  0.45594000000E+02  0.51100000000E-03 0.  1.
         11   -1    0    0    0    0 -0.00000000000E+00 -0.00000000000E+00 -0.45593999997E+02  0.45594000000E+02  0.51100000000E-03 0. -1.
         23    2    1    2    0    0  0.00000000000E+00  0.00000000000E+00  0.88817841970E-15  0.91188000000E+02  0.91188000000E+02 0.  0.
    9900012    2    3    3    0    0  0.13870340684E+02  0.40344751596E+02 -0.79711355905E+01  0.47787258824E+02  0.19999944280E+02 0.  0.
        -12    1    3    3    0    0 -0.13870340684E+02 -0.40344751596E+02  0.79711355905E+01  0.43400741176E+02  0.00000000000E+00 0.  1.
         11    1    4    4    0    0  0.69121552523E+01  0.37441625054E+01 -0.62935498831E+01  0.10070025496E+02  0.51100000000E-03 0. -1.
        -11    1    4    4    0    0  0.67227236812E+01  0.21767098693E+02  0.49680311174E-01  0.22781660773E+02  0.51100000000E-03 0.  1.
        -12    1    4    4    0    0  0.23546175056E+00  0.14833490398E+02 -0.17272660186E+01  0.14935572555E+02  0.00000000000E+00 0.  1.
</event>
<event>
 8    1  0.5834107E-011  0.9118800E+02  0.7816164E-02  0.1184000E+00
        -11   -1    0    0    0    0  0.00000000000E+00  0.00000000000E+00  0.45593999997E+02  0.45594000000E+02  0.51100000000E-03 0. -1.
         11   -1    0    0    0    0 -0.00000000000E+00 -0.00000000000E+00 -0.45593999997E+02  0.45594000000E+02  0.51100000000E-03 0.  1.
         23    2    1    2    0    0  0.00000000000E+00  0.00000000000E+00  0.00000000000E+00  0.91188000000E+02  0.91188000000E+02 0.  0.
    9900012    2    3    3    0    0 -0.11468362841E+02 -0.90069868493E+01 -0.40877548804E+02  0.47787272419E+02  0.20000006267E+02 0.  0.
         12    1    3    3    0    0  0.11468362841E+02  0.90069868493E+01  0.40877548804E+02  0.43400727581E+02  0.00000000000E+00 0. -1.
         11    1    4    4    0    0  0.41905459505E+00  0.24307870202E+01 -0.13909754333E+02  0.14126768851E+02  0.51100000000E-03 0. -1.
        -11    1    4    4    0    0 -0.38669997786E+01  0.16209696558E+01 -0.27950757905E+01  0.50392141102E+01  0.51100000000E-03 0.  1.
        -12    1    4    4    0    0 -0.80204176573E+01 -0.13058743525E+02 -0.24172718680E+02  0.28621289458E+02  0.00000000000E+00 0.  1.
</event>
<event>
 8    1  0.5834107E-011  0.9118800E+02  0.7816164E-02  0.1184000E+00
        -11   -1    0    0    0    0  0.00000000000E+00  0.00000000000E+00  0.45593999997E+02  0.45594000000E+02  0.51100000000E-03 0. -1.
         11   -1    0    0    0    0 -0.00000000000E+00 -0.00000000000E+00 -0.45593999997E+02  0.45594000000E+02  0.51100000000E-03 0.  1.
         23    2    1    2    0    0  0.00000000000E+00  0.00000000000E+00  0.00000000000E+00  0.91188000000E+02  0.91188000000E+02 0.  0.
    9900012    2    3    3    0    0 -0.17957660987E+02 -0.31197171273E+02 -0.24246279723E+02  0.47787272311E+02  0.20000005773E+02 0.  0.
         12    1    3    3    0    0  0.17957660987E+02  0.31197171273E+02  0.24246279723E+02  0.43400727689E+02  0.00000000000E+00 0. -1.
         11    1    4    4    0    0 -0.71805769221E+01 -0.18876424160E+01 -0.11461694906E+02  0.13656292660E+02  0.51100000000E-03 0. -1.
        -11    1    4    4    0    0 -0.23754948990E+01 -0.10220580637E+02 -0.65229337043E+01  0.12355238118E+02  0.51100000000E-03 0.  1.
         12    1    4    4    0    0 -0.84015891659E+01 -0.19088948220E+02 -0.62616511122E+01  0.21775741533E+02  0.00000000000E+00 0. -1.
</event>
<event>
 8    1  0.5834107E-011  0.9118800E+02  0.7816164E-02  0.1184000E+00
        -11   -1    0    0    0    0  0.00000000000E+00  0.00000000000E+00  0.45593999997E+02  0.45594000000E+02  0.51100000000E-03 0. -1.
         11   -1    0    0    0    0 -0.00000000000E+00 -0.00000000000E+00 -0.45593999997E+02  0.45594000000E+02  0.51100000000E-03 0.  1.
         23    2    1    2    0    0  0.35527136788E-14  0.71054273576E-14  0.00000000000E+00  0.91188000000E+02  0.91188000000E+02 0.  0.
    9900012    2    3    3    0    0 -0.17310971848E+02  0.33180547247E+02  0.21977368955E+02  0.47787271802E+02  0.20000003456E+02 0.  0.
        -12    1    3    3    0    0  0.17310971848E+02 -0.33180547247E+02 -0.21977368955E+02  0.43400728198E+02  0.00000000000E+00 0.  1.
         11    1    4    4    0    0 -0.12978529978E+02  0.18259657123E+02  0.16383346083E+02  0.27753762768E+02  0.51100000000E-03 0. -1.
        -11    1    4    4    0    0 -0.60988336869E+01  0.37847576996E+01 -0.53925820419E+00  0.71979832493E+01  0.51100000000E-03 0.  1.
        -12    1    4    4    0    0  0.17663918172E+01  0.11136132424E+02  0.61332810754E+01  0.12835525785E+02  0.00000000000E+00 0.  1.
</event>
<event>
 8    1  0.5834107E-011  0.9118800E+02  0.7816164E-02  0.1184000E+00
        -11   -1    0    0    0    0  0.00000000000E+00  0.00000000000E+00  0.45593999997E+02  0.45594000000E+02  0.51100000000E-03 0. -1.
         11   -1    0    0    0    0 -0.00000000000E+00 -0.00000000000E+00 -0.45593999997E+02  0.45594000000E+02  0.51100000000E-03 0.  1.
         23    2    1    2    0    0  0.00000000000E+00  0.35527136788E-14 -0.17763568394E-14  0.91188000000E+02  0.91188000000E+02 0.  0.
    9900012    2    3    3    0    0  0.32653525659E+02 -0.24789933895E+02 -0.14241829398E+02  0.47787271145E+02  0.20000000460E+02 0.  0.
         12    1    3    3    0    0 -0.32653525659E+02  0.24789933895E+02  0.14241829398E+02  0.43400728855E+02  0.00000000000E+00 0. -1.
         11    1    4    4    0    0  0.20810477479E+02 -0.16442408332E+02 -0.95242953338E+01  0.28180506854E+02  0.51100000000E-03 0. -1.
        -11    1    4    4    0    0  0.42562161413E+01  0.43718153305E+00 -0.65821748358E+01  0.78505750977E+01  0.51100000000E-03 0.  1.
         12    1    4    4    0    0  0.75868320390E+01 -0.87847070965E+01  0.18646407713E+01  0.11756189194E+02  0.00000000000E+00 0. -1.
</event>
<event>
 8    1  0.5834107E-011  0.9118800E+02  0.7816164E-02  0.1184000E+00
        -11   -1    0    0    0    0  0.00000000000E+00  0.00000000000E+00  0.45593999997E+02  0.45594000000E+02  0.51100000000E-03 0. -1.
         11   -1    0    0    0    0 -0.00000000000E+00 -0.00000000000E+00 -0.45593999997E+02  0.45594000000E+02  0.51100000000E-03 0.  1.
         23    2    1    2    0    0  0.22204460493E-15  0.35527136788E-14 -0.71054273576E-14  0.91188000000E+02  0.91188000000E+02 0.  0.
    9900012    2    3    3    0    0 -0.19264719054E+01 -0.21325530949E+02  0.37750940719E+02  0.47787273169E+02  0.20000009687E+02 0.  0.
        -12    1    3    3    0    0  0.19264719054E+01  0.21325530949E+02 -0.37750940719E+02  0.43400726831E+02  0.00000000000E+00 0.  1.
         11    1    4    4    0    0 -0.34392756772E+01 -0.11945125302E+02  0.15194649843E+02  0.19631403918E+02  0.51100000000E-03 0. -1.
        -11    1    4    4    0    0 -0.27826721018E+01 -0.20923807194E+00 -0.62437993443E+00  0.28595270869E+01  0.51100000000E-03 0.  1.
         12    1    4    4    0    0  0.42954758736E+01 -0.91711675751E+01  0.23180670811E+02  0.25296342165E+02  0.00000000000E+00 0. -1.
</event>
<event>
 8    1  0.5834107E-011  0.9118800E+02  0.7816164E-02  0.1184000E+00
        -11   -1    0    0    0    0  0.00000000000E+00  0.00000000000E+00  0.45593999997E+02  0.45594000000E+02  0.51100000000E-03 0. -1.
         11   -1    0    0    0    0 -0.00000000000E+00 -0.00000000000E+00 -0.45593999997E+02  0.45594000000E+02  0.51100000000E-03 0.  1.
         23    2    1    2    0    0  0.17763568394E-14  0.35527136788E-14  0.00000000000E+00  0.91188000000E+02  0.91188000000E+02 0.  0.
    9900012    2    3    3    0    0  0.81173849874E+01  0.28550050524E+02  0.31664264755E+02  0.47787274356E+02  0.20000015098E+02 0.  0.
        -12    1    3    3    0    0 -0.81173849874E+01 -0.28550050524E+02 -0.31664264755E+02  0.43400725644E+02  0.00000000000E+00 0.  1.
         11    1    4    4    0    0  0.27979539152E+01  0.78008732946E+01  0.15353613656E+02  0.17447510505E+02  0.51100000000E-03 0. -1.
        -11    1    4    4    0    0  0.73869170802E+01  0.20174285358E+02  0.17654855859E+02  0.27807593735E+02  0.51100000000E-03 0.  1.
        -12    1    4    4    0    0 -0.20674860080E+01  0.57489187145E+00 -0.13442047603E+01  0.25321701157E+01  0.00000000000E+00 0.  1.
</event>
<event>
 8    1  0.5834107E-011  0.9118800E+02  0.7816164E-02  0.1184000E+00
        -11   -1    0    0    0    0  0.00000000000E+00  0.00000000000E+00  0.45593999997E+02  0.45594000000E+02  0.51100000000E-03 0. -1.
         11   -1    0    0    0    0 -0.00000000000E+00 -0.00000000000E+00 -0.45593999997E+02  0.45594000000E+02  0.51100000000E-03 0.  1.
         23    2    1    2    0    0  0.35527136788E-14  0.22204460493E-15  0.35527136788E-14  0.91188000000E+02  0.91188000000E+02 0.  0.
    9900012    2    3    3    0    0 -0.31876031484E+02 -0.18788393214E+01 -0.29394078535E+02  0.47787271051E+02  0.20000000031E+02 0.  0.
         12    1    3    3    0    0  0.31876031484E+02  0.18788393214E+01  0.29394078535E+02  0.43400728949E+02  0.00000000000E+00 0. -1.
         11    1    4    4    0    0 -0.39109418649E+00  0.41414975188E+00  0.17199536972E+01  0.18118266090E+01  0.51100000000E-03 0. -1.
        -11    1    4    4    0    0 -0.27186521652E+01  0.12726819441E+00 -0.95840321050E+01  0.99629783920E+01  0.51100000000E-03 0.  1.
        -12    1    4    4    0    0 -0.28766285132E+02 -0.24202572677E+01 -0.21530000127E+02  0.36012466050E+02  0.00000000000E+00 0.  1.
</event>
<event>
 8    1  0.5834107E-011  0.9118800E+02  0.7816164E-02  0.1184000E+00
        -11   -1    0    0    0    0  0.00000000000E+00  0.00000000000E+00  0.45593999997E+02  0.45594000000E+02  0.51100000000E-03 0. -1.
         11   -1    0    0    0    0 -0.00000000000E+00 -0.00000000000E+00 -0.45593999997E+02  0.45594000000E+02  0.51100000000E-03 0.  1.
         23    2    1    2    0    0 -0.17763568394E-14  0.00000000000E+00  0.00000000000E+00  0.91188000000E+02  0.91188000000E+02 0.  0.
    9900012    2    3    3    0    0 -0.12873509461E+02  0.11642914821E+02 -0.39778618538E+02  0.47787271847E+02  0.20000003660E+02 0.  0.
         12    1    3    3    0    0  0.12873509461E+02 -0.11642914821E+02  0.39778618538E+02  0.43400728153E+02  0.00000000000E+00 0. -1.
         11    1    4    4    0    0 -0.25116783717E+01 -0.17279930604E+01 -0.98413534484E+01  0.10302753332E+02  0.51100000000E-03 0.  1.
        -11    1    4    4    0    0  0.85302309320E+00  0.50437867382E+01 -0.19190203307E+02  0.19860295473E+02  0.51100000000E-03 0. -1.
         12    1    4    4    0    0 -0.11214854183E+02  0.83271211437E+01 -0.10747061783E+02  0.17624223042E+02  0.00000000000E+00 0. -1.
</event>
<event>
 8    1  0.5834107E-011  0.9118800E+02  0.7816164E-02  0.1184000E+00
        -11   -1    0    0    0    0  0.00000000000E+00  0.00000000000E+00  0.45593999997E+02  0.45594000000E+02  0.51100000000E-03 0. -1.
         11   -1    0    0    0    0 -0.00000000000E+00 -0.00000000000E+00 -0.45593999997E+02  0.45594000000E+02  0.51100000000E-03 0.  1.
         23    2    1    2    0    0 -0.22204460493E-15  0.35527136788E-14  0.00000000000E+00  0.91188000000E+02  0.91188000000E+02 0.  0.
    9900012    2    3    3    0    0 -0.30532455667E+00  0.27786066868E+02  0.33338636076E+02  0.47787269701E+02  0.19999993876E+02 0.  0.
        -12    1    3    3    0    0  0.30532455667E+00 -0.27786066868E+02 -0.33338636076E+02  0.43400730299E+02  0.00000000000E+00 0.  1.
         11    1    4    4    0    0 -0.34492399380E+00  0.15518241253E+02  0.19180304247E+02  0.24674254911E+02  0.51100000000E-03 0. -1.
        -11    1    4    4    0    0  0.28407811431E+01 -0.34559552106E-01  0.90766072917E+01  0.95108376106E+01  0.51100000000E-03 0.  1.
        -12    1    4    4    0    0 -0.28011817060E+01  0.12302385168E+02  0.50817245369E+01  0.13602177180E+02  0.00000000000E+00 0.  1.
</event>
<event>
 8    1  0.5834107E-011  0.9118800E+02  0.7816164E-02  0.1184000E+00
        -11   -1    0    0    0    0  0.00000000000E+00  0.00000000000E+00  0.45593999997E+02  0.45594000000E+02  0.51100000000E-03 0.  1.
         11   -1    0    0    0    0 -0.00000000000E+00 -0.00000000000E+00 -0.45593999997E+02  0.45594000000E+02  0.51100000000E-03 0. -1.
         23    2    1    2    0    0  0.00000000000E+00  0.00000000000E+00 -0.17763568394E-14  0.91188000000E+02  0.91188000000E+02 0.  0.
    9900012    2    3    3    0    0  0.31303009329E+02  0.26741336974E+02 -0.13734836201E+02  0.47787271645E+02  0.20000002740E+02 0.  0.
         12    1    3    3    0    0 -0.31303009329E+02 -0.26741336974E+02  0.13734836201E+02  0.43400728355E+02  0.00000000000E+00 0. -1.
         11    1    4    4    0    0  0.68207113328E+01  0.11836717018E+02  0.13317987584E+01  0.13726021311E+02  0.51100000000E-03 0. -1.
        -11    1    4    4    0    0  0.17013667942E+02  0.15551842889E+02 -0.11273254258E+02  0.25659520181E+02  0.51100000000E-03 0.  1.
        -12    1    4    4    0    0  0.74686300542E+01 -0.64722293341E+00 -0.37933807021E+01  0.84017301529E+01  0.00000000000E+00 0.  1.
</event>
<event>
 8    1  0.5834107E-011  0.9118800E+02  0.7816164E-02  0.1184000E+00
        -11   -1    0    0    0    0  0.00000000000E+00  0.00000000000E+00  0.45593999997E+02  0.45594000000E+02  0.51100000000E-03 0. -1.
         11   -1    0    0    0    0 -0.00000000000E+00 -0.00000000000E+00 -0.45593999997E+02  0.45594000000E+02  0.51100000000E-03 0.  1.
         23    2    1    2    0    0  0.00000000000E+00  0.00000000000E+00  0.00000000000E+00  0.91188000000E+02  0.91188000000E+02 0.  0.
    9900012    2    3    3    0    0  0.21322440311E+02 -0.16272996477E+02  0.34119883132E+02  0.47787270743E+02  0.19999998624E+02 0.  0.
        -12    1    3    3    0    0 -0.21322440311E+02  0.16272996477E+02 -0.34119883132E+02  0.43400729257E+02  0.00000000000E+00 0.  1.
         11    1    4    4    0    0  0.85054013116E+00 -0.63084620125E+01  0.96369191747E+01  0.11549472842E+02  0.51100000000E-03 0. -1.
        -11    1    4    4    0    0  0.70469134004E+01  0.33543084166E+01  0.70150922466E+01  0.10493897890E+02  0.51100000000E-03 0.  1.
         12    1    4    4    0    0  0.13424986779E+02 -0.13318842881E+02  0.17467871711E+02  0.25743900012E+02  0.00000000000E+00 0. -1.
</event>
<event>
 8    1  0.1388223E-010  0.9118800E+02  0.7816164E-02  0.1184000E+00
        -11   -1    0    0    0    0  0.00000000000E+00  0.00000000000E+00  0.45593999997E+02  0.45594000000E+02  0.51100000000E-03 0. -1.
         11   -1    0    0    0    0 -0.00000000000E+00 -0.00000000000E+00 -0.45593999997E+02  0.45594000000E+02  0.51100000000E-03 0.  1.
         23    2    1    2    0    0  0.00000000000E+00  0.88817841970E-15  0.71054273576E-14  0.91188000000E+02  0.91188000000E+02 0.  0.
    9900012    2    3    3    0    0 -0.11573782052E+01 -0.39866845003E+01 -0.43201737456E+02  0.47787270780E+02  0.19999998792E+02 0.  0.
         12    1    3    3    0    0  0.11573782052E+01  0.39866845003E+01  0.43201737456E+02  0.43400729220E+02  0.00000000000E+00 0. -1.
         11    1    4    4    0    0 -0.32313018955E+01 -0.58783459151E+01 -0.24159943375E+02  0.25073873390E+02  0.51100000000E-03 0. -1.
        -11    1    4    4    0    0  0.37723661205E+01  0.29167946178E+01 -0.19964072872E+02  0.20525658160E+02  0.51100000000E-03 0.  1.
         12    1    4    4    0    0 -0.16984424302E+01 -0.10251332031E+01  0.92227879008E+00  0.21877392302E+01  0.00000000000E+00 0. -1.
</event>
<event>
 8    1  0.5834107E-011  0.9118800E+02  0.7816164E-02  0.1184000E+00
        -11   -1    0    0    0    0  0.00000000000E+00  0.00000000000E+00  0.45593999997E+02  0.45594000000E+02  0.51100000000E-03 0. -1.
         11   -1    0    0    0    0 -0.00000000000E+00 -0.00000000000E+00 -0.45593999997E+02  0.45594000000E+02  0.51100000000E-03 0.  1.
         23    2    1    2    0    0  0.00000000000E+00  0.00000000000E+00  0.00000000000E+00  0.91188000000E+02  0.91188000000E+02 0.  0.
    9900012    2    3    3    0    0 -0.19123114454E+02 -0.65222619613E+01 -0.38410803486E+02  0.47787271527E+02  0.20000002202E+02 0.  0.
         12    1    3    3    0    0  0.19123114454E+02  0.65222619613E+01  0.38410803486E+02  0.43400728473E+02  0.00000000000E+00 0. -1.
         11    1    4    4    0    0  0.15870767301E+01 -0.97383812600E+00 -0.11777437710E+01  0.22032371398E+01  0.51100000000E-03 0. -1.
        -11    1    4    4    0    0 -0.18310331885E+02 -0.10218348117E+02 -0.28292195262E+02  0.35215496659E+02  0.51100000000E-03 0.  1.
        -12    1    4    4    0    0 -0.23998592989E+01  0.46699242813E+01 -0.89408644535E+01  0.10368537728E+02  0.00000000000E+00 0.  1.
</event>
<event>
 8    1  0.5834107E-011  0.9118800E+02  0.7816164E-02  0.1184000E+00
        -11   -1    0    0    0    0  0.00000000000E+00  0.00000000000E+00  0.45593999997E+02  0.45594000000E+02  0.51100000000E-03 0.  1.
         11   -1    0    0    0    0 -0.00000000000E+00 -0.00000000000E+00 -0.45593999997E+02  0.45594000000E+02  0.51100000000E-03 0. -1.
         23    2    1    2    0    0 -0.17763568394E-14  0.00000000000E+00  0.00000000000E+00  0.91188000000E+02  0.91188000000E+02 0.  0.
    9900012    2    3    3    0    0  0.14590137266E+02  0.39455588385E+02 -0.10677446279E+02  0.47787269369E+02  0.19999992361E+02 0.  0.
        -12    1    3    3    0    0 -0.14590137266E+02 -0.39455588385E+02  0.10677446279E+02  0.43400730631E+02  0.00000000000E+00 0.  1.
         11    1    4    4    0    0  0.89106291634E+01  0.22554061481E+02 -0.35494619056E+01  0.24508849044E+02  0.51100000000E-03 0. -1.
        -11    1    4    4    0    0  0.98931961627E+01  0.10445541986E+02 -0.54769375473E+01  0.15394204197E+02  0.51100000000E-03 0.  1.
         12    1    4    4    0    0 -0.42136880601E+01  0.64559849187E+01 -0.16510468261E+01  0.78842161285E+01  0.00000000000E+00 0. -1.
</event>
<event>
 8    1  0.5834107E-011  0.9118800E+02  0.7816164E-02  0.1184000E+00
        -11   -1    0    0    0    0  0.00000000000E+00  0.00000000000E+00  0.45593999997E+02  0.45594000000E+02  0.51100000000E-03 0. -1.
         11   -1    0    0    0    0 -0.00000000000E+00 -0.00000000000E+00 -0.45593999997E+02  0.45594000000E+02  0.51100000000E-03 0.  1.
         23    2    1    2    0    0 -0.22204460493E-15  0.00000000000E+00  0.00000000000E+00  0.91188000000E+02  0.91188000000E+02 0.  0.
    9900012    2    3    3    0    0  0.18114944160E+01  0.85430053087E+01 -0.42513041248E+02  0.47787272726E+02  0.20000007669E+02 0.  0.
         12    1    3    3    0    0 -0.18114944160E+01 -0.85430053087E+01  0.42513041248E+02  0.43400727274E+02  0.00000000000E+00 0. -1.
         11    1    4    4    0    0  0.45853978763E+00  0.10289213899E+02 -0.28078292098E+02  0.29907669064E+02  0.51100000000E-03 0. -1.
        -11    1    4    4    0    0 -0.17748663005E+01 -0.22150372491E+01 -0.14440523878E+02  0.14716836295E+02  0.51100000000E-03 0.  1.
         12    1    4    4    0    0  0.31278209289E+01  0.46882865930E+00  0.57747288291E-02  0.31627673677E+01  0.00000000000E+00 0. -1.
</event>
<event>
 8    1  0.5834107E-011  0.9118800E+02  0.7816164E-02  0.1184000E+00
        -11   -1    0    0    0    0  0.00000000000E+00  0.00000000000E+00  0.45593999997E+02  0.45594000000E+02  0.51100000000E-03 0. -1.
         11   -1    0    0    0    0 -0.00000000000E+00 -0.00000000000E+00 -0.45593999997E+02  0.45594000000E+02  0.51100000000E-03 0.  1.
         23    2    1    2    0    0 -0.22204460493E-15  0.00000000000E+00  0.00000000000E+00  0.91188000000E+02  0.91188000000E+02 0.  0.
    9900012    2    3    3    0    0  0.63242831057E+00 -0.53228408799E+01  0.43068443400E+02  0.47787269390E+02  0.19999992456E+02 0.  0.
        -12    1    3    3    0    0 -0.63242831057E+00  0.53228408799E+01 -0.43068443400E+02  0.43400730610E+02  0.00000000000E+00 0.  1.
         11    1    4    4    0    0  0.11966349597E+01  0.33488131657E+01  0.10280805670E+02  0.10878485664E+02  0.51100000000E-03 0.  1.
        -11    1    4    4    0    0  0.26499081647E+01 -0.11460955612E+02  0.28660108711E+02  0.30980273537E+02  0.51100000000E-03 0. -1.
         12    1    4    4    0    0 -0.32141148139E+01  0.27893015664E+01  0.41275290186E+01  0.59285101893E+01  0.00000000000E+00 0. -1.
</event>
<event>
 8    1  0.5834107E-011  0.9118800E+02  0.7816164E-02  0.1184000E+00
        -11   -1    0    0    0    0  0.00000000000E+00  0.00000000000E+00  0.45593999997E+02  0.45594000000E+02  0.51100000000E-03 0. -1.
         11   -1    0    0    0    0 -0.00000000000E+00 -0.00000000000E+00 -0.45593999997E+02  0.45594000000E+02  0.51100000000E-03 0.  1.
         23    2    1    2    0    0  0.35527136788E-14  0.35527136788E-14  0.35527136788E-14  0.91188000000E+02  0.91188000000E+02 0.  0.
    9900012    2    3    3    0    0 -0.28517806480E+02 -0.19025875288E+02 -0.26615296616E+02  0.47787271540E+02  0.20000002260E+02 0.  0.
         12    1    3    3    0    0  0.28517806480E+02  0.19025875288E+02  0.26615296616E+02  0.43400728460E+02  0.00000000000E+00 0. -1.
         11    1    4    4    0    0 -0.16933469796E+01  0.10085258919E+00  0.10850452006E+01  0.20136828416E+01  0.51100000000E-03 0. -1.
        -11    1    4    4    0    0 -0.13617558339E+02 -0.13855114340E+02 -0.24375433956E+02  0.31169919302E+02  0.51100000000E-03 0.  1.
         12    1    4    4    0    0 -0.13206901161E+02 -0.52716135375E+01 -0.33249078605E+01  0.14603669397E+02  0.00000000000E+00 0. -1.
</event>
<event>
 8    1  0.5834107E-011  0.9118800E+02  0.7816164E-02  0.1184000E+00
        -11   -1    0    0    0    0  0.00000000000E+00  0.00000000000E+00  0.45593999997E+02  0.45594000000E+02  0.51100000000E-03 0. -1.
         11   -1    0    0    0    0 -0.00000000000E+00 -0.00000000000E+00 -0.45593999997E+02  0.45594000000E+02  0.51100000000E-03 0.  1.
         23    2    1    2    0    0  0.71054273576E-14  0.00000000000E+00  0.00000000000E+00  0.91188000000E+02  0.91188000000E+02 0.  0.
    9900012    2    3    3    0    0  0.36269644917E+02 -0.21809629786E+02 -0.96164592816E+01  0.47787269788E+02  0.19999994271E+02 0.  0.
         12    1    3    3    0    0 -0.36269644917E+02  0.21809629786E+02  0.96164592816E+01  0.43400730212E+02  0.00000000000E+00 0. -1.
         11    1    4    4    0    0  0.96271206909E+00 -0.55930900105E+01  0.89053722930E+00  0.57447826078E+01  0.51100000000E-03 0. -1.
        -11    1    4    4    0    0  0.29033521481E+02 -0.15988777382E+02 -0.46732428884E+01  0.33472758643E+02  0.51100000000E-03 0.  1.
         12    1    4    4    0    0  0.62734113664E+01 -0.22776239379E+00 -0.58337536225E+01  0.85697285376E+01  0.00000000000E+00 0. -1.
</event>
<event>
 8    1  0.5834107E-011  0.9118800E+02  0.7816164E-02  0.1184000E+00
        -11   -1    0    0    0    0  0.00000000000E+00  0.00000000000E+00  0.45593999997E+02  0.45594000000E+02  0.51100000000E-03 0. -1.
         11   -1    0    0    0    0 -0.00000000000E+00 -0.00000000000E+00 -0.45593999997E+02  0.45594000000E+02  0.51100000000E-03 0.  1.
         23    2    1    2    0    0  0.00000000000E+00 -0.17763568394E-14  0.00000000000E+00  0.91188000000E+02  0.91188000000E+02 0.  0.
    9900012    2    3    3    0    0 -0.21706096533E+02 -0.11155067867E+02  0.35889174480E+02  0.47787274076E+02  0.20000013824E+02 0.  0.
        -12    1    3    3    0    0  0.21706096533E+02  0.11155067867E+02 -0.35889174480E+02  0.43400725924E+02  0.00000000000E+00 0.  1.
         11    1    4    4    0    0 -0.61895770500E+01 -0.53125739160E+01  0.15964892571E+02  0.17927969788E+02  0.51100000000E-03 0. -1.
        -11    1    4    4    0    0 -0.97151859143E+01  0.42153179651E+01  0.86299764576E+01  0.13661267760E+02  0.51100000000E-03 0.  1.
         12    1    4    4    0    0 -0.58013335686E+01 -0.10057811916E+02  0.11294305452E+02  0.16198036528E+02  0.00000000000E+00 0. -1.
</event>
<event>
 8    1  0.5834107E-011  0.9118800E+02  0.7816164E-02  0.1184000E+00
        -11   -1    0    0    0    0  0.00000000000E+00  0.00000000000E+00  0.45593999997E+02  0.45594000000E+02  0.51100000000E-03 0. -1.
         11   -1    0    0    0    0 -0.00000000000E+00 -0.00000000000E+00 -0.45593999997E+02  0.45594000000E+02  0.51100000000E-03 0.  1.
         23    2    1    2    0    0  0.35527136788E-14  0.00000000000E+00  0.35527136788E-14  0.91188000000E+02  0.91188000000E+02 0.  0.
    9900012    2    3    3    0    0  0.27832965964E+02 -0.24968868386E+02  0.22034171958E+02  0.47787272856E+02  0.20000008257E+02 0.  0.
        -12    1    3    3    0    0 -0.27832965964E+02  0.24968868386E+02 -0.22034171958E+02  0.43400727144E+02  0.00000000000E+00 0.  1.
         11    1    4    4    0    0  0.10987829645E+02 -0.88942861173E+01  0.65988459427E+01  0.15600817090E+02  0.51100000000E-03 0. -1.
        -11    1    4    4    0    0  0.39915982205E+01  0.26496396827E+01  0.11792066315E+00  0.47924265613E+01  0.51100000000E-03 0.  1.
         12    1    4    4    0    0  0.12853538099E+02 -0.18724221951E+02  0.15317405352E+02  0.27394029204E+02  0.00000000000E+00 0. -1.
</event>
<event>
 8    1  0.5834107E-011  0.9118800E+02  0.7816164E-02  0.1184000E+00
        -11   -1    0    0    0    0  0.00000000000E+00  0.00000000000E+00  0.45593999997E+02  0.45594000000E+02  0.51100000000E-03 0. -1.
         11   -1    0    0    0    0 -0.00000000000E+00 -0.00000000000E+00 -0.45593999997E+02  0.45594000000E+02  0.51100000000E-03 0.  1.
         23    2    1    2    0    0  0.71054273576E-14  0.88817841970E-15 -0.35527136788E-14  0.91188000000E+02  0.91188000000E+02 0.  0.
    9900012    2    3    3    0    0  0.35346677718E+02  0.65839886462E+01 -0.24308158782E+02  0.47787272868E+02  0.20000008314E+02 0.  0.
         12    1    3    3    0    0 -0.35346677718E+02 -0.65839886462E+01  0.24308158782E+02  0.43400727132E+02  0.00000000000E+00 0. -1.
         11    1    4    4    0    0  0.22856005705E+01  0.34192314381E+01  0.67787803963E+00  0.41682889166E+01  0.51100000000E-03 0. -1.
        -11    1    4    4    0    0  0.32761727089E+02  0.30999538941E+01 -0.19761837139E+02  0.38385813569E+02  0.51100000000E-03 0.  1.
         12    1    4    4    0    0  0.29935005934E+00  0.64803314020E-01 -0.52241996825E+01  0.52331703823E+01  0.00000000000E+00 0. -1.
</event>
<event>
 8    1  0.5834107E-011  0.9118800E+02  0.7816164E-02  0.1184000E+00
        -11   -1    0    0    0    0  0.00000000000E+00  0.00000000000E+00  0.45593999997E+02  0.45594000000E+02  0.51100000000E-03 0. -1.
         11   -1    0    0    0    0 -0.00000000000E+00 -0.00000000000E+00 -0.45593999997E+02  0.45594000000E+02  0.51100000000E-03 0.  1.
         23    2    1    2    0    0  0.35527136788E-14  0.17763568394E-14  0.71054273576E-14  0.91188000000E+02  0.91188000000E+02 0.  0.
    9900012    2    3    3    0    0  0.29619647722E+02  0.81208215976E+01 -0.30665165562E+02  0.47787266670E+02  0.19999980054E+02 0.  0.
         12    1    3    3    0    0 -0.29619647722E+02 -0.81208215976E+01  0.30665165562E+02  0.43400733330E+02  0.00000000000E+00 0. -1.
         11    1    4    4    0    0  0.60897046186E+01  0.10201020201E+02 -0.67990680215E+01  0.13688412680E+02  0.51100000000E-03 0. -1.
        -11    1    4    4    0    0  0.12735982316E+02  0.17400944683E+01 -0.13710983276E+02  0.18794260745E+02  0.51100000000E-03 0.  1.
         12    1    4    4    0    0  0.10793960787E+02 -0.38202930714E+01 -0.10155114265E+02  0.15304593244E+02  0.00000000000E+00 0. -1.
</event>
<event>
 8    1  0.5834107E-011  0.9118800E+02  0.7816164E-02  0.1184000E+00
        -11   -1    0    0    0    0  0.00000000000E+00  0.00000000000E+00  0.45593999997E+02  0.45594000000E+02  0.51100000000E-03 0. -1.
         11   -1    0    0    0    0 -0.00000000000E+00 -0.00000000000E+00 -0.45593999997E+02  0.45594000000E+02  0.51100000000E-03 0.  1.
         23    2    1    2    0    0  0.00000000000E+00  0.00000000000E+00  0.00000000000E+00  0.91188000000E+02  0.91188000000E+02 0.  0.
    9900012    2    3    3    0    0  0.80586095913E+01 -0.11468894666E+02  0.41074892247E+02  0.47787268365E+02  0.19999987781E+02 0.  0.
        -12    1    3    3    0    0 -0.80586095913E+01  0.11468894666E+02 -0.41074892247E+02  0.43400731635E+02  0.00000000000E+00 0.  1.
         11    1    4    4    0    0 -0.29308314874E+01 -0.74848227333E+01  0.21987707387E+02  0.23410929519E+02  0.51100000000E-03 0. -1.
        -11    1    4    4    0    0  0.93099715764E+01 -0.59053207373E+01  0.18818788050E+02  0.21810437127E+02  0.51100000000E-03 0.  1.
        -12    1    4    4    0    0  0.16794695023E+01  0.19212488050E+01  0.26839681058E+00  0.25659017183E+01  0.00000000000E+00 0.  1.
</event>
<event>
 8    1  0.5834107E-011  0.9118800E+02  0.7816164E-02  0.1184000E+00
        -11   -1    0    0    0    0  0.00000000000E+00  0.00000000000E+00  0.45593999997E+02  0.45594000000E+02  0.51100000000E-03 0. -1.
         11   -1    0    0    0    0 -0.00000000000E+00 -0.00000000000E+00 -0.45593999997E+02  0.45594000000E+02  0.51100000000E-03 0.  1.
         23    2    1    2    0    0  0.00000000000E+00  0.00000000000E+00  0.00000000000E+00  0.91188000000E+02  0.91188000000E+02 0.  0.
    9900012    2    3    3    0    0  0.14909426319E+02  0.38174332816E+02 -0.14284695186E+02  0.47787271946E+02  0.20000004109E+02 0.  0.
         12    1    3    3    0    0 -0.14909426319E+02 -0.38174332816E+02  0.14284695186E+02  0.43400728054E+02  0.00000000000E+00 0. -1.
         11    1    4    4    0    0  0.38419844787E+01  0.95107385227E+01  0.16432231015E+01  0.10388222870E+02  0.51100000000E-03 0. -1.
        -11    1    4    4    0    0 -0.27310534790E+01  0.11436694755E+02 -0.59156385063E+01  0.13162500493E+02  0.51100000000E-03 0.  1.
        -12    1    4    4    0    0  0.13798495319E+02  0.17226899538E+02 -0.10012279782E+02  0.24236548582E+02  0.00000000000E+00 0.  1.
</event>
<event>
 8    1  0.5834107E-011  0.9118800E+02  0.7816164E-02  0.1184000E+00
        -11   -1    0    0    0    0  0.00000000000E+00  0.00000000000E+00  0.45593999997E+02  0.45594000000E+02  0.51100000000E-03 0.  1.
         11   -1    0    0    0    0 -0.00000000000E+00 -0.00000000000E+00 -0.45593999997E+02  0.45594000000E+02  0.51100000000E-03 0. -1.
         23    2    1    2    0    0  0.00000000000E+00  0.00000000000E+00  0.00000000000E+00  0.91188000000E+02  0.91188000000E+02 0.  0.
    9900012    2    3    3    0    0 -0.88101226377E+01  0.42059398047E+02  0.60837624154E+01  0.47787269706E+02  0.19999993896E+02 0.  0.
        -12    1    3    3    0    0  0.88101226377E+01 -0.42059398047E+02 -0.60837624154E+01  0.43400730294E+02  0.00000000000E+00 0.  1.
         11    1    4    4    0    0 -0.66650235639E+01  0.56796146190E+01  0.13412028475E+01  0.88588592193E+01  0.51100000000E-03 0. -1.
        -11    1    4    4    0    0  0.42642097889E+01  0.48381587159E+01  0.97534566538E+00  0.65224661220E+01  0.51100000000E-03 0.  1.
         12    1    4    4    0    0 -0.64093088627E+01  0.31541624712E+02  0.37672139025E+01  0.32405944364E+02  0.00000000000E+00 0. -1.
</event>
<event>
 8    1  0.5834107E-011  0.9118800E+02  0.7816164E-02  0.1184000E+00
        -11   -1    0    0    0    0  0.00000000000E+00  0.00000000000E+00  0.45593999997E+02  0.45594000000E+02  0.51100000000E-03 0. -1.
         11   -1    0    0    0    0 -0.00000000000E+00 -0.00000000000E+00 -0.45593999997E+02  0.45594000000E+02  0.51100000000E-03 0.  1.
         23    2    1    2    0    0  0.00000000000E+00  0.00000000000E+00  0.71054273576E-14  0.91188000000E+02  0.91188000000E+02 0.  0.
    9900012    2    3    3    0    0  0.13856727211E+02  0.22029495437E+02  0.34732055274E+02  0.47787271645E+02  0.20000002739E+02 0.  0.
        -12    1    3    3    0    0 -0.13856727211E+02 -0.22029495437E+02 -0.34732055274E+02  0.43400728355E+02  0.00000000000E+00 0.  1.
         11    1    4    4    0    0 -0.14475971633E+01 -0.45680963049E+00  0.12570281936E+02  0.12661603405E+02  0.51100000000E-03 0.  1.
        -11    1    4    4    0    0  0.49956305187E+01  0.83524822263E+01  0.86586615283E+01  0.13026615191E+02  0.51100000000E-03 0. -1.
        -12    1    4    4    0    0  0.10308693856E+02  0.14133822841E+02  0.13503111810E+02  0.22099053049E+02  0.00000000000E+00 0.  1.
</event>
<event>
 8    1  0.5834107E-011  0.9118800E+02  0.7816164E-02  0.1184000E+00
        -11   -1    0    0    0    0  0.00000000000E+00  0.00000000000E+00  0.45593999997E+02  0.45594000000E+02  0.51100000000E-03 0. -1.
         11   -1    0    0    0    0 -0.00000000000E+00 -0.00000000000E+00 -0.45593999997E+02  0.45594000000E+02  0.51100000000E-03 0.  1.
         23    2    1    2    0    0  0.00000000000E+00  0.00000000000E+00  0.00000000000E+00  0.91188000000E+02  0.91188000000E+02 0.  0.
    9900012    2    3    3    0    0 -0.38599406966E+02  0.19389385004E+02 -0.42143769717E+01  0.47787269105E+02  0.19999991159E+02 0.  0.
         12    1    3    3    0    0  0.38599406966E+02 -0.19389385004E+02  0.42143769717E+01  0.43400730895E+02  0.00000000000E+00 0. -1.
         11    1    4    4    0    0 -0.11575656958E+02  0.50385082398E-01  0.69632951017E+00  0.11596691240E+02  0.51100000000E-03 0. -1.
        -11    1    4    4    0    0 -0.42744558092E+01 -0.15895696162E+01 -0.24605454225E+01  0.51818903951E+01  0.51100000000E-03 0.  1.
        -12    1    4    4    0    0 -0.22749294199E+02  0.20928569538E+02 -0.24501610593E+01  0.31008687471E+02  0.00000000000E+00 0.  1.
</event>
<event>
 8    1  0.5834107E-011  0.9118800E+02  0.7816164E-02  0.1184000E+00
        -11   -1    0    0    0    0  0.00000000000E+00  0.00000000000E+00  0.45593999997E+02  0.45594000000E+02  0.51100000000E-03 0. -1.
         11   -1    0    0    0    0 -0.00000000000E+00 -0.00000000000E+00 -0.45593999997E+02  0.45594000000E+02  0.51100000000E-03 0.  1.
         23    2    1    2    0    0  0.00000000000E+00  0.00000000000E+00  0.17763568394E-14  0.91188000000E+02  0.91188000000E+02 0.  0.
    9900012    2    3    3    0    0  0.36244893167E+02  0.20457581479E+02 -0.12305222633E+02  0.47787269307E+02  0.19999992080E+02 0.  0.
         12    1    3    3    0    0 -0.36244893167E+02 -0.20457581479E+02  0.12305222633E+02  0.43400730693E+02  0.00000000000E+00 0. -1.
         11    1    4    4    0    0  0.78832357837E+01 -0.10656460592E+01 -0.59448282238E+00  0.79771184040E+01  0.51100000000E-03 0. -1.
        -11    1    4    4    0    0  0.16827950510E+02  0.44179619399E+01 -0.47146209607E+01  0.18025702680E+02  0.51100000000E-03 0.  1.
         12    1    4    4    0    0  0.11533706873E+02  0.17105265598E+02 -0.69961188498E+01  0.21784448223E+02  0.00000000000E+00 0. -1.
</event>
<event>
 8    1  0.5834107E-011  0.9118800E+02  0.7816164E-02  0.1184000E+00
        -11   -1    0    0    0    0  0.00000000000E+00  0.00000000000E+00  0.45593999997E+02  0.45594000000E+02  0.51100000000E-03 0. -1.
         11   -1    0    0    0    0 -0.00000000000E+00 -0.00000000000E+00 -0.45593999997E+02  0.45594000000E+02  0.51100000000E-03 0.  1.
         23    2    1    2    0    0  0.00000000000E+00  0.00000000000E+00  0.00000000000E+00  0.91188000000E+02  0.91188000000E+02 0.  0.
    9900012    2    3    3    0    0  0.15101881639E+02  0.11008124804E+02 -0.39171134562E+02  0.47787269320E+02  0.19999992136E+02 0.  0.
         12    1    3    3    0    0 -0.15101881639E+02 -0.11008124804E+02  0.39171134562E+02  0.43400730680E+02  0.00000000000E+00 0. -1.
         11    1    4    4    0    0  0.76390279865E+01  0.81599730867E+01 -0.14898438592E+02  0.18625342470E+02  0.51100000000E-03 0. -1.
        -11    1    4    4    0    0  0.78498521052E+01  0.76731921485E+01 -0.19420307126E+02  0.22307989263E+02  0.51100000000E-03 0.  1.
         12    1    4    4    0    0 -0.38699845247E+00 -0.48250404311E+01 -0.48523888436E+01  0.68539375875E+01  0.00000000000E+00 0. -1.
</event>
<event>
 8    1  0.5834107E-011  0.9118800E+02  0.7816164E-02  0.1184000E+00
        -11   -1    0    0    0    0  0.00000000000E+00  0.00000000000E+00  0.45593999997E+02  0.45594000000E+02  0.51100000000E-03 0. -1.
         11   -1    0    0    0    0 -0.00000000000E+00 -0.00000000000E+00 -0.45593999997E+02  0.45594000000E+02  0.51100000000E-03 0.  1.
         23    2    1    2    0    0  0.00000000000E+00  0.00000000000E+00  0.00000000000E+00  0.91188000000E+02  0.91188000000E+02 0.  0.
    9900012    2    3    3    0    0 -0.98111044236E+01  0.82327669124E+01  0.41467907188E+02  0.47787267891E+02  0.19999985623E+02 0.  0.
        -12    1    3    3    0    0  0.98111044236E+01 -0.82327669124E+01 -0.41467907188E+02  0.43400732109E+02  0.00000000000E+00 0.  1.
         11    1    4    4    0    0 -0.76915819766E+01 -0.50646249380E+00  0.88649788909E+01  0.11747543937E+02  0.51100000000E-03 0. -1.
        -11    1    4    4    0    0  0.14291358152E+01 -0.34419775680E+00  0.20240879220E+02  0.20294188654E+02  0.51100000000E-03 0.  1.
         12    1    4    4    0    0 -0.35486582622E+01  0.90834271630E+01  0.12362049077E+02  0.15745535300E+02  0.00000000000E+00 0. -1.
</event>
<event>
 8    1  0.5834107E-011  0.9118800E+02  0.7816164E-02  0.1184000E+00
        -11   -1    0    0    0    0  0.00000000000E+00  0.00000000000E+00  0.45593999997E+02  0.45594000000E+02  0.51100000000E-03 0. -1.
         11   -1    0    0    0    0 -0.00000000000E+00 -0.00000000000E+00 -0.45593999997E+02  0.45594000000E+02  0.51100000000E-03 0.  1.
         23    2    1    2    0    0  0.00000000000E+00  0.00000000000E+00  0.00000000000E+00  0.91188000000E+02  0.91188000000E+02 0.  0.
    9900012    2    3    3    0    0 -0.64784024082E+01  0.33994807578E+02  0.26191726244E+02  0.47787272314E+02  0.20000005788E+02 0.  0.
        -12    1    3    3    0    0  0.64784024082E+01 -0.33994807578E+02 -0.26191726244E+02  0.43400727686E+02  0.00000000000E+00 0.  1.
         11    1    4    4    0    0  0.34006223252E+01  0.18593836784E+02  0.12959340735E+02  0.22918104439E+02  0.51100000000E-03 0. -1.
        -11    1    4    4    0    0 -0.70355354083E+01  0.11176137596E+02  0.14508709211E+02  0.19619058420E+02  0.51100000000E-03 0.  1.
        -12    1    4    4    0    0 -0.28434893251E+01  0.42248331986E+01 -0.12763237018E+01  0.52501094550E+01  0.00000000000E+00 0.  1.
</event>
<event>
 8    1  0.5959771E-011  0.9118800E+02  0.7816164E-02  0.1184000E+00
        -11   -1    0    0    0    0  0.00000000000E+00  0.00000000000E+00  0.45593999997E+02  0.45594000000E+02  0.51100000000E-03 0. -1.
         11   -1    0    0    0    0 -0.00000000000E+00 -0.00000000000E+00 -0.45593999997E+02  0.45594000000E+02  0.51100000000E-03 0.  1.
         23    2    1    2    0    0 -0.17763568394E-14 -0.35527136788E-14 -0.71054273576E-14  0.91188000000E+02  0.91188000000E+02 0.  0.
    9900012    2    3    3    0    0 -0.13584345944E+02 -0.21969946822E+02 -0.34877079728E+02  0.47787266038E+02  0.19999977172E+02 0.  0.
         12    1    3    3    0    0  0.13584345944E+02  0.21969946822E+02  0.34877079728E+02  0.43400733962E+02  0.00000000000E+00 0. -1.
         11    1    4    4    0    0 -0.21776274374E+01 -0.13954194005E+01  0.15639939352E+01  0.30224714804E+01  0.51100000000E-03 0. -1.
        -11    1    4    4    0    0 -0.19221720448E+01 -0.29541559457E+01 -0.15114647246E+02  0.15520127073E+02  0.51100000000E-03 0.  1.
         12    1    4    4    0    0 -0.94845464620E+01 -0.17620371476E+02 -0.21326426417E+02  0.29244667484E+02  0.00000000000E+00 0. -1.
</event>
<event>
 8    1  0.5834107E-011  0.9118800E+02  0.7816164E-02  0.1184000E+00
        -11   -1    0    0    0    0  0.00000000000E+00  0.00000000000E+00  0.45593999997E+02  0.45594000000E+02  0.51100000000E-03 0. -1.
         11   -1    0    0    0    0 -0.00000000000E+00 -0.00000000000E+00 -0.45593999997E+02  0.45594000000E+02  0.51100000000E-03 0.  1.
         23    2    1    2    0    0  0.00000000000E+00  0.00000000000E+00  0.35527136788E-14  0.91188000000E+02  0.91188000000E+02 0.  0.
    9900012    2    3    3    0    0 -0.27070496257E+02  0.16945260762E+02  0.29388252490E+02  0.47787274035E+02  0.20000013634E+02 0.  0.
        -12    1    3    3    0    0  0.27070496257E+02 -0.16945260762E+02 -0.29388252490E+02  0.43400725965E+02  0.00000000000E+00 0.  1.
         11    1    4    4    0    0 -0.38213383606E+01  0.80588932160E+01  0.39253820948E+01  0.97445888361E+01  0.51100000000E-03 0.  1.
        -11    1    4    4    0    0 -0.12008224590E+02  0.74237177200E+01  0.22089771299E+02  0.26215778434E+02  0.51100000000E-03 0. -1.
         12    1    4    4    0    0 -0.11240933306E+02  0.14626498259E+01  0.33730990964E+01  0.11826906765E+02  0.00000000000E+00 0. -1.
</event>
<event>
 8    1  0.6706989E-011  0.9118800E+02  0.7816164E-02  0.1184000E+00
        -11   -1    0    0    0    0  0.00000000000E+00  0.00000000000E+00  0.45593999997E+02  0.45594000000E+02  0.51100000000E-03 0. -1.
         11   -1    0    0    0    0 -0.00000000000E+00 -0.00000000000E+00 -0.45593999997E+02  0.45594000000E+02  0.51100000000E-03 0.  1.
         23    2    1    2    0    0  0.88817841970E-15  0.00000000000E+00  0.00000000000E+00  0.91188000000E+02  0.91188000000E+02 0.  0.
    9900012    2    3    3    0    0  0.75661931400E+01 -0.25459064568E+02 -0.34325097968E+02  0.47787267312E+02  0.19999982984E+02 0.  0.
         12    1    3    3    0    0 -0.75661931400E+01  0.25459064568E+02  0.34325097968E+02  0.43400732688E+02  0.00000000000E+00 0. -1.
         11    1    4    4    0    0 -0.17179763457E+01 -0.15694895993E+01 -0.13142891760E+02  0.13347297270E+02  0.51100000000E-03 0. -1.
        -11    1    4    4    0    0  0.35409623634E+01 -0.14790264678E+02 -0.17217893995E+02  0.22972727691E+02  0.51100000000E-03 0.  1.
         12    1    4    4    0    0  0.57432071223E+01 -0.90993102910E+01 -0.39643122127E+01  0.11467242351E+02  0.00000000000E+00 0. -1.
</event>
<event>
 8    1  0.5834107E-011  0.9118800E+02  0.7816164E-02  0.1184000E+00
        -11   -1    0    0    0    0  0.00000000000E+00  0.00000000000E+00  0.45593999997E+02  0.45594000000E+02  0.51100000000E-03 0. -1.
         11   -1    0    0    0    0 -0.00000000000E+00 -0.00000000000E+00 -0.45593999997E+02  0.45594000000E+02  0.51100000000E-03 0.  1.
         23    2    1    2    0    0 -0.35527136788E-14 -0.17763568394E-14  0.00000000000E+00  0.91188000000E+02  0.91188000000E+02 0.  0.
    9900012    2    3    3    0    0  0.13708602155E+02  0.14228887117E+02 -0.38642412281E+02  0.47787273871E+02  0.20000012888E+02 0.  0.
         12    1    3    3    0    0 -0.13708602155E+02 -0.14228887117E+02  0.38642412281E+02  0.43400726129E+02  0.00000000000E+00 0. -1.
         11    1    4    4    0    0 -0.57155927046E+00  0.18107807690E+01 -0.15822573033E+02  0.15936104438E+02  0.51100000000E-03 0. -1.
        -11    1    4    4    0    0  0.47089895911E+01  0.18896232351E+01 -0.14514641713E+02  0.15375957962E+02  0.51100000000E-03 0.  1.
         12    1    4    4    0    0  0.95711718340E+01  0.10528483113E+02 -0.83051975347E+01  0.16475211472E+02  0.00000000000E+00 0. -1.
</event>
<event>
 8    1  0.5834107E-011  0.9118800E+02  0.7816164E-02  0.1184000E+00
        -11   -1    0    0    0    0  0.00000000000E+00  0.00000000000E+00  0.45593999997E+02  0.45594000000E+02  0.51100000000E-03 0. -1.
         11   -1    0    0    0    0 -0.00000000000E+00 -0.00000000000E+00 -0.45593999997E+02  0.45594000000E+02  0.51100000000E-03 0.  1.
         23    2    1    2    0    0  0.00000000000E+00  0.00000000000E+00 -0.35527136788E-14  0.91188000000E+02  0.91188000000E+02 0.  0.
    9900012    2    3    3    0    0 -0.14675073380E+01 -0.35572267373E+02 -0.24821029296E+02  0.47787270983E+02  0.19999999721E+02 0.  0.
         12    1    3    3    0    0  0.14675073380E+01  0.35572267373E+02  0.24821029296E+02  0.43400729017E+02  0.00000000000E+00 0. -1.
         11    1    4    4    0    0  0.27262710421E+01  0.18862412657E+00 -0.22836346448E+01  0.35613368710E+01  0.51100000000E-03 0. -1.
        -11    1    4    4    0    0 -0.31600367712E+01 -0.81692526063E+01 -0.11581348631E+02  0.14520680318E+02  0.51100000000E-03 0.  1.
         12    1    4    4    0    0 -0.10337416089E+01 -0.27591638894E+02 -0.10956046021E+02  0.29705253794E+02  0.00000000000E+00 0. -1.
</event>
<event>
 8    1  0.5834107E-011  0.9118800E+02  0.7816164E-02  0.1184000E+00
        -11   -1    0    0    0    0  0.00000000000E+00  0.00000000000E+00  0.45593999997E+02  0.45594000000E+02  0.51100000000E-03 0. -1.
         11   -1    0    0    0    0 -0.00000000000E+00 -0.00000000000E+00 -0.45593999997E+02  0.45594000000E+02  0.51100000000E-03 0.  1.
         23    2    1    2    0    0  0.00000000000E+00 -0.44408920985E-15  0.71054273576E-14  0.91188000000E+02  0.91188000000E+02 0.  0.
    9900012    2    3    3    0    0  0.12307011298E+02  0.23875572221E+01  0.41550690274E+02  0.47787276287E+02  0.20000023903E+02 0.  0.
        -12    1    3    3    0    0 -0.12307011298E+02 -0.23875572221E+01 -0.41550690274E+02  0.43400723713E+02  0.00000000000E+00 0.  1.
         11    1    4    4    0    0  0.52240439511E+01 -0.19302413044E+01  0.49671268509E+01  0.74624939605E+01  0.51100000000E-03 0. -1.
        -11    1    4    4    0    0  0.56419373404E+01 -0.49841722552E+01  0.15252687171E+02  0.17009347319E+02  0.51100000000E-03 0.  1.
        -12    1    4    4    0    0  0.14410300060E+01  0.93019707817E+01  0.21330876252E+02  0.23315435007E+02  0.00000000000E+00 0.  1.
</event>
<event>
 8    1  0.8081836E-011  0.9118800E+02  0.7816164E-02  0.1184000E+00
        -11   -1    0    0    0    0  0.00000000000E+00  0.00000000000E+00  0.45593999997E+02  0.45594000000E+02  0.51100000000E-03 0. -1.
         11   -1    0    0    0    0 -0.00000000000E+00 -0.00000000000E+00 -0.45593999997E+02  0.45594000000E+02  0.51100000000E-03 0.  1.
         23    2    1    2    0    0  0.88817841970E-15  0.16653345369E-15  0.00000000000E+00  0.91188000000E+02  0.91188000000E+02 0.  0.
    9900012    2    3    3    0    0  0.71334403955E+01 -0.25426728404E+00 -0.42809748475E+02  0.47787248991E+02  0.19999899447E+02 0.  0.
         12    1    3    3    0    0 -0.71334403955E+01  0.25426728404E+00  0.42809748475E+02  0.43400751009E+02  0.00000000000E+00 0. -1.
         11    1    4    4    0    0  0.55383513752E+01  0.76590135279E+00 -0.27269364847E+02  0.27836634140E+02  0.51100000000E-03 0. -1.
        -11    1    4    4    0    0  0.34613196558E+01  0.42207392958E+01 -0.29930365913E+01  0.62252423456E+01  0.51100000000E-03 0.  1.
         12    1    4    4    0    0 -0.18662306356E+01 -0.52409079327E+01 -0.12547347036E+02  0.13725372505E+02  0.00000000000E+00 0. -1.
</event>
<event>
 8    1  0.5834107E-011  0.9118800E+02  0.7816164E-02  0.1184000E+00
        -11   -1    0    0    0    0  0.00000000000E+00  0.00000000000E+00  0.45593999997E+02  0.45594000000E+02  0.51100000000E-03 0. -1.
         11   -1    0    0    0    0 -0.00000000000E+00 -0.00000000000E+00 -0.45593999997E+02  0.45594000000E+02  0.51100000000E-03 0.  1.
         23    2    1    2    0    0  0.17763568394E-14 -0.88817841970E-15 -0.71054273576E-14  0.91188000000E+02  0.91188000000E+02 0.  0.
    9900012    2    3    3    0    0  0.85461280869E+01 -0.10587734019E+01 -0.42537810832E+02  0.47787278153E+02  0.20000032412E+02 0.  0.
         12    1    3    3    0    0 -0.85461280869E+01  0.10587734019E+01  0.42537810832E+02  0.43400721847E+02  0.00000000000E+00 0. -1.
         11    1    4    4    0    0  0.26872430450E+01  0.46700884667E+01 -0.13714399498E+02  0.14734848331E+02  0.51100000000E-03 0. -1.
        -11    1    4    4    0    0  0.58524143133E+01  0.34214243555E+01 -0.15176794706E+02  0.16622033441E+02  0.51100000000E-03 0.  1.
         12    1    4    4    0    0  0.64707285607E-02 -0.91502862241E+01 -0.13646616628E+02  0.16430396381E+02  0.00000000000E+00 0. -1.
</event>
<event>
 8    1  0.5834107E-011  0.9118800E+02  0.7816164E-02  0.1184000E+00
        -11   -1    0    0    0    0  0.00000000000E+00  0.00000000000E+00  0.45593999997E+02  0.45594000000E+02  0.51100000000E-03 0.  1.
         11   -1    0    0    0    0 -0.00000000000E+00 -0.00000000000E+00 -0.45593999997E+02  0.45594000000E+02  0.51100000000E-03 0. -1.
         23    2    1    2    0    0  0.00000000000E+00 -0.35527136788E-14 -0.35527136788E-14  0.91188000000E+02  0.91188000000E+02 0.  0.
    9900012    2    3    3    0    0 -0.37916295261E+02  0.12900136696E+02  0.16720177867E+02  0.47787270502E+02  0.19999997527E+02 0.  0.
        -12    1    3    3    0    0  0.37916295261E+02 -0.12900136696E+02 -0.16720177867E+02  0.43400729498E+02  0.00000000000E+00 0.  1.
         11    1    4    4    0    0 -0.25788952623E+02  0.77011450967E+01  0.10990299768E+02  0.29071711378E+02  0.51100000000E-03 0. -1.
        -11    1    4    4    0    0 -0.78454261519E+01  0.90008141096E+01  0.27175988404E+01  0.12245436287E+02  0.51100000000E-03 0.  1.
        -12    1    4    4    0    0 -0.42819164860E+01 -0.38018225108E+01  0.30122792587E+01  0.64701228373E+01  0.00000000000E+00 0.  1.
</event>
<event>
 8    1  0.5834107E-011  0.9118800E+02  0.7816164E-02  0.1184000E+00
        -11   -1    0    0    0    0  0.00000000000E+00  0.00000000000E+00  0.45593999997E+02  0.45594000000E+02  0.51100000000E-03 0. -1.
         11   -1    0    0    0    0 -0.00000000000E+00 -0.00000000000E+00 -0.45593999997E+02  0.45594000000E+02  0.51100000000E-03 0.  1.
         23    2    1    2    0    0  0.71054273576E-14 -0.35527136788E-14  0.00000000000E+00  0.91188000000E+02  0.91188000000E+02 0.  0.
    9900012    2    3    3    0    0  0.38477983535E+02 -0.16791468418E+02  0.11005195268E+02  0.47787274760E+02  0.20000016939E+02 0.  0.
        -12    1    3    3    0    0 -0.38477983535E+02  0.16791468418E+02 -0.11005195268E+02  0.43400725240E+02  0.00000000000E+00 0.  1.
         11    1    4    4    0    0  0.17783696780E+02 -0.10745304559E+02  0.83300153387E+01  0.22385499705E+02  0.51100000000E-03 0. -1.
        -11    1    4    4    0    0  0.22175682210E+02 -0.42632878871E+01  0.11182856160E+01  0.22609446434E+02  0.51100000000E-03 0.  1.
         12    1    4    4    0    0 -0.14813954550E+01 -0.17828759715E+01  0.15568943131E+01  0.27923286207E+01  0.00000000000E+00 0. -1.
</event>
<event>
 8    1  0.5834107E-011  0.9118800E+02  0.7816164E-02  0.1184000E+00
        -11   -1    0    0    0    0  0.00000000000E+00  0.00000000000E+00  0.45593999997E+02  0.45594000000E+02  0.51100000000E-03 0. -1.
         11   -1    0    0    0    0 -0.00000000000E+00 -0.00000000000E+00 -0.45593999997E+02  0.45594000000E+02  0.51100000000E-03 0.  1.
         23    2    1    2    0    0  0.00000000000E+00  0.00000000000E+00 -0.66613381478E-15  0.91188000000E+02  0.91188000000E+02 0.  0.
    9900012    2    3    3    0    0  0.37029438608E+02 -0.22567268726E+02  0.17782827724E+01  0.47787271538E+02  0.20000002252E+02 0.  0.
        -12    1    3    3    0    0 -0.37029438608E+02  0.22567268726E+02 -0.17782827724E+01  0.43400728462E+02  0.00000000000E+00 0.  1.
         11    1    4    4    0    0  0.22761832994E+02 -0.15645149078E+02  0.58261158380E+01  0.28227918041E+02  0.51100000000E-03 0. -1.
        -11    1    4    4    0    0  0.13799553953E+02 -0.19991852848E+01 -0.15806220125E+01  0.14032918347E+02  0.51100000000E-03 0.  1.
         12    1    4    4    0    0  0.46805166128E+00 -0.49229343625E+01 -0.24672110531E+01  0.55264351508E+01  0.00000000000E+00 0. -1.
</event>
<event>
 8    1  0.5834107E-011  0.9118800E+02  0.7816164E-02  0.1184000E+00
        -11   -1    0    0    0    0  0.00000000000E+00  0.00000000000E+00  0.45593999997E+02  0.45594000000E+02  0.51100000000E-03 0. -1.
         11   -1    0    0    0    0 -0.00000000000E+00 -0.00000000000E+00 -0.45593999997E+02  0.45594000000E+02  0.51100000000E-03 0.  1.
         23    2    1    2    0    0  0.00000000000E+00  0.44408920985E-15  0.88817841970E-15  0.91188000000E+02  0.91188000000E+02 0.  0.
    9900012    2    3    3    0    0  0.42907158179E+02 -0.29736530076E+01 -0.58100418002E+01  0.47787269351E+02  0.19999992278E+02 0.  0.
         12    1    3    3    0    0 -0.42907158179E+02  0.29736530076E+01  0.58100418002E+01  0.43400730649E+02  0.00000000000E+00 0. -1.
         11    1    4    4    0    0  0.26484351483E+01 -0.37545615158E+01 -0.21475233270E+01  0.50717647433E+01  0.51100000000E-03 0. -1.
        -11    1    4    4    0    0  0.29473109676E+02 -0.19514792045E+01 -0.82690385704E+01  0.30673269538E+02  0.51100000000E-03 0.  1.
        -12    1    4    4    0    0  0.10785613355E+02  0.27323877126E+01  0.46065200973E+01  0.12042235069E+02  0.00000000000E+00 0.  1.
</event>
<event>
 8    1  0.5834107E-011  0.9118800E+02  0.7816164E-02  0.1184000E+00
        -11   -1    0    0    0    0  0.00000000000E+00  0.00000000000E+00  0.45593999997E+02  0.45594000000E+02  0.51100000000E-03 0. -1.
         11   -1    0    0    0    0 -0.00000000000E+00 -0.00000000000E+00 -0.45593999997E+02  0.45594000000E+02  0.51100000000E-03 0.  1.
         23    2    1    2    0    0  0.35527136788E-14  0.00000000000E+00  0.00000000000E+00  0.91188000000E+02  0.91188000000E+02 0.  0.
    9900012    2    3    3    0    0  0.23603035430E+02  0.58774634145E+01  0.35944059111E+02  0.47787271399E+02  0.20000001618E+02 0.  0.
        -12    1    3    3    0    0 -0.23603035430E+02 -0.58774634145E+01 -0.35944059111E+02  0.43400728601E+02  0.00000000000E+00 0.  1.
         11    1    4    4    0    0  0.17915950724E+02  0.51216315004E+00  0.13782389414E+02  0.22609685086E+02  0.51100000000E-03 0. -1.
        -11    1    4    4    0    0  0.40974748809E+01 -0.12478621364E+01  0.13508497749E+02  0.14171308055E+02  0.51100000000E-03 0.  1.
        -12    1    4    4    0    0  0.15896098244E+01  0.66131624008E+01  0.86531719477E+01  0.11006278258E+02  0.00000000000E+00 0.  1.
</event>
<event>
 8    1  0.5834107E-011  0.9118800E+02  0.7816164E-02  0.1184000E+00
        -11   -1    0    0    0    0  0.00000000000E+00  0.00000000000E+00  0.45593999997E+02  0.45594000000E+02  0.51100000000E-03 0. -1.
         11   -1    0    0    0    0 -0.00000000000E+00 -0.00000000000E+00 -0.45593999997E+02  0.45594000000E+02  0.51100000000E-03 0.  1.
         23    2    1    2    0    0 -0.35527136788E-14  0.00000000000E+00  0.00000000000E+00  0.91188000000E+02  0.91188000000E+02 0.  0.
    9900012    2    3    3    0    0 -0.21892985217E+02  0.52200785961E+01  0.37108908843E+02  0.47787272612E+02  0.20000007148E+02 0.  0.
        -12    1    3    3    0    0  0.21892985217E+02 -0.52200785961E+01 -0.37108908843E+02  0.43400727388E+02  0.00000000000E+00 0.  1.
         11    1    4    4    0    0 -0.19550253582E+02  0.66202569650E+01  0.29679753396E+02  0.36151458883E+02  0.51100000000E-03 0. -1.
        -11    1    4    4    0    0  0.89661764398E+00 -0.30977285805E+00  0.80977182934E+01  0.81530929250E+01  0.51100000000E-03 0.  1.
        -12    1    4    4    0    0 -0.32393492780E+01 -0.10904055109E+01 -0.66856284636E+00  0.34827208046E+01  0.00000000000E+00 0.  1.
</event>
<event>
 8    1  0.8495372E-011  0.9118800E+02  0.7816164E-02  0.1184000E+00
        -11   -1    0    0    0    0  0.00000000000E+00  0.00000000000E+00  0.45593999997E+02  0.45594000000E+02  0.51100000000E-03 0. -1.
         11   -1    0    0    0    0 -0.00000000000E+00 -0.00000000000E+00 -0.45593999997E+02  0.45594000000E+02  0.51100000000E-03 0.  1.
         23    2    1    2    0    0  0.44408920985E-15  0.00000000000E+00  0.35527136788E-14  0.91188000000E+02  0.91188000000E+02 0.  0.
    9900012    2    3    3    0    0 -0.55348870123E+00 -0.33580407003E+02  0.27489511087E+02  0.47787270697E+02  0.19999998415E+02 0.  0.
        -12    1    3    3    0    0  0.55348870123E+00  0.33580407003E+02 -0.27489511087E+02  0.43400729303E+02  0.00000000000E+00 0.  1.
         11    1    4    4    0    0  0.30202874563E+01 -0.13214118990E+02  0.13744168392E+02  0.19303814184E+02  0.51100000000E-03 0. -1.
        -11    1    4    4    0    0 -0.92159078100E-01 -0.59587490951E+01 -0.25263604494E+01  0.64728418376E+01  0.51100000000E-03 0.  1.
         12    1    4    4    0    0 -0.34816170794E+01 -0.14407538918E+02  0.16271703145E+02  0.22010614676E+02  0.00000000000E+00 0. -1.
</event>
<event>
 8    1  0.5834107E-011  0.9118800E+02  0.7816164E-02  0.1184000E+00
        -11   -1    0    0    0    0  0.00000000000E+00  0.00000000000E+00  0.45593999997E+02  0.45594000000E+02  0.51100000000E-03 0. -1.
         11   -1    0    0    0    0 -0.00000000000E+00 -0.00000000000E+00 -0.45593999997E+02  0.45594000000E+02  0.51100000000E-03 0.  1.
         23    2    1    2    0    0  0.00000000000E+00  0.00000000000E+00  0.00000000000E+00  0.91188000000E+02  0.91188000000E+02 0.  0.
    9900012    2    3    3    0    0 -0.35653579671E+02 -0.23852528878E+02  0.65956353663E+01  0.47787270938E+02  0.19999999514E+02 0.  0.
        -12    1    3    3    0    0  0.35653579671E+02  0.23852528878E+02 -0.65956353663E+01  0.43400729062E+02  0.00000000000E+00 0.  1.
         11    1    4    4    0    0 -0.18629510757E+02 -0.71261440885E+01 -0.10763884281E+01  0.19974964654E+02  0.51100000000E-03 0. -1.
        -11    1    4    4    0    0 -0.63990451675E+01 -0.35706769849E+01  0.80655357071E+01  0.10897264780E+02  0.51100000000E-03 0.  1.
        -12    1    4    4    0    0 -0.10625023747E+02 -0.13155707804E+02 -0.39351191275E+00  0.16915041504E+02  0.00000000000E+00 0.  1.
</event>
<event>
 8    1  0.5834107E-011  0.9118800E+02  0.7816164E-02  0.1184000E+00
        -11   -1    0    0    0    0  0.00000000000E+00  0.00000000000E+00  0.45593999997E+02  0.45594000000E+02  0.51100000000E-03 0. -1.
         11   -1    0    0    0    0 -0.00000000000E+00 -0.00000000000E+00 -0.45593999997E+02  0.45594000000E+02  0.51100000000E-03 0.  1.
         23    2    1    2    0    0 -0.17763568394E-14 -0.17763568394E-14  0.00000000000E+00  0.91188000000E+02  0.91188000000E+02 0.  0.
    9900012    2    3    3    0    0  0.10843423981E+02  0.12575656918E+02 -0.40098569794E+02  0.47787282378E+02  0.20000051676E+02 0.  0.
         12    1    3    3    0    0 -0.10843423981E+02 -0.12575656918E+02  0.40098569794E+02  0.43400717622E+02  0.00000000000E+00 0. -1.
         11    1    4    4    0    0  0.38609921914E+01 -0.21214793934E+01 -0.62797614017E+00  0.44499763833E+01  0.51100000000E-03 0. -1.
        -11    1    4    4    0    0 -0.39207202995E+00  0.59039599812E+01 -0.89369122880E+01  0.10718155879E+02  0.51100000000E-03 0.  1.
        -12    1    4    4    0    0  0.73745038199E+01  0.87931763302E+01 -0.30533681366E+02  0.32619150116E+02  0.00000000000E+00 0.  1.
</event>
<event>
 8    1  0.5834107E-011  0.9118800E+02  0.7816164E-02  0.1184000E+00
        -11   -1    0    0    0    0  0.00000000000E+00  0.00000000000E+00  0.45593999997E+02  0.45594000000E+02  0.51100000000E-03 0. -1.
         11   -1    0    0    0    0 -0.00000000000E+00 -0.00000000000E+00 -0.45593999997E+02  0.45594000000E+02  0.51100000000E-03 0.  1.
         23    2    1    2    0    0  0.00000000000E+00  0.00000000000E+00  0.35527136788E-14  0.91188000000E+02  0.91188000000E+02 0.  0.
    9900012    2    3    3    0    0  0.19948181037E+02 -0.22012514338E+02  0.31640836510E+02  0.47787271328E+02  0.20000001294E+02 0.  0.
        -12    1    3    3    0    0 -0.19948181037E+02  0.22012514338E+02 -0.31640836510E+02  0.43400728672E+02  0.00000000000E+00 0.  1.
         11    1    4    4    0    0  0.37276722027E+01  0.13967313624E+01  0.13969496683E+01  0.42187518517E+01  0.51100000000E-03 0. -1.
        -11    1    4    4    0    0 -0.32723938915E+00  0.11880750690E+01  0.19988187184E-01  0.12324803350E+01  0.51100000000E-03 0.  1.
         12    1    4    4    0    0  0.16547748223E+02 -0.24597320769E+02  0.30223898655E+02  0.42336039142E+02  0.00000000000E+00 0. -1.
</event>
<event>
 8    1  0.5834107E-011  0.9118800E+02  0.7816164E-02  0.1184000E+00
        -11   -1    0    0    0    0  0.00000000000E+00  0.00000000000E+00  0.45593999997E+02  0.45594000000E+02  0.51100000000E-03 0. -1.
         11   -1    0    0    0    0 -0.00000000000E+00 -0.00000000000E+00 -0.45593999997E+02  0.45594000000E+02  0.51100000000E-03 0.  1.
         23    2    1    2    0    0  0.00000000000E+00  0.00000000000E+00  0.00000000000E+00  0.91188000000E+02  0.91188000000E+02 0.  0.
    9900012    2    3    3    0    0  0.12330665954E+01 -0.32196501843E+02 -0.29077280201E+02  0.47787269499E+02  0.19999992952E+02 0.  0.
         12    1    3    3    0    0 -0.12330665954E+01  0.32196501843E+02  0.29077280201E+02  0.43400730501E+02  0.00000000000E+00 0. -1.
         11    1    4    4    0    0  0.84096739675E+01 -0.20530665375E+02 -0.10841169674E+02  0.24693355323E+02  0.51100000000E-03 0. -1.
        -11    1    4    4    0    0 -0.12064182570E+01 -0.36808974940E+01 -0.30627374193E+01  0.49380980279E+01  0.51100000000E-03 0.  1.
        -12    1    4    4    0    0 -0.59701891150E+01 -0.79849389744E+01 -0.15173373108E+02  0.18155816147E+02  0.00000000000E+00 0.  1.
</event>
<event>
 8    1  0.5834107E-011  0.9118800E+02  0.7816164E-02  0.1184000E+00
        -11   -1    0    0    0    0  0.00000000000E+00  0.00000000000E+00  0.45593999997E+02  0.45594000000E+02  0.51100000000E-03 0. -1.
         11   -1    0    0    0    0 -0.00000000000E+00 -0.00000000000E+00 -0.45593999997E+02  0.45594000000E+02  0.51100000000E-03 0.  1.
         23    2    1    2    0    0  0.35527136788E-14  0.00000000000E+00  0.71054273576E-14  0.91188000000E+02  0.91188000000E+02 0.  0.
    9900012    2    3    3    0    0 -0.26900816393E+02 -0.96055379380E+01 -0.32675725694E+02  0.47787270383E+02  0.19999996983E+02 0.  0.
         12    1    3    3    0    0  0.26900816393E+02  0.96055379380E+01  0.32675725694E+02  0.43400729617E+02  0.00000000000E+00 0. -1.
         11    1    4    4    0    0 -0.15724164737E+00 -0.45852081749E+01 -0.69499042044E+01  0.83276663991E+01  0.51100000000E-03 0. -1.
        -11    1    4    4    0    0 -0.19283601647E+02  0.12569598676E+01 -0.12448076337E+02  0.22986775444E+02  0.51100000000E-03 0.  1.
        -12    1    4    4    0    0 -0.74599730992E+01 -0.62772896306E+01 -0.13277745153E+02  0.16472828540E+02  0.00000000000E+00 0.  1.
</event>
<event>
 8    1  0.5834107E-011  0.9118800E+02  0.7816164E-02  0.1184000E+00
        -11   -1    0    0    0    0  0.00000000000E+00  0.00000000000E+00  0.45593999997E+02  0.45594000000E+02  0.51100000000E-03 0. -1.
         11   -1    0    0    0    0 -0.00000000000E+00 -0.00000000000E+00 -0.45593999997E+02  0.45594000000E+02  0.51100000000E-03 0.  1.
         23    2    1    2    0    0  0.00000000000E+00  0.00000000000E+00 -0.35527136788E-14  0.91188000000E+02  0.91188000000E+02 0.  0.
    9900012    2    3    3    0    0  0.26256473856E+02 -0.19004056564E+02  0.28862895033E+02  0.47787270802E+02  0.19999998893E+02 0.  0.
        -12    1    3    3    0    0 -0.26256473856E+02  0.19004056564E+02 -0.28862895033E+02  0.43400729198E+02  0.00000000000E+00 0.  1.
         11    1    4    4    0    0  0.23496693939E+01 -0.52814060885E+01  0.12990993387E+01  0.59246819227E+01  0.51100000000E-03 0. -1.
        -11    1    4    4    0    0  0.18201114542E+02 -0.14283307262E+02  0.27745858720E+02  0.36126529217E+02  0.51100000000E-03 0.  1.
        -12    1    4    4    0    0  0.57056899206E+01  0.56065678627E+00 -0.18206302502E+00  0.57360596621E+01  0.00000000000E+00 0.  1.
</event>
<event>
 8    1  0.5834107E-011  0.9118800E+02  0.7816164E-02  0.1184000E+00
        -11   -1    0    0    0    0  0.00000000000E+00  0.00000000000E+00  0.45593999997E+02  0.45594000000E+02  0.51100000000E-03 0.  1.
         11   -1    0    0    0    0 -0.00000000000E+00 -0.00000000000E+00 -0.45593999997E+02  0.45594000000E+02  0.51100000000E-03 0. -1.
         23    2    1    2    0    0  0.00000000000E+00  0.00000000000E+00 -0.17763568394E-14  0.91188000000E+02  0.91188000000E+02 0.  0.
    9900012    2    3    3    0    0  0.33546431112E+02  0.23160786221E+02 -0.14894236975E+02  0.47787270124E+02  0.19999995802E+02 0.  0.
         12    1    3    3    0    0 -0.33546431112E+02 -0.23160786221E+02  0.14894236975E+02  0.43400729876E+02  0.00000000000E+00 0. -1.
         11    1    4    4    0    0  0.42738388035E+01 -0.34888976335E+01 -0.28366713368E+01  0.62036126047E+01  0.51100000000E-03 0. -1.
        -11    1    4    4    0    0  0.16140654200E+02  0.13822878295E+02 -0.44433059547E+01  0.21710266015E+02  0.51100000000E-03 0.  1.
         12    1    4    4    0    0  0.13131938109E+02  0.12826805560E+02 -0.76142596832E+01  0.19873391504E+02  0.00000000000E+00 0. -1.
</event>
<event>
 8    1  0.5834107E-011  0.9118800E+02  0.7816164E-02  0.1184000E+00
        -11   -1    0    0    0    0  0.00000000000E+00  0.00000000000E+00  0.45593999997E+02  0.45594000000E+02  0.51100000000E-03 0. -1.
         11   -1    0    0    0    0 -0.00000000000E+00 -0.00000000000E+00 -0.45593999997E+02  0.45594000000E+02  0.51100000000E-03 0.  1.
         23    2    1    2    0    0  0.00000000000E+00 -0.35527136788E-14  0.71054273576E-14  0.91188000000E+02  0.91188000000E+02 0.  0.
    9900012    2    3    3    0    0 -0.60840502921E+01  0.30696365646E+02 -0.30072251335E+02  0.47787276132E+02  0.20000023198E+02 0.  0.
         12    1    3    3    0    0  0.60840502921E+01 -0.30696365646E+02  0.30072251335E+02  0.43400723868E+02  0.00000000000E+00 0. -1.
         11    1    4    4    0    0  0.14395731031E+01  0.13345793578E+02 -0.81894988943E+01  0.15724200118E+02  0.51100000000E-03 0. -1.
        -11    1    4    4    0    0 -0.25333500966E+01  0.31092139499E+01 -0.14909379340E+02  0.15439386861E+02  0.51100000000E-03 0.  1.
         12    1    4    4    0    0 -0.49902732986E+01  0.14241358118E+02 -0.69733731014E+01  0.16623689153E+02  0.00000000000E+00 0. -1.
</event>
<event>
 8    1  0.5834107E-011  0.9118800E+02  0.7816164E-02  0.1184000E+00
        -11   -1    0    0    0    0  0.00000000000E+00  0.00000000000E+00  0.45593999997E+02  0.45594000000E+02  0.51100000000E-03 0. -1.
         11   -1    0    0    0    0 -0.00000000000E+00 -0.00000000000E+00 -0.45593999997E+02  0.45594000000E+02  0.51100000000E-03 0.  1.
         23    2    1    2    0    0 -0.35527136788E-14  0.35527136788E-14  0.00000000000E+00  0.91188000000E+02  0.91188000000E+02 0.  0.
    9900012    2    3    3    0    0 -0.22752919858E+02 -0.31713555935E+02  0.18978370358E+02  0.47787268052E+02  0.19999986358E+02 0.  0.
        -12    1    3    3    0    0  0.22752919858E+02  0.31713555935E+02 -0.18978370358E+02  0.43400731948E+02  0.00000000000E+00 0.  1.
         11    1    4    4    0    0  0.27494094257E+00 -0.16515057064E+01  0.30016293014E+01  0.34369815746E+01  0.51100000000E-03 0. -1.
        -11    1    4    4    0    0 -0.37360389236E+01  0.61020469783E+00 -0.15605963231E+01  0.40946059342E+01  0.51100000000E-03 0.  1.
         12    1    4    4    0    0 -0.19291821877E+02 -0.30672254927E+02  0.17537337380E+02  0.40255680543E+02  0.00000000000E+00 0. -1.
</event>
<event>
 8    1  0.7573584E-011  0.9118800E+02  0.7816164E-02  0.1184000E+00
        -11   -1    0    0    0    0  0.00000000000E+00  0.00000000000E+00  0.45593999997E+02  0.45594000000E+02  0.51100000000E-03 0. -1.
         11   -1    0    0    0    0 -0.00000000000E+00 -0.00000000000E+00 -0.45593999997E+02  0.45594000000E+02  0.51100000000E-03 0.  1.
         23    2    1    2    0    0 -0.35527136788E-14  0.00000000000E+00  0.00000000000E+00  0.91188000000E+02  0.91188000000E+02 0.  0.
    9900012    2    3    3    0    0 -0.26547778749E+02 -0.12045868520E+02  0.32151766908E+02  0.47787267055E+02  0.19999981810E+02 0.  0.
        -12    1    3    3    0    0  0.26547778749E+02  0.12045868520E+02 -0.32151766908E+02  0.43400732945E+02  0.00000000000E+00 0.  1.
         11    1    4    4    0    0 -0.60973251937E+01 -0.97384240425E+01  0.72893638371E+01  0.13606950531E+02  0.51100000000E-03 0. -1.
        -11    1    4    4    0    0 -0.94659650065E+00  0.16219398462E+01  0.76350014922E+01  0.78625684002E+01  0.51100000000E-03 0.  1.
         12    1    4    4    0    0 -0.19503857054E+02 -0.39293843234E+01  0.17227401578E+02  0.26317748124E+02  0.00000000000E+00 0. -1.
</event>
<event>
 8    1  0.5834107E-011  0.9118800E+02  0.7816164E-02  0.1184000E+00
        -11   -1    0    0    0    0  0.00000000000E+00  0.00000000000E+00  0.45593999997E+02  0.45594000000E+02  0.51100000000E-03 0. -1.
         11   -1    0    0    0    0 -0.00000000000E+00 -0.00000000000E+00 -0.45593999997E+02  0.45594000000E+02  0.51100000000E-03 0.  1.
         23    2    1    2    0    0  0.00000000000E+00  0.00000000000E+00  0.00000000000E+00  0.91188000000E+02  0.91188000000E+02 0.  0.
    9900012    2    3    3    0    0 -0.25073861733E+02  0.27176152701E+02  0.22724055508E+02  0.47787256728E+02  0.19999934726E+02 0.  0.
        -12    1    3    3    0    0  0.25073861733E+02 -0.27176152701E+02 -0.22724055508E+02  0.43400743272E+02  0.00000000000E+00 0.  1.
         11    1    4    4    0    0  0.10576411758E+01  0.23455323672E+00  0.25004339982E+01  0.27250303701E+01  0.51100000000E-03 0. -1.
        -11    1    4    4    0    0 -0.24297133218E+02  0.18492309155E+02  0.11090318927E+02  0.32485556093E+02  0.51100000000E-03 0.  1.
         12    1    4    4    0    0 -0.18343696903E+01  0.84492903094E+01  0.91333025825E+01  0.12576670265E+02  0.00000000000E+00 0. -1.
</event>
<event>
 8    1  0.5834107E-011  0.9118800E+02  0.7816164E-02  0.1184000E+00
        -11   -1    0    0    0    0  0.00000000000E+00  0.00000000000E+00  0.45593999997E+02  0.45594000000E+02  0.51100000000E-03 0. -1.
         11   -1    0    0    0    0 -0.00000000000E+00 -0.00000000000E+00 -0.45593999997E+02  0.45594000000E+02  0.51100000000E-03 0.  1.
         23    2    1    2    0    0 -0.88817841970E-15 -0.71054273576E-14  0.00000000000E+00  0.91188000000E+02  0.91188000000E+02 0.  0.
    9900012    2    3    3    0    0 -0.68569126434E+01 -0.35889673139E+02  0.23420827116E+02  0.47787296874E+02  0.20000117768E+02 0.  0.
        -12    1    3    3    0    0  0.68569126434E+01  0.35889673139E+02 -0.23420827116E+02  0.43400703126E+02  0.00000000000E+00 0.  1.
         11    1    4    4    0    0 -0.78678221555E+01 -0.15000910005E+02  0.19071642621E+02  0.25507988532E+02  0.51100000000E-03 0. -1.
        -11    1    4    4    0    0 -0.17199003291E+01 -0.47151359256E+01 -0.81121687031E+00  0.50841554865E+01  0.51100000000E-03 0.  1.
        -12    1    4    4    0    0  0.27308098412E+01 -0.16173627209E+02  0.51604013651E+01  0.17195152856E+02  0.00000000000E+00 0.  1.
</event>
<event>
 8    1  0.5834107E-011  0.9118800E+02  0.7816164E-02  0.1184000E+00
        -11   -1    0    0    0    0  0.00000000000E+00  0.00000000000E+00  0.45593999997E+02  0.45594000000E+02  0.51100000000E-03 0.  1.
         11   -1    0    0    0    0 -0.00000000000E+00 -0.00000000000E+00 -0.45593999997E+02  0.45594000000E+02  0.51100000000E-03 0. -1.
         23    2    1    2    0    0 -0.17763568394E-14  0.00000000000E+00  0.44408920985E-15  0.91188000000E+02  0.91188000000E+02 0.  0.
    9900012    2    3    3    0    0 -0.13098473865E+02 -0.41352470600E+02 -0.14235446797E+01  0.47787270493E+02  0.19999997484E+02 0.  0.
         12    1    3    3    0    0  0.13098473865E+02  0.41352470600E+02  0.14235446797E+01  0.43400729507E+02  0.00000000000E+00 0. -1.
         11    1    4    4    0    0 -0.43882073602E+01 -0.14862086656E+02  0.53051272272E+01  0.16379327177E+02  0.51100000000E-03 0. -1.
        -11    1    4    4    0    0 -0.96923943865E+01 -0.27064147106E+02 -0.47663714426E+01  0.29139815794E+02  0.51100000000E-03 0.  1.
         12    1    4    4    0    0  0.98212788166E+00  0.57376316206E+00 -0.19623004643E+01  0.22681275216E+01  0.00000000000E+00 0. -1.
</event>
<event>
 8    1  0.5834107E-011  0.9118800E+02  0.7816164E-02  0.1184000E+00
        -11   -1    0    0    0    0  0.00000000000E+00  0.00000000000E+00  0.45593999997E+02  0.45594000000E+02  0.51100000000E-03 0. -1.
         11   -1    0    0    0    0 -0.00000000000E+00 -0.00000000000E+00 -0.45593999997E+02  0.45594000000E+02  0.51100000000E-03 0.  1.
         23    2    1    2    0    0  0.17763568394E-14  0.00000000000E+00 -0.71054273576E-14  0.91188000000E+02  0.91188000000E+02 0.  0.
    9900012    2    3    3    0    0 -0.10114502504E+02  0.20894633951E+02  0.36670619195E+02  0.47787271884E+02  0.20000003828E+02 0.  0.
        -12    1    3    3    0    0  0.10114502504E+02 -0.20894633951E+02 -0.36670619195E+02  0.43400728116E+02  0.00000000000E+00 0.  1.
         11    1    4    4    0    0 -0.75231521804E+01  0.13504700571E+01  0.75665088278E+01  0.10755168256E+02  0.51100000000E-03 0. -1.
        -11    1    4    4    0    0  0.40903303828E+01  0.77512658994E+01  0.15633320262E+02  0.17922433662E+02  0.51100000000E-03 0.  1.
         12    1    4    4    0    0 -0.66816807061E+01  0.11792897995E+02  0.13470790105E+02  0.19109669966E+02  0.00000000000E+00 0. -1.
</event>
<event>
 8    1  0.5834107E-011  0.9118800E+02  0.7816164E-02  0.1184000E+00
        -11   -1    0    0    0    0  0.00000000000E+00  0.00000000000E+00  0.45593999997E+02  0.45594000000E+02  0.51100000000E-03 0. -1.
         11   -1    0    0    0    0 -0.00000000000E+00 -0.00000000000E+00 -0.45593999997E+02  0.45594000000E+02  0.51100000000E-03 0.  1.
         23    2    1    2    0    0  0.00000000000E+00 -0.88817841970E-15 -0.71054273576E-14  0.91188000000E+02  0.91188000000E+02 0.  0.
    9900012    2    3    3    0    0  0.16695374406E+02 -0.42977633173E+01 -0.39829852547E+02  0.47787269015E+02  0.19999990749E+02 0.  0.
         12    1    3    3    0    0 -0.16695374406E+02  0.42977633173E+01  0.39829852547E+02  0.43400730985E+02  0.00000000000E+00 0. -1.
         11    1    4    4    0    0  0.36263144057E+01 -0.24754684280E+01  0.28022955662E+00  0.43996169120E+01  0.51100000000E-03 0. -1.
        -11    1    4    4    0    0  0.10579692848E+02 -0.35021104103E+01 -0.18706974337E+02  0.21774883861E+02  0.51100000000E-03 0.  1.
        -12    1    4    4    0    0  0.24893671527E+01  0.16798155210E+01 -0.21403107767E+02  0.21612768242E+02  0.00000000000E+00 0.  1.
</event>
<event>
 8    1  0.5834107E-011  0.9118800E+02  0.7816164E-02  0.1184000E+00
        -11   -1    0    0    0    0  0.00000000000E+00  0.00000000000E+00  0.45593999997E+02  0.45594000000E+02  0.51100000000E-03 0. -1.
         11   -1    0    0    0    0 -0.00000000000E+00 -0.00000000000E+00 -0.45593999997E+02  0.45594000000E+02  0.51100000000E-03 0.  1.
         23    2    1    2    0    0  0.00000000000E+00  0.35527136788E-14  0.00000000000E+00  0.91188000000E+02  0.91188000000E+02 0.  0.
    9900012    2    3    3    0    0  0.23135157558E+02 -0.25375327328E+02  0.26542052699E+02  0.47787270586E+02  0.19999997909E+02 0.  0.
        -12    1    3    3    0    0 -0.23135157558E+02  0.25375327328E+02 -0.26542052699E+02  0.43400729414E+02  0.00000000000E+00 0.  1.
         11    1    4    4    0    0  0.53292446777E+01 -0.10818016247E+02  0.70747179379E+01  0.13981486277E+02  0.51100000000E-03 0. -1.
        -11    1    4    4    0    0 -0.34220137823E+00 -0.57023971369E+01 -0.63172106480E-01  0.57130049769E+01  0.51100000000E-03 0.  1.
         12    1    4    4    0    0  0.18148114258E+02 -0.88549139435E+01  0.19530506868E+02  0.28092779332E+02  0.00000000000E+00 0. -1.
</event>
<event>
 8    1  0.5834107E-011  0.9118800E+02  0.7816164E-02  0.1184000E+00
        -11   -1    0    0    0    0  0.00000000000E+00  0.00000000000E+00  0.45593999997E+02  0.45594000000E+02  0.51100000000E-03 0. -1.
         11   -1    0    0    0    0 -0.00000000000E+00 -0.00000000000E+00 -0.45593999997E+02  0.45594000000E+02  0.51100000000E-03 0.  1.
         23    2    1    2    0    0  0.00000000000E+00 -0.11102230246E-15  0.00000000000E+00  0.91188000000E+02  0.91188000000E+02 0.  0.
    9900012    2    3    3    0    0 -0.37410280219E+02 -0.96593771978E+00  0.21980925044E+02  0.47787272269E+02  0.20000005585E+02 0.  0.
        -12    1    3    3    0    0  0.37410280219E+02  0.96593771978E+00 -0.21980925044E+02  0.43400727731E+02  0.00000000000E+00 0.  1.
         11    1    4    4    0    0 -0.28195855432E+02 -0.33867780230E+01  0.11097425090E+02  0.30489824087E+02  0.51100000000E-03 0.  1.
        -11    1    4    4    0    0 -0.10442938473E+02 -0.27884358757E+00  0.79696845196E+01  0.13139581017E+02  0.51100000000E-03 0. -1.
        -12    1    4    4    0    0  0.12285136862E+01  0.26996838908E+01  0.29138154336E+01  0.41578671658E+01  0.00000000000E+00 0.  1.
</event>
<event>
 8    1  0.5834107E-011  0.9118800E+02  0.7816164E-02  0.1184000E+00
        -11   -1    0    0    0    0  0.00000000000E+00  0.00000000000E+00  0.45593999997E+02  0.45594000000E+02  0.51100000000E-03 0. -1.
         11   -1    0    0    0    0 -0.00000000000E+00 -0.00000000000E+00 -0.45593999997E+02  0.45594000000E+02  0.51100000000E-03 0.  1.
         23    2    1    2    0    0  0.35527136788E-14  0.00000000000E+00 -0.71054273576E-14  0.91188000000E+02  0.91188000000E+02 0.  0.
    9900012    2    3    3    0    0  0.26925572618E+02  0.10310594803E+02 -0.32439605979E+02  0.47787275789E+02  0.20000021632E+02 0.  0.
         12    1    3    3    0    0 -0.26925572618E+02 -0.10310594803E+02  0.32439605979E+02  0.43400724211E+02  0.00000000000E+00 0. -1.
         11    1    4    4    0    0  0.91422653498E+01 -0.33009038689E+01 -0.16291370842E+02  0.18970654871E+02  0.51100000000E-03 0. -1.
        -11    1    4    4    0    0  0.12350342473E+02  0.67403032370E+01 -0.13889041032E+02  0.19770384619E+02  0.51100000000E-03 0.  1.
        -12    1    4    4    0    0  0.54329647953E+01  0.68711954351E+01 -0.22591941050E+01  0.90462362991E+01  0.00000000000E+00 0.  1.
</event>
<event>
 8    1  0.5834107E-011  0.9118800E+02  0.7816164E-02  0.1184000E+00
        -11   -1    0    0    0    0  0.00000000000E+00  0.00000000000E+00  0.45593999997E+02  0.45594000000E+02  0.51100000000E-03 0. -1.
         11   -1    0    0    0    0 -0.00000000000E+00 -0.00000000000E+00 -0.45593999997E+02  0.45594000000E+02  0.51100000000E-03 0.  1.
         23    2    1    2    0    0  0.00000000000E+00  0.00000000000E+00  0.35527136788E-14  0.91188000000E+02  0.91188000000E+02 0.  0.
    9900012    2    3    3    0    0 -0.24241478353E+02 -0.26950152733E+02  0.23867622873E+02  0.47787269284E+02  0.19999991973E+02 0.  0.
        -12    1    3    3    0    0  0.24241478353E+02  0.26950152733E+02 -0.23867622873E+02  0.43400730716E+02  0.00000000000E+00 0.  1.
         11    1    4    4    0    0 -0.84262190728E+01 -0.12766899847E+02  0.58455194273E+01  0.16375744172E+02  0.51100000000E-03 0. -1.
        -11    1    4    4    0    0 -0.13445599480E+02 -0.73927184845E+01  0.43263649461E+01  0.15942203921E+02  0.51100000000E-03 0.  1.
         12    1    4    4    0    0 -0.23696598003E+01 -0.67905344020E+01  0.13695738500E+02  0.15469321190E+02  0.00000000000E+00 0. -1.
</event>
<event>
 8    1  0.5834107E-011  0.9118800E+02  0.7816164E-02  0.1184000E+00
        -11   -1    0    0    0    0  0.00000000000E+00  0.00000000000E+00  0.45593999997E+02  0.45594000000E+02  0.51100000000E-03 0. -1.
         11   -1    0    0    0    0 -0.00000000000E+00 -0.00000000000E+00 -0.45593999997E+02  0.45594000000E+02  0.51100000000E-03 0.  1.
         23    2    1    2    0    0  0.00000000000E+00  0.00000000000E+00  0.00000000000E+00  0.91188000000E+02  0.91188000000E+02 0.  0.
    9900012    2    3    3    0    0  0.28954560905E+02  0.29413582620E+02 -0.13420006421E+02  0.47787285581E+02  0.20000066276E+02 0.  0.
         12    1    3    3    0    0 -0.28954560905E+02 -0.29413582620E+02  0.13420006421E+02  0.43400714419E+02  0.00000000000E+00 0. -1.
         11    1    4    4    0    0  0.16217289072E+02  0.23666997248E+02 -0.14407123084E+01  0.28726344630E+02  0.51100000000E-03 0. -1.
        -11    1    4    4    0    0  0.17489968205E+01  0.15170164026E+01 -0.46429340083E+01  0.51881755089E+01  0.51100000000E-03 0.  1.
        -12    1    4    4    0    0  0.10988275013E+02  0.42295689698E+01 -0.73363601047E+01  0.13872765442E+02  0.00000000000E+00 0.  1.
</event>
<event>
 8    1  0.5834107E-011  0.9118800E+02  0.7816164E-02  0.1184000E+00
        -11   -1    0    0    0    0  0.00000000000E+00  0.00000000000E+00  0.45593999997E+02  0.45594000000E+02  0.51100000000E-03 0. -1.
         11   -1    0    0    0    0 -0.00000000000E+00 -0.00000000000E+00 -0.45593999997E+02  0.45594000000E+02  0.51100000000E-03 0.  1.
         23    2    1    2    0    0 -0.22204460493E-15  0.00000000000E+00 -0.71054273576E-14  0.91188000000E+02  0.91188000000E+02 0.  0.
    9900012    2    3    3    0    0  0.17371302700E+01 -0.46928278702E+01  0.43111283770E+02  0.47787273701E+02  0.20000012113E+02 0.  0.
        -12    1    3    3    0    0 -0.17371302700E+01  0.46928278702E+01 -0.43111283770E+02  0.43400726299E+02  0.00000000000E+00 0.  1.
         11    1    4    4    0    0 -0.50442669133E-01 -0.59761163936E+00 -0.13293628173E+01  0.14583860585E+01  0.51100000000E-03 0. -1.
        -11    1    4    4    0    0  0.13053658323E+01  0.69187311922E+00 -0.14491709957E+00  0.14844762026E+01  0.51100000000E-03 0.  1.
         12    1    4    4    0    0  0.48220710684E+00 -0.47870893501E+01  0.44585563687E+02  0.44844411440E+02  0.00000000000E+00 0. -1.
</event>
<event>
 8    1  0.5834107E-011  0.9118800E+02  0.7816164E-02  0.1184000E+00
        -11   -1    0    0    0    0  0.00000000000E+00  0.00000000000E+00  0.45593999997E+02  0.45594000000E+02  0.51100000000E-03 0. -1.
         11   -1    0    0    0    0 -0.00000000000E+00 -0.00000000000E+00 -0.45593999997E+02  0.45594000000E+02  0.51100000000E-03 0.  1.
         23    2    1    2    0    0  0.00000000000E+00  0.35527136788E-14  0.00000000000E+00  0.91188000000E+02  0.91188000000E+02 0.  0.
    9900012    2    3    3    0    0  0.23619786258E+02 -0.24792293503E+02  0.26665915915E+02  0.47787271992E+02  0.20000004322E+02 0.  0.
        -12    1    3    3    0    0 -0.23619786258E+02  0.24792293503E+02 -0.26665915915E+02  0.43400728008E+02  0.00000000000E+00 0.  1.
         11    1    4    4    0    0  0.10260232751E+02 -0.39741116827E+01  0.23854653329E+01  0.11258613808E+02  0.51100000000E-03 0. -1.
        -11    1    4    4    0    0  0.35328483874E+01 -0.16047871861E+01 -0.21089113466E+00  0.38859792811E+01  0.51100000000E-03 0.  1.
        -12    1    4    4    0    0  0.98267051199E+01 -0.19213394634E+02  0.24491341716E+02  0.32642678903E+02  0.00000000000E+00 0.  1.
</event>
<event>
 8    1  0.5834107E-011  0.9118800E+02  0.7816164E-02  0.1184000E+00
        -11   -1    0    0    0    0  0.00000000000E+00  0.00000000000E+00  0.45593999997E+02  0.45594000000E+02  0.51100000000E-03 0. -1.
         11   -1    0    0    0    0 -0.00000000000E+00 -0.00000000000E+00 -0.45593999997E+02  0.45594000000E+02  0.51100000000E-03 0.  1.
         23    2    1    2    0    0 -0.35527136788E-14  0.35527136788E-14  0.00000000000E+00  0.91188000000E+02  0.91188000000E+02 0.  0.
    9900012    2    3    3    0    0 -0.19985700077E+02  0.22847207148E+02 -0.31019376752E+02  0.47787253277E+02  0.19999918992E+02 0.  0.
         12    1    3    3    0    0  0.19985700077E+02 -0.22847207148E+02  0.31019376752E+02  0.43400746723E+02  0.00000000000E+00 0. -1.
         11    1    4    4    0    0 -0.13918592529E+02  0.87371111134E+01 -0.10064007382E+02  0.19270406676E+02  0.51100000000E-03 0.  1.
        -11    1    4    4    0    0 -0.72191945525E+01  0.15029006343E+02 -0.15152138932E+02  0.22529427780E+02  0.51100000000E-03 0. -1.
        -12    1    4    4    0    0  0.11520870046E+01 -0.91891030860E+00 -0.58032304383E+01  0.59874188213E+01  0.00000000000E+00 0.  1.
</event>
<event>
 8    1  0.5834107E-011  0.9118800E+02  0.7816164E-02  0.1184000E+00
        -11   -1    0    0    0    0  0.00000000000E+00  0.00000000000E+00  0.45593999997E+02  0.45594000000E+02  0.51100000000E-03 0. -1.
         11   -1    0    0    0    0 -0.00000000000E+00 -0.00000000000E+00 -0.45593999997E+02  0.45594000000E+02  0.51100000000E-03 0.  1.
         23    2    1    2    0    0  0.00000000000E+00 -0.17763568394E-14  0.00000000000E+00  0.91188000000E+02  0.91188000000E+02 0.  0.
    9900012    2    3    3    0    0 -0.33299200517E+02 -0.15133314713E+02 -0.23361691316E+02  0.47787278918E+02  0.20000035899E+02 0.  0.
         12    1    3    3    0    0  0.33299200517E+02  0.15133314713E+02  0.23361691316E+02  0.43400721082E+02  0.00000000000E+00 0. -1.
         11    1    4    4    0    0 -0.74481884005E+01 -0.12994908917E+02 -0.12644993533E+02  0.19602015966E+02  0.51100000000E-03 0. -1.
        -11    1    4    4    0    0 -0.69744824317E+01  0.29638129382E+00 -0.20770378591E+01  0.72832227475E+01  0.51100000000E-03 0.  1.
         12    1    4    4    0    0 -0.18876529685E+02 -0.24347870897E+01 -0.86396599239E+01  0.20902040205E+02  0.00000000000E+00 0. -1.
</event>
<event>
 8    1  0.5834107E-011  0.9118800E+02  0.7816164E-02  0.1184000E+00
        -11   -1    0    0    0    0  0.00000000000E+00  0.00000000000E+00  0.45593999997E+02  0.45594000000E+02  0.51100000000E-03 0. -1.
         11   -1    0    0    0    0 -0.00000000000E+00 -0.00000000000E+00 -0.45593999997E+02  0.45594000000E+02  0.51100000000E-03 0.  1.
         23    2    1    2    0    0  0.35527136788E-14 -0.88817841970E-15 -0.71054273576E-14  0.91188000000E+02  0.91188000000E+02 0.  0.
    9900012    2    3    3    0    0 -0.17338089717E+02 -0.22587420657E+01  0.39722945554E+02  0.47787266432E+02  0.19999978970E+02 0.  0.
        -12    1    3    3    0    0  0.17338089717E+02  0.22587420657E+01 -0.39722945554E+02  0.43400733568E+02  0.00000000000E+00 0.  1.
         11    1    4    4    0    0 -0.18179134889E+02 -0.59670401696E+01  0.27300595023E+02  0.33337801406E+02  0.51100000000E-03 0. -1.
        -11    1    4    4    0    0 -0.77232076308E+00  0.24748969320E+01  0.89218776973E+00  0.27418230181E+01  0.51100000000E-03 0.  1.
         12    1    4    4    0    0  0.16133659348E+01  0.12334011719E+01  0.11530162761E+02  0.11707642008E+02  0.00000000000E+00 0. -1.
</event>
<event>
 8    1  0.5834107E-011  0.9118800E+02  0.7816164E-02  0.1184000E+00
        -11   -1    0    0    0    0  0.00000000000E+00  0.00000000000E+00  0.45593999997E+02  0.45594000000E+02  0.51100000000E-03 0. -1.
         11   -1    0    0    0    0 -0.00000000000E+00 -0.00000000000E+00 -0.45593999997E+02  0.45594000000E+02  0.51100000000E-03 0.  1.
         23    2    1    2    0    0  0.35527136788E-14 -0.71054273576E-14  0.17763568394E-14  0.91188000000E+02  0.91188000000E+02 0.  0.
    9900012    2    3    3    0    0 -0.22160625132E+02  0.35355511566E+02 -0.11938154554E+02  0.47787250715E+02  0.19999907311E+02 0.  0.
         12    1    3    3    0    0  0.22160625132E+02 -0.35355511566E+02  0.11938154554E+02  0.43400749285E+02  0.00000000000E+00 0. -1.
         11    1    4    4    0    0 -0.77940399144E+01  0.79863928552E+01  0.20966205359E+01  0.11354529799E+02  0.51100000000E-03 0. -1.
        -11    1    4    4    0    0  0.23611976519E+01  0.39077559131E+01 -0.35009784652E+01  0.57534912099E+01  0.51100000000E-03 0.  1.
        -12    1    4    4    0    0 -0.16727782869E+02  0.23461362798E+02 -0.10533796625E+02  0.30679229706E+02  0.00000000000E+00 0.  1.
</event>
<event>
 8    1  0.5834107E-011  0.9118800E+02  0.7816164E-02  0.1184000E+00
        -11   -1    0    0    0    0  0.00000000000E+00  0.00000000000E+00  0.45593999997E+02  0.45594000000E+02  0.51100000000E-03 0. -1.
         11   -1    0    0    0    0 -0.00000000000E+00 -0.00000000000E+00 -0.45593999997E+02  0.45594000000E+02  0.51100000000E-03 0.  1.
         23    2    1    2    0    0  0.35527136788E-14  0.00000000000E+00 -0.35527136788E-14  0.91188000000E+02  0.91188000000E+02 0.  0.
    9900012    2    3    3    0    0  0.19222499311E+02 -0.34475558464E+02 -0.18043135977E+02  0.47787269971E+02  0.19999995105E+02 0.  0.
         12    1    3    3    0    0 -0.19222499311E+02  0.34475558464E+02  0.18043135977E+02  0.43400730029E+02  0.00000000000E+00 0. -1.
         11    1    4    4    0    0  0.98328060927E+01 -0.16282714217E+02 -0.35827588700E+01  0.19355800663E+02  0.51100000000E-03 0. -1.
        -11    1    4    4    0    0  0.96749648175E+01 -0.17755133580E+02 -0.16642162711E+02  0.26187999019E+02  0.51100000000E-03 0.  1.
         12    1    4    4    0    0 -0.28527159914E+00 -0.43771066663E+00  0.21817856039E+01  0.22434702883E+01  0.00000000000E+00 0. -1.
</event>
<event>
 8    1  0.5834107E-011  0.9118800E+02  0.7816164E-02  0.1184000E+00
        -11   -1    0    0    0    0  0.00000000000E+00  0.00000000000E+00  0.45593999997E+02  0.45594000000E+02  0.51100000000E-03 0. -1.
         11   -1    0    0    0    0 -0.00000000000E+00 -0.00000000000E+00 -0.45593999997E+02  0.45594000000E+02  0.51100000000E-03 0.  1.
         23    2    1    2    0    0  0.00000000000E+00  0.00000000000E+00  0.00000000000E+00  0.91188000000E+02  0.91188000000E+02 0.  0.
    9900012    2    3    3    0    0 -0.20308069615E+02  0.17223434862E+02  0.34271838587E+02  0.47787270513E+02  0.19999997575E+02 0.  0.
        -12    1    3    3    0    0  0.20308069615E+02 -0.17223434862E+02 -0.34271838587E+02  0.43400729487E+02  0.00000000000E+00 0.  1.
         11    1    4    4    0    0 -0.32601510007E+01 -0.11353082728E+01  0.70210849741E+01  0.78238829168E+01  0.51100000000E-03 0. -1.
        -11    1    4    4    0    0 -0.19018836509E+02  0.18535873279E+02  0.22464955422E+02  0.34784608130E+02  0.51100000000E-03 0.  1.
        -12    1    4    4    0    0  0.19709178947E+01 -0.17713014482E+00  0.47857981903E+01  0.51787794657E+01  0.00000000000E+00 0.  1.
</event>
<event>
 8    1  0.5834107E-011  0.9118800E+02  0.7816164E-02  0.1184000E+00
        -11   -1    0    0    0    0  0.00000000000E+00  0.00000000000E+00  0.45593999997E+02  0.45594000000E+02  0.51100000000E-03 0.  1.
         11   -1    0    0    0    0 -0.00000000000E+00 -0.00000000000E+00 -0.45593999997E+02  0.45594000000E+02  0.51100000000E-03 0. -1.
         23    2    1    2    0    0  0.71054273576E-14 -0.35527136788E-14  0.00000000000E+00  0.91188000000E+02  0.91188000000E+02 0.  0.
    9900012    2    3    3    0    0 -0.29354834062E+02  0.30048095685E+02 -0.10910029115E+02  0.47787273366E+02  0.20000010585E+02 0.  0.
         12    1    3    3    0    0  0.29354834062E+02 -0.30048095685E+02  0.10910029115E+02  0.43400726634E+02  0.00000000000E+00 0. -1.
         11    1    4    4    0    0 -0.10395253972E+01 -0.10233284607E+01  0.85069231572E-03  0.14587032510E+01  0.51100000000E-03 0. -1.
        -11    1    4    4    0    0 -0.28873265531E+02  0.31176720399E+02 -0.78456548693E+01  0.43211198292E+02  0.51100000000E-03 0.  1.
        -12    1    4    4    0    0  0.55795686604E+00 -0.10529625340E+00 -0.30652249375E+01  0.31173718230E+01  0.00000000000E+00 0.  1.
</event>
<event>
 8    1  0.5834107E-011  0.9118800E+02  0.7816164E-02  0.1184000E+00
        -11   -1    0    0    0    0  0.00000000000E+00  0.00000000000E+00  0.45593999997E+02  0.45594000000E+02  0.51100000000E-03 0. -1.
         11   -1    0    0    0    0 -0.00000000000E+00 -0.00000000000E+00 -0.45593999997E+02  0.45594000000E+02  0.51100000000E-03 0.  1.
         23    2    1    2    0    0  0.35527136788E-14 -0.17763568394E-14  0.71054273576E-14  0.91188000000E+02  0.91188000000E+02 0.  0.
    9900012    2    3    3    0    0  0.22906221155E+02 -0.14916712664E+02  0.33710846679E+02  0.47787257286E+02  0.19999937270E+02 0.  0.
        -12    1    3    3    0    0 -0.22906221155E+02  0.14916712664E+02 -0.33710846679E+02  0.43400742714E+02  0.00000000000E+00 0.  1.
         11    1    4    4    0    0  0.18065743555E+02 -0.16503291844E+02  0.24033506279E+02  0.34297801041E+02  0.51100000000E-03 0. -1.
        -11    1    4    4    0    0  0.14898373338E+01 -0.14596232510E+00 -0.12368374667E+01  0.19418258062E+01  0.51100000000E-03 0.  1.
         12    1    4    4    0    0  0.33506402659E+01  0.17325415051E+01  0.10914177866E+02  0.11547630439E+02  0.00000000000E+00 0. -1.
</event>
<event>
 8    1  0.5834107E-011  0.9118800E+02  0.7816164E-02  0.1184000E+00
        -11   -1    0    0    0    0  0.00000000000E+00  0.00000000000E+00  0.45593999997E+02  0.45594000000E+02  0.51100000000E-03 0. -1.
         11   -1    0    0    0    0 -0.00000000000E+00 -0.00000000000E+00 -0.45593999997E+02  0.45594000000E+02  0.51100000000E-03 0.  1.
         23    2    1    2    0    0 -0.44408920985E-15  0.17763568394E-14 -0.71054273576E-14  0.91188000000E+02  0.91188000000E+02 0.  0.
    9900012    2    3    3    0    0  0.10900404708E+01 -0.79235032882E+01  0.42657392952E+02  0.47787271134E+02  0.20000000410E+02 0.  0.
        -12    1    3    3    0    0 -0.10900404708E+01  0.79235032882E+01 -0.42657392952E+02  0.43400728866E+02  0.00000000000E+00 0.  1.
         11    1    4    4    0    0 -0.46289853042E+01 -0.22483255346E+01  0.55667637753E+01  0.75809848864E+01  0.51100000000E-03 0. -1.
        -11    1    4    4    0    0  0.65818799516E+00  0.40741910867E+00  0.28561627912E+02  0.28572115620E+02  0.51100000000E-03 0.  1.
        -12    1    4    4    0    0  0.50608377798E+01 -0.60825968623E+01  0.85290012651E+01  0.11634170628E+02  0.00000000000E+00 0.  1.
</event>
<event>
 8    1  0.5834107E-011  0.9118800E+02  0.7816164E-02  0.1184000E+00
        -11   -1    0    0    0    0  0.00000000000E+00  0.00000000000E+00  0.45593999997E+02  0.45594000000E+02  0.51100000000E-03 0. -1.
         11   -1    0    0    0    0 -0.00000000000E+00 -0.00000000000E+00 -0.45593999997E+02  0.45594000000E+02  0.51100000000E-03 0.  1.
         23    2    1    2    0    0  0.00000000000E+00 -0.35527136788E-14  0.35527136788E-14  0.91188000000E+02  0.91188000000E+02 0.  0.
    9900012    2    3    3    0    0  0.20793673732E+02  0.23447926835E+02  0.30024038141E+02  0.47787251085E+02  0.19999908996E+02 0.  0.
        -12    1    3    3    0    0 -0.20793673732E+02 -0.23447926835E+02 -0.30024038141E+02  0.43400748915E+02  0.00000000000E+00 0.  1.
         11    1    4    4    0    0  0.16610299202E+02  0.17001163521E+02  0.11317716923E+02  0.26325506971E+02  0.51100000000E-03 0. -1.
        -11    1    4    4    0    0  0.42490984861E+01  0.73898832127E+01  0.12176238084E+02  0.14863579178E+02  0.51100000000E-03 0.  1.
        -12    1    4    4    0    0 -0.65723956904E-01 -0.94311989922E+00  0.65300831341E+01  0.65981649358E+01  0.00000000000E+00 0.  1.
</event>
<event>
 8    1  0.5834107E-011  0.9118800E+02  0.7816164E-02  0.1184000E+00
        -11   -1    0    0    0    0  0.00000000000E+00  0.00000000000E+00  0.45593999997E+02  0.45594000000E+02  0.51100000000E-03 0. -1.
         11   -1    0    0    0    0 -0.00000000000E+00 -0.00000000000E+00 -0.45593999997E+02  0.45594000000E+02  0.51100000000E-03 0.  1.
         23    2    1    2    0    0  0.35527136788E-14  0.00000000000E+00  0.00000000000E+00  0.91188000000E+02  0.91188000000E+02 0.  0.
    9900012    2    3    3    0    0  0.30416783314E+02  0.10961594853E+02  0.28953158671E+02  0.47787278048E+02  0.20000031932E+02 0.  0.
        -12    1    3    3    0    0 -0.30416783314E+02 -0.10961594853E+02 -0.28953158671E+02  0.43400721952E+02  0.00000000000E+00 0.  1.
         11    1    4    4    0    0  0.54868597919E+00 -0.13918128679E+01 -0.51027963402E+00  0.15806912820E+01  0.51100000000E-03 0. -1.
        -11    1    4    4    0    0  0.18486303385E+01 -0.23269401082E+01 -0.91811432443E-02  0.29718965241E+01  0.51100000000E-03 0.  1.
         12    1    4    4    0    0  0.28019466996E+02  0.14680347829E+02  0.29472619448E+02  0.43234690242E+02  0.00000000000E+00 0. -1.
</event>
<event>
 8    1  0.5834107E-011  0.9118800E+02  0.7816164E-02  0.1184000E+00
        -11   -1    0    0    0    0  0.00000000000E+00  0.00000000000E+00  0.45593999997E+02  0.45594000000E+02  0.51100000000E-03 0. -1.
         11   -1    0    0    0    0 -0.00000000000E+00 -0.00000000000E+00 -0.45593999997E+02  0.45594000000E+02  0.51100000000E-03 0.  1.
         23    2    1    2    0    0  0.00000000000E+00  0.00000000000E+00  0.17763568394E-14  0.91188000000E+02  0.91188000000E+02 0.  0.
    9900012    2    3    3    0    0 -0.31251901645E+02 -0.28654990873E+02 -0.92646359244E+01  0.47787270315E+02  0.19999996675E+02 0.  0.
         12    1    3    3    0    0  0.31251901645E+02  0.28654990873E+02  0.92646359244E+01  0.43400729685E+02  0.00000000000E+00 0. -1.
         11    1    4    4    0    0 -0.14572622058E+02 -0.37328235030E+01 -0.74120675205E+01  0.16770033696E+02  0.51100000000E-03 0.  1.
        -11    1    4    4    0    0 -0.77164044669E+01 -0.53434531274E+01  0.18992878069E+00  0.93878358754E+01  0.51100000000E-03 0. -1.
        -12    1    4    4    0    0 -0.89628751195E+01 -0.19578714243E+02 -0.20424971846E+01  0.21629400744E+02  0.00000000000E+00 0.  1.
</event>
<event>
 8    1  0.5834107E-011  0.9118800E+02  0.7816164E-02  0.1184000E+00
        -11   -1    0    0    0    0  0.00000000000E+00  0.00000000000E+00  0.45593999997E+02  0.45594000000E+02  0.51100000000E-03 0. -1.
         11   -1    0    0    0    0 -0.00000000000E+00 -0.00000000000E+00 -0.45593999997E+02  0.45594000000E+02  0.51100000000E-03 0.  1.
         23    2    1    2    0    0  0.00000000000E+00  0.00000000000E+00  0.00000000000E+00  0.91188000000E+02  0.91188000000E+02 0.  0.
    9900012    2    3    3    0    0 -0.81600225000E+01  0.29529750615E+02  0.30741359596E+02  0.47787270416E+02  0.19999997135E+02 0.  0.
        -12    1    3    3    0    0  0.81600225000E+01 -0.29529750615E+02 -0.30741359596E+02  0.43400729584E+02  0.00000000000E+00 0.  1.
         11    1    4    4    0    0 -0.49207485511E+01  0.16650895682E+02  0.15755848939E+02  0.23445956354E+02  0.51100000000E-03 0. -1.
        -11    1    4    4    0    0 -0.50436517990E+01  0.50223982266E+01 -0.23096462103E+00  0.71215344086E+01  0.51100000000E-03 0.  1.
        -12    1    4    4    0    0  0.18043778501E+01  0.78564567069E+01  0.15216475279E+02  0.17219779654E+02  0.00000000000E+00 0.  1.
</event>
<event>
 8    1  0.5834107E-011  0.9118800E+02  0.7816164E-02  0.1184000E+00
        -11   -1    0    0    0    0  0.00000000000E+00  0.00000000000E+00  0.45593999997E+02  0.45594000000E+02  0.51100000000E-03 0.  1.
         11   -1    0    0    0    0 -0.00000000000E+00 -0.00000000000E+00 -0.45593999997E+02  0.45594000000E+02  0.51100000000E-03 0. -1.
         23    2    1    2    0    0  0.00000000000E+00  0.44408920985E-15 -0.35527136788E-14  0.91188000000E+02  0.91188000000E+02 0.  0.
    9900012    2    3    3    0    0  0.38203777927E+02 -0.31529726291E+01 -0.20350756155E+02  0.47787272352E+02  0.20000005960E+02 0.  0.
         12    1    3    3    0    0 -0.38203777927E+02  0.31529726291E+01  0.20350756155E+02  0.43400727648E+02  0.00000000000E+00 0. -1.
         11    1    4    4    0    0  0.73895018743E+01  0.69412905242E+00 -0.10336164293E+02  0.12724890791E+02  0.51100000000E-03 0. -1.
        -11    1    4    4    0    0  0.10314749455E+02 -0.37754676739E+01 -0.95537459004E+01  0.14557550394E+02  0.51100000000E-03 0.  1.
         12    1    4    4    0    0  0.20499526598E+02 -0.71634007631E-01 -0.46084596146E+00  0.20504831166E+02  0.00000000000E+00 0. -1.
</event>
<event>
 8    1  0.5834107E-011  0.9118800E+02  0.7816164E-02  0.1184000E+00
        -11   -1    0    0    0    0  0.00000000000E+00  0.00000000000E+00  0.45593999997E+02  0.45594000000E+02  0.51100000000E-03 0. -1.
         11   -1    0    0    0    0 -0.00000000000E+00 -0.00000000000E+00 -0.45593999997E+02  0.45594000000E+02  0.51100000000E-03 0.  1.
         23    2    1    2    0    0  0.00000000000E+00 -0.71054273576E-14 -0.35527136788E-14  0.91188000000E+02  0.91188000000E+02 0.  0.
    9900012    2    3    3    0    0 -0.12864061889E+02 -0.37072572213E+02  0.18540889556E+02  0.47787259404E+02  0.19999946925E+02 0.  0.
        -12    1    3    3    0    0  0.12864061889E+02  0.37072572213E+02 -0.18540889556E+02  0.43400740596E+02  0.00000000000E+00 0.  1.
         11    1    4    4    0    0 -0.26278763010E+01  0.34137658859E+00  0.34236723215E+01  0.43294115368E+01  0.51100000000E-03 0. -1.
        -11    1    4    4    0    0 -0.23855477828E+01 -0.88127784429E+01  0.96767110854E+01  0.13303933245E+02  0.51100000000E-03 0.  1.
         12    1    4    4    0    0 -0.78506378051E+01 -0.28601170359E+02  0.54405061492E+01  0.30153914621E+02  0.00000000000E+00 0. -1.
</event>
<event>
 8    1  0.5834107E-011  0.9118800E+02  0.7816164E-02  0.1184000E+00
        -11   -1    0    0    0    0  0.00000000000E+00  0.00000000000E+00  0.45593999997E+02  0.45594000000E+02  0.51100000000E-03 0. -1.
         11   -1    0    0    0    0 -0.00000000000E+00 -0.00000000000E+00 -0.45593999997E+02  0.45594000000E+02  0.51100000000E-03 0.  1.
         23    2    1    2    0    0  0.00000000000E+00  0.00000000000E+00  0.00000000000E+00  0.91188000000E+02  0.91188000000E+02 0.  0.
    9900012    2    3    3    0    0 -0.55406722865E+01 -0.15529477205E+02 -0.40146725584E+02  0.47787270896E+02  0.19999999322E+02 0.  0.
         12    1    3    3    0    0  0.55406722865E+01  0.15529477205E+02  0.40146725584E+02  0.43400729104E+02  0.00000000000E+00 0. -1.
         11    1    4    4    0    0  0.15887354775E+01  0.77519526810E+00 -0.11809990614E+02  0.11941561317E+02  0.51100000000E-03 0. -1.
        -11    1    4    4    0    0  0.20886288562E+01 -0.28557683236E+00 -0.83984175010E+01  0.86589457447E+01  0.51100000000E-03 0.  1.
        -12    1    4    4    0    0 -0.92180366202E+01 -0.16019095641E+02 -0.19938317469E+02  0.27186763835E+02  0.00000000000E+00 0.  1.
</event>
<event>
 8    1  0.5834107E-011  0.9118800E+02  0.7816164E-02  0.1184000E+00
        -11   -1    0    0    0    0  0.00000000000E+00  0.00000000000E+00  0.45593999997E+02  0.45594000000E+02  0.51100000000E-03 0. -1.
         11   -1    0    0    0    0 -0.00000000000E+00 -0.00000000000E+00 -0.45593999997E+02  0.45594000000E+02  0.51100000000E-03 0.  1.
         23    2    1    2    0    0  0.88817841970E-15 -0.44408920985E-15  0.00000000000E+00  0.91188000000E+02  0.91188000000E+02 0.  0.
    9900012    2    3    3    0    0 -0.66776281245E+01  0.23790939001E+01  0.42817928623E+02  0.47787241749E+02  0.19999866431E+02 0.  0.
        -12    1    3    3    0    0  0.66776281245E+01 -0.23790939001E+01 -0.42817928623E+02  0.43400758251E+02  0.00000000000E+00 0.  1.
         11    1    4    4    0    0  0.36530273731E+01  0.33250053378E+01  0.16476364074E+02  0.17200896571E+02  0.51100000000E-03 0. -1.
        -11    1    4    4    0    0 -0.35487933605E+01 -0.59860022493E+01  0.13931472716E+02  0.15572799669E+02  0.51100000000E-03 0.  1.
         12    1    4    4    0    0 -0.67818621370E+01  0.50400908117E+01  0.12410091833E+02  0.15013545509E+02  0.00000000000E+00 0. -1.
</event>
<event>
 8    1  0.5834107E-011  0.9118800E+02  0.7816164E-02  0.1184000E+00
        -11   -1    0    0    0    0  0.00000000000E+00  0.00000000000E+00  0.45593999997E+02  0.45594000000E+02  0.51100000000E-03 0. -1.
         11   -1    0    0    0    0 -0.00000000000E+00 -0.00000000000E+00 -0.45593999997E+02  0.45594000000E+02  0.51100000000E-03 0.  1.
         23    2    1    2    0    0 -0.13322676296E-14  0.17763568394E-14  0.71054273576E-14  0.91188000000E+02  0.91188000000E+02 0.  0.
    9900012    2    3    3    0    0 -0.19484098870E+01 -0.10094178880E+02 -0.42165561168E+02  0.47787270778E+02  0.19999998787E+02 0.  0.
         12    1    3    3    0    0  0.19484098870E+01  0.10094178880E+02  0.42165561168E+02  0.43400729222E+02  0.00000000000E+00 0. -1.
         11    1    4    4    0    0  0.28145884255E+01 -0.24991145281E+01 -0.25199018136E+01  0.45296122175E+01  0.51100000000E-03 0. -1.
        -11    1    4    4    0    0  0.44394979657E+01 -0.54152810916E+01 -0.10539783435E+02  0.12653910328E+02  0.51100000000E-03 0.  1.
        -12    1    4    4    0    0 -0.92024962783E+01 -0.21797832601E+01 -0.29105875920E+02  0.30603748232E+02  0.00000000000E+00 0.  1.
</event>
<event>
 8    1  0.5834107E-011  0.9118800E+02  0.7816164E-02  0.1184000E+00
        -11   -1    0    0    0    0  0.00000000000E+00  0.00000000000E+00  0.45593999997E+02  0.45594000000E+02  0.51100000000E-03 0. -1.
         11   -1    0    0    0    0 -0.00000000000E+00 -0.00000000000E+00 -0.45593999997E+02  0.45594000000E+02  0.51100000000E-03 0.  1.
         23    2    1    2    0    0  0.00000000000E+00  0.00000000000E+00 -0.71054273576E-14  0.91188000000E+02  0.91188000000E+02 0.  0.
    9900012    2    3    3    0    0 -0.11430074542E+02 -0.31786673093E+01 -0.41747733362E+02  0.47787265320E+02  0.19999973900E+02 0.  0.
         12    1    3    3    0    0  0.11430074542E+02  0.31786673093E+01  0.41747733362E+02  0.43400734680E+02  0.00000000000E+00 0. -1.
         11    1    4    4    0    0 -0.61684944960E+01  0.25757558820E+01 -0.16594165849E+02  0.17889974376E+02  0.51100000000E-03 0. -1.
        -11    1    4    4    0    0 -0.13267308528E+01 -0.13282131245E+01 -0.23732744062E+02  0.23806879381E+02  0.51100000000E-03 0.  1.
        -12    1    4    4    0    0 -0.39348491932E+01 -0.44262100668E+01 -0.14208234509E+01  0.60904115630E+01  0.00000000000E+00 0.  1.
</event>
<event>
 8    1  0.5834107E-011  0.9118800E+02  0.7816164E-02  0.1184000E+00
        -11   -1    0    0    0    0  0.00000000000E+00  0.00000000000E+00  0.45593999997E+02  0.45594000000E+02  0.51100000000E-03 0. -1.
         11   -1    0    0    0    0 -0.00000000000E+00 -0.00000000000E+00 -0.45593999997E+02  0.45594000000E+02  0.51100000000E-03 0.  1.
         23    2    1    2    0    0 -0.35527136788E-14  0.88817841970E-15  0.00000000000E+00  0.91188000000E+02  0.91188000000E+02 0.  0.
    9900012    2    3    3    0    0 -0.29220924856E+02  0.23691512320E+01  0.32002305726E+02  0.47787275365E+02  0.20000019701E+02 0.  0.
        -12    1    3    3    0    0  0.29220924856E+02 -0.23691512320E+01 -0.32002305726E+02  0.43400724635E+02  0.00000000000E+00 0.  1.
         11    1    4    4    0    0 -0.12168811555E+01 -0.17606754387E+01  0.30832701745E+01  0.37533096031E+01  0.51100000000E-03 0. -1.
        -11    1    4    4    0    0 -0.13959390858E+02 -0.18282186569E+01  0.36954898959E+01  0.14555535800E+02  0.51100000000E-03 0.  1.
         12    1    4    4    0    0 -0.14044652842E+02  0.59580453276E+01  0.25223545656E+02  0.29478429962E+02  0.00000000000E+00 0. -1.
</event>
<event>
 8    1  0.5834107E-011  0.9118800E+02  0.7816164E-02  0.1184000E+00
        -11   -1    0    0    0    0  0.00000000000E+00  0.00000000000E+00  0.45593999997E+02  0.45594000000E+02  0.51100000000E-03 0.  1.
         11   -1    0    0    0    0 -0.00000000000E+00 -0.00000000000E+00 -0.45593999997E+02  0.45594000000E+02  0.51100000000E-03 0. -1.
         23    2    1    2    0    0  0.00000000000E+00 -0.17763568394E-14  0.17763568394E-14  0.91188000000E+02  0.91188000000E+02 0.  0.
    9900012    2    3    3    0    0 -0.38835489319E+02 -0.14310026125E+02  0.13063362671E+02  0.47787268179E+02  0.19999986935E+02 0.  0.
        -12    1    3    3    0    0  0.38835489319E+02  0.14310026125E+02 -0.13063362671E+02  0.43400731821E+02  0.00000000000E+00 0.  1.
         11    1    4    4    0    0 -0.15880505897E+02 -0.82117684696E+01  0.33293959868E+01  0.18185392128E+02  0.51100000000E-03 0. -1.
        -11    1    4    4    0    0 -0.17997948711E+02  0.18395920136E+01  0.90215393742E+01  0.20216291191E+02  0.51100000000E-03 0.  1.
        -12    1    4    4    0    0 -0.49570347106E+01 -0.79378496692E+01  0.71242730958E+00  0.93855848600E+01  0.00000000000E+00 0.  1.
</event>
<event>
 8    1  0.5834107E-011  0.9118800E+02  0.7816164E-02  0.1184000E+00
        -11   -1    0    0    0    0  0.00000000000E+00  0.00000000000E+00  0.45593999997E+02  0.45594000000E+02  0.51100000000E-03 0. -1.
         11   -1    0    0    0    0 -0.00000000000E+00 -0.00000000000E+00 -0.45593999997E+02  0.45594000000E+02  0.51100000000E-03 0.  1.
         23    2    1    2    0    0 -0.17763568394E-14  0.71054273576E-14 -0.71054273576E-14  0.91188000000E+02  0.91188000000E+02 0.  0.
    9900012    2    3    3    0    0  0.14339998628E+02 -0.34215389955E+02  0.22523220795E+02  0.47787263308E+02  0.19999964725E+02 0.  0.
        -12    1    3    3    0    0 -0.14339998628E+02  0.34215389955E+02 -0.22523220795E+02  0.43400736692E+02  0.00000000000E+00 0.  1.
         11    1    4    4    0    0  0.57858765881E+01 -0.95044693630E+01  0.76459624704E+01  0.13500816572E+02  0.51100000000E-03 0. -1.
        -11    1    4    4    0    0  0.10438244884E+01 -0.96808141203E+01 -0.25636954228E+01  0.10068776791E+02  0.51100000000E-03 0.  1.
        -12    1    4    4    0    0  0.75102975514E+01 -0.15030106472E+02  0.17440953748E+02  0.24217669944E+02  0.00000000000E+00 0.  1.
</event>
<event>
 8    1  0.5834107E-011  0.9118800E+02  0.7816164E-02  0.1184000E+00
        -11   -1    0    0    0    0  0.00000000000E+00  0.00000000000E+00  0.45593999997E+02  0.45594000000E+02  0.51100000000E-03 0. -1.
         11   -1    0    0    0    0 -0.00000000000E+00 -0.00000000000E+00 -0.45593999997E+02  0.45594000000E+02  0.51100000000E-03 0.  1.
         23    2    1    2    0    0  0.77715611724E-15  0.00000000000E+00  0.00000000000E+00  0.91188000000E+02  0.91188000000E+02 0.  0.
    9900012    2    3    3    0    0  0.88199019474E+00  0.99779356044E+01 -0.42228970891E+02  0.47787273185E+02  0.20000009758E+02 0.  0.
         12    1    3    3    0    0 -0.88199019474E+00 -0.99779356044E+01  0.42228970891E+02  0.43400726815E+02  0.00000000000E+00 0. -1.
         11    1    4    4    0    0  0.72699499425E+01  0.30524108550E+01 -0.15895076647E+02  0.17743247900E+02  0.51100000000E-03 0. -1.
        -11    1    4    4    0    0 -0.28257050858E+01 -0.19711283383E+01 -0.14038199790E+02  0.14454791931E+02  0.51100000000E-03 0.  1.
         12    1    4    4    0    0 -0.35622546620E+01  0.88966530877E+01 -0.12295694454E+02  0.15589233353E+02  0.00000000000E+00 0. -1.
</event>
<event>
 8    1  0.5834107E-011  0.9118800E+02  0.7816164E-02  0.1184000E+00
        -11   -1    0    0    0    0  0.00000000000E+00  0.00000000000E+00  0.45593999997E+02  0.45594000000E+02  0.51100000000E-03 0.  1.
         11   -1    0    0    0    0 -0.00000000000E+00 -0.00000000000E+00 -0.45593999997E+02  0.45594000000E+02  0.51100000000E-03 0. -1.
         23    2    1    2    0    0  0.00000000000E+00  0.00000000000E+00  0.00000000000E+00  0.91188000000E+02  0.91188000000E+02 0.  0.
    9900012    2    3    3    0    0 -0.35589225936E+02  0.20381252148E+02 -0.14199831530E+02  0.47787266627E+02  0.19999979859E+02 0.  0.
         12    1    3    3    0    0  0.35589225936E+02 -0.20381252148E+02  0.14199831530E+02  0.43400733373E+02  0.00000000000E+00 0. -1.
         11    1    4    4    0    0 -0.16696011899E+02  0.41303932874E+01 -0.32094455419E+01  0.17496213961E+02  0.51100000000E-03 0. -1.
        -11    1    4    4    0    0 -0.10498583304E+02  0.86764683168E+00 -0.25442913500E+01  0.10837272773E+02  0.51100000000E-03 0.  1.
         12    1    4    4    0    0 -0.83946307326E+01  0.15383212029E+02 -0.84460946384E+01  0.19453779893E+02  0.00000000000E+00 0. -1.
</event>
<event>
 8    1  0.5834107E-011  0.9118800E+02  0.7816164E-02  0.1184000E+00
        -11   -1    0    0    0    0  0.00000000000E+00  0.00000000000E+00  0.45593999997E+02  0.45594000000E+02  0.51100000000E-03 0. -1.
         11   -1    0    0    0    0 -0.00000000000E+00 -0.00000000000E+00 -0.45593999997E+02  0.45594000000E+02  0.51100000000E-03 0.  1.
         23    2    1    2    0    0  0.00000000000E+00  0.00000000000E+00  0.17763568394E-14  0.91188000000E+02  0.91188000000E+02 0.  0.
    9900012    2    3    3    0    0 -0.41741135025E+02 -0.47233291564E+01 -0.10908273177E+02  0.47787278633E+02  0.20000034599E+02 0.  0.
         12    1    3    3    0    0  0.41741135025E+02  0.47233291564E+01  0.10908273177E+02  0.43400721367E+02  0.00000000000E+00 0. -1.
         11    1    4    4    0    0 -0.63712529946E+00  0.10596418877E+01  0.96922933411E+00  0.15710427558E+01  0.51100000000E-03 0. -1.
        -11    1    4    4    0    0 -0.31723155087E+01  0.35860809958E+01 -0.42606023044E+01  0.64090790955E+01  0.51100000000E-03 0.  1.
        -12    1    4    4    0    0 -0.37931694217E+02 -0.93690520399E+01 -0.76169002066E+01  0.39807156782E+02  0.00000000000E+00 0.  1.
</event>
<event>
 8    1  0.5834107E-011  0.9118800E+02  0.7816164E-02  0.1184000E+00
        -11   -1    0    0    0    0  0.00000000000E+00  0.00000000000E+00  0.45593999997E+02  0.45594000000E+02  0.51100000000E-03 0. -1.
         11   -1    0    0    0    0 -0.00000000000E+00 -0.00000000000E+00 -0.45593999997E+02  0.45594000000E+02  0.51100000000E-03 0.  1.
         23    2    1    2    0    0  0.00000000000E+00  0.35527136788E-14  0.00000000000E+00  0.91188000000E+02  0.91188000000E+02 0.  0.
    9900012    2    3    3    0    0 -0.45994843126E+01  0.20767056630E+02 -0.37831173349E+02  0.47787267587E+02  0.19999984236E+02 0.  0.
         12    1    3    3    0    0  0.45994843126E+01 -0.20767056630E+02  0.37831173349E+02  0.43400732413E+02  0.00000000000E+00 0. -1.
         11    1    4    4    0    0 -0.66810531945E+01  0.18787154050E+02 -0.23305784234E+02  0.30671700444E+02  0.51100000000E-03 0. -1.
        -11    1    4    4    0    0 -0.37021257401E+00  0.26508144811E+01 -0.14317089655E+02  0.14565127230E+02  0.51100000000E-03 0.  1.
         12    1    4    4    0    0  0.24517814559E+01 -0.67091190104E+00 -0.20829945987E+00  0.25504399133E+01  0.00000000000E+00 0. -1.
</event>
<event>
 8    1  0.5834107E-011  0.9118800E+02  0.7816164E-02  0.1184000E+00
        -11   -1    0    0    0    0  0.00000000000E+00  0.00000000000E+00  0.45593999997E+02  0.45594000000E+02  0.51100000000E-03 0. -1.
         11   -1    0    0    0    0 -0.00000000000E+00 -0.00000000000E+00 -0.45593999997E+02  0.45594000000E+02  0.51100000000E-03 0.  1.
         23    2    1    2    0    0  0.00000000000E+00  0.00000000000E+00 -0.71054273576E-14  0.91188000000E+02  0.91188000000E+02 0.  0.
    9900012    2    3    3    0    0 -0.15394054754E+01  0.59316584600E+01 -0.42965905696E+02  0.47787269665E+02  0.19999993712E+02 0.  0.
         12    1    3    3    0    0  0.15394054754E+01 -0.59316584600E+01  0.42965905696E+02  0.43400730335E+02  0.00000000000E+00 0. -1.
         11    1    4    4    0    0 -0.37845081317E+01  0.56710322200E+01 -0.94262802066E+01  0.11633480435E+02  0.51100000000E-03 0. -1.
        -11    1    4    4    0    0  0.63400554898E+01  0.43448312393E+01 -0.17970513618E+02  0.19545158533E+02  0.51100000000E-03 0.  1.
        -12    1    4    4    0    0 -0.40949528336E+01 -0.40842049994E+01 -0.15569111871E+02  0.16608630697E+02  0.00000000000E+00 0.  1.
</event>
<event>
 8    1  0.5834107E-011  0.9118800E+02  0.7816164E-02  0.1184000E+00
        -11   -1    0    0    0    0  0.00000000000E+00  0.00000000000E+00  0.45593999997E+02  0.45594000000E+02  0.51100000000E-03 0. -1.
         11   -1    0    0    0    0 -0.00000000000E+00 -0.00000000000E+00 -0.45593999997E+02  0.45594000000E+02  0.51100000000E-03 0.  1.
         23    2    1    2    0    0  0.00000000000E+00  0.00000000000E+00  0.00000000000E+00  0.91188000000E+02  0.91188000000E+02 0.  0.
    9900012    2    3    3    0    0  0.26068635457E+02  0.12455675001E+02  0.32386804802E+02  0.47787277430E+02  0.20000029115E+02 0.  0.
        -12    1    3    3    0    0 -0.26068635457E+02 -0.12455675001E+02 -0.32386804802E+02  0.43400722570E+02  0.00000000000E+00 0.  1.
         11    1    4    4    0    0  0.18489883048E+02  0.43387776262E+01  0.19797352407E+02  0.27434210924E+02  0.51100000000E-03 0. -1.
        -11    1    4    4    0    0  0.10609921556E+01 -0.18043551851E+01 -0.99094208258E+00  0.23158947429E+01  0.51100000000E-03 0.  1.
        -12    1    4    4    0    0  0.65177602537E+01  0.99212525600E+01  0.13580394477E+02  0.18037171764E+02  0.00000000000E+00 0.  1.
</event>
<event>
 8    1  0.5834107E-011  0.9118800E+02  0.7816164E-02  0.1184000E+00
        -11   -1    0    0    0    0  0.00000000000E+00  0.00000000000E+00  0.45593999997E+02  0.45594000000E+02  0.51100000000E-03 0.  1.
         11   -1    0    0    0    0 -0.00000000000E+00 -0.00000000000E+00 -0.45593999997E+02  0.45594000000E+02  0.51100000000E-03 0. -1.
         23    2    1    2    0    0 -0.35527136788E-14  0.00000000000E+00 -0.17763568394E-14  0.91188000000E+02  0.91188000000E+02 0.  0.
    9900012    2    3    3    0    0 -0.16980502639E+02 -0.37115602431E+02 -0.14755249193E+02  0.47787276591E+02  0.20000025289E+02 0.  0.
         12    1    3    3    0    0  0.16980502639E+02  0.37115602431E+02  0.14755249193E+02  0.43400723409E+02  0.00000000000E+00 0. -1.
         11    1    4    4    0    0 -0.65775423337E+01 -0.24995455795E+02 -0.10831616408E+02  0.28024289247E+02  0.51100000000E-03 0. -1.
        -11    1    4    4    0    0 -0.26283125169E+00 -0.35986431415E+01  0.31121652451E+01  0.47649643756E+01  0.51100000000E-03 0.  1.
        -12    1    4    4    0    0 -0.10140129053E+02 -0.85215034946E+01 -0.70357980300E+01  0.14998022968E+02  0.00000000000E+00 0.  1.
</event>
<event>
 8    1  0.5834107E-011  0.9118800E+02  0.7816164E-02  0.1184000E+00
        -11   -1    0    0    0    0  0.00000000000E+00  0.00000000000E+00  0.45593999997E+02  0.45594000000E+02  0.51100000000E-03 0. -1.
         11   -1    0    0    0    0 -0.00000000000E+00 -0.00000000000E+00 -0.45593999997E+02  0.45594000000E+02  0.51100000000E-03 0.  1.
         23    2    1    2    0    0  0.00000000000E+00  0.00000000000E+00 -0.35527136788E-14  0.91188000000E+02  0.91188000000E+02 0.  0.
    9900012    2    3    3    0    0 -0.68790972564E+01  0.35273673389E+02 -0.24332473699E+02  0.47787270862E+02  0.19999999167E+02 0.  0.
         12    1    3    3    0    0  0.68790972564E+01 -0.35273673389E+02  0.24332473699E+02  0.43400729138E+02  0.00000000000E+00 0. -1.
         11    1    4    4    0    0  0.18351040108E+01  0.34709803157E+00 -0.73701082055E+00  0.20078020283E+01  0.51100000000E-03 0. -1.
        -11    1    4    4    0    0 -0.11744252738E+02  0.20970524084E+02 -0.99051069794E+01  0.25996182359E+02  0.51100000000E-03 0.  1.
        -12    1    4    4    0    0  0.30300514710E+01  0.13956051274E+02 -0.13690355899E+02  0.19783286474E+02  0.00000000000E+00 0.  1.
</event>
<event>
 8    1  0.5834107E-011  0.9118800E+02  0.7816164E-02  0.1184000E+00
        -11   -1    0    0    0    0  0.00000000000E+00  0.00000000000E+00  0.45593999997E+02  0.45594000000E+02  0.51100000000E-03 0. -1.
         11   -1    0    0    0    0 -0.00000000000E+00 -0.00000000000E+00 -0.45593999997E+02  0.45594000000E+02  0.51100000000E-03 0.  1.
         23    2    1    2    0    0 -0.35527136788E-14  0.00000000000E+00  0.00000000000E+00  0.91188000000E+02  0.91188000000E+02 0.  0.
    9900012    2    3    3    0    0  0.21904720505E+02 -0.16314993392E+02  0.33728735214E+02  0.47787269950E+02  0.19999995011E+02 0.  0.
        -12    1    3    3    0    0 -0.21904720505E+02  0.16314993392E+02 -0.33728735214E+02  0.43400730050E+02  0.00000000000E+00 0.  1.
         11    1    4    4    0    0  0.34287218707E+01  0.16566046905E+01  0.51765294573E+01  0.64262687659E+01  0.51100000000E-03 0. -1.
        -11    1    4    4    0    0  0.26353102278E+01 -0.94439717781E+01  0.32786545234E+01  0.10338425349E+02  0.51100000000E-03 0.  1.
        -12    1    4    4    0    0  0.15840688406E+02 -0.85276263041E+01  0.25273551233E+02  0.31022575836E+02  0.00000000000E+00 0.  1.
</event>
<event>
 8    1  0.5834107E-011  0.9118800E+02  0.7816164E-02  0.1184000E+00
        -11   -1    0    0    0    0  0.00000000000E+00  0.00000000000E+00  0.45593999997E+02  0.45594000000E+02  0.51100000000E-03 0. -1.
         11   -1    0    0    0    0 -0.00000000000E+00 -0.00000000000E+00 -0.45593999997E+02  0.45594000000E+02  0.51100000000E-03 0.  1.
         23    2    1    2    0    0  0.35527136788E-14  0.00000000000E+00  0.00000000000E+00  0.91188000000E+02  0.91188000000E+02 0.  0.
    9900012    2    3    3    0    0 -0.21342374861E+02 -0.12570259284E+02 -0.35638671540E+02  0.47787270832E+02  0.19999999031E+02 0.  0.
         12    1    3    3    0    0  0.21342374861E+02  0.12570259284E+02  0.35638671540E+02  0.43400729168E+02  0.00000000000E+00 0. -1.
         11    1    4    4    0    0  0.74424234986E+00  0.64617766471E+00  0.59915447512E+00  0.11534420644E+01  0.51100000000E-03 0. -1.
        -11    1    4    4    0    0 -0.54486734876E+01  0.29060088832E+01 -0.71682011047E+01  0.94612915473E+01  0.51100000000E-03 0.  1.
        -12    1    4    4    0    0 -0.16637943723E+02 -0.16122445832E+02 -0.29069624910E+02  0.37172537220E+02  0.00000000000E+00 0.  1.
</event>
<event>
 8    1  0.5834107E-011  0.9118800E+02  0.7816164E-02  0.1184000E+00
        -11   -1    0    0    0    0  0.00000000000E+00  0.00000000000E+00  0.45593999997E+02  0.45594000000E+02  0.51100000000E-03 0. -1.
         11   -1    0    0    0    0 -0.00000000000E+00 -0.00000000000E+00 -0.45593999997E+02  0.45594000000E+02  0.51100000000E-03 0.  1.
         23    2    1    2    0    0  0.00000000000E+00  0.35527136788E-14 -0.71054273576E-14  0.91188000000E+02  0.91188000000E+02 0.  0.
    9900012    2    3    3    0    0 -0.87409266018E+01  0.22757030867E+02 -0.35907371891E+02  0.47787244156E+02  0.19999877403E+02 0.  0.
         12    1    3    3    0    0  0.87409266018E+01 -0.22757030867E+02  0.35907371891E+02  0.43400755844E+02  0.00000000000E+00 0. -1.
         11    1    4    4    0    0 -0.27879886840E+00  0.37756035823E+01 -0.31139267401E+01  0.49019844169E+01  0.51100000000E-03 0. -1.
        -11    1    4    4    0    0 -0.65971777903E+01  0.18883645002E+02 -0.15020834221E+02  0.25014800905E+02  0.51100000000E-03 0.  1.
         12    1    4    4    0    0 -0.18649499431E+01  0.97782282380E-01 -0.17772610930E+02  0.17870458834E+02  0.00000000000E+00 0. -1.
</event>
<event>
 8    1  0.5834107E-011  0.9118800E+02  0.7816164E-02  0.1184000E+00
        -11   -1    0    0    0    0  0.00000000000E+00  0.00000000000E+00  0.45593999997E+02  0.45594000000E+02  0.51100000000E-03 0. -1.
         11   -1    0    0    0    0 -0.00000000000E+00 -0.00000000000E+00 -0.45593999997E+02  0.45594000000E+02  0.51100000000E-03 0.  1.
         23    2    1    2    0    0  0.00000000000E+00  0.00000000000E+00  0.00000000000E+00  0.91188000000E+02  0.91188000000E+02 0.  0.
    9900012    2    3    3    0    0 -0.82352766514E+01  0.22234076677E+02  0.36351742039E+02  0.47787273088E+02  0.20000009318E+02 0.  0.
        -12    1    3    3    0    0  0.82352766514E+01 -0.22234076677E+02 -0.36351742039E+02  0.43400726912E+02  0.00000000000E+00 0.  1.
         11    1    4    4    0    0 -0.23833515956E+01  0.16870520112E+02  0.25824510532E+02  0.30938651525E+02  0.51100000000E-03 0. -1.
        -11    1    4    4    0    0  0.23731913649E+01  0.33985498276E+01  0.13271576036E+01  0.43524160820E+01  0.51100000000E-03 0.  1.
        -12    1    4    4    0    0 -0.82251164207E+01  0.19650067375E+01  0.92000739030E+01  0.12496205481E+02  0.00000000000E+00 0.  1.
</event>
<event>
 8    1  0.5834107E-011  0.9118800E+02  0.7816164E-02  0.1184000E+00
        -11   -1    0    0    0    0  0.00000000000E+00  0.00000000000E+00  0.45593999997E+02  0.45594000000E+02  0.51100000000E-03 0.  1.
         11   -1    0    0    0    0 -0.00000000000E+00 -0.00000000000E+00 -0.45593999997E+02  0.45594000000E+02  0.51100000000E-03 0. -1.
         23    2    1    2    0    0  0.00000000000E+00  0.00000000000E+00  0.00000000000E+00  0.91188000000E+02  0.91188000000E+02 0.  0.
    9900012    2    3    3    0    0 -0.36836864853E+02  0.14635367229E+02  0.17676953814E+02  0.47787270948E+02  0.19999999561E+02 0.  0.
        -12    1    3    3    0    0  0.36836864853E+02 -0.14635367229E+02 -0.17676953814E+02  0.43400729052E+02  0.00000000000E+00 0.  1.
         11    1    4    4    0    0 -0.19205203614E+02  0.50457567639E+01  0.15035587839E+02  0.24907195930E+02  0.51100000000E-03 0. -1.
        -11    1    4    4    0    0 -0.62647131011E+01 -0.16788291519E+01 -0.71852071598E+00  0.65254402028E+01  0.51100000000E-03 0.  1.
        -12    1    4    4    0    0 -0.11366948138E+02  0.11268439617E+02  0.33598866909E+01  0.16354634815E+02  0.00000000000E+00 0.  1.
</event>
<event>
 8    1  0.5834107E-011  0.9118800E+02  0.7816164E-02  0.1184000E+00
        -11   -1    0    0    0    0  0.00000000000E+00  0.00000000000E+00  0.45593999997E+02  0.45594000000E+02  0.51100000000E-03 0. -1.
         11   -1    0    0    0    0 -0.00000000000E+00 -0.00000000000E+00 -0.45593999997E+02  0.45594000000E+02  0.51100000000E-03 0.  1.
         23    2    1    2    0    0  0.00000000000E+00 -0.44408920985E-15 -0.71054273576E-14  0.91188000000E+02  0.91188000000E+02 0.  0.
    9900012    2    3    3    0    0 -0.13816817763E+02  0.23878098965E+01  0.41073293120E+02  0.47787291516E+02  0.20000093338E+02 0.  0.
        -12    1    3    3    0    0  0.13816817763E+02 -0.23878098965E+01 -0.41073293120E+02  0.43400708484E+02  0.00000000000E+00 0.  1.
         11    1    4    4    0    0 -0.42841590869E-01  0.18327461537E+00  0.14582264305E+02  0.14583478923E+02  0.51100000000E-03 0. -1.
        -11    1    4    4    0    0 -0.18488518083E+01  0.47425266446E+01  0.17021025493E+02  0.17765841412E+02  0.51100000000E-03 0.  1.
         12    1    4    4    0    0 -0.11925124364E+02 -0.25379913635E+01  0.94700033218E+01  0.15437971181E+02  0.00000000000E+00 0. -1.
</event>
<event>
 8    1  0.5834107E-011  0.9118800E+02  0.7816164E-02  0.1184000E+00
        -11   -1    0    0    0    0  0.00000000000E+00  0.00000000000E+00  0.45593999997E+02  0.45594000000E+02  0.51100000000E-03 0. -1.
         11   -1    0    0    0    0 -0.00000000000E+00 -0.00000000000E+00 -0.45593999997E+02  0.45594000000E+02  0.51100000000E-03 0.  1.
         23    2    1    2    0    0  0.00000000000E+00  0.00000000000E+00  0.00000000000E+00  0.91188000000E+02  0.91188000000E+02 0.  0.
    9900012    2    3    3    0    0 -0.23591269655E+02 -0.70041009896E+01 -0.35749379576E+02  0.47787267578E+02  0.19999984197E+02 0.  0.
         12    1    3    3    0    0  0.23591269655E+02  0.70041009896E+01  0.35749379576E+02  0.43400732422E+02  0.00000000000E+00 0. -1.
         11    1    4    4    0    0 -0.85225518309E+01 -0.47301210152E+01 -0.10348016359E+02  0.14215814340E+02  0.51100000000E-03 0. -1.
        -11    1    4    4    0    0  0.54392780799E+00  0.26882744221E+00 -0.14142273963E+02  0.14155283069E+02  0.51100000000E-03 0.  1.
        -12    1    4    4    0    0 -0.15612645633E+02 -0.25428074166E+01 -0.11259089255E+02  0.19416170169E+02  0.00000000000E+00 0.  1.
</event>
<event>
 8    1  0.5834107E-011  0.9118800E+02  0.7816164E-02  0.1184000E+00
        -11   -1    0    0    0    0  0.00000000000E+00  0.00000000000E+00  0.45593999997E+02  0.45594000000E+02  0.51100000000E-03 0. -1.
         11   -1    0    0    0    0 -0.00000000000E+00 -0.00000000000E+00 -0.45593999997E+02  0.45594000000E+02  0.51100000000E-03 0.  1.
         23    2    1    2    0    0  0.00000000000E+00  0.00000000000E+00  0.00000000000E+00  0.91188000000E+02  0.91188000000E+02 0.  0.
    9900012    2    3    3    0    0  0.36391766259E+01 -0.39765609871E+02 -0.17002234113E+02  0.47787270746E+02  0.19999998639E+02 0.  0.
         12    1    3    3    0    0 -0.36391766259E+01  0.39765609871E+02  0.17002234113E+02  0.43400729254E+02  0.00000000000E+00 0. -1.
         11    1    4    4    0    0 -0.25780247771E+01 -0.10446196866E+02 -0.30940279398E+01  0.11195635304E+02  0.51100000000E-03 0. -1.
        -11    1    4    4    0    0  0.54212369328E+01 -0.10951148347E+01 -0.13727313101E+01  0.56985505082E+01  0.51100000000E-03 0.  1.
        -12    1    4    4    0    0  0.79596447014E+00 -0.28224298171E+02 -0.12535474863E+02  0.30893084933E+02  0.00000000000E+00 0.  1.
</event>
<event>
 8    1  0.5834107E-011  0.9118800E+02  0.7816164E-02  0.1184000E+00
        -11   -1    0    0    0    0  0.00000000000E+00  0.00000000000E+00  0.45593999997E+02  0.45594000000E+02  0.51100000000E-03 0. -1.
         11   -1    0    0    0    0 -0.00000000000E+00 -0.00000000000E+00 -0.45593999997E+02  0.45594000000E+02  0.51100000000E-03 0.  1.
         23    2    1    2    0    0  0.35527136788E-14  0.00000000000E+00  0.00000000000E+00  0.91188000000E+02  0.91188000000E+02 0.  0.
    9900012    2    3    3    0    0  0.17954039282E+02 -0.86986019418E+01 -0.38543613955E+02  0.47787269833E+02  0.19999994478E+02 0.  0.
         12    1    3    3    0    0 -0.17954039282E+02  0.86986019418E+01  0.38543613955E+02  0.43400730167E+02  0.00000000000E+00 0. -1.
         11    1    4    4    0    0  0.22417747979E+01  0.37336757317E+01 -0.53783111952E+01  0.69204133032E+01  0.51100000000E-03 0. -1.
        -11    1    4    4    0    0  0.16301856647E+01 -0.60121401245E+01 -0.18595871700E+02  0.19611470591E+02  0.51100000000E-03 0.  1.
        -12    1    4    4    0    0  0.14082078820E+02 -0.64201375491E+01 -0.14569431059E+02  0.21255385939E+02  0.00000000000E+00 0.  1.
</event>
<event>
 8    1  0.5834107E-011  0.9118800E+02  0.7816164E-02  0.1184000E+00
        -11   -1    0    0    0    0  0.00000000000E+00  0.00000000000E+00  0.45593999997E+02  0.45594000000E+02  0.51100000000E-03 0. -1.
         11   -1    0    0    0    0 -0.00000000000E+00 -0.00000000000E+00 -0.45593999997E+02  0.45594000000E+02  0.51100000000E-03 0.  1.
         23    2    1    2    0    0  0.35527136788E-14  0.00000000000E+00  0.00000000000E+00  0.91188000000E+02  0.91188000000E+02 0.  0.
    9900012    2    3    3    0    0 -0.26334009752E+02  0.38502369558E+01 -0.34282926695E+02  0.47787268935E+02  0.19999990380E+02 0.  0.
         12    1    3    3    0    0  0.26334009752E+02 -0.38502369558E+01  0.34282926695E+02  0.43400731065E+02  0.00000000000E+00 0. -1.
         11    1    4    4    0    0  0.82073383356E+00  0.14093668840E+01 -0.76231913862E+00  0.18002915790E+01  0.51100000000E-03 0. -1.
        -11    1    4    4    0    0 -0.56218280053E+00 -0.40603166113E+01 -0.47230945661E+01  0.62537862952E+01  0.51100000000E-03 0.  1.
        -12    1    4    4    0    0 -0.26592560785E+02  0.65011866831E+01 -0.28797512991E+02  0.39733191060E+02  0.00000000000E+00 0.  1.
</event>
<event>
 8    1  0.5834107E-011  0.9118800E+02  0.7816164E-02  0.1184000E+00
        -11   -1    0    0    0    0  0.00000000000E+00  0.00000000000E+00  0.45593999997E+02  0.45594000000E+02  0.51100000000E-03 0. -1.
         11   -1    0    0    0    0 -0.00000000000E+00 -0.00000000000E+00 -0.45593999997E+02  0.45594000000E+02  0.51100000000E-03 0.  1.
         23    2    1    2    0    0  0.00000000000E+00  0.35527136788E-14 -0.35527136788E-14  0.91188000000E+02  0.91188000000E+02 0.  0.
    9900012    2    3    3    0    0  0.15527831926E+02 -0.31851412268E+02  0.25059873598E+02  0.47787270830E+02  0.19999999022E+02 0.  0.
        -12    1    3    3    0    0 -0.15527831926E+02  0.31851412268E+02 -0.25059873598E+02  0.43400729170E+02  0.00000000000E+00 0.  1.
         11    1    4    4    0    0  0.99986120408E+01 -0.19288919877E+02  0.56063624537E+01  0.22438047441E+02  0.51100000000E-03 0. -1.
        -11    1    4    4    0    0 -0.54088139435E-01 -0.94928436828E+01  0.88485841931E+01  0.12977459274E+02  0.51100000000E-03 0.  1.
        -12    1    4    4    0    0  0.55833080244E+01 -0.30696487082E+01  0.10604926951E+02  0.12371764115E+02  0.00000000000E+00 0.  1.
</event>
<event>
 8    1  0.5834107E-011  0.9118800E+02  0.7816164E-02  0.1184000E+00
        -11   -1    0    0    0    0  0.00000000000E+00  0.00000000000E+00  0.45593999997E+02  0.45594000000E+02  0.51100000000E-03 0. -1.
         11   -1    0    0    0    0 -0.00000000000E+00 -0.00000000000E+00 -0.45593999997E+02  0.45594000000E+02  0.51100000000E-03 0.  1.
         23    2    1    2    0    0  0.00000000000E+00  0.00000000000E+00 -0.71054273576E-14  0.91188000000E+02  0.91188000000E+02 0.  0.
    9900012    2    3    3    0    0 -0.13641173767E+02 -0.17826188676E+02 -0.37145239513E+02  0.47787269097E+02  0.19999991120E+02 0.  0.
         12    1    3    3    0    0  0.13641173767E+02  0.17826188676E+02  0.37145239513E+02  0.43400730903E+02  0.00000000000E+00 0. -1.
         11    1    4    4    0    0 -0.98108830955E+01 -0.15480274572E+02 -0.24305631157E+02  0.30441025510E+02  0.51100000000E-03 0. -1.
        -11    1    4    4    0    0  0.51683890391E+00 -0.34166249106E+01  0.29646494734E+00  0.34681897236E+01  0.51100000000E-03 0.  1.
        -12    1    4    4    0    0 -0.43471295756E+01  0.10707108066E+01 -0.13136073304E+02  0.13878053863E+02  0.00000000000E+00 0.  1.
</event>
<event>
 8    1  0.5834107E-011  0.9118800E+02  0.7816164E-02  0.1184000E+00
        -11   -1    0    0    0    0  0.00000000000E+00  0.00000000000E+00  0.45593999997E+02  0.45594000000E+02  0.51100000000E-03 0. -1.
         11   -1    0    0    0    0 -0.00000000000E+00 -0.00000000000E+00 -0.45593999997E+02  0.45594000000E+02  0.51100000000E-03 0.  1.
         23    2    1    2    0    0  0.17763568394E-14  0.00000000000E+00  0.00000000000E+00  0.91188000000E+02  0.91188000000E+02 0.  0.
    9900012    2    3    3    0    0 -0.11027939752E+02  0.12218315299E+02 -0.40158690628E+02  0.47787272853E+02  0.20000008247E+02 0.  0.
         12    1    3    3    0    0  0.11027939752E+02 -0.12218315299E+02  0.40158690628E+02  0.43400727147E+02  0.00000000000E+00 0. -1.
         11    1    4    4    0    0 -0.11375081770E+02  0.32098483992E+01 -0.10308555466E+02  0.15683173406E+02  0.51100000000E-03 0. -1.
        -11    1    4    4    0    0  0.19847594845E+01  0.53606294862E+01 -0.76665865916E+01  0.95630627378E+01  0.51100000000E-03 0.  1.
        -12    1    4    4    0    0 -0.16376174664E+01  0.36478374133E+01 -0.22183548570E+02  0.22541036709E+02  0.00000000000E+00 0.  1.
</event>
<event>
 8    1  0.5834107E-011  0.9118800E+02  0.7816164E-02  0.1184000E+00
        -11   -1    0    0    0    0  0.00000000000E+00  0.00000000000E+00  0.45593999997E+02  0.45594000000E+02  0.51100000000E-03 0. -1.
         11   -1    0    0    0    0 -0.00000000000E+00 -0.00000000000E+00 -0.45593999997E+02  0.45594000000E+02  0.51100000000E-03 0.  1.
         23    2    1    2    0    0  0.00000000000E+00  0.00000000000E+00  0.00000000000E+00  0.91188000000E+02  0.91188000000E+02 0.  0.
    9900012    2    3    3    0    0  0.99609689498E+01 -0.40913145069E+02  0.10512710775E+02  0.47787269249E+02  0.19999991815E+02 0.  0.
        -12    1    3    3    0    0 -0.99609689498E+01  0.40913145069E+02 -0.10512710775E+02  0.43400730751E+02  0.00000000000E+00 0.  1.
         11    1    4    4    0    0  0.58726095520E+00 -0.12435882675E+01  0.47544542277E+01  0.49493658657E+01  0.51100000000E-03 0.  1.
        -11    1    4    4    0    0 -0.26341706378E+01 -0.10401409964E+02  0.26340966613E+01  0.11048377694E+02  0.51100000000E-03 0. -1.
         12    1    4    4    0    0  0.12007878632E+02 -0.29268146838E+02  0.31241598861E+01  0.31789525690E+02  0.00000000000E+00 0. -1.
</event>
<event>
 8    1  0.5834107E-011  0.9118800E+02  0.7816164E-02  0.1184000E+00
        -11   -1    0    0    0    0  0.00000000000E+00  0.00000000000E+00  0.45593999997E+02  0.45594000000E+02  0.51100000000E-03 0. -1.
         11   -1    0    0    0    0 -0.00000000000E+00 -0.00000000000E+00 -0.45593999997E+02  0.45594000000E+02  0.51100000000E-03 0.  1.
         23    2    1    2    0    0  0.00000000000E+00  0.88817841970E-15 -0.71054273576E-14  0.91188000000E+02  0.91188000000E+02 0.  0.
    9900012    2    3    3    0    0  0.17495018121E+02  0.70392880477E+01  0.39089588504E+02  0.47787272302E+02  0.20000005734E+02 0.  0.
        -12    1    3    3    0    0 -0.17495018121E+02 -0.70392880477E+01 -0.39089588504E+02  0.43400727698E+02  0.00000000000E+00 0.  1.
         11    1    4    4    0    0  0.30890574095E+01  0.79899433558E+01  0.98673909116E+01  0.13067014738E+02  0.51100000000E-03 0. -1.
        -11    1    4    4    0    0  0.14712511984E+02  0.26228194874E+01  0.21254325503E+02  0.25982369865E+02  0.51100000000E-03 0.  1.
         12    1    4    4    0    0 -0.30655127320E+00 -0.35734747955E+01  0.79678720895E+01  0.87378876985E+01  0.00000000000E+00 0. -1.
</event>
<event>
 8    1  0.5834107E-011  0.9118800E+02  0.7816164E-02  0.1184000E+00
        -11   -1    0    0    0    0  0.00000000000E+00  0.00000000000E+00  0.45593999997E+02  0.45594000000E+02  0.51100000000E-03 0. -1.
         11   -1    0    0    0    0 -0.00000000000E+00 -0.00000000000E+00 -0.45593999997E+02  0.45594000000E+02  0.51100000000E-03 0.  1.
         23    2    1    2    0    0  0.00000000000E+00  0.17763568394E-14  0.00000000000E+00  0.91188000000E+02  0.91188000000E+02 0.  0.
    9900012    2    3    3    0    0 -0.24156391161E+02  0.13745092247E+02  0.33334133200E+02  0.47787271538E+02  0.20000002251E+02 0.  0.
        -12    1    3    3    0    0  0.24156391161E+02 -0.13745092247E+02 -0.33334133200E+02  0.43400728462E+02  0.00000000000E+00 0.  1.
         11    1    4    4    0    0 -0.79295581713E+01  0.22729632153E+01  0.72335159405E+01  0.10971235468E+02  0.51100000000E-03 0. -1.
        -11    1    4    4    0    0 -0.16324637311E+02  0.27603412426E+01  0.20923512504E+02  0.26681578718E+02  0.51100000000E-03 0.  1.
         12    1    4    4    0    0  0.97804321404E-01  0.87117877893E+01  0.51771047561E+01  0.10134457352E+02  0.00000000000E+00 0. -1.
</event>
<event>
 8    1  0.5834107E-011  0.9118800E+02  0.7816164E-02  0.1184000E+00
        -11   -1    0    0    0    0  0.00000000000E+00  0.00000000000E+00  0.45593999997E+02  0.45594000000E+02  0.51100000000E-03 0. -1.
         11   -1    0    0    0    0 -0.00000000000E+00 -0.00000000000E+00 -0.45593999997E+02  0.45594000000E+02  0.51100000000E-03 0.  1.
         23    2    1    2    0    0  0.00000000000E+00  0.88817841970E-15  0.00000000000E+00  0.91188000000E+02  0.91188000000E+02 0.  0.
    9900012    2    3    3    0    0 -0.31934432663E+01  0.48047245037E+01  0.43015577369E+02  0.47787270124E+02  0.19999995802E+02 0.  0.
        -12    1    3    3    0    0  0.31934432663E+01 -0.48047245037E+01 -0.43015577369E+02  0.43400729876E+02  0.00000000000E+00 0.  1.
         11    1    4    4    0    0  0.37449515960E+01 -0.31943774508E+01  0.16498352377E+02  0.17216978282E+02  0.51100000000E-03 0. -1.
        -11    1    4    4    0    0 -0.32949205982E+01  0.18660056115E+01  0.78446813830E+00  0.38670233011E+01  0.51100000000E-03 0.  1.
         12    1    4    4    0    0 -0.36434742641E+01  0.61330963431E+01  0.25732756853E+02  0.26703268540E+02  0.00000000000E+00 0. -1.
</event>
<event>
 8    1  0.5834107E-011  0.9118800E+02  0.7816164E-02  0.1184000E+00
        -11   -1    0    0    0    0  0.00000000000E+00  0.00000000000E+00  0.45593999997E+02  0.45594000000E+02  0.51100000000E-03 0. -1.
         11   -1    0    0    0    0 -0.00000000000E+00 -0.00000000000E+00 -0.45593999997E+02  0.45594000000E+02  0.51100000000E-03 0.  1.
         23    2    1    2    0    0  0.00000000000E+00  0.00000000000E+00  0.00000000000E+00  0.91188000000E+02  0.91188000000E+02 0.  0.
    9900012    2    3    3    0    0 -0.22064298284E+01 -0.14086815681E+02  0.40991678551E+02  0.47787257851E+02  0.19999939847E+02 0.  0.
        -12    1    3    3    0    0  0.22064298284E+01  0.14086815681E+02 -0.40991678551E+02  0.43400742149E+02  0.00000000000E+00 0.  1.
         11    1    4    4    0    0 -0.82399534504E-01 -0.59635460038E+00 -0.17393318601E+01  0.18405716703E+01  0.51100000000E-03 0. -1.
        -11    1    4    4    0    0  0.24754980206E+01 -0.89215187043E+00  0.28881406651E+01  0.39070938269E+01  0.51100000000E-03 0.  1.
         12    1    4    4    0    0 -0.45995283145E+01 -0.12598309210E+02  0.39842869746E+02  0.42039592354E+02  0.00000000000E+00 0. -1.
</event>
<event>
 8    1  0.5834107E-011  0.9118800E+02  0.7816164E-02  0.1184000E+00
        -11   -1    0    0    0    0  0.00000000000E+00  0.00000000000E+00  0.45593999997E+02  0.45594000000E+02  0.51100000000E-03 0. -1.
         11   -1    0    0    0    0 -0.00000000000E+00 -0.00000000000E+00 -0.45593999997E+02  0.45594000000E+02  0.51100000000E-03 0.  1.
         23    2    1    2    0    0  0.71054273576E-14  0.44408920985E-15  0.00000000000E+00  0.91188000000E+02  0.91188000000E+02 0.  0.
    9900012    2    3    3    0    0 -0.43284936016E+02  0.22204836805E+01  0.22599440753E+01  0.47787267507E+02  0.19999983873E+02 0.  0.
        -12    1    3    3    0    0  0.43284936016E+02 -0.22204836805E+01 -0.22599440753E+01  0.43400732493E+02  0.00000000000E+00 0.  1.
         11    1    4    4    0    0 -0.21157818556E+02  0.15699596029E+01  0.63492622692E+01  0.22145681088E+02  0.51100000000E-03 0. -1.
        -11    1    4    4    0    0 -0.19302486328E+02 -0.39143893954E+01 -0.46719238485E+01  0.20241919264E+02  0.51100000000E-03 0.  1.
         12    1    4    4    0    0 -0.28246311318E+01  0.45649134729E+01  0.58260565466E+00  0.53996671559E+01  0.00000000000E+00 0. -1.
</event>
<event>
 8    1  0.5834107E-011  0.9118800E+02  0.7816164E-02  0.1184000E+00
        -11   -1    0    0    0    0  0.00000000000E+00  0.00000000000E+00  0.45593999997E+02  0.45594000000E+02  0.51100000000E-03 0. -1.
         11   -1    0    0    0    0 -0.00000000000E+00 -0.00000000000E+00 -0.45593999997E+02  0.45594000000E+02  0.51100000000E-03 0.  1.
         23    2    1    2    0    0 -0.35527136788E-14  0.35527136788E-14  0.17763568394E-14  0.91188000000E+02  0.91188000000E+02 0.  0.
    9900012    2    3    3    0    0  0.30343301964E+02 -0.27249015915E+02 -0.14845795874E+02  0.47787279988E+02  0.20000040778E+02 0.  0.
         12    1    3    3    0    0 -0.30343301964E+02  0.27249015915E+02  0.14845795874E+02  0.43400720012E+02  0.00000000000E+00 0. -1.
         11    1    4    4    0    0  0.10155989837E+02 -0.20919687076E+01 -0.59818576193E-02  0.10369209164E+02  0.51100000000E-03 0. -1.
        -11    1    4    4    0    0  0.19066812382E+02 -0.19713001386E+02 -0.79270421265E+01  0.28547920330E+02  0.51100000000E-03 0.  1.
         12    1    4    4    0    0  0.11204997450E+01 -0.54440458222E+01 -0.69127718895E+01  0.88701504941E+01  0.00000000000E+00 0. -1.
</event>
<event>
 8    1  0.5834107E-011  0.9118800E+02  0.7816164E-02  0.1184000E+00
        -11   -1    0    0    0    0  0.00000000000E+00  0.00000000000E+00  0.45593999997E+02  0.45594000000E+02  0.51100000000E-03 0.  1.
         11   -1    0    0    0    0 -0.00000000000E+00 -0.00000000000E+00 -0.45593999997E+02  0.45594000000E+02  0.51100000000E-03 0. -1.
         23    2    1    2    0    0  0.00000000000E+00  0.00000000000E+00  0.44408920985E-15  0.91188000000E+02  0.91188000000E+02 0.  0.
    9900012    2    3    3    0    0  0.38882212928E+02 -0.19126672996E+02 -0.24427826994E+01  0.47787270865E+02  0.19999999184E+02 0.  0.
        -12    1    3    3    0    0 -0.38882212928E+02  0.19126672996E+02  0.24427826994E+01  0.43400729135E+02  0.00000000000E+00 0.  1.
         11    1    4    4    0    0  0.18306989931E+01 -0.31288348886E+01 -0.30492690618E+01  0.47369936284E+01  0.51100000000E-03 0. -1.
        -11    1    4    4    0    0  0.12708127266E+02 -0.21325496131E+01  0.64840780859E+01  0.14425239525E+02  0.51100000000E-03 0.  1.
         12    1    4    4    0    0  0.24343386669E+02 -0.13865288494E+02 -0.58775917236E+01  0.28625037712E+02  0.00000000000E+00 0. -1.
</event>
<event>
 8    1  0.5834107E-011  0.9118800E+02  0.7816164E-02  0.1184000E+00
        -11   -1    0    0    0    0  0.00000000000E+00  0.00000000000E+00  0.45593999997E+02  0.45594000000E+02  0.51100000000E-03 0. -1.
         11   -1    0    0    0    0 -0.00000000000E+00 -0.00000000000E+00 -0.45593999997E+02  0.45594000000E+02  0.51100000000E-03 0.  1.
         23    2    1    2    0    0  0.00000000000E+00  0.00000000000E+00  0.17763568394E-14  0.91188000000E+02  0.91188000000E+02 0.  0.
    9900012    2    3    3    0    0  0.39955294190E+02  0.12034565626E+02  0.11931760918E+02  0.47787271639E+02  0.20000002712E+02 0.  0.
        -12    1    3    3    0    0 -0.39955294190E+02 -0.12034565626E+02 -0.11931760918E+02  0.43400728361E+02  0.00000000000E+00 0.  1.
         11    1    4    4    0    0  0.16628749725E+02  0.16044122663E+01  0.99888608309E+01  0.19464500947E+02  0.51100000000E-03 0. -1.
        -11    1    4    4    0    0  0.12537873614E+02  0.63386911933E+00 -0.30489631396E+01  0.12918832815E+02  0.51100000000E-03 0.  1.
         12    1    4    4    0    0  0.10788670852E+02  0.97962842406E+01  0.49918632263E+01  0.15403937878E+02  0.00000000000E+00 0. -1.
</event>
<event>
 8    1  0.5834107E-011  0.9118800E+02  0.7816164E-02  0.1184000E+00
        -11   -1    0    0    0    0  0.00000000000E+00  0.00000000000E+00  0.45593999997E+02  0.45594000000E+02  0.51100000000E-03 0. -1.
         11   -1    0    0    0    0 -0.00000000000E+00 -0.00000000000E+00 -0.45593999997E+02  0.45594000000E+02  0.51100000000E-03 0.  1.
         23    2    1    2    0    0  0.17763568394E-14  0.00000000000E+00  0.00000000000E+00  0.91188000000E+02  0.91188000000E+02 0.  0.
    9900012    2    3    3    0    0 -0.15072631656E+02 -0.14722338099E+02 -0.37943211693E+02  0.47787322843E+02  0.20000236169E+02 0.  0.
         12    1    3    3    0    0  0.15072631656E+02  0.14722338099E+02  0.37943211693E+02  0.43400677157E+02  0.00000000000E+00 0. -1.
         11    1    4    4    0    0 -0.21125256627E+01 -0.66220178549E+01 -0.47562739090E+01  0.84223528128E+01  0.51100000000E-03 0. -1.
        -11    1    4    4    0    0 -0.10659205728E+02  0.16591848502E+01 -0.13583700649E+02  0.17346137457E+02  0.51100000000E-03 0.  1.
        -12    1    4    4    0    0 -0.23009002659E+01 -0.97595050938E+01 -0.19603237135E+02  0.22018832573E+02  0.00000000000E+00 0.  1.
</event>
<event>
 8    1  0.5834107E-011  0.9118800E+02  0.7816164E-02  0.1184000E+00
        -11   -1    0    0    0    0  0.00000000000E+00  0.00000000000E+00  0.45593999997E+02  0.45594000000E+02  0.51100000000E-03 0. -1.
         11   -1    0    0    0    0 -0.00000000000E+00 -0.00000000000E+00 -0.45593999997E+02  0.45594000000E+02  0.51100000000E-03 0.  1.
         23    2    1    2    0    0  0.00000000000E+00  0.00000000000E+00  0.00000000000E+00  0.91188000000E+02  0.91188000000E+02 0.  0.
    9900012    2    3    3    0    0 -0.22131719929E+02  0.12781162190E+02 -0.35077814990E+02  0.47787259932E+02  0.19999949335E+02 0.  0.
         12    1    3    3    0    0  0.22131719929E+02 -0.12781162190E+02  0.35077814990E+02  0.43400740068E+02  0.00000000000E+00 0. -1.
         11    1    4    4    0    0 -0.13519945520E+01 -0.11708812404E+01 -0.80536250681E+01  0.82498320678E+01  0.51100000000E-03 0. -1.
        -11    1    4    4    0    0 -0.61030117295E+01  0.12640681604E+02 -0.14728151105E+02  0.20345810842E+02  0.51100000000E-03 0.  1.
         12    1    4    4    0    0 -0.14676713648E+02  0.13113618257E+01 -0.12296038817E+02  0.19191617022E+02  0.00000000000E+00 0. -1.
</event>
<event>
 8    1  0.5834107E-011  0.9118800E+02  0.7816164E-02  0.1184000E+00
        -11   -1    0    0    0    0  0.00000000000E+00  0.00000000000E+00  0.45593999997E+02  0.45594000000E+02  0.51100000000E-03 0. -1.
         11   -1    0    0    0    0 -0.00000000000E+00 -0.00000000000E+00 -0.45593999997E+02  0.45594000000E+02  0.51100000000E-03 0.  1.
         23    2    1    2    0    0  0.00000000000E+00 -0.88817841970E-15  0.00000000000E+00  0.91188000000E+02  0.91188000000E+02 0.  0.
    9900012    2    3    3    0    0  0.20545333581E+02  0.74830045399E+01 -0.37490229619E+02  0.47787269525E+02  0.19999993072E+02 0.  0.
         12    1    3    3    0    0 -0.20545333581E+02 -0.74830045399E+01  0.37490229619E+02  0.43400730475E+02  0.00000000000E+00 0. -1.
         11    1    4    4    0    0 -0.23906191976E+00  0.39606000546E+01 -0.24490599387E+01  0.46627672297E+01  0.51100000000E-03 0. -1.
        -11    1    4    4    0    0  0.70898126495E+01 -0.50855666242E+01 -0.15191771659E+02  0.17519085527E+02  0.51100000000E-03 0.  1.
         12    1    4    4    0    0  0.13694582852E+02  0.86079711094E+01 -0.19849398021E+02  0.25605416768E+02  0.00000000000E+00 0. -1.
</event>
<event>
 8    1  0.5834107E-011  0.9118800E+02  0.7816164E-02  0.1184000E+00
        -11   -1    0    0    0    0  0.00000000000E+00  0.00000000000E+00  0.45593999997E+02  0.45594000000E+02  0.51100000000E-03 0. -1.
         11   -1    0    0    0    0 -0.00000000000E+00 -0.00000000000E+00 -0.45593999997E+02  0.45594000000E+02  0.51100000000E-03 0.  1.
         23    2    1    2    0    0  0.17763568394E-14 -0.17763568394E-14  0.00000000000E+00  0.91188000000E+02  0.91188000000E+02 0.  0.
    9900012    2    3    3    0    0 -0.13734039113E+02  0.14430785224E+02 -0.38558420007E+02  0.47787272518E+02  0.20000006720E+02 0.  0.
         12    1    3    3    0    0  0.13734039113E+02 -0.14430785224E+02  0.38558420007E+02  0.43400727482E+02  0.00000000000E+00 0. -1.
         11    1    4    4    0    0 -0.75965324712E+01  0.23282273548E+01 -0.54681886438E+01  0.96451560643E+01  0.51100000000E-03 0. -1.
        -11    1    4    4    0    0 -0.96859467441E+01  0.11608434768E+02 -0.29002680391E+02  0.32706708672E+02  0.51100000000E-03 0.  1.
         12    1    4    4    0    0  0.35484401023E+01  0.49412310115E+00 -0.40875509725E+01  0.54354077815E+01  0.00000000000E+00 0. -1.
</event>
<event>
 8    1  0.5834107E-011  0.9118800E+02  0.7816164E-02  0.1184000E+00
        -11   -1    0    0    0    0  0.00000000000E+00  0.00000000000E+00  0.45593999997E+02  0.45594000000E+02  0.51100000000E-03 0. -1.
         11   -1    0    0    0    0 -0.00000000000E+00 -0.00000000000E+00 -0.45593999997E+02  0.45594000000E+02  0.51100000000E-03 0.  1.
         23    2    1    2    0    0  0.00000000000E+00  0.44408920985E-15  0.71054273576E-14  0.91188000000E+02  0.91188000000E+02 0.  0.
    9900012    2    3    3    0    0 -0.33556039875E+02 -0.24394673997E+01 -0.27416501114E+02  0.47787270207E+02  0.19999996180E+02 0.  0.
         12    1    3    3    0    0  0.33556039875E+02  0.24394673997E+01  0.27416501114E+02  0.43400729793E+02  0.00000000000E+00 0. -1.
         11    1    4    4    0    0 -0.21654024474E+02 -0.20973297319E+01 -0.22562704996E+02  0.31342801803E+02  0.51100000000E-03 0.  1.
        -11    1    4    4    0    0 -0.12492842071E+02 -0.29708010623E+01 -0.30387002085E+01  0.13195850150E+02  0.51100000000E-03 0. -1.
        -12    1    4    4    0    0  0.59082666955E+00  0.26286633944E+01 -0.18150959097E+01  0.32486182534E+01  0.00000000000E+00 0.  1.
</event>
<event>
 8    1  0.5834107E-011  0.9118800E+02  0.7816164E-02  0.1184000E+00
        -11   -1    0    0    0    0  0.00000000000E+00  0.00000000000E+00  0.45593999997E+02  0.45594000000E+02  0.51100000000E-03 0. -1.
         11   -1    0    0    0    0 -0.00000000000E+00 -0.00000000000E+00 -0.45593999997E+02  0.45594000000E+02  0.51100000000E-03 0.  1.
         23    2    1    2    0    0  0.00000000000E+00 -0.88817841970E-15  0.00000000000E+00  0.91188000000E+02  0.91188000000E+02 0.  0.
    9900012    2    3    3    0    0  0.38916491666E+02 -0.47126558195E+01 -0.18625810172E+02  0.47787271285E+02  0.20000001095E+02 0.  0.
         12    1    3    3    0    0 -0.38916491666E+02  0.47126558195E+01  0.18625810172E+02  0.43400728715E+02  0.00000000000E+00 0. -1.
         11    1    4    4    0    0  0.46870886657E+01  0.48066248387E+01 -0.59199734397E+00  0.67396515946E+01  0.51100000000E-03 0. -1.
        -11    1    4    4    0    0  0.13950284575E+02 -0.68651655754E+01 -0.34438901288E+01  0.15924864759E+02  0.51100000000E-03 0.  1.
        -12    1    4    4    0    0  0.20279118425E+02 -0.26541150827E+01 -0.14589922699E+02  0.25122754932E+02  0.00000000000E+00 0.  1.
</event>
<event>
 8    1  0.5834107E-011  0.9118800E+02  0.7816164E-02  0.1184000E+00
        -11   -1    0    0    0    0  0.00000000000E+00  0.00000000000E+00  0.45593999997E+02  0.45594000000E+02  0.51100000000E-03 0. -1.
         11   -1    0    0    0    0 -0.00000000000E+00 -0.00000000000E+00 -0.45593999997E+02  0.45594000000E+02  0.51100000000E-03 0.  1.
         23    2    1    2    0    0  0.00000000000E+00  0.00000000000E+00  0.00000000000E+00  0.91188000000E+02  0.91188000000E+02 0.  0.
    9900012    2    3    3    0    0  0.65053464813E+01 -0.42083195004E+01 -0.42703557086E+02  0.47787271047E+02  0.20000000010E+02 0.  0.
         12    1    3    3    0    0 -0.65053464813E+01  0.42083195004E+01  0.42703557086E+02  0.43400728953E+02  0.00000000000E+00 0. -1.
         11    1    4    4    0    0 -0.65332877937E+01 -0.10398048132E+01 -0.94911798258E+01  0.11569249681E+02  0.51100000000E-03 0. -1.
        -11    1    4    4    0    0  0.59396744156E+01 -0.32404368654E+01 -0.11158178583E+02  0.13049333807E+02  0.51100000000E-03 0.  1.
        -12    1    4    4    0    0  0.70989598594E+01  0.71922178231E-01 -0.22054198677E+02  0.23168687559E+02  0.00000000000E+00 0.  1.
</event>
<event>
 8    1  0.5834107E-011  0.9118800E+02  0.7816164E-02  0.1184000E+00
        -11   -1    0    0    0    0  0.00000000000E+00  0.00000000000E+00  0.45593999997E+02  0.45594000000E+02  0.51100000000E-03 0. -1.
         11   -1    0    0    0    0 -0.00000000000E+00 -0.00000000000E+00 -0.45593999997E+02  0.45594000000E+02  0.51100000000E-03 0.  1.
         23    2    1    2    0    0  0.17763568394E-14 -0.55511151231E-15  0.71054273576E-14  0.91188000000E+02  0.91188000000E+02 0.  0.
    9900012    2    3    3    0    0 -0.79373849452E+01 -0.54259316542E+00  0.42665315788E+02  0.47787243573E+02  0.19999874748E+02 0.  0.
        -12    1    3    3    0    0  0.79373849452E+01  0.54259316542E+00 -0.42665315788E+02  0.43400756427E+02  0.00000000000E+00 0.  1.
         11    1    4    4    0    0 -0.52791425212E+01 -0.56615307912E+01  0.26594711344E+02  0.27698392523E+02  0.51100000000E-03 0. -1.
        -11    1    4    4    0    0 -0.57072995568E+01  0.44890941661E+01  0.15216765775E+02  0.16860462496E+02  0.51100000000E-03 0.  1.
        -12    1    4    4    0    0  0.30490571328E+01  0.62984345964E+00  0.85383866943E+00  0.32283885541E+01  0.00000000000E+00 0.  1.
</event>
<event>
 8    1  0.5834107E-011  0.9118800E+02  0.7816164E-02  0.1184000E+00
        -11   -1    0    0    0    0  0.00000000000E+00  0.00000000000E+00  0.45593999997E+02  0.45594000000E+02  0.51100000000E-03 0. -1.
         11   -1    0    0    0    0 -0.00000000000E+00 -0.00000000000E+00 -0.45593999997E+02  0.45594000000E+02  0.51100000000E-03 0.  1.
         23    2    1    2    0    0  0.17763568394E-14  0.17763568394E-14  0.00000000000E+00  0.91188000000E+02  0.91188000000E+02 0.  0.
    9900012    2    3    3    0    0 -0.15778792495E+02 -0.10044026548E+02 -0.39163381623E+02  0.47787271642E+02  0.20000002723E+02 0.  0.
         12    1    3    3    0    0  0.15778792495E+02  0.10044026548E+02  0.39163381623E+02  0.43400728358E+02  0.00000000000E+00 0. -1.
         11    1    4    4    0    0 -0.13050449492E+01 -0.12139476114E+02 -0.16637957822E+02  0.20637142811E+02  0.51100000000E-03 0. -1.
        -11    1    4    4    0    0 -0.62956376869E+01 -0.98126273277E+00 -0.84478106863E+01  0.10581277621E+02  0.51100000000E-03 0.  1.
         12    1    4    4    0    0 -0.81781098588E+01  0.30767122986E+01 -0.14077613114E+02  0.16568851210E+02  0.00000000000E+00 0. -1.
</event>
<event>
 8    1  0.5834107E-011  0.9118800E+02  0.7816164E-02  0.1184000E+00
        -11   -1    0    0    0    0  0.00000000000E+00  0.00000000000E+00  0.45593999997E+02  0.45594000000E+02  0.51100000000E-03 0. -1.
         11   -1    0    0    0    0 -0.00000000000E+00 -0.00000000000E+00 -0.45593999997E+02  0.45594000000E+02  0.51100000000E-03 0.  1.
         23    2    1    2    0    0  0.00000000000E+00  0.53290705182E-14  0.71054273576E-14  0.91188000000E+02  0.91188000000E+02 0.  0.
    9900012    2    3    3    0    0  0.17909298160E+01  0.13355768230E+02  0.41255777112E+02  0.47787272820E+02  0.20000008094E+02 0.  0.
        -12    1    3    3    0    0 -0.17909298160E+01 -0.13355768230E+02 -0.41255777112E+02  0.43400727180E+02  0.00000000000E+00 0.  1.
         11    1    4    4    0    0 -0.58666007349E+00  0.10048551527E+02  0.12762459145E+02  0.16254166282E+02  0.51100000000E-03 0. -1.
        -11    1    4    4    0    0 -0.14283452387E+01  0.62784011013E+01  0.70286083849E+01  0.95320421002E+01  0.51100000000E-03 0.  1.
         12    1    4    4    0    0  0.38059351282E+01 -0.29711843979E+01  0.21464709582E+02  0.22001064437E+02  0.00000000000E+00 0. -1.
</event>
<event>
 8    1  0.5834107E-011  0.9118800E+02  0.7816164E-02  0.1184000E+00
        -11   -1    0    0    0    0  0.00000000000E+00  0.00000000000E+00  0.45593999997E+02  0.45594000000E+02  0.51100000000E-03 0. -1.
         11   -1    0    0    0    0 -0.00000000000E+00 -0.00000000000E+00 -0.45593999997E+02  0.45594000000E+02  0.51100000000E-03 0.  1.
         23    2    1    2    0    0  0.00000000000E+00  0.00000000000E+00  0.00000000000E+00  0.91188000000E+02  0.91188000000E+02 0.  0.
    9900012    2    3    3    0    0 -0.14414573177E+02  0.38650137746E+02 -0.13491090706E+02  0.47787278853E+02  0.20000035601E+02 0.  0.
         12    1    3    3    0    0  0.14414573177E+02 -0.38650137746E+02  0.13491090706E+02  0.43400721147E+02  0.00000000000E+00 0. -1.
         11    1    4    4    0    0 -0.47128845537E+01  0.41296632945E+01 -0.97110467393E+01  0.11557241400E+02  0.51100000000E-03 0. -1.
        -11    1    4    4    0    0 -0.25698775227E+01  0.14860280303E+02 -0.24016160566E+01  0.15270886062E+02  0.51100000000E-03 0.  1.
         12    1    4    4    0    0 -0.71318111007E+01  0.19660194148E+02 -0.13784279106E+01  0.20959151391E+02  0.00000000000E+00 0. -1.
</event>
<event>
 8    1  0.5834107E-011  0.9118800E+02  0.7816164E-02  0.1184000E+00
        -11   -1    0    0    0    0  0.00000000000E+00  0.00000000000E+00  0.45593999997E+02  0.45594000000E+02  0.51100000000E-03 0. -1.
         11   -1    0    0    0    0 -0.00000000000E+00 -0.00000000000E+00 -0.45593999997E+02  0.45594000000E+02  0.51100000000E-03 0.  1.
         23    2    1    2    0    0  0.00000000000E+00 -0.44408920985E-15  0.00000000000E+00  0.91188000000E+02  0.91188000000E+02 0.  0.
    9900012    2    3    3    0    0  0.25610155482E+02  0.39187519742E+01 -0.34819339827E+02  0.47787272969E+02  0.20000008775E+02 0.  0.
         12    1    3    3    0    0 -0.25610155482E+02 -0.39187519742E+01  0.34819339827E+02  0.43400727031E+02  0.00000000000E+00 0. -1.
         11    1    4    4    0    0  0.84219342672E+01  0.74022762668E+01 -0.64779319846E+01  0.12949373490E+02  0.51100000000E-03 0.  1.
        -11    1    4    4    0    0  0.95183081539E+01 -0.38966936313E+01 -0.78025607466E+01  0.12909777916E+02  0.51100000000E-03 0. -1.
        -12    1    4    4    0    0  0.76699130612E+01  0.41316933862E+00 -0.20538847095E+02  0.21928121563E+02  0.00000000000E+00 0.  1.
</event>
<event>
 8    1  0.5834107E-011  0.9118800E+02  0.7816164E-02  0.1184000E+00
        -11   -1    0    0    0    0  0.00000000000E+00  0.00000000000E+00  0.45593999997E+02  0.45594000000E+02  0.51100000000E-03 0. -1.
         11   -1    0    0    0    0 -0.00000000000E+00 -0.00000000000E+00 -0.45593999997E+02  0.45594000000E+02  0.51100000000E-03 0.  1.
         23    2    1    2    0    0  0.00000000000E+00 -0.71054273576E-14  0.35527136788E-14  0.91188000000E+02  0.91188000000E+02 0.  0.
    9900012    2    3    3    0    0  0.12068355394E+02 -0.31084891851E+02  0.27779627681E+02  0.47787269391E+02  0.19999992462E+02 0.  0.
        -12    1    3    3    0    0 -0.12068355394E+02  0.31084891851E+02 -0.27779627681E+02  0.43400730609E+02  0.00000000000E+00 0.  1.
         11    1    4    4    0    0  0.14215070565E+01 -0.62104691845E+01  0.81382881712E+00  0.64228441836E+01  0.51100000000E-03 0. -1.
        -11    1    4    4    0    0  0.98900394564E+01 -0.19745674254E+02  0.11187210142E+02  0.24755973081E+02  0.51100000000E-03 0.  1.
         12    1    4    4    0    0  0.75680888074E+00 -0.51287484124E+01  0.15778588722E+02  0.16608452126E+02  0.00000000000E+00 0. -1.
</event>
<event>
 8    1  0.5834107E-011  0.9118800E+02  0.7816164E-02  0.1184000E+00
        -11   -1    0    0    0    0  0.00000000000E+00  0.00000000000E+00  0.45593999997E+02  0.45594000000E+02  0.51100000000E-03 0.  1.
         11   -1    0    0    0    0 -0.00000000000E+00 -0.00000000000E+00 -0.45593999997E+02  0.45594000000E+02  0.51100000000E-03 0. -1.
         23    2    1    2    0    0  0.00000000000E+00  0.00000000000E+00  0.00000000000E+00  0.91188000000E+02  0.91188000000E+02 0.  0.
    9900012    2    3    3    0    0  0.21818999182E+02  0.19255519092E+02  0.32199065446E+02  0.47787267790E+02  0.19999985161E+02 0.  0.
        -12    1    3    3    0    0 -0.21818999182E+02 -0.19255519092E+02 -0.32199065446E+02  0.43400732210E+02  0.00000000000E+00 0.  1.
         11    1    4    4    0    0 -0.88631266770E+00  0.52987739021E+01  0.17549973265E+01  0.56517759056E+01  0.51100000000E-03 0. -1.
        -11    1    4    4    0    0  0.80728453923E+01  0.74182789223E+01  0.20574831735E+02  0.23313631122E+02  0.51100000000E-03 0.  1.
         12    1    4    4    0    0  0.14632466457E+02  0.65384662674E+01  0.98692363842E+01  0.18821860762E+02  0.00000000000E+00 0. -1.
</event>
<event>
 8    1  0.5834107E-011  0.9118800E+02  0.7816164E-02  0.1184000E+00
        -11   -1    0    0    0    0  0.00000000000E+00  0.00000000000E+00  0.45593999997E+02  0.45594000000E+02  0.51100000000E-03 0. -1.
         11   -1    0    0    0    0 -0.00000000000E+00 -0.00000000000E+00 -0.45593999997E+02  0.45594000000E+02  0.51100000000E-03 0.  1.
         23    2    1    2    0    0  0.88817841970E-15 -0.35527136788E-14  0.00000000000E+00  0.91188000000E+02  0.91188000000E+02 0.  0.
    9900012    2    3    3    0    0  0.42799356609E+01  0.16441179202E+02  0.39937365340E+02  0.47787269901E+02  0.19999994788E+02 0.  0.
        -12    1    3    3    0    0 -0.42799356609E+01 -0.16441179202E+02 -0.39937365340E+02  0.43400730099E+02  0.00000000000E+00 0.  1.
         11    1    4    4    0    0  0.24922750988E+01  0.88733417773E+01  0.14718809394E+02  0.17366374973E+02  0.51100000000E-03 0. -1.
        -11    1    4    4    0    0 -0.62147690229E+01  0.14710867932E+01  0.61762936724E+01  0.88844838989E+01  0.51100000000E-03 0.  1.
        -12    1    4    4    0    0  0.80024295850E+01  0.60967506310E+01  0.19042262274E+02  0.21536411029E+02  0.00000000000E+00 0.  1.
</event>
<event>
 8    1  0.5834107E-011  0.9118800E+02  0.7816164E-02  0.1184000E+00
        -11   -1    0    0    0    0  0.00000000000E+00  0.00000000000E+00  0.45593999997E+02  0.45594000000E+02  0.51100000000E-03 0. -1.
         11   -1    0    0    0    0 -0.00000000000E+00 -0.00000000000E+00 -0.45593999997E+02  0.45594000000E+02  0.51100000000E-03 0.  1.
         23    2    1    2    0    0 -0.88817841970E-15  0.44408920985E-15  0.71054273576E-14  0.91188000000E+02  0.91188000000E+02 0.  0.
    9900012    2    3    3    0    0 -0.15612490435E+01 -0.34127666197E+01  0.43238169406E+02  0.47787265350E+02  0.19999974037E+02 0.  0.
        -12    1    3    3    0    0  0.15612490435E+01  0.34127666197E+01 -0.43238169406E+02  0.43400734650E+02  0.00000000000E+00 0.  1.
         11    1    4    4    0    0 -0.61456392725E+01 -0.60651409420E+01  0.21589058434E+02  0.23251715228E+02  0.51100000000E-03 0. -1.
        -11    1    4    4    0    0 -0.25123900354E+01  0.14022273322E+01  0.12820705062E+02  0.13139589937E+02  0.51100000000E-03 0.  1.
        -12    1    4    4    0    0  0.70967802645E+01  0.12501469901E+01  0.88284059106E+01  0.11395960185E+02  0.00000000000E+00 0.  1.
</event>
<event>
 8    1  0.5834107E-011  0.9118800E+02  0.7816164E-02  0.1184000E+00
        -11   -1    0    0    0    0  0.00000000000E+00  0.00000000000E+00  0.45593999997E+02  0.45594000000E+02  0.51100000000E-03 0. -1.
         11   -1    0    0    0    0 -0.00000000000E+00 -0.00000000000E+00 -0.45593999997E+02  0.45594000000E+02  0.51100000000E-03 0.  1.
         23    2    1    2    0    0  0.88817841970E-15  0.00000000000E+00  0.00000000000E+00  0.91188000000E+02  0.91188000000E+02 0.  0.
    9900012    2    3    3    0    0 -0.48147962038E+01 -0.13484501177E+02  0.40970834326E+02  0.47787270745E+02  0.19999998637E+02 0.  0.
        -12    1    3    3    0    0  0.48147962038E+01  0.13484501177E+02 -0.40970834326E+02  0.43400729255E+02  0.00000000000E+00 0.  1.
         11    1    4    4    0    0 -0.79869877622E+01 -0.65689445536E+01  0.33570415393E+02  0.35127137600E+02  0.51100000000E-03 0. -1.
        -11    1    4    4    0    0  0.34667200735E+01 -0.14484932362E+01  0.58801380773E+01  0.69779871591E+01  0.51100000000E-03 0.  1.
        -12    1    4    4    0    0 -0.29452851513E+00 -0.54670633875E+01  0.15202808555E+01  0.56821459862E+01  0.00000000000E+00 0.  1.
</event>
<event>
 8    1  0.5834107E-011  0.9118800E+02  0.7816164E-02  0.1184000E+00
        -11   -1    0    0    0    0  0.00000000000E+00  0.00000000000E+00  0.45593999997E+02  0.45594000000E+02  0.51100000000E-03 0. -1.
         11   -1    0    0    0    0 -0.00000000000E+00 -0.00000000000E+00 -0.45593999997E+02  0.45594000000E+02  0.51100000000E-03 0.  1.
         23    2    1    2    0    0  0.44408920985E-15 -0.71054273576E-14 -0.35527136788E-14  0.91188000000E+02  0.91188000000E+02 0.  0.
    9900012    2    3    3    0    0  0.94658626394E+00  0.36146703548E+02  0.24002982878E+02  0.47787269707E+02  0.19999993901E+02 0.  0.
        -12    1    3    3    0    0 -0.94658626394E+00 -0.36146703548E+02 -0.24002982878E+02  0.43400730293E+02  0.00000000000E+00 0.  1.
         11    1    4    4    0    0 -0.45320414715E+01  0.22185797679E+02  0.18889581518E+02  0.29488392780E+02  0.51100000000E-03 0. -1.
        -11    1    4    4    0    0 -0.81133356642E+00  0.40458814816E+01 -0.19840490379E+01  0.45786318879E+01  0.51100000000E-03 0.  1.
        -12    1    4    4    0    0  0.62899613019E+01  0.99150243870E+01  0.70974503978E+01  0.13720245039E+02  0.00000000000E+00 0.  1.
</event>
<event>
 8    1  0.5834107E-011  0.9118800E+02  0.7816164E-02  0.1184000E+00
        -11   -1    0    0    0    0  0.00000000000E+00  0.00000000000E+00  0.45593999997E+02  0.45594000000E+02  0.51100000000E-03 0.  1.
         11   -1    0    0    0    0 -0.00000000000E+00 -0.00000000000E+00 -0.45593999997E+02  0.45594000000E+02  0.51100000000E-03 0. -1.
         23    2    1    2    0    0  0.00000000000E+00 -0.17763568394E-14  0.00000000000E+00  0.91188000000E+02  0.91188000000E+02 0.  0.
    9900012    2    3    3    0    0  0.35311604891E+02  0.11569780206E+02  0.22424412052E+02  0.47787268325E+02  0.19999987603E+02 0.  0.
        -12    1    3    3    0    0 -0.35311604891E+02 -0.11569780206E+02 -0.22424412052E+02  0.43400731675E+02  0.00000000000E+00 0.  1.
         11    1    4    4    0    0 -0.67727726263E+00 -0.12784967133E+01  0.68280788592E+00  0.15998391189E+01  0.51100000000E-03 0. -1.
        -11    1    4    4    0    0  0.15280119990E+01  0.47974173000E+01  0.47849574462E+01  0.69459233686E+01  0.51100000000E-03 0.  1.
         12    1    4    4    0    0  0.34460870155E+02  0.80508596191E+01  0.16956646720E+02  0.39241505838E+02  0.00000000000E+00 0. -1.
</event>
<event>
 8    1  0.5834107E-011  0.9118800E+02  0.7816164E-02  0.1184000E+00
        -11   -1    0    0    0    0  0.00000000000E+00  0.00000000000E+00  0.45593999997E+02  0.45594000000E+02  0.51100000000E-03 0. -1.
         11   -1    0    0    0    0 -0.00000000000E+00 -0.00000000000E+00 -0.45593999997E+02  0.45594000000E+02  0.51100000000E-03 0.  1.
         23    2    1    2    0    0  0.00000000000E+00  0.00000000000E+00 -0.71054273576E-14  0.91188000000E+02  0.91188000000E+02 0.  0.
    9900012    2    3    3    0    0 -0.23056851627E+02  0.14501824935E+02 -0.33789082367E+02  0.47787269355E+02  0.19999992295E+02 0.  0.
         12    1    3    3    0    0  0.23056851627E+02 -0.14501824935E+02  0.33789082367E+02  0.43400730645E+02  0.00000000000E+00 0. -1.
         11    1    4    4    0    0 -0.68094896993E+00  0.19289287658E+01 -0.11131976633E+02  0.11318363915E+02  0.51100000000E-03 0. -1.
        -11    1    4    4    0    0 -0.73273946689E+01  0.62839388739E+01 -0.16340481376E+02  0.18978670455E+02  0.51100000000E-03 0.  1.
        -12    1    4    4    0    0 -0.15048507988E+02  0.62889572951E+01 -0.63166243574E+01  0.17490234984E+02  0.00000000000E+00 0.  1.
</event>
<event>
 8    1  0.5834107E-011  0.9118800E+02  0.7816164E-02  0.1184000E+00
        -11   -1    0    0    0    0  0.00000000000E+00  0.00000000000E+00  0.45593999997E+02  0.45594000000E+02  0.51100000000E-03 0. -1.
         11   -1    0    0    0    0 -0.00000000000E+00 -0.00000000000E+00 -0.45593999997E+02  0.45594000000E+02  0.51100000000E-03 0.  1.
         23    2    1    2    0    0  0.17763568394E-14  0.17763568394E-14  0.00000000000E+00  0.91188000000E+02  0.91188000000E+02 0.  0.
    9900012    2    3    3    0    0 -0.15075510337E+02 -0.11710204195E+02  0.38977205911E+02  0.47787280250E+02  0.20000041971E+02 0.  0.
        -12    1    3    3    0    0  0.15075510337E+02  0.11710204195E+02 -0.38977205911E+02  0.43400719750E+02  0.00000000000E+00 0.  1.
         11    1    4    4    0    0 -0.71131904390E+01  0.13312842464E+01  0.70427308711E+01  0.10098012396E+02  0.51100000000E-03 0. -1.
        -11    1    4    4    0    0  0.26355150310E-01  0.21631770296E+01  0.11812690527E+01  0.24648379848E+01  0.51100000000E-03 0.  1.
        -12    1    4    4    0    0 -0.79886750482E+01 -0.15204665471E+02  0.30753205987E+02  0.35224429869E+02  0.00000000000E+00 0.  1.
</event>
<event>
 8    1  0.5834107E-011  0.9118800E+02  0.7816164E-02  0.1184000E+00
        -11   -1    0    0    0    0  0.00000000000E+00  0.00000000000E+00  0.45593999997E+02  0.45594000000E+02  0.51100000000E-03 0. -1.
         11   -1    0    0    0    0 -0.00000000000E+00 -0.00000000000E+00 -0.45593999997E+02  0.45594000000E+02  0.51100000000E-03 0.  1.
         23    2    1    2    0    0 -0.17763568394E-14  0.00000000000E+00  0.00000000000E+00  0.91188000000E+02  0.91188000000E+02 0.  0.
    9900012    2    3    3    0    0  0.14152537451E+02 -0.11266599996E+02 -0.39451145805E+02  0.47787268473E+02  0.19999988275E+02 0.  0.
         12    1    3    3    0    0 -0.14152537451E+02  0.11266599996E+02  0.39451145805E+02  0.43400731527E+02  0.00000000000E+00 0. -1.
         11    1    4    4    0    0  0.89177585233E+01 -0.14893265523E+02 -0.28590269193E+02  0.33447559968E+02  0.51100000000E-03 0. -1.
        -11    1    4    4    0    0  0.10373277782E+01 -0.20533271021E+01 -0.26842715422E+01  0.35351824679E+01  0.51100000000E-03 0.  1.
         12    1    4    4    0    0  0.41974511494E+01  0.56799926292E+01 -0.81766050692E+01  0.10804526037E+02  0.00000000000E+00 0. -1.
</event>
<event>
 8    1  0.6126067E-011  0.9118800E+02  0.7816164E-02  0.1184000E+00
        -11   -1    0    0    0    0  0.00000000000E+00  0.00000000000E+00  0.45593999997E+02  0.45594000000E+02  0.51100000000E-03 0. -1.
         11   -1    0    0    0    0 -0.00000000000E+00 -0.00000000000E+00 -0.45593999997E+02  0.45594000000E+02  0.51100000000E-03 0.  1.
         23    2    1    2    0    0  0.00000000000E+00  0.00000000000E+00 -0.35527136788E-14  0.91188000000E+02  0.91188000000E+02 0.  0.
    9900012    2    3    3    0    0 -0.27665083953E+02  0.13815857393E+02  0.30453055616E+02  0.47787269799E+02  0.19999994323E+02 0.  0.
        -12    1    3    3    0    0  0.27665083953E+02 -0.13815857393E+02 -0.30453055616E+02  0.43400730201E+02  0.00000000000E+00 0.  1.
         11    1    4    4    0    0 -0.18600421723E+02  0.49556615828E+01  0.69183474246E+01  0.20454774536E+02  0.51100000000E-03 0. -1.
        -11    1    4    4    0    0  0.67975989658E+00  0.10358230053E+01  0.35719319265E+01  0.37807010943E+01  0.51100000000E-03 0.  1.
         12    1    4    4    0    0 -0.97444221266E+01  0.78243728045E+01  0.19962776265E+02  0.23551794169E+02  0.00000000000E+00 0. -1.
</event>
<event>
 8    1  0.5834107E-011  0.9118800E+02  0.7816164E-02  0.1184000E+00
        -11   -1    0    0    0    0  0.00000000000E+00  0.00000000000E+00  0.45593999997E+02  0.45594000000E+02  0.51100000000E-03 0. -1.
         11   -1    0    0    0    0 -0.00000000000E+00 -0.00000000000E+00 -0.45593999997E+02  0.45594000000E+02  0.51100000000E-03 0.  1.
         23    2    1    2    0    0 -0.35527136788E-14  0.00000000000E+00  0.17763568394E-14  0.91188000000E+02  0.91188000000E+02 0.  0.
    9900012    2    3    3    0    0 -0.31499924256E+02  0.27493636074E+02 -0.11639474948E+02  0.47787278465E+02  0.20000033833E+02 0.  0.
         12    1    3    3    0    0  0.31499924256E+02 -0.27493636074E+02  0.11639474948E+02  0.43400721535E+02  0.00000000000E+00 0. -1.
         11    1    4    4    0    0 -0.21377678973E+01  0.74297235129E+01 -0.81104127436E+01  0.11204893493E+02  0.51100000000E-03 0. -1.
        -11    1    4    4    0    0 -0.13113666865E+02  0.68799109115E+01 -0.49384234609E+01  0.15610556022E+02  0.51100000000E-03 0.  1.
        -12    1    4    4    0    0 -0.16248489494E+02  0.13184001649E+02  0.14093612567E+01  0.20971828949E+02  0.00000000000E+00 0.  1.
</event>
<event>
 8    1  0.5834107E-011  0.9118800E+02  0.7816164E-02  0.1184000E+00
        -11   -1    0    0    0    0  0.00000000000E+00  0.00000000000E+00  0.45593999997E+02  0.45594000000E+02  0.51100000000E-03 0. -1.
         11   -1    0    0    0    0 -0.00000000000E+00 -0.00000000000E+00 -0.45593999997E+02  0.45594000000E+02  0.51100000000E-03 0.  1.
         23    2    1    2    0    0  0.00000000000E+00  0.35527136788E-14  0.00000000000E+00  0.91188000000E+02  0.91188000000E+02 0.  0.
    9900012    2    3    3    0    0  0.19995093135E+02  0.22123863569E+02  0.31533315057E+02  0.47787319738E+02  0.20000222014E+02 0.  0.
        -12    1    3    3    0    0 -0.19995093135E+02 -0.22123863569E+02 -0.31533315057E+02  0.43400680262E+02  0.00000000000E+00 0.  1.
         11    1    4    4    0    0  0.26165385475E+01  0.14034339175E+02  0.21239936909E+02  0.25591871174E+02  0.51100000000E-03 0.  1.
        -11    1    4    4    0    0  0.79011481195E+01  0.60579386896E+01  0.56538418583E+01  0.11449571642E+02  0.51100000000E-03 0. -1.
         12    1    4    4    0    0  0.94774064681E+01  0.20315857041E+01  0.46395362896E+01  0.10745876922E+02  0.00000000000E+00 0. -1.
</event>
<event>
 8    1  0.5834107E-011  0.9118800E+02  0.7816164E-02  0.1184000E+00
        -11   -1    0    0    0    0  0.00000000000E+00  0.00000000000E+00  0.45593999997E+02  0.45594000000E+02  0.51100000000E-03 0. -1.
         11   -1    0    0    0    0 -0.00000000000E+00 -0.00000000000E+00 -0.45593999997E+02  0.45594000000E+02  0.51100000000E-03 0.  1.
         23    2    1    2    0    0  0.88817841970E-15  0.00000000000E+00  0.00000000000E+00  0.91188000000E+02  0.91188000000E+02 0.  0.
    9900012    2    3    3    0    0 -0.47504065391E+01 -0.41579891229E+02 -0.11496499503E+02  0.47787271691E+02  0.20000002947E+02 0.  0.
         12    1    3    3    0    0  0.47504065391E+01  0.41579891229E+02  0.11496499503E+02  0.43400728309E+02  0.00000000000E+00 0. -1.
         11    1    4    4    0    0 -0.25490909593E+01 -0.75389862923E+01  0.36878783896E+01  0.87712385848E+01  0.51100000000E-03 0. -1.
        -11    1    4    4    0    0 -0.65948185304E+01 -0.17349515722E+02 -0.94541933185E+01  0.20829764732E+02  0.51100000000E-03 0.  1.
        -12    1    4    4    0    0  0.43935029506E+01 -0.16691389215E+02 -0.57301845742E+01  0.18186268374E+02  0.00000000000E+00 0.  1.
</event>
<event>
 8    1  0.9287747E-011  0.9118800E+02  0.7816164E-02  0.1184000E+00
        -11   -1    0    0    0    0  0.00000000000E+00  0.00000000000E+00  0.45593999997E+02  0.45594000000E+02  0.51100000000E-03 0. -1.
         11   -1    0    0    0    0 -0.00000000000E+00 -0.00000000000E+00 -0.45593999997E+02  0.45594000000E+02  0.51100000000E-03 0.  1.
         23    2    1    2    0    0  0.00000000000E+00  0.00000000000E+00 -0.17763568394E-14  0.91188000000E+02  0.91188000000E+02 0.  0.
    9900012    2    3    3    0    0 -0.15207847116E+02  0.37569901192E+02 -0.15519229765E+02  0.47787279016E+02  0.20000036344E+02 0.  0.
         12    1    3    3    0    0  0.15207847116E+02 -0.37569901192E+02  0.15519229765E+02  0.43400720984E+02  0.00000000000E+00 0. -1.
         11    1    4    4    0    0  0.32387012203E+01  0.58573254403E+01 -0.71095294489E+01  0.97643666540E+01  0.51100000000E-03 0. -1.
        -11    1    4    4    0    0 -0.72597017311E+01  0.13494963400E+02 -0.62012163578E+01  0.16530952512E+02  0.51100000000E-03 0.  1.
         12    1    4    4    0    0 -0.11186846605E+02  0.18217612352E+02 -0.22084839579E+01  0.21491959849E+02  0.00000000000E+00 0. -1.
</event>
<event>
 8    1  0.5834107E-011  0.9118800E+02  0.7816164E-02  0.1184000E+00
        -11   -1    0    0    0    0  0.00000000000E+00  0.00000000000E+00  0.45593999997E+02  0.45594000000E+02  0.51100000000E-03 0.  1.
         11   -1    0    0    0    0 -0.00000000000E+00 -0.00000000000E+00 -0.45593999997E+02  0.45594000000E+02  0.51100000000E-03 0. -1.
         23    2    1    2    0    0  0.00000000000E+00  0.00000000000E+00  0.33306690739E-15  0.91188000000E+02  0.91188000000E+02 0.  0.
    9900012    2    3    3    0    0 -0.11001774094E+02  0.41978615229E+02  0.61710873677E+00  0.47787262760E+02  0.19999962229E+02 0.  0.
        -12    1    3    3    0    0  0.11001774094E+02 -0.41978615229E+02 -0.61710873677E+00  0.43400737240E+02  0.00000000000E+00 0.  1.
         11    1    4    4    0    0 -0.55430051058E+01  0.40579168149E+02  0.29148642074E+01  0.41059593604E+02  0.51100000000E-03 0. -1.
        -11    1    4    4    0    0 -0.64447810441E+00  0.25505112124E+00 -0.15827264284E+01  0.17278386238E+01  0.51100000000E-03 0.  1.
         12    1    4    4    0    0 -0.48142908837E+01  0.11443959584E+01 -0.71502904226E+00  0.49998305325E+01  0.00000000000E+00 0. -1.
</event>
<event>
 8    1  0.5834107E-011  0.9118800E+02  0.7816164E-02  0.1184000E+00
        -11   -1    0    0    0    0  0.00000000000E+00  0.00000000000E+00  0.45593999997E+02  0.45594000000E+02  0.51100000000E-03 0.  1.
         11   -1    0    0    0    0 -0.00000000000E+00 -0.00000000000E+00 -0.45593999997E+02  0.45594000000E+02  0.51100000000E-03 0. -1.
         23    2    1    2    0    0  0.88817841970E-15  0.00000000000E+00  0.00000000000E+00  0.91188000000E+02  0.91188000000E+02 0.  0.
    9900012    2    3    3    0    0  0.76747067275E+01 -0.40706944975E+02  0.12948603074E+02  0.47787276341E+02  0.20000024148E+02 0.  0.
         12    1    3    3    0    0 -0.76747067275E+01  0.40706944975E+02 -0.12948603074E+02  0.43400723659E+02  0.00000000000E+00 0. -1.
         11    1    4    4    0    0 -0.28301071489E+01 -0.18688623909E+02  0.24023136343E+01  0.19053747168E+02  0.51100000000E-03 0. -1.
        -11    1    4    4    0    0  0.54039776334E+01 -0.20388828668E+02  0.10023358805E+02  0.23353265954E+02  0.51100000000E-03 0.  1.
         12    1    4    4    0    0  0.51008362430E+01 -0.16294923983E+01  0.52293063477E+00  0.53802632188E+01  0.00000000000E+00 0. -1.
</event>
<event>
 8    1  0.5834107E-011  0.9118800E+02  0.7816164E-02  0.1184000E+00
        -11   -1    0    0    0    0  0.00000000000E+00  0.00000000000E+00  0.45593999997E+02  0.45594000000E+02  0.51100000000E-03 0. -1.
         11   -1    0    0    0    0 -0.00000000000E+00 -0.00000000000E+00 -0.45593999997E+02  0.45594000000E+02  0.51100000000E-03 0.  1.
         23    2    1    2    0    0  0.00000000000E+00  0.00000000000E+00  0.00000000000E+00  0.91188000000E+02  0.91188000000E+02 0.  0.
    9900012    2    3    3    0    0  0.19608461871E+02  0.16040232924E+02 -0.35239786977E+02  0.47787269183E+02  0.19999991513E+02 0.  0.
         12    1    3    3    0    0 -0.19608461871E+02 -0.16040232924E+02  0.35239786977E+02  0.43400730817E+02  0.00000000000E+00 0. -1.
         11    1    4    4    0    0  0.29831698113E+01  0.17657293555E+01 -0.20124162612E+01  0.40083564898E+01  0.51100000000E-03 0. -1.
        -11    1    4    4    0    0  0.65542587537E+01  0.13638883179E+02 -0.29249879050E+02  0.32932246611E+02  0.51100000000E-03 0.  1.
        -12    1    4    4    0    0  0.10071033306E+02  0.63562039043E+00 -0.39774916665E+01  0.10846666082E+02  0.00000000000E+00 0.  1.
</event>
<event>
 8    1  0.5834107E-011  0.9118800E+02  0.7816164E-02  0.1184000E+00
        -11   -1    0    0    0    0  0.00000000000E+00  0.00000000000E+00  0.45593999997E+02  0.45594000000E+02  0.51100000000E-03 0.  1.
         11   -1    0    0    0    0 -0.00000000000E+00 -0.00000000000E+00 -0.45593999997E+02  0.45594000000E+02  0.51100000000E-03 0. -1.
         23    2    1    2    0    0  0.00000000000E+00  0.00000000000E+00  0.17763568394E-14  0.91188000000E+02  0.91188000000E+02 0.  0.
    9900012    2    3    3    0    0 -0.92943309415E+01  0.40543116175E+02 -0.12389284020E+02  0.47787271719E+02  0.20000003075E+02 0.  0.
        -12    1    3    3    0    0  0.92943309415E+01 -0.40543116175E+02  0.12389284020E+02  0.43400728281E+02  0.00000000000E+00 0.  1.
         11    1    4    4    0    0 -0.55795736459E+01  0.25279646911E+02 -0.34745004521E+01  0.26120190345E+02  0.51100000000E-03 0. -1.
        -11    1    4    4    0    0  0.42836353929E+00  0.13937633513E+02 -0.10029430300E+02  0.17176454688E+02  0.51100000000E-03 0.  1.
        -12    1    4    4    0    0 -0.41431208349E+01  0.13258357502E+01  0.11146467317E+01  0.44906266852E+01  0.00000000000E+00 0.  1.
</event>
<event>
 8    1  0.5834107E-011  0.9118800E+02  0.7816164E-02  0.1184000E+00
        -11   -1    0    0    0    0  0.00000000000E+00  0.00000000000E+00  0.45593999997E+02  0.45594000000E+02  0.51100000000E-03 0. -1.
         11   -1    0    0    0    0 -0.00000000000E+00 -0.00000000000E+00 -0.45593999997E+02  0.45594000000E+02  0.51100000000E-03 0.  1.
         23    2    1    2    0    0  0.00000000000E+00 -0.35527136788E-14  0.00000000000E+00  0.91188000000E+02  0.91188000000E+02 0.  0.
    9900012    2    3    3    0    0 -0.54718353286E+01  0.26114375637E+02 -0.34230418533E+02  0.47787272475E+02  0.20000006522E+02 0.  0.
         12    1    3    3    0    0  0.54718353286E+01 -0.26114375637E+02  0.34230418533E+02  0.43400727525E+02  0.00000000000E+00 0. -1.
         11    1    4    4    0    0 -0.38796095414E+01  0.92739865303E+01 -0.81779078956E+01  0.12959026745E+02  0.51100000000E-03 0. -1.
        -11    1    4    4    0    0 -0.66235423001E+00  0.24453383018E+01 -0.18256211403E+02  0.18431159692E+02  0.51100000000E-03 0.  1.
         12    1    4    4    0    0 -0.92987155719E+00  0.14395050805E+02 -0.77962992339E+01  0.16397086038E+02  0.00000000000E+00 0. -1.
</event>
<event>
 8    1  0.5834107E-011  0.9118800E+02  0.7816164E-02  0.1184000E+00
        -11   -1    0    0    0    0  0.00000000000E+00  0.00000000000E+00  0.45593999997E+02  0.45594000000E+02  0.51100000000E-03 0. -1.
         11   -1    0    0    0    0 -0.00000000000E+00 -0.00000000000E+00 -0.45593999997E+02  0.45594000000E+02  0.51100000000E-03 0.  1.
         23    2    1    2    0    0 -0.35527136788E-14 -0.17763568394E-14  0.00000000000E+00  0.91188000000E+02  0.91188000000E+02 0.  0.
    9900012    2    3    3    0    0 -0.18640179283E+02 -0.67198325467E+01  0.38613612724E+02  0.47787268200E+02  0.19999987032E+02 0.  0.
        -12    1    3    3    0    0  0.18640179283E+02  0.67198325467E+01 -0.38613612724E+02  0.43400731800E+02  0.00000000000E+00 0.  1.
         11    1    4    4    0    0 -0.87511316693E+01 -0.45979609310E+01  0.54363928441E+01  0.11281751532E+02  0.51100000000E-03 0.  1.
        -11    1    4    4    0    0 -0.90462326714E+01  0.33158942260E+01  0.19138799318E+02  0.21427158460E+02  0.51100000000E-03 0. -1.
         12    1    4    4    0    0 -0.84281494205E+00 -0.54377658418E+01  0.14038420562E+02  0.15078358208E+02  0.00000000000E+00 0. -1.
</event>
<event>
 8    1  0.5834107E-011  0.9118800E+02  0.7816164E-02  0.1184000E+00
        -11   -1    0    0    0    0  0.00000000000E+00  0.00000000000E+00  0.45593999997E+02  0.45594000000E+02  0.51100000000E-03 0. -1.
         11   -1    0    0    0    0 -0.00000000000E+00 -0.00000000000E+00 -0.45593999997E+02  0.45594000000E+02  0.51100000000E-03 0.  1.
         23    2    1    2    0    0  0.00000000000E+00 -0.17763568394E-14 -0.71054273576E-14  0.91188000000E+02  0.91188000000E+02 0.  0.
    9900012    2    3    3    0    0  0.41046682869E+01  0.10150261887E+02  0.41996977865E+02  0.47787282634E+02  0.20000052840E+02 0.  0.
        -12    1    3    3    0    0 -0.41046682869E+01 -0.10150261887E+02 -0.41996977865E+02  0.43400717366E+02  0.00000000000E+00 0.  1.
         11    1    4    4    0    0 -0.12815332772E+00  0.11985854696E+02  0.11315250834E+02  0.16483690053E+02  0.51100000000E-03 0. -1.
        -11    1    4    4    0    0  0.15831411995E+01  0.12800074197E+01  0.12736647845E+02  0.12898331429E+02  0.51100000000E-03 0.  1.
        -12    1    4    4    0    0  0.26496804151E+01 -0.31156002282E+01  0.17945079186E+02  0.18405261152E+02  0.00000000000E+00 0.  1.
</event>
<event>
 8    1  0.5834107E-011  0.9118800E+02  0.7816164E-02  0.1184000E+00
        -11   -1    0    0    0    0  0.00000000000E+00  0.00000000000E+00  0.45593999997E+02  0.45594000000E+02  0.51100000000E-03 0. -1.
         11   -1    0    0    0    0 -0.00000000000E+00 -0.00000000000E+00 -0.45593999997E+02  0.45594000000E+02  0.51100000000E-03 0.  1.
         23    2    1    2    0    0  0.00000000000E+00  0.00000000000E+00  0.00000000000E+00  0.91188000000E+02  0.91188000000E+02 0.  0.
    9900012    2    3    3    0    0  0.33124158641E+01 -0.38542076078E+02  0.19676370461E+02  0.47787270953E+02  0.19999999584E+02 0.  0.
        -12    1    3    3    0    0 -0.33124158641E+01  0.38542076078E+02 -0.19676370461E+02  0.43400729047E+02  0.00000000000E+00 0.  1.
         11    1    4    4    0    0  0.11355331223E+01 -0.66520287934E+01  0.21155719787E+01  0.70720978216E+01  0.51100000000E-03 0. -1.
        -11    1    4    4    0    0 -0.68592558163E+01 -0.22241832213E+02  0.89386792880E+01  0.24932879461E+02  0.51100000000E-03 0.  1.
        -12    1    4    4    0    0  0.90361385580E+01 -0.96482150721E+01  0.86221191941E+01  0.15782293671E+02  0.00000000000E+00 0.  1.
</event>
<event>
 8    1  0.5834107E-011  0.9118800E+02  0.7816164E-02  0.1184000E+00
        -11   -1    0    0    0    0  0.00000000000E+00  0.00000000000E+00  0.45593999997E+02  0.45594000000E+02  0.51100000000E-03 0. -1.
         11   -1    0    0    0    0 -0.00000000000E+00 -0.00000000000E+00 -0.45593999997E+02  0.45594000000E+02  0.51100000000E-03 0.  1.
         23    2    1    2    0    0  0.00000000000E+00  0.00000000000E+00 -0.71054273576E-14  0.91188000000E+02  0.91188000000E+02 0.  0.
    9900012    2    3    3    0    0  0.17533368746E+02  0.10188669855E+02  0.38371801601E+02  0.47787272229E+02  0.20000005399E+02 0.  0.
        -12    1    3    3    0    0 -0.17533368746E+02 -0.10188669855E+02 -0.38371801601E+02  0.43400727771E+02  0.00000000000E+00 0.  1.
         11    1    4    4    0    0  0.17615529022E+01 -0.26044463707E+01  0.21843242632E+01  0.38285091450E+01  0.51100000000E-03 0. -1.
        -11    1    4    4    0    0  0.89739726271E+01 -0.14878330066E+01  0.14486074865E+02  0.17105326569E+02  0.51100000000E-03 0.  1.
         12    1    4    4    0    0  0.67978432163E+01  0.14280949233E+02  0.21701402472E+02  0.26853436515E+02  0.00000000000E+00 0. -1.
</event>
<event>
 8    1  0.5834107E-011  0.9118800E+02  0.7816164E-02  0.1184000E+00
        -11   -1    0    0    0    0  0.00000000000E+00  0.00000000000E+00  0.45593999997E+02  0.45594000000E+02  0.51100000000E-03 0. -1.
         11   -1    0    0    0    0 -0.00000000000E+00 -0.00000000000E+00 -0.45593999997E+02  0.45594000000E+02  0.51100000000E-03 0.  1.
         23    2    1    2    0    0 -0.44408920985E-15 -0.71054273576E-14  0.00000000000E+00  0.91188000000E+02  0.91188000000E+02 0.  0.
    9900012    2    3    3    0    0  0.20999638340E+01  0.33869063627E+02  0.27057348899E+02  0.47787269033E+02  0.19999990828E+02 0.  0.
        -12    1    3    3    0    0 -0.20999638340E+01 -0.33869063627E+02 -0.27057348899E+02  0.43400730967E+02  0.00000000000E+00 0.  1.
         11    1    4    4    0    0 -0.50622693560E+01  0.29081215513E+02  0.18957123164E+02  0.35081564755E+02  0.51100000000E-03 0. -1.
        -11    1    4    4    0    0  0.35754626308E+01  0.45410658242E+01  0.66973318792E+01  0.88464380632E+01  0.51100000000E-03 0.  1.
        -12    1    4    4    0    0  0.35867705593E+01  0.24678228925E+00  0.14028938553E+01  0.38592662142E+01  0.00000000000E+00 0.  1.
</event>
<event>
 8    1  0.5834107E-011  0.9118800E+02  0.7816164E-02  0.1184000E+00
        -11   -1    0    0    0    0  0.00000000000E+00  0.00000000000E+00  0.45593999997E+02  0.45594000000E+02  0.51100000000E-03 0. -1.
         11   -1    0    0    0    0 -0.00000000000E+00 -0.00000000000E+00 -0.45593999997E+02  0.45594000000E+02  0.51100000000E-03 0.  1.
         23    2    1    2    0    0 -0.44408920985E-15  0.00000000000E+00  0.00000000000E+00  0.91188000000E+02  0.91188000000E+02 0.  0.
    9900012    2    3    3    0    0  0.33718880387E+01  0.19359299886E+01  0.43226220076E+02  0.47787267795E+02  0.19999985187E+02 0.  0.
        -12    1    3    3    0    0 -0.33718880387E+01 -0.19359299886E+01 -0.43226220076E+02  0.43400732205E+02  0.00000000000E+00 0.  1.
         11    1    4    4    0    0  0.66231456933E+01 -0.89871081159E+00  0.11692234319E+02  0.13467816587E+02  0.51100000000E-03 0. -1.
        -11    1    4    4    0    0 -0.92614534505E+00  0.67184704127E+01  0.86482799134E+01  0.10990374680E+02  0.51100000000E-03 0.  1.
        -12    1    4    4    0    0 -0.23251123096E+01 -0.38838296126E+01  0.22885705843E+02  0.23329076528E+02  0.00000000000E+00 0.  1.
</event>
<event>
 8    1  0.5834107E-011  0.9118800E+02  0.7816164E-02  0.1184000E+00
        -11   -1    0    0    0    0  0.00000000000E+00  0.00000000000E+00  0.45593999997E+02  0.45594000000E+02  0.51100000000E-03 0. -1.
         11   -1    0    0    0    0 -0.00000000000E+00 -0.00000000000E+00 -0.45593999997E+02  0.45594000000E+02  0.51100000000E-03 0.  1.
         23    2    1    2    0    0  0.66613381478E-15 -0.17763568394E-14  0.00000000000E+00  0.91188000000E+02  0.91188000000E+02 0.  0.
    9900012    2    3    3    0    0  0.15110563553E+01 -0.15190584025E+02  0.40627407273E+02  0.47787270097E+02  0.19999995682E+02 0.  0.
        -12    1    3    3    0    0 -0.15110563553E+01  0.15190584025E+02 -0.40627407273E+02  0.43400729903E+02  0.00000000000E+00 0.  1.
         11    1    4    4    0    0 -0.74923297343E+01 -0.11399467959E+01  0.12321564232E+02  0.14465663791E+02  0.51100000000E-03 0. -1.
        -11    1    4    4    0    0  0.55225793945E+01 -0.38311235995E+01  0.12267583930E+02  0.13988209569E+02  0.51100000000E-03 0.  1.
         12    1    4    4    0    0  0.34808066951E+01 -0.10219513629E+02  0.16038259112E+02  0.19333396737E+02  0.00000000000E+00 0. -1.
</event>
<event>
 8    1  0.5834107E-011  0.9118800E+02  0.7816164E-02  0.1184000E+00
        -11   -1    0    0    0    0  0.00000000000E+00  0.00000000000E+00  0.45593999997E+02  0.45594000000E+02  0.51100000000E-03 0. -1.
         11   -1    0    0    0    0 -0.00000000000E+00 -0.00000000000E+00 -0.45593999997E+02  0.45594000000E+02  0.51100000000E-03 0.  1.
         23    2    1    2    0    0  0.88817841970E-15 -0.35527136788E-14  0.00000000000E+00  0.91188000000E+02  0.91188000000E+02 0.  0.
    9900012    2    3    3    0    0 -0.73033641904E+01  0.20284284080E+02  0.37667360015E+02  0.47787293558E+02  0.20000102648E+02 0.  0.
        -12    1    3    3    0    0  0.73033641904E+01 -0.20284284080E+02 -0.37667360015E+02  0.43400706442E+02  0.00000000000E+00 0.  1.
         11    1    4    4    0    0 -0.11383543103E+01 -0.21755637336E+01 -0.35183940952E+00  0.24804675619E+01  0.51100000000E-03 0. -1.
        -11    1    4    4    0    0 -0.17702505396E+01  0.10145545406E+02  0.98492323862E+01  0.14250377448E+02  0.51100000000E-03 0.  1.
         12    1    4    4    0    0 -0.43947593405E+01  0.12314302408E+02  0.28169967039E+02  0.31056448548E+02  0.00000000000E+00 0. -1.
</event>
<event>
 8    1  0.5834107E-011  0.9118800E+02  0.7816164E-02  0.1184000E+00
        -11   -1    0    0    0    0  0.00000000000E+00  0.00000000000E+00  0.45593999997E+02  0.45594000000E+02  0.51100000000E-03 0. -1.
         11   -1    0    0    0    0 -0.00000000000E+00 -0.00000000000E+00 -0.45593999997E+02  0.45594000000E+02  0.51100000000E-03 0.  1.
         23    2    1    2    0    0  0.00000000000E+00  0.00000000000E+00  0.00000000000E+00  0.91188000000E+02  0.91188000000E+02 0.  0.
    9900012    2    3    3    0    0 -0.17288450260E+02 -0.34431943084E+02 -0.19979299597E+02  0.47787289991E+02  0.20000086384E+02 0.  0.
         12    1    3    3    0    0  0.17288450260E+02  0.34431943084E+02  0.19979299597E+02  0.43400710009E+02  0.00000000000E+00 0. -1.
         11    1    4    4    0    0  0.77479976390E+00  0.14148513836E+01 -0.78707467202E+00  0.17948832587E+01  0.51100000000E-03 0. -1.
        -11    1    4    4    0    0 -0.11422595183E+02 -0.14643317276E+02 -0.37828296453E+01  0.18952894817E+02  0.51100000000E-03 0.  1.
         12    1    4    4    0    0 -0.66406548412E+01 -0.21203477191E+02 -0.15409395279E+02  0.27039511915E+02  0.00000000000E+00 0. -1.
</event>
<event>
 8    1  0.5834107E-011  0.9118800E+02  0.7816164E-02  0.1184000E+00
        -11   -1    0    0    0    0  0.00000000000E+00  0.00000000000E+00  0.45593999997E+02  0.45594000000E+02  0.51100000000E-03 0. -1.
         11   -1    0    0    0    0 -0.00000000000E+00 -0.00000000000E+00 -0.45593999997E+02  0.45594000000E+02  0.51100000000E-03 0.  1.
         23    2    1    2    0    0 -0.88817841970E-15  0.00000000000E+00  0.00000000000E+00  0.91188000000E+02  0.91188000000E+02 0.  0.
    9900012    2    3    3    0    0 -0.61003693872E+01  0.22844102783E+02  0.36394465263E+02  0.47787255301E+02  0.19999928218E+02 0.  0.
        -12    1    3    3    0    0  0.61003693872E+01 -0.22844102783E+02 -0.36394465263E+02  0.43400744699E+02  0.00000000000E+00 0.  1.
         11    1    4    4    0    0  0.27261504206E+01  0.12477237508E+02  0.77467536884E+01  0.14937387486E+02  0.51100000000E-03 0. -1.
        -11    1    4    4    0    0 -0.82798177162E+01  0.93590377799E+01  0.16752872625E+02  0.20899897392E+02  0.51100000000E-03 0.  1.
        -12    1    4    4    0    0 -0.54670209156E+00  0.10078274957E+01  0.11894838951E+02  0.11949970422E+02  0.00000000000E+00 0.  1.
</event>
<event>
 8    1  0.5834107E-011  0.9118800E+02  0.7816164E-02  0.1184000E+00
        -11   -1    0    0    0    0  0.00000000000E+00  0.00000000000E+00  0.45593999997E+02  0.45594000000E+02  0.51100000000E-03 0.  1.
         11   -1    0    0    0    0 -0.00000000000E+00 -0.00000000000E+00 -0.45593999997E+02  0.45594000000E+02  0.51100000000E-03 0. -1.
         23    2    1    2    0    0  0.35527136788E-14  0.00000000000E+00  0.00000000000E+00  0.91188000000E+02  0.91188000000E+02 0.  0.
    9900012    2    3    3    0    0  0.29889116435E+02 -0.29003001108E+02  0.12210318370E+02  0.47787248518E+02  0.19999897291E+02 0.  0.
        -12    1    3    3    0    0 -0.29889116435E+02  0.29003001108E+02 -0.12210318370E+02  0.43400751482E+02  0.00000000000E+00 0.  1.
         11    1    4    4    0    0 -0.19662484661E-01 -0.31876490936E+01  0.45461754184E+00  0.32199643985E+01  0.51100000000E-03 0. -1.
        -11    1    4    4    0    0  0.67694431727E+01 -0.98891295446E-01 -0.24082011187E+01  0.71857200924E+01  0.51100000000E-03 0.  1.
         12    1    4    4    0    0  0.23139335747E+02 -0.25716460719E+02  0.14163901947E+02  0.37381564027E+02  0.00000000000E+00 0. -1.
</event>
<event>
 8    1  0.5834107E-011  0.9118800E+02  0.7816164E-02  0.1184000E+00
        -11   -1    0    0    0    0  0.00000000000E+00  0.00000000000E+00  0.45593999997E+02  0.45594000000E+02  0.51100000000E-03 0. -1.
         11   -1    0    0    0    0 -0.00000000000E+00 -0.00000000000E+00 -0.45593999997E+02  0.45594000000E+02  0.51100000000E-03 0.  1.
         23    2    1    2    0    0  0.88817841970E-15 -0.26645352591E-14  0.00000000000E+00  0.91188000000E+02  0.91188000000E+02 0.  0.
    9900012    2    3    3    0    0  0.39830460222E+01 -0.68252123828E+01  0.42675227633E+02  0.47787271513E+02  0.20000002138E+02 0.  0.
        -12    1    3    3    0    0 -0.39830460222E+01  0.68252123828E+01 -0.42675227633E+02  0.43400728487E+02  0.00000000000E+00 0.  1.
         11    1    4    4    0    0  0.36668247767E+01 -0.80984381126E+01  0.30438270473E+02  0.31709913489E+02  0.51100000000E-03 0. -1.
        -11    1    4    4    0    0 -0.31930684011E+01 -0.28127955808E+01  0.24606693056E+01  0.49155262674E+01  0.51100000000E-03 0.  1.
        -12    1    4    4    0    0  0.35092896466E+01  0.40860213106E+01  0.97762878536E+01  0.11161831757E+02  0.00000000000E+00 0.  1.
</event>
<event>
 8    1  0.5834107E-011  0.9118800E+02  0.7816164E-02  0.1184000E+00
        -11   -1    0    0    0    0  0.00000000000E+00  0.00000000000E+00  0.45593999997E+02  0.45594000000E+02  0.51100000000E-03 0. -1.
         11   -1    0    0    0    0 -0.00000000000E+00 -0.00000000000E+00 -0.45593999997E+02  0.45594000000E+02  0.51100000000E-03 0.  1.
         23    2    1    2    0    0  0.00000000000E+00  0.17763568394E-14 -0.71054273576E-14  0.91188000000E+02  0.91188000000E+02 0.  0.
    9900012    2    3    3    0    0 -0.19496999551E+02  0.14829224422E+02 -0.35827137844E+02  0.47787277718E+02  0.20000030429E+02 0.  0.
         12    1    3    3    0    0  0.19496999551E+02 -0.14829224422E+02  0.35827137844E+02  0.43400722282E+02  0.00000000000E+00 0. -1.
         11    1    4    4    0    0 -0.28014618556E-01  0.28271557079E+01 -0.85673574531E+01  0.90218184533E+01  0.51100000000E-03 0. -1.
        -11    1    4    4    0    0 -0.21799749776E+02  0.12433233249E+02 -0.25741895915E+02  0.35950793940E+02  0.51100000000E-03 0.  1.
         12    1    4    4    0    0  0.23307648437E+01 -0.43116453443E+00 -0.15178844757E+01  0.28146653254E+01  0.00000000000E+00 0. -1.
</event>
<event>
 8    1  0.5834107E-011  0.9118800E+02  0.7816164E-02  0.1184000E+00
        -11   -1    0    0    0    0  0.00000000000E+00  0.00000000000E+00  0.45593999997E+02  0.45594000000E+02  0.51100000000E-03 0. -1.
         11   -1    0    0    0    0 -0.00000000000E+00 -0.00000000000E+00 -0.45593999997E+02  0.45594000000E+02  0.51100000000E-03 0.  1.
         23    2    1    2    0    0  0.00000000000E+00  0.35527136788E-14 -0.35527136788E-14  0.91188000000E+02  0.91188000000E+02 0.  0.
    9900012    2    3    3    0    0  0.13904727197E+02 -0.26469478791E+02  0.31458681987E+02  0.47787269381E+02  0.19999992416E+02 0.  0.
        -12    1    3    3    0    0 -0.13904727197E+02  0.26469478791E+02 -0.31458681987E+02  0.43400730619E+02  0.00000000000E+00 0.  1.
         11    1    4    4    0    0  0.20877490538E+01 -0.10459118933E+02  0.18352030833E+02  0.21226137211E+02  0.51100000000E-03 0. -1.
        -11    1    4    4    0    0 -0.15219708200E+01 -0.24349915053E+01 -0.81024999424E+00  0.29836360572E+01  0.51100000000E-03 0.  1.
         12    1    4    4    0    0  0.13338948963E+02 -0.13575368353E+02  0.13916901148E+02  0.23577496112E+02  0.00000000000E+00 0. -1.
</event>
<event>
 8    1  0.5834107E-011  0.9118800E+02  0.7816164E-02  0.1184000E+00
        -11   -1    0    0    0    0  0.00000000000E+00  0.00000000000E+00  0.45593999997E+02  0.45594000000E+02  0.51100000000E-03 0. -1.
         11   -1    0    0    0    0 -0.00000000000E+00 -0.00000000000E+00 -0.45593999997E+02  0.45594000000E+02  0.51100000000E-03 0.  1.
         23    2    1    2    0    0  0.00000000000E+00 -0.71054273576E-14 -0.35527136788E-14  0.91188000000E+02  0.91188000000E+02 0.  0.
    9900012    2    3    3    0    0  0.11408859955E+02  0.35639021902E+02  0.21984575358E+02  0.47787268194E+02  0.19999987005E+02 0.  0.
        -12    1    3    3    0    0 -0.11408859955E+02 -0.35639021902E+02 -0.21984575358E+02  0.43400731806E+02  0.00000000000E+00 0.  1.
         11    1    4    4    0    0  0.95408089087E+01  0.24396838358E+02  0.15674685626E+02  0.30527504422E+02  0.51100000000E-03 0. -1.
        -11    1    4    4    0    0 -0.81003437440E-01  0.10065369188E+02  0.91615226660E+01  0.13610720637E+02  0.51100000000E-03 0.  1.
        -12    1    4    4    0    0  0.19490544838E+01  0.11768143568E+01 -0.28516329343E+01  0.36490431353E+01  0.00000000000E+00 0.  1.
</event>
<event>
 8    1  0.5834107E-011  0.9118800E+02  0.7816164E-02  0.1184000E+00
        -11   -1    0    0    0    0  0.00000000000E+00  0.00000000000E+00  0.45593999997E+02  0.45594000000E+02  0.51100000000E-03 0. -1.
         11   -1    0    0    0    0 -0.00000000000E+00 -0.00000000000E+00 -0.45593999997E+02  0.45594000000E+02  0.51100000000E-03 0.  1.
         23    2    1    2    0    0  0.88817841970E-15  0.00000000000E+00 -0.35527136788E-14  0.91188000000E+02  0.91188000000E+02 0.  0.
    9900012    2    3    3    0    0  0.76366559758E+01 -0.38236723420E+02 -0.19059322402E+02  0.47787270712E+02  0.19999998482E+02 0.  0.
         12    1    3    3    0    0 -0.76366559758E+01  0.38236723420E+02  0.19059322402E+02  0.43400729288E+02  0.00000000000E+00 0. -1.
         11    1    4    4    0    0 -0.16297162362E+01  0.80549870438E-01  0.85225250204E+00  0.18408687842E+01  0.51100000000E-03 0. -1.
        -11    1    4    4    0    0  0.87003965541E+01 -0.30583680998E+02 -0.99398761526E+01  0.33314555104E+02  0.51100000000E-03 0.  1.
         12    1    4    4    0    0  0.56597565796E+00 -0.77335922917E+01 -0.99716987511E+01  0.12631846823E+02  0.00000000000E+00 0. -1.
</event>
<event>
 8    1  0.5834107E-011  0.9118800E+02  0.7816164E-02  0.1184000E+00
        -11   -1    0    0    0    0  0.00000000000E+00  0.00000000000E+00  0.45593999997E+02  0.45594000000E+02  0.51100000000E-03 0.  1.
         11   -1    0    0    0    0 -0.00000000000E+00 -0.00000000000E+00 -0.45593999997E+02  0.45594000000E+02  0.51100000000E-03 0. -1.
         23    2    1    2    0    0  0.00000000000E+00  0.00000000000E+00  0.00000000000E+00  0.91188000000E+02  0.91188000000E+02 0.  0.
    9900012    2    3    3    0    0 -0.21623672025E+02 -0.36686880799E+02 -0.83733317401E+01  0.47787273058E+02  0.20000009182E+02 0.  0.
        -12    1    3    3    0    0  0.21623672025E+02  0.36686880799E+02  0.83733317401E+01  0.43400726942E+02  0.00000000000E+00 0.  1.
         11    1    4    4    0    0 -0.55427540956E+00 -0.11655461976E+02  0.18625835322E+01  0.11816354463E+02  0.51100000000E-03 0. -1.
        -11    1    4    4    0    0 -0.44782868606E+00 -0.66654422522E+01 -0.35218790902E+01  0.75519734862E+01  0.51100000000E-03 0.  1.
         12    1    4    4    0    0 -0.20621567930E+02 -0.18365976571E+02 -0.67140361821E+01  0.28418945109E+02  0.00000000000E+00 0. -1.
</event>
<event>
 8    1  0.5834107E-011  0.9118800E+02  0.7816164E-02  0.1184000E+00
        -11   -1    0    0    0    0  0.00000000000E+00  0.00000000000E+00  0.45593999997E+02  0.45594000000E+02  0.51100000000E-03 0. -1.
         11   -1    0    0    0    0 -0.00000000000E+00 -0.00000000000E+00 -0.45593999997E+02  0.45594000000E+02  0.51100000000E-03 0.  1.
         23    2    1    2    0    0  0.17763568394E-14 -0.71054273576E-14  0.88817841970E-15  0.91188000000E+02  0.91188000000E+02 0.  0.
    9900012    2    3    3    0    0 -0.15347199073E+02  0.39898842685E+02 -0.74945463497E+01  0.47787281205E+02  0.20000046324E+02 0.  0.
        -12    1    3    3    0    0  0.15347199073E+02 -0.39898842685E+02  0.74945463497E+01  0.43400718795E+02  0.00000000000E+00 0.  1.
         11    1    4    4    0    0 -0.10659366504E+02  0.23571106045E+02  0.47549916181E+01  0.26302643974E+02  0.51100000000E-03 0. -1.
        -11    1    4    4    0    0 -0.19183282752E+00  0.30354408881E+01 -0.45670789317E+01  0.54871587774E+01  0.51100000000E-03 0.  1.
         12    1    4    4    0    0 -0.44959997407E+01  0.13292295752E+02 -0.76824590362E+01  0.15997478454E+02  0.00000000000E+00 0. -1.
</event>
<event>
 8    1  0.8333359E-011  0.9118800E+02  0.7816164E-02  0.1184000E+00
        -11   -1    0    0    0    0  0.00000000000E+00  0.00000000000E+00  0.45593999997E+02  0.45594000000E+02  0.51100000000E-03 0. -1.
         11   -1    0    0    0    0 -0.00000000000E+00 -0.00000000000E+00 -0.45593999997E+02  0.45594000000E+02  0.51100000000E-03 0.  1.
         23    2    1    2    0    0 -0.22204460493E-15  0.00000000000E+00  0.00000000000E+00  0.91188000000E+02  0.91188000000E+02 0.  0.
    9900012    2    3    3    0    0  0.86618315574E+00  0.17727022763E+01  0.43355859849E+02  0.47787270399E+02  0.19999997057E+02 0.  0.
        -12    1    3    3    0    0 -0.86618315574E+00 -0.17727022763E+01 -0.43355859849E+02  0.43400729601E+02  0.00000000000E+00 0.  1.
         11    1    4    4    0    0 -0.38528998335E+01  0.16658848133E+01  0.47338649066E+01  0.63268860076E+01  0.51100000000E-03 0. -1.
        -11    1    4    4    0    0  0.70515234547E+01  0.34920064836E+01  0.10946554240E+02  0.13481288600E+02  0.51100000000E-03 0.  1.
         12    1    4    4    0    0 -0.23324404654E+01 -0.33851890207E+01  0.27675440703E+02  0.27979095792E+02  0.00000000000E+00 0. -1.
</event>
<event>
 8    1  0.5834107E-011  0.9118800E+02  0.7816164E-02  0.1184000E+00
        -11   -1    0    0    0    0  0.00000000000E+00  0.00000000000E+00  0.45593999997E+02  0.45594000000E+02  0.51100000000E-03 0.  1.
         11   -1    0    0    0    0 -0.00000000000E+00 -0.00000000000E+00 -0.45593999997E+02  0.45594000000E+02  0.51100000000E-03 0. -1.
         23    2    1    2    0    0  0.00000000000E+00  0.44408920985E-15  0.00000000000E+00  0.91188000000E+02  0.91188000000E+02 0.  0.
    9900012    2    3    3    0    0 -0.43074267651E+02  0.21077716486E+01 -0.48773142513E+01  0.47787269254E+02  0.19999991838E+02 0.  0.
        -12    1    3    3    0    0  0.43074267651E+02 -0.21077716486E+01  0.48773142513E+01  0.43400730746E+02  0.00000000000E+00 0.  1.
         11    1    4    4    0    0 -0.14186298508E+02  0.50966040128E+01  0.27383912415E+01  0.15320744912E+02  0.51100000000E-03 0. -1.
        -11    1    4    4    0    0 -0.52120301225E+01  0.43107352576E+01 -0.11464677067E+01  0.68601811144E+01  0.51100000000E-03 0.  1.
         12    1    4    4    0    0 -0.23675939020E+02 -0.72995676217E+01 -0.64692377861E+01  0.25606343228E+02  0.00000000000E+00 0. -1.
</event>
<event>
 8    1  0.5834107E-011  0.9118800E+02  0.7816164E-02  0.1184000E+00
        -11   -1    0    0    0    0  0.00000000000E+00  0.00000000000E+00  0.45593999997E+02  0.45594000000E+02  0.51100000000E-03 0.  1.
         11   -1    0    0    0    0 -0.00000000000E+00 -0.00000000000E+00 -0.45593999997E+02  0.45594000000E+02  0.51100000000E-03 0. -1.
         23    2    1    2    0    0 -0.71054273576E-14  0.00000000000E+00 -0.88817841970E-15  0.91188000000E+02  0.91188000000E+02 0.  0.
    9900012    2    3    3    0    0 -0.40801999848E+02  0.13322220746E+02 -0.64294865999E+01  0.47787273564E+02  0.20000011489E+02 0.  0.
        -12    1    3    3    0    0  0.40801999848E+02 -0.13322220746E+02  0.64294865999E+01  0.43400726436E+02  0.00000000000E+00 0.  1.
         11    1    4    4    0    0 -0.21392260736E+02  0.10063157714E+02 -0.11002441479E+02  0.26075844786E+02  0.51100000000E-03 0. -1.
        -11    1    4    4    0    0 -0.15447425017E+02 -0.32469107817E+00  0.14395181684E+01  0.15517750377E+02  0.51100000000E-03 0.  1.
        -12    1    4    4    0    0 -0.39623140947E+01  0.35837541105E+01  0.31334367103E+01  0.61936784004E+01  0.00000000000E+00 0.  1.
</event>
<event>
 8    1  0.5834107E-011  0.9118800E+02  0.7816164E-02  0.1184000E+00
        -11   -1    0    0    0    0  0.00000000000E+00  0.00000000000E+00  0.45593999997E+02  0.45594000000E+02  0.51100000000E-03 0. -1.
         11   -1    0    0    0    0 -0.00000000000E+00 -0.00000000000E+00 -0.45593999997E+02  0.45594000000E+02  0.51100000000E-03 0.  1.
         23    2    1    2    0    0  0.00000000000E+00  0.00000000000E+00  0.00000000000E+00  0.91188000000E+02  0.91188000000E+02 0.  0.
    9900012    2    3    3    0    0  0.23937578984E+02 -0.21748136666E+02 -0.28941911059E+02  0.47787270146E+02  0.19999995906E+02 0.  0.
         12    1    3    3    0    0 -0.23937578984E+02  0.21748136666E+02  0.28941911059E+02  0.43400729854E+02  0.00000000000E+00 0. -1.
         11    1    4    4    0    0  0.61849065709E+01 -0.12386033046E+01 -0.10075289287E+00  0.63085147890E+01  0.51100000000E-03 0. -1.
        -11    1    4    4    0    0  0.90443543298E+01 -0.68953666069E+01 -0.44356081855E+01  0.12207417668E+02  0.51100000000E-03 0.  1.
         12    1    4    4    0    0  0.87083180836E+01 -0.13614166754E+02 -0.24405549981E+02  0.29271337689E+02  0.00000000000E+00 0. -1.
</event>
<event>
 8    1  0.5834107E-011  0.9118800E+02  0.7816164E-02  0.1184000E+00
        -11   -1    0    0    0    0  0.00000000000E+00  0.00000000000E+00  0.45593999997E+02  0.45594000000E+02  0.51100000000E-03 0. -1.
         11   -1    0    0    0    0 -0.00000000000E+00 -0.00000000000E+00 -0.45593999997E+02  0.45594000000E+02  0.51100000000E-03 0.  1.
         23    2    1    2    0    0  0.00000000000E+00  0.00000000000E+00 -0.35527136788E-14  0.91188000000E+02  0.91188000000E+02 0.  0.
    9900012    2    3    3    0    0  0.32494111905E+02  0.23167725559E+02 -0.17059087934E+02  0.47787270775E+02  0.19999998773E+02 0.  0.
         12    1    3    3    0    0 -0.32494111905E+02 -0.23167725559E+02  0.17059087934E+02  0.43400729225E+02  0.00000000000E+00 0. -1.
         11    1    4    4    0    0  0.16736766726E+02  0.63948842461E+01 -0.16357888061E+01  0.17991378776E+02  0.51100000000E-03 0. -1.
        -11    1    4    4    0    0  0.14954957813E+02  0.88003861101E+01 -0.91320540202E+01  0.19608466787E+02  0.51100000000E-03 0.  1.
         12    1    4    4    0    0  0.80238736643E+00  0.79724552027E+01 -0.62912451078E+01  0.10187425212E+02  0.00000000000E+00 0. -1.
</event>
<event>
 8    1  0.5834107E-011  0.9118800E+02  0.7816164E-02  0.1184000E+00
        -11   -1    0    0    0    0  0.00000000000E+00  0.00000000000E+00  0.45593999997E+02  0.45594000000E+02  0.51100000000E-03 0. -1.
         11   -1    0    0    0    0 -0.00000000000E+00 -0.00000000000E+00 -0.45593999997E+02  0.45594000000E+02  0.51100000000E-03 0.  1.
         23    2    1    2    0    0  0.17763568394E-14  0.00000000000E+00  0.00000000000E+00  0.91188000000E+02  0.91188000000E+02 0.  0.
    9900012    2    3    3    0    0  0.89672505492E+01 -0.25202069820E+02  0.34177001783E+02  0.47787270093E+02  0.19999995660E+02 0.  0.
        -12    1    3    3    0    0 -0.89672505492E+01  0.25202069820E+02 -0.34177001783E+02  0.43400729907E+02  0.00000000000E+00 0.  1.
         11    1    4    4    0    0  0.11708936719E+02 -0.10735371144E+02  0.26639312117E+02  0.31016130368E+02  0.51100000000E-03 0. -1.
        -11    1    4    4    0    0 -0.18218271938E+01 -0.64788211904E+01  0.48409524815E+01  0.82902955033E+01  0.51100000000E-03 0.  1.
        -12    1    4    4    0    0 -0.91985897595E+00 -0.79878774854E+01  0.26967371842E+01  0.84808442208E+01  0.00000000000E+00 0.  1.
</event>
<event>
 8    1  0.5834107E-011  0.9118800E+02  0.7816164E-02  0.1184000E+00
        -11   -1    0    0    0    0  0.00000000000E+00  0.00000000000E+00  0.45593999997E+02  0.45594000000E+02  0.51100000000E-03 0.  1.
         11   -1    0    0    0    0 -0.00000000000E+00 -0.00000000000E+00 -0.45593999997E+02  0.45594000000E+02  0.51100000000E-03 0. -1.
         23    2    1    2    0    0  0.35527136788E-14  0.00000000000E+00  0.15820678101E-14  0.91188000000E+02  0.91188000000E+02 0.  0.
    9900012    2    3    3    0    0  0.21884444466E+02  0.37478620291E+02  0.21807864112E+00  0.47787269052E+02  0.19999990918E+02 0.  0.
         12    1    3    3    0    0 -0.21884444466E+02 -0.37478620291E+02 -0.21807864112E+00  0.43400730948E+02  0.00000000000E+00 0. -1.
         11    1    4    4    0    0  0.23607517207E+01  0.83214206243E+01 -0.52533514572E+01  0.10120123106E+02  0.51100000000E-03 0. -1.
        -11    1    4    4    0    0  0.66146150098E+01  0.16274455814E+02 -0.25354015609E+01  0.17749346611E+02  0.51100000000E-03 0.  1.
         12    1    4    4    0    0  0.12909077735E+02  0.12882743853E+02  0.80068316592E+01  0.19917799335E+02  0.00000000000E+00 0. -1.
</event>
<event>
 8    1  0.5834107E-011  0.9118800E+02  0.7816164E-02  0.1184000E+00
        -11   -1    0    0    0    0  0.00000000000E+00  0.00000000000E+00  0.45593999997E+02  0.45594000000E+02  0.51100000000E-03 0. -1.
         11   -1    0    0    0    0 -0.00000000000E+00 -0.00000000000E+00 -0.45593999997E+02  0.45594000000E+02  0.51100000000E-03 0.  1.
         23    2    1    2    0    0  0.00000000000E+00  0.17763568394E-14  0.00000000000E+00  0.91188000000E+02  0.91188000000E+02 0.  0.
    9900012    2    3    3    0    0  0.26469028266E+02 -0.10982987268E+02  0.32594291346E+02  0.47787270801E+02  0.19999998890E+02 0.  0.
        -12    1    3    3    0    0 -0.26469028266E+02  0.10982987268E+02 -0.32594291346E+02  0.43400729199E+02  0.00000000000E+00 0.  1.
         11    1    4    4    0    0  0.25433272637E+01 -0.74115049980E+01  0.42236712280E+01  0.89015908021E+01  0.51100000000E-03 0. -1.
        -11    1    4    4    0    0  0.16172066363E+02 -0.73077854101E+01  0.21463372545E+02  0.27849880059E+02  0.51100000000E-03 0.  1.
        -12    1    4    4    0    0  0.77536346391E+01  0.37363031405E+01  0.69072475730E+01  0.11035799940E+02  0.00000000000E+00 0.  1.
</event>
<event>
 8    1  0.5834107E-011  0.9118800E+02  0.7816164E-02  0.1184000E+00
        -11   -1    0    0    0    0  0.00000000000E+00  0.00000000000E+00  0.45593999997E+02  0.45594000000E+02  0.51100000000E-03 0. -1.
         11   -1    0    0    0    0 -0.00000000000E+00 -0.00000000000E+00 -0.45593999997E+02  0.45594000000E+02  0.51100000000E-03 0.  1.
         23    2    1    2    0    0  0.00000000000E+00 -0.71054273576E-14 -0.35527136788E-14  0.91188000000E+02  0.91188000000E+02 0.  0.
    9900012    2    3    3    0    0 -0.39832920291E+01 -0.32879410333E+02 -0.28048180893E+02  0.47787277764E+02  0.20000030637E+02 0.  0.
         12    1    3    3    0    0  0.39832920291E+01  0.32879410333E+02  0.28048180893E+02  0.43400722236E+02  0.00000000000E+00 0. -1.
         11    1    4    4    0    0  0.53111242289E+00 -0.13805659430E+02 -0.17899285097E+02  0.22611119387E+02  0.51100000000E-03 0. -1.
        -11    1    4    4    0    0  0.32584518774E+01 -0.19533522419E+01  0.22185081863E-01  0.37991559665E+01  0.51100000000E-03 0.  1.
         12    1    4    4    0    0 -0.77728563294E+01 -0.17120398661E+02 -0.10171080878E+02  0.21377002410E+02  0.00000000000E+00 0. -1.
</event>
<event>
 8    1  0.5834107E-011  0.9118800E+02  0.7816164E-02  0.1184000E+00
        -11   -1    0    0    0    0  0.00000000000E+00  0.00000000000E+00  0.45593999997E+02  0.45594000000E+02  0.51100000000E-03 0. -1.
         11   -1    0    0    0    0 -0.00000000000E+00 -0.00000000000E+00 -0.45593999997E+02  0.45594000000E+02  0.51100000000E-03 0.  1.
         23    2    1    2    0    0  0.00000000000E+00  0.00000000000E+00  0.00000000000E+00  0.91188000000E+02  0.91188000000E+02 0.  0.
    9900012    2    3    3    0    0  0.20210893913E+02  0.34847324124E+02  0.16149504797E+02  0.47787277235E+02  0.20000028227E+02 0.  0.
        -12    1    3    3    0    0 -0.20210893913E+02 -0.34847324124E+02 -0.16149504797E+02  0.43400722765E+02  0.00000000000E+00 0.  1.
         11    1    4    4    0    0 -0.17570214433E+00 -0.96194765639E+00  0.30765058131E+01  0.32281732940E+01  0.51100000000E-03 0. -1.
        -11    1    4    4    0    0  0.63205221583E+01  0.16263202425E+02  0.64521984340E+00  0.17460156425E+02  0.51100000000E-03 0.  1.
         12    1    4    4    0    0  0.14066073899E+02  0.19546069355E+02  0.12427779140E+02  0.27098947516E+02  0.00000000000E+00 0. -1.
</event>
<event>
 8    1  0.5834107E-011  0.9118800E+02  0.7816164E-02  0.1184000E+00
        -11   -1    0    0    0    0  0.00000000000E+00  0.00000000000E+00  0.45593999997E+02  0.45594000000E+02  0.51100000000E-03 0. -1.
         11   -1    0    0    0    0 -0.00000000000E+00 -0.00000000000E+00 -0.45593999997E+02  0.45594000000E+02  0.51100000000E-03 0.  1.
         23    2    1    2    0    0  0.00000000000E+00 -0.88817841970E-15  0.00000000000E+00  0.91188000000E+02  0.91188000000E+02 0.  0.
    9900012    2    3    3    0    0  0.19687065499E+02  0.84890148276E+00 -0.38669401455E+02  0.47787265092E+02  0.19999972859E+02 0.  0.
         12    1    3    3    0    0 -0.19687065499E+02 -0.84890148276E+00  0.38669401455E+02  0.43400734908E+02  0.00000000000E+00 0. -1.
         11    1    4    4    0    0 -0.14726209558E+01  0.44680196335E+01 -0.65454355688E+01  0.80606785676E+01  0.51100000000E-03 0. -1.
        -11    1    4    4    0    0  0.10696290030E+02  0.20786627096E+01 -0.19702981941E+02  0.22515304943E+02  0.51100000000E-03 0.  1.
        -12    1    4    4    0    0  0.10463396425E+02 -0.56977808603E+01 -0.12420983945E+02  0.17211281581E+02  0.00000000000E+00 0.  1.
</event>
<event>
 8    1  0.5834107E-011  0.9118800E+02  0.7816164E-02  0.1184000E+00
        -11   -1    0    0    0    0  0.00000000000E+00  0.00000000000E+00  0.45593999997E+02  0.45594000000E+02  0.51100000000E-03 0. -1.
         11   -1    0    0    0    0 -0.00000000000E+00 -0.00000000000E+00 -0.45593999997E+02  0.45594000000E+02  0.51100000000E-03 0.  1.
         23    2    1    2    0    0  0.17763568394E-14  0.00000000000E+00  0.71054273576E-14  0.91188000000E+02  0.91188000000E+02 0.  0.
    9900012    2    3    3    0    0 -0.10660197129E+02 -0.82715357316E+01 -0.41250029659E+02  0.47787273589E+02  0.20000011600E+02 0.  0.
         12    1    3    3    0    0  0.10660197129E+02  0.82715357316E+01  0.41250029659E+02  0.43400726411E+02  0.00000000000E+00 0. -1.
         11    1    4    4    0    0 -0.32063001645E+01 -0.63796328518E+01 -0.16670339510E+02  0.18135057091E+02  0.51100000000E-03 0. -1.
        -11    1    4    4    0    0 -0.11286877549E+02 -0.60618888722E+00 -0.12210267771E+02  0.16638861412E+02  0.51100000000E-03 0.  1.
         12    1    4    4    0    0  0.38329805846E+01 -0.12857139925E+01 -0.12369422377E+02  0.13013355086E+02  0.00000000000E+00 0. -1.
</event>
<event>
 8    1  0.5834107E-011  0.9118800E+02  0.7816164E-02  0.1184000E+00
        -11   -1    0    0    0    0  0.00000000000E+00  0.00000000000E+00  0.45593999997E+02  0.45594000000E+02  0.51100000000E-03 0.  1.
         11   -1    0    0    0    0 -0.00000000000E+00 -0.00000000000E+00 -0.45593999997E+02  0.45594000000E+02  0.51100000000E-03 0. -1.
         23    2    1    2    0    0  0.00000000000E+00  0.00000000000E+00  0.00000000000E+00  0.91188000000E+02  0.91188000000E+02 0.  0.
    9900012    2    3    3    0    0  0.40685947816E+02  0.75267147707E+01 -0.13100643105E+02  0.47787255367E+02  0.19999928519E+02 0.  0.
         12    1    3    3    0    0 -0.40685947816E+02 -0.75267147707E+01  0.13100643105E+02  0.43400744633E+02  0.00000000000E+00 0. -1.
         11    1    4    4    0    0  0.19011112215E+02 -0.23426208754E+00 -0.27800711157E+01  0.19214735544E+02  0.51100000000E-03 0. -1.
        -11    1    4    4    0    0 -0.13190336564E+01  0.22367413708E+01  0.36503228702E+00  0.26222338908E+01  0.51100000000E-03 0.  1.
        -12    1    4    4    0    0  0.22993869258E+02  0.55242354875E+01 -0.10685604276E+02  0.25950285931E+02  0.00000000000E+00 0.  1.
</event>
<event>
 8    1  0.5834107E-011  0.9118800E+02  0.7816164E-02  0.1184000E+00
        -11   -1    0    0    0    0  0.00000000000E+00  0.00000000000E+00  0.45593999997E+02  0.45594000000E+02  0.51100000000E-03 0. -1.
         11   -1    0    0    0    0 -0.00000000000E+00 -0.00000000000E+00 -0.45593999997E+02  0.45594000000E+02  0.51100000000E-03 0.  1.
         23    2    1    2    0    0  0.44408920985E-15  0.00000000000E+00 -0.71054273576E-14  0.91188000000E+02  0.91188000000E+02 0.  0.
    9900012    2    3    3    0    0 -0.29618212142E+01 -0.29165919111E+02  0.32003122941E+02  0.47787273042E+02  0.20000009110E+02 0.  0.
        -12    1    3    3    0    0  0.29618212142E+01  0.29165919111E+02 -0.32003122941E+02  0.43400726958E+02  0.00000000000E+00 0.  1.
         11    1    4    4    0    0  0.43898234970E+01 -0.62638302160E+01  0.11923508299E+02  0.14166021662E+02  0.51100000000E-03 0. -1.
        -11    1    4    4    0    0 -0.13144649755E+01 -0.62577579091E+01 -0.57081874873E+00  0.64197497246E+01  0.51100000000E-03 0.  1.
         12    1    4    4    0    0 -0.60371797356E+01 -0.16644330986E+02  0.20650433390E+02  0.27201501656E+02  0.00000000000E+00 0. -1.
</event>
<event>
 8    1  0.5834107E-011  0.9118800E+02  0.7816164E-02  0.1184000E+00
        -11   -1    0    0    0    0  0.00000000000E+00  0.00000000000E+00  0.45593999997E+02  0.45594000000E+02  0.51100000000E-03 0. -1.
         11   -1    0    0    0    0 -0.00000000000E+00 -0.00000000000E+00 -0.45593999997E+02  0.45594000000E+02  0.51100000000E-03 0.  1.
         23    2    1    2    0    0  0.17763568394E-14  0.00000000000E+00 -0.17763568394E-14  0.91188000000E+02  0.91188000000E+02 0.  0.
    9900012    2    3    3    0    0 -0.15646348428E+02  0.38741147862E+02  0.11744720084E+02  0.47787271819E+02  0.20000003530E+02 0.  0.
        -12    1    3    3    0    0  0.15646348428E+02 -0.38741147862E+02 -0.11744720084E+02  0.43400728181E+02  0.00000000000E+00 0.  1.
         11    1    4    4    0    0 -0.86905680300E+01  0.11508585259E+02  0.76889149136E+01  0.16342977702E+02  0.51100000000E-03 0. -1.
        -11    1    4    4    0    0 -0.73512918550E+01  0.24882750598E+02 -0.88269722668E+00  0.25960969240E+02  0.51100000000E-03 0.  1.
         12    1    4    4    0    0  0.39551145705E+00  0.23498120057E+01  0.49385023976E+01  0.54833248769E+01  0.00000000000E+00 0. -1.
</event>
<event>
 8    1  0.5834107E-011  0.9118800E+02  0.7816164E-02  0.1184000E+00
        -11   -1    0    0    0    0  0.00000000000E+00  0.00000000000E+00  0.45593999997E+02  0.45594000000E+02  0.51100000000E-03 0. -1.
         11   -1    0    0    0    0 -0.00000000000E+00 -0.00000000000E+00 -0.45593999997E+02  0.45594000000E+02  0.51100000000E-03 0.  1.
         23    2    1    2    0    0  0.00000000000E+00  0.00000000000E+00  0.35527136788E-14  0.91188000000E+02  0.91188000000E+02 0.  0.
    9900012    2    3    3    0    0 -0.79312558011E+01 -0.34296527083E+02 -0.25386357975E+02  0.47787265447E+02  0.19999974478E+02 0.  0.
         12    1    3    3    0    0  0.79312558011E+01  0.34296527083E+02  0.25386357975E+02  0.43400734553E+02  0.00000000000E+00 0. -1.
         11    1    4    4    0    0  0.50353619261E+00 -0.15316457804E+02 -0.61131643982E+01  0.16499036566E+02  0.51100000000E-03 0. -1.
        -11    1    4    4    0    0 -0.26586141867E+01 -0.13523572620E+02 -0.18823235240E+02  0.23329582743E+02  0.51100000000E-03 0.  1.
         12    1    4    4    0    0 -0.57761778070E+01 -0.54564966585E+01 -0.44995833594E+00  0.79586461378E+01  0.00000000000E+00 0. -1.
</event>
<event>
 8    1  0.5834107E-011  0.9118800E+02  0.7816164E-02  0.1184000E+00
        -11   -1    0    0    0    0  0.00000000000E+00  0.00000000000E+00  0.45593999997E+02  0.45594000000E+02  0.51100000000E-03 0. -1.
         11   -1    0    0    0    0 -0.00000000000E+00 -0.00000000000E+00 -0.45593999997E+02  0.45594000000E+02  0.51100000000E-03 0.  1.
         23    2    1    2    0    0  0.00000000000E+00  0.00000000000E+00 -0.71054273576E-14  0.91188000000E+02  0.91188000000E+02 0.  0.
    9900012    2    3    3    0    0  0.20942691451E+02 -0.13696638535E+02  0.35460257525E+02  0.47787261571E+02  0.19999956808E+02 0.  0.
        -12    1    3    3    0    0 -0.20942691451E+02  0.13696638535E+02 -0.35460257525E+02  0.43400738429E+02  0.00000000000E+00 0.  1.
         11    1    4    4    0    0  0.64977865369E+01 -0.29874258014E+01  0.13453102804E+02  0.15235876021E+02  0.51100000000E-03 0. -1.
        -11    1    4    4    0    0 -0.10818672056E+01  0.10529672198E+01 -0.14278553254E+01  0.20779672057E+01  0.51100000000E-03 0.  1.
        -12    1    4    4    0    0  0.15526772120E+02 -0.11762179954E+02  0.23435010047E+02  0.30473418345E+02  0.00000000000E+00 0.  1.
</event>
<event>
 8    1  0.5834107E-011  0.9118800E+02  0.7816164E-02  0.1184000E+00
        -11   -1    0    0    0    0  0.00000000000E+00  0.00000000000E+00  0.45593999997E+02  0.45594000000E+02  0.51100000000E-03 0. -1.
         11   -1    0    0    0    0 -0.00000000000E+00 -0.00000000000E+00 -0.45593999997E+02  0.45594000000E+02  0.51100000000E-03 0.  1.
         23    2    1    2    0    0 -0.71054273576E-14  0.00000000000E+00 -0.71054273576E-14  0.91188000000E+02  0.91188000000E+02 0.  0.
    9900012    2    3    3    0    0  0.24527570087E+02 -0.11939100071E+02  0.33756176358E+02  0.47787271352E+02  0.20000001400E+02 0.  0.
        -12    1    3    3    0    0 -0.24527570087E+02  0.11939100071E+02 -0.33756176358E+02  0.43400728648E+02  0.00000000000E+00 0.  1.
         11    1    4    4    0    0  0.21773732154E+02 -0.80113693769E+01  0.31911138649E+02  0.39453747875E+02  0.51100000000E-03 0. -1.
        -11    1    4    4    0    0  0.23515570836E+01  0.13461841454E+01 -0.63846764586E-01  0.27103706649E+01  0.51100000000E-03 0.  1.
        -12    1    4    4    0    0  0.40228084927E+00 -0.52739148391E+01  0.19088844737E+01  0.56231528119E+01  0.00000000000E+00 0.  1.
</event>
<event>
 8    1  0.5834107E-011  0.9118800E+02  0.7816164E-02  0.1184000E+00
        -11   -1    0    0    0    0  0.00000000000E+00  0.00000000000E+00  0.45593999997E+02  0.45594000000E+02  0.51100000000E-03 0. -1.
         11   -1    0    0    0    0 -0.00000000000E+00 -0.00000000000E+00 -0.45593999997E+02  0.45594000000E+02  0.51100000000E-03 0.  1.
         23    2    1    2    0    0  0.00000000000E+00 -0.94368957093E-15  0.00000000000E+00  0.91188000000E+02  0.91188000000E+02 0.  0.
    9900012    2    3    3    0    0  0.83871035604E+01 -0.32034152520E+00 -0.42581415341E+02  0.47787273540E+02  0.20000011377E+02 0.  0.
         12    1    3    3    0    0 -0.83871035604E+01  0.32034152520E+00  0.42581415341E+02  0.43400726460E+02  0.00000000000E+00 0. -1.
         11    1    4    4    0    0  0.76370285852E-02 -0.51472330408E+01 -0.26130262903E+02  0.26632399553E+02  0.51100000000E-03 0. -1.
        -11    1    4    4    0    0  0.32067849594E+00  0.22768100690E+01  0.37051909717E+00  0.23289447075E+01  0.51100000000E-03 0.  1.
        -12    1    4    4    0    0  0.80587880359E+01  0.25500814466E+01 -0.16821671535E+02  0.18825929279E+02  0.00000000000E+00 0.  1.
</event>
<event>
 8    1  0.5834107E-011  0.9118800E+02  0.7816164E-02  0.1184000E+00
        -11   -1    0    0    0    0  0.00000000000E+00  0.00000000000E+00  0.45593999997E+02  0.45594000000E+02  0.51100000000E-03 0. -1.
         11   -1    0    0    0    0 -0.00000000000E+00 -0.00000000000E+00 -0.45593999997E+02  0.45594000000E+02  0.51100000000E-03 0.  1.
         23    2    1    2    0    0  0.00000000000E+00  0.00000000000E+00  0.71054273576E-14  0.91188000000E+02  0.91188000000E+02 0.  0.
    9900012    2    3    3    0    0 -0.23223918443E+02 -0.50204082643E+01  0.36318980690E+02  0.47787271373E+02  0.20000001496E+02 0.  0.
        -12    1    3    3    0    0  0.23223918443E+02  0.50204082643E+01 -0.36318980690E+02  0.43400728627E+02  0.00000000000E+00 0.  1.
         11    1    4    4    0    0 -0.61023694139E+01 -0.60538160851E+01  0.25395369069E+02  0.26810676457E+02  0.51100000000E-03 0. -1.
        -11    1    4    4    0    0 -0.89079843928E+01  0.81901852039E-01  0.86132050917E+01  0.12391375875E+02  0.51100000000E-03 0.  1.
        -12    1    4    4    0    0 -0.82135646367E+01  0.95150596871E+00  0.23104065296E+01  0.85852190410E+01  0.00000000000E+00 0.  1.
</event>
<event>
 8    1  0.5834107E-011  0.9118800E+02  0.7816164E-02  0.1184000E+00
        -11   -1    0    0    0    0  0.00000000000E+00  0.00000000000E+00  0.45593999997E+02  0.45594000000E+02  0.51100000000E-03 0. -1.
         11   -1    0    0    0    0 -0.00000000000E+00 -0.00000000000E+00 -0.45593999997E+02  0.45594000000E+02  0.51100000000E-03 0.  1.
         23    2    1    2    0    0  0.00000000000E+00  0.17763568394E-14  0.71054273576E-14  0.91188000000E+02  0.91188000000E+02 0.  0.
    9900012    2    3    3    0    0  0.51969091361E+01 -0.15601500524E+02 -0.40164770037E+02  0.47787269184E+02  0.19999991519E+02 0.  0.
         12    1    3    3    0    0 -0.51969091361E+01  0.15601500524E+02  0.40164770037E+02  0.43400730816E+02  0.00000000000E+00 0. -1.
         11    1    4    4    0    0 -0.53303287101E+01 -0.46639618481E+01 -0.69634562483E+01  0.99325055983E+01  0.51100000000E-03 0. -1.
        -11    1    4    4    0    0  0.44021694409E+01 -0.11051748658E+02 -0.19434005030E+02  0.22785978055E+02  0.51100000000E-03 0.  1.
         12    1    4    4    0    0  0.61250684053E+01  0.11420998231E+00 -0.13767308760E+02  0.15068785531E+02  0.00000000000E+00 0. -1.
</event>
<event>
 8    1  0.5834107E-011  0.9118800E+02  0.7816164E-02  0.1184000E+00
        -11   -1    0    0    0    0  0.00000000000E+00  0.00000000000E+00  0.45593999997E+02  0.45594000000E+02  0.51100000000E-03 0. -1.
         11   -1    0    0    0    0 -0.00000000000E+00 -0.00000000000E+00 -0.45593999997E+02  0.45594000000E+02  0.51100000000E-03 0.  1.
         23    2    1    2    0    0  0.00000000000E+00  0.33306690739E-15  0.00000000000E+00  0.91188000000E+02  0.91188000000E+02 0.  0.
    9900012    2    3    3    0    0 -0.36396522402E+02  0.73452062021E+00  0.23629957712E+02  0.47787294188E+02  0.20000105521E+02 0.  0.
        -12    1    3    3    0    0  0.36396522402E+02 -0.73452062021E+00 -0.23629957712E+02  0.43400705812E+02  0.00000000000E+00 0.  1.
         11    1    4    4    0    0 -0.16615913300E+02  0.48668112444E+01  0.14493029387E+02  0.22579245504E+02  0.51100000000E-03 0. -1.
        -11    1    4    4    0    0 -0.65773994975E+01  0.26298784010E+01 -0.11220921085E+01  0.71719966198E+01  0.51100000000E-03 0.  1.
        -12    1    4    4    0    0 -0.13203209605E+02 -0.67621690253E+01  0.10259020433E+02  0.18036052064E+02  0.00000000000E+00 0.  1.
</event>
<event>
 8    1  0.5834107E-011  0.9118800E+02  0.7816164E-02  0.1184000E+00
        -11   -1    0    0    0    0  0.00000000000E+00  0.00000000000E+00  0.45593999997E+02  0.45594000000E+02  0.51100000000E-03 0. -1.
         11   -1    0    0    0    0 -0.00000000000E+00 -0.00000000000E+00 -0.45593999997E+02  0.45594000000E+02  0.51100000000E-03 0.  1.
         23    2    1    2    0    0  0.00000000000E+00 -0.35527136788E-14 -0.17763568394E-14  0.91188000000E+02  0.91188000000E+02 0.  0.
    9900012    2    3    3    0    0  0.38054459046E+02  0.15261693904E+02 -0.14232432593E+02  0.47787270840E+02  0.19999999067E+02 0.  0.
         12    1    3    3    0    0 -0.38054459046E+02 -0.15261693904E+02  0.14232432593E+02  0.43400729160E+02  0.00000000000E+00 0. -1.
         11    1    4    4    0    0  0.84494976912E+01  0.12381121870E+02 -0.47533390772E+01  0.15725152548E+02  0.51100000000E-03 0. -1.
        -11    1    4    4    0    0  0.17351349418E+02  0.34244328421E+01 -0.22604370732E+01  0.17829908664E+02  0.51100000000E-03 0.  1.
        -12    1    4    4    0    0  0.12253611937E+02 -0.54386080885E+00 -0.72186564424E+01  0.14232209629E+02  0.00000000000E+00 0.  1.
</event>
<event>
 8    1  0.5834107E-011  0.9118800E+02  0.7816164E-02  0.1184000E+00
        -11   -1    0    0    0    0  0.00000000000E+00  0.00000000000E+00  0.45593999997E+02  0.45594000000E+02  0.51100000000E-03 0. -1.
         11   -1    0    0    0    0 -0.00000000000E+00 -0.00000000000E+00 -0.45593999997E+02  0.45594000000E+02  0.51100000000E-03 0.  1.
         23    2    1    2    0    0  0.00000000000E+00  0.35527136788E-14 -0.35527136788E-14  0.91188000000E+02  0.91188000000E+02 0.  0.
    9900012    2    3    3    0    0 -0.13368393504E+02 -0.28593016427E+02  0.29788401031E+02  0.47787269945E+02  0.19999994988E+02 0.  0.
        -12    1    3    3    0    0  0.13368393504E+02  0.28593016427E+02 -0.29788401031E+02  0.43400730055E+02  0.00000000000E+00 0.  1.
         11    1    4    4    0    0 -0.10612562725E+02 -0.15461190326E+02  0.47999529828E+01  0.19357542271E+02  0.51100000000E-03 0. -1.
        -11    1    4    4    0    0 -0.22499575684E+01 -0.64063866228E+01  0.13378710979E+02  0.15003133218E+02  0.51100000000E-03 0.  1.
        -12    1    4    4    0    0 -0.50587321120E+00 -0.67254394786E+01  0.11609737069E+02  0.13426594456E+02  0.00000000000E+00 0.  1.
</event>
<event>
 8    1  0.5834107E-011  0.9118800E+02  0.7816164E-02  0.1184000E+00
        -11   -1    0    0    0    0  0.00000000000E+00  0.00000000000E+00  0.45593999997E+02  0.45594000000E+02  0.51100000000E-03 0. -1.
         11   -1    0    0    0    0 -0.00000000000E+00 -0.00000000000E+00 -0.45593999997E+02  0.45594000000E+02  0.51100000000E-03 0.  1.
         23    2    1    2    0    0  0.71054273576E-14  0.00000000000E+00  0.00000000000E+00  0.91188000000E+02  0.91188000000E+02 0.  0.
    9900012    2    3    3    0    0  0.32912316598E+02  0.15791481360E+02 -0.23474066122E+02  0.47787271346E+02  0.20000001374E+02 0.  0.
         12    1    3    3    0    0 -0.32912316598E+02 -0.15791481360E+02  0.23474066122E+02  0.43400728654E+02  0.00000000000E+00 0. -1.
         11    1    4    4    0    0  0.32460362454E+02  0.15656415483E+02 -0.24660208293E+02  0.43668344940E+02  0.51100000000E-03 0. -1.
        -11    1    4    4    0    0  0.17833253625E+01  0.19057732578E+00  0.18953751460E+01  0.26094091804E+01  0.51100000000E-03 0.  1.
        -12    1    4    4    0    0 -0.13313712185E+01 -0.55511448913E-01 -0.70923297437E+00  0.15095172256E+01  0.00000000000E+00 0.  1.
</event>
<event>
 8    1  0.5834107E-011  0.9118800E+02  0.7816164E-02  0.1184000E+00
        -11   -1    0    0    0    0  0.00000000000E+00  0.00000000000E+00  0.45593999997E+02  0.45594000000E+02  0.51100000000E-03 0. -1.
         11   -1    0    0    0    0 -0.00000000000E+00 -0.00000000000E+00 -0.45593999997E+02  0.45594000000E+02  0.51100000000E-03 0.  1.
         23    2    1    2    0    0  0.00000000000E+00 -0.17763568394E-14  0.35527136788E-14  0.91188000000E+02  0.91188000000E+02 0.  0.
    9900012    2    3    3    0    0 -0.35277754452E+02 -0.13138042137E+02  0.21598504139E+02  0.47787268539E+02  0.19999988575E+02 0.  0.
        -12    1    3    3    0    0  0.35277754452E+02  0.13138042137E+02 -0.21598504139E+02  0.43400731461E+02  0.00000000000E+00 0.  1.
         11    1    4    4    0    0 -0.31452354280E+02 -0.95464223032E+01  0.18304934729E+02  0.37622538514E+02  0.51100000000E-03 0. -1.
        -11    1    4    4    0    0 -0.22446608870E+01 -0.39143870399E+01  0.56985481937E+01  0.72687261726E+01  0.51100000000E-03 0.  1.
        -12    1    4    4    0    0 -0.15807392850E+01  0.32276720654E+00 -0.24049787843E+01  0.28960038518E+01  0.00000000000E+00 0.  1.
</event>
<event>
 8    1  0.5834107E-011  0.9118800E+02  0.7816164E-02  0.1184000E+00
        -11   -1    0    0    0    0  0.00000000000E+00  0.00000000000E+00  0.45593999997E+02  0.45594000000E+02  0.51100000000E-03 0.  1.
         11   -1    0    0    0    0 -0.00000000000E+00 -0.00000000000E+00 -0.45593999997E+02  0.45594000000E+02  0.51100000000E-03 0. -1.
         23    2    1    2    0    0  0.44408920985E-15  0.71054273576E-14 -0.17763568394E-14  0.91188000000E+02  0.91188000000E+02 0.  0.
    9900012    2    3    3    0    0 -0.28721716071E+01 -0.40914388591E+02  0.14191084230E+02  0.47787269187E+02  0.19999991529E+02 0.  0.
        -12    1    3    3    0    0  0.28721716071E+01  0.40914388591E+02 -0.14191084230E+02  0.43400730813E+02  0.00000000000E+00 0.  1.
         11    1    4    4    0    0  0.33001753625E+01 -0.30712390505E+02  0.78962730834E+01  0.31882490757E+02  0.51100000000E-03 0. -1.
        -11    1    4    4    0    0 -0.53562240768E+01 -0.96452183424E+01  0.16491475102E+01  0.11155225726E+02  0.51100000000E-03 0.  1.
        -12    1    4    4    0    0 -0.81612289277E+00 -0.55677974314E+00  0.46456636367E+01  0.47495527035E+01  0.00000000000E+00 0.  1.
</event>
<event>
 8    1  0.5834107E-011  0.9118800E+02  0.7816164E-02  0.1184000E+00
        -11   -1    0    0    0    0  0.00000000000E+00  0.00000000000E+00  0.45593999997E+02  0.45594000000E+02  0.51100000000E-03 0. -1.
         11   -1    0    0    0    0 -0.00000000000E+00 -0.00000000000E+00 -0.45593999997E+02  0.45594000000E+02  0.51100000000E-03 0.  1.
         23    2    1    2    0    0  0.00000000000E+00  0.88817841970E-15  0.35527136788E-14  0.91188000000E+02  0.91188000000E+02 0.  0.
    9900012    2    3    3    0    0 -0.32466780531E+02  0.73340167375E+01  0.27852176835E+02  0.47787269661E+02  0.19999993690E+02 0.  0.
        -12    1    3    3    0    0  0.32466780531E+02 -0.73340167375E+01 -0.27852176835E+02  0.43400730339E+02  0.00000000000E+00 0.  1.
         11    1    4    4    0    0 -0.23452661423E+01 -0.11463803720E+01  0.87260234274E+00  0.27524346214E+01  0.51100000000E-03 0.  1.
        -11    1    4    4    0    0 -0.18085879782E+02 -0.74523223029E+00  0.23163550539E+02  0.29397355194E+02  0.51100000000E-03 0. -1.
         12    1    4    4    0    0 -0.12035634607E+02  0.92256293398E+01  0.38160239536E+01  0.15637479846E+02  0.00000000000E+00 0. -1.
</event>
<event>
 8    1  0.5834107E-011  0.9118800E+02  0.7816164E-02  0.1184000E+00
        -11   -1    0    0    0    0  0.00000000000E+00  0.00000000000E+00  0.45593999997E+02  0.45594000000E+02  0.51100000000E-03 0. -1.
         11   -1    0    0    0    0 -0.00000000000E+00 -0.00000000000E+00 -0.45593999997E+02  0.45594000000E+02  0.51100000000E-03 0.  1.
         23    2    1    2    0    0  0.00000000000E+00  0.22204460493E-15  0.00000000000E+00  0.91188000000E+02  0.91188000000E+02 0.  0.
    9900012    2    3    3    0    0 -0.24696771398E+02  0.19065505510E+01 -0.35637869767E+02  0.47787271734E+02  0.20000003145E+02 0.  0.
         12    1    3    3    0    0  0.24696771398E+02 -0.19065505510E+01  0.35637869767E+02  0.43400728266E+02  0.00000000000E+00 0. -1.
         11    1    4    4    0    0 -0.14237609291E+02  0.11015106130E+01 -0.75726904379E+01  0.16163801678E+02  0.51100000000E-03 0. -1.
        -11    1    4    4    0    0 -0.42553284366E+01  0.35998675954E+01 -0.47101131264E+01  0.72973990389E+01  0.51100000000E-03 0.  1.
         12    1    4    4    0    0 -0.62038336712E+01 -0.27948276574E+01 -0.23355066202E+02  0.24326071018E+02  0.00000000000E+00 0. -1.
</event>
<event>
 8    1  0.5834107E-011  0.9118800E+02  0.7816164E-02  0.1184000E+00
        -11   -1    0    0    0    0  0.00000000000E+00  0.00000000000E+00  0.45593999997E+02  0.45594000000E+02  0.51100000000E-03 0.  1.
         11   -1    0    0    0    0 -0.00000000000E+00 -0.00000000000E+00 -0.45593999997E+02  0.45594000000E+02  0.51100000000E-03 0. -1.
         23    2    1    2    0    0  0.17763568394E-14  0.71054273576E-14  0.00000000000E+00  0.91188000000E+02  0.91188000000E+02 0.  0.
    9900012    2    3    3    0    0  0.88178887037E+01  0.35976726167E+02  0.22617316047E+02  0.47787274522E+02  0.20000015854E+02 0.  0.
         12    1    3    3    0    0 -0.88178887037E+01 -0.35976726167E+02 -0.22617316047E+02  0.43400725478E+02  0.00000000000E+00 0. -1.
         11    1    4    4    0    0  0.29897986078E+01  0.35995265747E+01 -0.21321337503E+01  0.51421281458E+01  0.51100000000E-03 0. -1.
        -11    1    4    4    0    0  0.62243185867E+01  0.25182561893E+02  0.13388099126E+02  0.29191518697E+02  0.51100000000E-03 0.  1.
        -12    1    4    4    0    0 -0.39622849082E+00  0.71946376991E+01  0.11361350672E+02  0.13453627679E+02  0.00000000000E+00 0.  1.
</event>
<event>
 8    1  0.5834107E-011  0.9118800E+02  0.7816164E-02  0.1184000E+00
        -11   -1    0    0    0    0  0.00000000000E+00  0.00000000000E+00  0.45593999997E+02  0.45594000000E+02  0.51100000000E-03 0. -1.
         11   -1    0    0    0    0 -0.00000000000E+00 -0.00000000000E+00 -0.45593999997E+02  0.45594000000E+02  0.51100000000E-03 0.  1.
         23    2    1    2    0    0  0.35527136788E-14  0.00000000000E+00  0.00000000000E+00  0.91188000000E+02  0.91188000000E+02 0.  0.
    9900012    2    3    3    0    0  0.16337613114E+02 -0.25562328176E+02 -0.31036639218E+02  0.47787271918E+02  0.20000003985E+02 0.  0.
         12    1    3    3    0    0 -0.16337613114E+02  0.25562328176E+02  0.31036639218E+02  0.43400728082E+02  0.00000000000E+00 0. -1.
         11    1    4    4    0    0  0.51465203287E+01 -0.98242196303E+01 -0.71048484175E+01  0.13171212326E+02  0.51100000000E-03 0. -1.
        -11    1    4    4    0    0  0.10813665492E+02 -0.13481844300E+02 -0.26205007981E+02  0.31391048575E+02  0.51100000000E-03 0.  1.
         12    1    4    4    0    0  0.37742729389E+00 -0.22562642466E+01  0.22732171807E+01  0.32250110176E+01  0.00000000000E+00 0. -1.
</event>
<event>
 8    1  0.5834107E-011  0.9118800E+02  0.7816164E-02  0.1184000E+00
        -11   -1    0    0    0    0  0.00000000000E+00  0.00000000000E+00  0.45593999997E+02  0.45594000000E+02  0.51100000000E-03 0. -1.
         11   -1    0    0    0    0 -0.00000000000E+00 -0.00000000000E+00 -0.45593999997E+02  0.45594000000E+02  0.51100000000E-03 0.  1.
         23    2    1    2    0    0 -0.35527136788E-14 -0.35527136788E-14  0.35527136788E-14  0.91188000000E+02  0.91188000000E+02 0.  0.
    9900012    2    3    3    0    0 -0.22917599184E+02 -0.22399868517E+02  0.29268633645E+02  0.47787269852E+02  0.19999994561E+02 0.  0.
        -12    1    3    3    0    0  0.22917599184E+02  0.22399868517E+02 -0.29268633645E+02  0.43400730148E+02  0.00000000000E+00 0.  1.
         11    1    4    4    0    0 -0.20178147292E+01  0.13739634727E+01 -0.83350289673E+00  0.25795502022E+01  0.51100000000E-03 0. -1.
        -11    1    4    4    0    0 -0.30475854087E+01 -0.22557621598E+01 -0.42064530290E+00  0.38148633628E+01  0.51100000000E-03 0.  1.
         12    1    4    4    0    0 -0.17852199046E+02 -0.21518069830E+02  0.30522781845E+02  0.41392856287E+02  0.00000000000E+00 0. -1.
</event>
<event>
 8    1  0.5834107E-011  0.9118800E+02  0.7816164E-02  0.1184000E+00
        -11   -1    0    0    0    0  0.00000000000E+00  0.00000000000E+00  0.45593999997E+02  0.45594000000E+02  0.51100000000E-03 0. -1.
         11   -1    0    0    0    0 -0.00000000000E+00 -0.00000000000E+00 -0.45593999997E+02  0.45594000000E+02  0.51100000000E-03 0.  1.
         23    2    1    2    0    0  0.17763568394E-14 -0.71054273576E-14 -0.35527136788E-14  0.91188000000E+02  0.91188000000E+02 0.  0.
    9900012    2    3    3    0    0  0.10764945039E+02 -0.27552696706E+02  0.31758277461E+02  0.47787270459E+02  0.19999997329E+02 0.  0.
        -12    1    3    3    0    0 -0.10764945039E+02  0.27552696706E+02 -0.31758277461E+02  0.43400729541E+02  0.00000000000E+00 0.  1.
         11    1    4    4    0    0 -0.85101199468E-01 -0.99069896404E+01  0.10373944968E+02  0.14344839504E+02  0.51100000000E-03 0. -1.
        -11    1    4    4    0    0  0.77478754277E+01 -0.81685877623E+01  0.17132720153E+01  0.11388182512E+02  0.51100000000E-03 0.  1.
        -12    1    4    4    0    0  0.31021708108E+01 -0.94771193031E+01  0.19671060478E+02  0.22054248442E+02  0.00000000000E+00 0.  1.
</event>
<event>
 8    1  0.9406898E-011  0.9118800E+02  0.7816164E-02  0.1184000E+00
        -11   -1    0    0    0    0  0.00000000000E+00  0.00000000000E+00  0.45593999997E+02  0.45594000000E+02  0.51100000000E-03 0. -1.
         11   -1    0    0    0    0 -0.00000000000E+00 -0.00000000000E+00 -0.45593999997E+02  0.45594000000E+02  0.51100000000E-03 0.  1.
         23    2    1    2    0    0  0.00000000000E+00 -0.88817841970E-15  0.00000000000E+00  0.91188000000E+02  0.91188000000E+02 0.  0.
    9900012    2    3    3    0    0  0.28427766967E+01  0.47191022450E+01 -0.43049647392E+02  0.47787269062E+02  0.19999990963E+02 0.  0.
         12    1    3    3    0    0 -0.28427766967E+01 -0.47191022450E+01  0.43049647392E+02  0.43400730938E+02  0.00000000000E+00 0. -1.
         11    1    4    4    0    0 -0.23799761691E+01 -0.18276858934E+01 -0.49880174550E+01  0.58210858680E+01  0.51100000000E-03 0. -1.
        -11    1    4    4    0    0  0.71705498091E+01  0.33894959846E+01 -0.37357525110E+02  0.38190183951E+02  0.51100000000E-03 0.  1.
         12    1    4    4    0    0 -0.19477969434E+01  0.31572921538E+01 -0.70410482652E+00  0.37759992431E+01  0.00000000000E+00 0. -1.
</event>
<event>
 8    1  0.5834107E-011  0.9118800E+02  0.7816164E-02  0.1184000E+00
        -11   -1    0    0    0    0  0.00000000000E+00  0.00000000000E+00  0.45593999997E+02  0.45594000000E+02  0.51100000000E-03 0. -1.
         11   -1    0    0    0    0 -0.00000000000E+00 -0.00000000000E+00 -0.45593999997E+02  0.45594000000E+02  0.51100000000E-03 0.  1.
         23    2    1    2    0    0 -0.17763568394E-14  0.00000000000E+00  0.00000000000E+00  0.91188000000E+02  0.91188000000E+02 0.  0.
    9900012    2    3    3    0    0 -0.84218647361E+01  0.19169245049E+02  0.38016252005E+02  0.47787272151E+02  0.20000005043E+02 0.  0.
        -12    1    3    3    0    0  0.84218647361E+01 -0.19169245049E+02 -0.38016252005E+02  0.43400727849E+02  0.00000000000E+00 0.  1.
         11    1    4    4    0    0  0.13468732518E+01  0.27642941552E+01  0.93015255177E+01  0.97966201800E+01  0.51100000000E-03 0. -1.
        -11    1    4    4    0    0 -0.14001729786E+02  0.10187981492E+02  0.19043178078E+02  0.25738804080E+02  0.51100000000E-03 0.  1.
         12    1    4    4    0    0  0.42329917983E+01  0.62169694024E+01  0.96715484087E+01  0.12251847891E+02  0.00000000000E+00 0. -1.
</event>
<event>
 8    1  0.5834107E-011  0.9118800E+02  0.7816164E-02  0.1184000E+00
        -11   -1    0    0    0    0  0.00000000000E+00  0.00000000000E+00  0.45593999997E+02  0.45594000000E+02  0.51100000000E-03 0.  1.
         11   -1    0    0    0    0 -0.00000000000E+00 -0.00000000000E+00 -0.45593999997E+02  0.45594000000E+02  0.51100000000E-03 0. -1.
         23    2    1    2    0    0  0.17763568394E-14  0.00000000000E+00  0.17763568394E-14  0.91188000000E+02  0.91188000000E+02 0.  0.
    9900012    2    3    3    0    0  0.11322663017E+02  0.41127133698E+02  0.79986980661E+01  0.47787274260E+02  0.20000014659E+02 0.  0.
        -12    1    3    3    0    0 -0.11322663017E+02 -0.41127133698E+02 -0.79986980661E+01  0.43400725740E+02  0.00000000000E+00 0.  1.
         11    1    4    4    0    0 -0.47813049835E+00  0.98896683627E+01 -0.19906099759E+01  0.10099340445E+02  0.51100000000E-03 0. -1.
        -11    1    4    4    0    0  0.17414327888E+01 -0.89392229337E+00 -0.10927089660E+01  0.22418069431E+01  0.51100000000E-03 0.  1.
        -12    1    4    4    0    0  0.10059360726E+02  0.32131387629E+02  0.11082017008E+02  0.35446126871E+02  0.00000000000E+00 0.  1.
</event>
<event>
 8    1  0.5834107E-011  0.9118800E+02  0.7816164E-02  0.1184000E+00
        -11   -1    0    0    0    0  0.00000000000E+00  0.00000000000E+00  0.45593999997E+02  0.45594000000E+02  0.51100000000E-03 0. -1.
         11   -1    0    0    0    0 -0.00000000000E+00 -0.00000000000E+00 -0.45593999997E+02  0.45594000000E+02  0.51100000000E-03 0.  1.
         23    2    1    2    0    0  0.66613381478E-15  0.00000000000E+00  0.35527136788E-14  0.91188000000E+02  0.91188000000E+02 0.  0.
    9900012    2    3    3    0    0  0.18430020903E+01  0.34576060820E+02 -0.26167205642E+02  0.47787270863E+02  0.19999999171E+02 0.  0.
         12    1    3    3    0    0 -0.18430020903E+01 -0.34576060820E+02  0.26167205642E+02  0.43400729137E+02  0.00000000000E+00 0. -1.
         11    1    4    4    0    0  0.66119741084E+01  0.87157415680E+01 -0.45411249743E+01  0.11845006078E+02  0.51100000000E-03 0. -1.
        -11    1    4    4    0    0  0.23306561721E+01  0.89453367292E+01 -0.12232666991E+02  0.15332617173E+02  0.51100000000E-03 0.  1.
         12    1    4    4    0    0 -0.70996281902E+01  0.16914982523E+02 -0.93934136766E+01  0.20609647612E+02  0.00000000000E+00 0. -1.
</event>
<event>
 8    1  0.5834107E-011  0.9118800E+02  0.7816164E-02  0.1184000E+00
        -11   -1    0    0    0    0  0.00000000000E+00  0.00000000000E+00  0.45593999997E+02  0.45594000000E+02  0.51100000000E-03 0. -1.
         11   -1    0    0    0    0 -0.00000000000E+00 -0.00000000000E+00 -0.45593999997E+02  0.45594000000E+02  0.51100000000E-03 0.  1.
         23    2    1    2    0    0  0.44408920985E-15 -0.71054273576E-14  0.00000000000E+00  0.91188000000E+02  0.91188000000E+02 0.  0.
    9900012    2    3    3    0    0  0.37840060457E+01 -0.40816701590E+02  0.14258466544E+02  0.47787243110E+02  0.19999872635E+02 0.  0.
        -12    1    3    3    0    0 -0.37840060457E+01  0.40816701590E+02 -0.14258466544E+02  0.43400756890E+02  0.00000000000E+00 0.  1.
         11    1    4    4    0    0  0.46845145134E+00 -0.46714231466E+01  0.67741376094E+01  0.82420010671E+01  0.51100000000E-03 0. -1.
        -11    1    4    4    0    0 -0.51398461377E+01 -0.95503425836E+01  0.97436049292E+00  0.10889280987E+02  0.51100000000E-03 0.  1.
         12    1    4    4    0    0  0.84554007321E+01 -0.26594935860E+02  0.65099684413E+01  0.28655961056E+02  0.00000000000E+00 0. -1.
</event>
<event>
 8    1  0.5834107E-011  0.9118800E+02  0.7816164E-02  0.1184000E+00
        -11   -1    0    0    0    0  0.00000000000E+00  0.00000000000E+00  0.45593999997E+02  0.45594000000E+02  0.51100000000E-03 0.  1.
         11   -1    0    0    0    0 -0.00000000000E+00 -0.00000000000E+00 -0.45593999997E+02  0.45594000000E+02  0.51100000000E-03 0. -1.
         23    2    1    2    0    0  0.00000000000E+00  0.22204460493E-15  0.17763568394E-14  0.91188000000E+02  0.91188000000E+02 0.  0.
    9900012    2    3    3    0    0 -0.42223375540E+02  0.12918842489E+01 -0.99569370345E+01  0.47787274176E+02  0.20000014280E+02 0.  0.
         12    1    3    3    0    0  0.42223375540E+02 -0.12918842489E+01  0.99569370345E+01  0.43400725824E+02  0.00000000000E+00 0. -1.
         11    1    4    4    0    0 -0.19790563836E+02  0.59146326184E+01  0.17086119711E+01  0.20726037998E+02  0.51100000000E-03 0. -1.
        -11    1    4    4    0    0 -0.15761473853E+02  0.84637380219E+00 -0.78508342114E+01  0.17628840141E+02  0.51100000000E-03 0.  1.
         12    1    4    4    0    0 -0.66713378509E+01 -0.54691221718E+01 -0.38147147942E+01  0.94323960377E+01  0.00000000000E+00 0. -1.
</event>
<event>
 8    1  0.5834107E-011  0.9118800E+02  0.7816164E-02  0.1184000E+00
        -11   -1    0    0    0    0  0.00000000000E+00  0.00000000000E+00  0.45593999997E+02  0.45594000000E+02  0.51100000000E-03 0. -1.
         11   -1    0    0    0    0 -0.00000000000E+00 -0.00000000000E+00 -0.45593999997E+02  0.45594000000E+02  0.51100000000E-03 0.  1.
         23    2    1    2    0    0  0.22204460493E-15  0.00000000000E+00  0.00000000000E+00  0.91188000000E+02  0.91188000000E+02 0.  0.
    9900012    2    3    3    0    0  0.10530737594E+01 -0.37965223954E+02 -0.21003715581E+02  0.47787271177E+02  0.20000000603E+02 0.  0.
         12    1    3    3    0    0 -0.10530737594E+01  0.37965223954E+02  0.21003715581E+02  0.43400728823E+02  0.00000000000E+00 0. -1.
         11    1    4    4    0    0  0.53289780426E+00 -0.23183684244E+02 -0.66161290249E+01  0.24115147910E+02  0.51100000000E-03 0. -1.
        -11    1    4    4    0    0 -0.41830095172E+01 -0.11435890705E+02 -0.12841364674E+02  0.17696830557E+02  0.51100000000E-03 0.  1.
         12    1    4    4    0    0  0.47031854723E+01 -0.33456490045E+01 -0.15462218824E+01  0.59752927089E+01  0.00000000000E+00 0. -1.
</event>
<event>
 8    1  0.5834107E-011  0.9118800E+02  0.7816164E-02  0.1184000E+00
        -11   -1    0    0    0    0  0.00000000000E+00  0.00000000000E+00  0.45593999997E+02  0.45594000000E+02  0.51100000000E-03 0. -1.
         11   -1    0    0    0    0 -0.00000000000E+00 -0.00000000000E+00 -0.45593999997E+02  0.45594000000E+02  0.51100000000E-03 0.  1.
         23    2    1    2    0    0 -0.88817841970E-15  0.35527136788E-14  0.00000000000E+00  0.91188000000E+02  0.91188000000E+02 0.  0.
    9900012    2    3    3    0    0  0.67531240520E+01  0.26533130514E+02  0.33675086483E+02  0.47787272483E+02  0.20000006559E+02 0.  0.
        -12    1    3    3    0    0 -0.67531240520E+01 -0.26533130514E+02 -0.33675086483E+02  0.43400727517E+02  0.00000000000E+00 0.  1.
         11    1    4    4    0    0  0.64051954021E+01  0.21436255284E+02  0.17782101444E+02  0.28578710621E+02  0.51100000000E-03 0. -1.
        -11    1    4    4    0    0  0.47911151969E+01  0.18506244663E+01  0.92710691705E+01  0.10598694239E+02  0.51100000000E-03 0.  1.
         12    1    4    4    0    0 -0.44431865470E+01  0.32462507638E+01  0.66219158692E+01  0.86098676233E+01  0.00000000000E+00 0. -1.
</event>
<event>
 8    1  0.5834107E-011  0.9118800E+02  0.7816164E-02  0.1184000E+00
        -11   -1    0    0    0    0  0.00000000000E+00  0.00000000000E+00  0.45593999997E+02  0.45594000000E+02  0.51100000000E-03 0. -1.
         11   -1    0    0    0    0 -0.00000000000E+00 -0.00000000000E+00 -0.45593999997E+02  0.45594000000E+02  0.51100000000E-03 0.  1.
         23    2    1    2    0    0  0.41633363423E-15 -0.35527136788E-14  0.00000000000E+00  0.91188000000E+02  0.91188000000E+02 0.  0.
    9900012    2    3    3    0    0  0.66039761381E-01  0.20863323142E+02  0.38057053018E+02  0.47787286893E+02  0.20000072260E+02 0.  0.
        -12    1    3    3    0    0 -0.66039761381E-01 -0.20863323142E+02 -0.38057053018E+02  0.43400713107E+02  0.00000000000E+00 0.  1.
         11    1    4    4    0    0  0.64360092873E+01  0.95983896077E+01  0.25313243382E+02  0.27826454848E+02  0.51100000000E-03 0. -1.
        -11    1    4    4    0    0 -0.55492288711E+01  0.91068406214E+01  0.13784563536E+02  0.17428215035E+02  0.51100000000E-03 0.  1.
        -12    1    4    4    0    0 -0.82074065486E+00  0.21580929125E+01 -0.10407538999E+01  0.25326170104E+01  0.00000000000E+00 0.  1.
</event>
<event>
 8    1  0.5834107E-011  0.9118800E+02  0.7816164E-02  0.1184000E+00
        -11   -1    0    0    0    0  0.00000000000E+00  0.00000000000E+00  0.45593999997E+02  0.45594000000E+02  0.51100000000E-03 0. -1.
         11   -1    0    0    0    0 -0.00000000000E+00 -0.00000000000E+00 -0.45593999997E+02  0.45594000000E+02  0.51100000000E-03 0.  1.
         23    2    1    2    0    0 -0.11102230246E-15  0.00000000000E+00 -0.35527136788E-14  0.91188000000E+02  0.91188000000E+02 0.  0.
    9900012    2    3    3    0    0 -0.62125089772E+00  0.38917082194E+02  0.19201524201E+02  0.47787265319E+02  0.19999973897E+02 0.  0.
        -12    1    3    3    0    0  0.62125089772E+00 -0.38917082194E+02 -0.19201524201E+02  0.43400734681E+02  0.00000000000E+00 0.  1.
         11    1    4    4    0    0  0.16912508725E+01  0.12225012270E+01 -0.14148332617E+01  0.25212283085E+01  0.51100000000E-03 0. -1.
        -11    1    4    4    0    0 -0.33804177697E+01  0.78575469207E+01 -0.69815219834E+00  0.85822890106E+01  0.51100000000E-03 0.  1.
         12    1    4    4    0    0  0.10679159995E+01  0.29837034046E+02  0.21314509661E+02  0.36683748000E+02  0.00000000000E+00 0. -1.
</event>
<event>
 8    1  0.5834107E-011  0.9118800E+02  0.7816164E-02  0.1184000E+00
        -11   -1    0    0    0    0  0.00000000000E+00  0.00000000000E+00  0.45593999997E+02  0.45594000000E+02  0.51100000000E-03 0.  1.
         11   -1    0    0    0    0 -0.00000000000E+00 -0.00000000000E+00 -0.45593999997E+02  0.45594000000E+02  0.51100000000E-03 0. -1.
         23    2    1    2    0    0  0.00000000000E+00  0.00000000000E+00  0.00000000000E+00  0.91188000000E+02  0.91188000000E+02 0.  0.
    9900012    2    3    3    0    0  0.27255860150E+02  0.30520273876E+02 -0.14465621626E+02  0.47787271446E+02  0.20000001832E+02 0.  0.
         12    1    3    3    0    0 -0.27255860150E+02 -0.30520273876E+02  0.14465621626E+02  0.43400728554E+02  0.00000000000E+00 0. -1.
         11    1    4    4    0    0  0.14919421191E+02  0.20826368574E+02  0.10327442472E+01  0.25639682479E+02  0.51100000000E-03 0.  1.
        -11    1    4    4    0    0  0.76100404539E+01  0.48420369971E+01 -0.95003187822E+01  0.13100156305E+02  0.51100000000E-03 0. -1.
        -12    1    4    4    0    0  0.47263985047E+01  0.48518683047E+01 -0.59980470914E+01  0.90474326625E+01  0.00000000000E+00 0.  1.
</event>
<event>
 8    1  0.5834107E-011  0.9118800E+02  0.7816164E-02  0.1184000E+00
        -11   -1    0    0    0    0  0.00000000000E+00  0.00000000000E+00  0.45593999997E+02  0.45594000000E+02  0.51100000000E-03 0. -1.
         11   -1    0    0    0    0 -0.00000000000E+00 -0.00000000000E+00 -0.45593999997E+02  0.45594000000E+02  0.51100000000E-03 0.  1.
         23    2    1    2    0    0  0.26645352591E-14  0.00000000000E+00  0.00000000000E+00  0.91188000000E+02  0.91188000000E+02 0.  0.
    9900012    2    3    3    0    0 -0.54433507710E+01  0.42411681268E+02  0.74324906741E+01  0.47787277734E+02  0.20000030499E+02 0.  0.
        -12    1    3    3    0    0  0.54433507710E+01 -0.42411681268E+02 -0.74324906741E+01  0.43400722266E+02  0.00000000000E+00 0.  1.
         11    1    4    4    0    0 -0.43957080636E+01  0.23899285691E+02  0.36774759956E+01  0.24576857730E+02  0.51100000000E-03 0. -1.
        -11    1    4    4    0    0 -0.55289278598E+01  0.33216603380E+01 -0.13112007484E+01  0.65819236051E+01  0.51100000000E-03 0.  1.
         12    1    4    4    0    0  0.44812851524E+01  0.15190735239E+02  0.50662154270E+01  0.16628496398E+02  0.00000000000E+00 0. -1.
</event>
<event>
 8    1  0.5834107E-011  0.9118800E+02  0.7816164E-02  0.1184000E+00
        -11   -1    0    0    0    0  0.00000000000E+00  0.00000000000E+00  0.45593999997E+02  0.45594000000E+02  0.51100000000E-03 0. -1.
         11   -1    0    0    0    0 -0.00000000000E+00 -0.00000000000E+00 -0.45593999997E+02  0.45594000000E+02  0.51100000000E-03 0.  1.
         23    2    1    2    0    0 -0.44408920985E-15 -0.17763568394E-14 -0.71054273576E-14  0.91188000000E+02  0.91188000000E+02 0.  0.
    9900012    2    3    3    0    0 -0.17018542218E+01 -0.12161446111E+02 -0.41627230903E+02  0.47787269223E+02  0.19999991696E+02 0.  0.
         12    1    3    3    0    0  0.17018542218E+01  0.12161446111E+02  0.41627230903E+02  0.43400730777E+02  0.00000000000E+00 0. -1.
         11    1    4    4    0    0 -0.66849747300E-01 -0.90668042327E+01 -0.14246277304E+02  0.16886912837E+02  0.51100000000E-03 0. -1.
        -11    1    4    4    0    0 -0.73432334451E+01  0.25943909212E+00 -0.17774691271E+02  0.19233565351E+02  0.51100000000E-03 0.  1.
         12    1    4    4    0    0  0.57082289707E+01 -0.33540809707E+01 -0.96062623280E+01  0.11666791035E+02  0.00000000000E+00 0. -1.
</event>
<event>
 8    1  0.5834107E-011  0.9118800E+02  0.7816164E-02  0.1184000E+00
        -11   -1    0    0    0    0  0.00000000000E+00  0.00000000000E+00  0.45593999997E+02  0.45594000000E+02  0.51100000000E-03 0. -1.
         11   -1    0    0    0    0 -0.00000000000E+00 -0.00000000000E+00 -0.45593999997E+02  0.45594000000E+02  0.51100000000E-03 0.  1.
         23    2    1    2    0    0  0.88817841970E-15  0.71054273576E-14  0.35527136788E-14  0.91188000000E+02  0.91188000000E+02 0.  0.
    9900012    2    3    3    0    0  0.46752929299E+01  0.38160172740E+02  0.20138680287E+02  0.47787267389E+02  0.19999983332E+02 0.  0.
        -12    1    3    3    0    0 -0.46752929299E+01 -0.38160172740E+02 -0.20138680287E+02  0.43400732611E+02  0.00000000000E+00 0.  1.
         11    1    4    4    0    0  0.10408483922E+01  0.23974050310E+02  0.14480604928E+02  0.28027243406E+02  0.51100000000E-03 0. -1.
        -11    1    4    4    0    0 -0.42432877666E+01  0.28193821580E+01  0.12638967239E+01  0.52489848554E+01  0.51100000000E-03 0.  1.
        -12    1    4    4    0    0  0.78777323043E+01  0.11366740272E+02  0.43941786353E+01  0.14511039127E+02  0.00000000000E+00 0.  1.
</event>
<event>
 8    1  0.5834107E-011  0.9118800E+02  0.7816164E-02  0.1184000E+00
        -11   -1    0    0    0    0  0.00000000000E+00  0.00000000000E+00  0.45593999997E+02  0.45594000000E+02  0.51100000000E-03 0. -1.
         11   -1    0    0    0    0 -0.00000000000E+00 -0.00000000000E+00 -0.45593999997E+02  0.45594000000E+02  0.51100000000E-03 0.  1.
         23    2    1    2    0    0  0.00000000000E+00  0.00000000000E+00  0.35527136788E-14  0.91188000000E+02  0.91188000000E+02 0.  0.
    9900012    2    3    3    0    0  0.36600809933E+02 -0.86805406188E+01  0.21648400980E+02  0.47787258783E+02  0.19999944094E+02 0.  0.
        -12    1    3    3    0    0 -0.36600809933E+02  0.86805406188E+01 -0.21648400980E+02  0.43400741217E+02  0.00000000000E+00 0.  1.
         11    1    4    4    0    0  0.30943848331E+02 -0.12374323579E+02  0.22296283924E+02  0.40097006256E+02  0.51100000000E-03 0. -1.
        -11    1    4    4    0    0  0.30944452839E+01  0.85897020715E+00  0.12218217735E+01  0.34360253403E+01  0.51100000000E-03 0.  1.
        -12    1    4    4    0    0  0.25625163181E+01  0.28348127532E+01 -0.18697047172E+01  0.42542271866E+01  0.00000000000E+00 0.  1.
</event>
<event>
 8    1  0.5834107E-011  0.9118800E+02  0.7816164E-02  0.1184000E+00
        -11   -1    0    0    0    0  0.00000000000E+00  0.00000000000E+00  0.45593999997E+02  0.45594000000E+02  0.51100000000E-03 0.  1.
         11   -1    0    0    0    0 -0.00000000000E+00 -0.00000000000E+00 -0.45593999997E+02  0.45594000000E+02  0.51100000000E-03 0. -1.
         23    2    1    2    0    0 -0.17763568394E-14  0.00000000000E+00 -0.35527136788E-14  0.91188000000E+02  0.91188000000E+02 0.  0.
    9900012    2    3    3    0    0 -0.95972587896E+01  0.34302430616E+02 -0.24796348214E+02  0.47787274117E+02  0.20000014007E+02 0.  0.
         12    1    3    3    0    0  0.95972587896E+01 -0.34302430616E+02  0.24796348214E+02  0.43400725883E+02  0.00000000000E+00 0. -1.
         11    1    4    4    0    0 -0.18613990624E+01  0.11438468996E+02 -0.11008098086E+02  0.15983791890E+02  0.51100000000E-03 0. -1.
        -11    1    4    4    0    0 -0.46578745711E+01  0.13554691109E+02 -0.16276705983E+02  0.21687706298E+02  0.51100000000E-03 0.  1.
        -12    1    4    4    0    0 -0.30779851560E+01  0.93092705115E+01  0.24884558556E+01  0.10115775928E+02  0.00000000000E+00 0.  1.
</event>
<event>
 8    1  0.5834107E-011  0.9118800E+02  0.7816164E-02  0.1184000E+00
        -11   -1    0    0    0    0  0.00000000000E+00  0.00000000000E+00  0.45593999997E+02  0.45594000000E+02  0.51100000000E-03 0. -1.
         11   -1    0    0    0    0 -0.00000000000E+00 -0.00000000000E+00 -0.45593999997E+02  0.45594000000E+02  0.51100000000E-03 0.  1.
         23    2    1    2    0    0 -0.66613381478E-15  0.00000000000E+00  0.00000000000E+00  0.91188000000E+02  0.91188000000E+02 0.  0.
    9900012    2    3    3    0    0 -0.18263874032E+01 -0.10306195644E+02  0.42119705153E+02  0.47787275101E+02  0.20000018496E+02 0.  0.
        -12    1    3    3    0    0  0.18263874032E+01  0.10306195644E+02 -0.42119705153E+02  0.43400724899E+02  0.00000000000E+00 0.  1.
         11    1    4    4    0    0  0.54827094331E+00 -0.91464672574E+01  0.94223892636E+01  0.13143054592E+02  0.51100000000E-03 0. -1.
        -11    1    4    4    0    0 -0.48218597977E+01  0.25945167174E+01  0.90620590213E+01  0.10587859220E+02  0.51100000000E-03 0.  1.
         12    1    4    4    0    0  0.24472014512E+01 -0.37542451043E+01  0.23635256868E+02  0.24056361289E+02  0.00000000000E+00 0. -1.
</event>
<event>
 8    1  0.5834107E-011  0.9118800E+02  0.7816164E-02  0.1184000E+00
        -11   -1    0    0    0    0  0.00000000000E+00  0.00000000000E+00  0.45593999997E+02  0.45594000000E+02  0.51100000000E-03 0. -1.
         11   -1    0    0    0    0 -0.00000000000E+00 -0.00000000000E+00 -0.45593999997E+02  0.45594000000E+02  0.51100000000E-03 0.  1.
         23    2    1    2    0    0  0.00000000000E+00 -0.35527136788E-14 -0.17763568394E-14  0.91188000000E+02  0.91188000000E+02 0.  0.
    9900012    2    3    3    0    0 -0.35693488128E+02  0.22001695108E+02 -0.11203728509E+02  0.47787271724E+02  0.20000003101E+02 0.  0.
         12    1    3    3    0    0  0.35693488128E+02 -0.22001695108E+02  0.11203728509E+02  0.43400728276E+02  0.00000000000E+00 0. -1.
         11    1    4    4    0    0 -0.94020444382E+01  0.79551720763E+01 -0.10254350649E+02  0.16026069695E+02  0.51100000000E-03 0. -1.
        -11    1    4    4    0    0 -0.22033167826E+01  0.30806804871E+01  0.32160212220E+01  0.49687010243E+01  0.51100000000E-03 0.  1.
        -12    1    4    4    0    0 -0.24088126907E+02  0.10965842545E+02 -0.41653990816E+01  0.26792501005E+02  0.00000000000E+00 0.  1.
</event>
<event>
 8    1  0.5834107E-011  0.9118800E+02  0.7816164E-02  0.1184000E+00
        -11   -1    0    0    0    0  0.00000000000E+00  0.00000000000E+00  0.45593999997E+02  0.45594000000E+02  0.51100000000E-03 0. -1.
         11   -1    0    0    0    0 -0.00000000000E+00 -0.00000000000E+00 -0.45593999997E+02  0.45594000000E+02  0.51100000000E-03 0.  1.
         23    2    1    2    0    0  0.00000000000E+00 -0.88817841970E-15  0.00000000000E+00  0.91188000000E+02  0.91188000000E+02 0.  0.
    9900012    2    3    3    0    0  0.26132265590E+02 -0.66461600888E+01 -0.34008188806E+02  0.47787266658E+02  0.19999979999E+02 0.  0.
         12    1    3    3    0    0 -0.26132265590E+02  0.66461600888E+01  0.34008188806E+02  0.43400733342E+02  0.00000000000E+00 0. -1.
         11    1    4    4    0    0  0.10976222045E+02  0.38792608239E+01 -0.86840612749E+01  0.14523740407E+02  0.51100000000E-03 0.  1.
        -11    1    4    4    0    0  0.23445987771E+01 -0.54652154564E+01 -0.21866363679E+01  0.63361741040E+01  0.51100000000E-03 0. -1.
        -12    1    4    4    0    0  0.12811444768E+02 -0.50602054563E+01 -0.23137491164E+02  0.26927352147E+02  0.00000000000E+00 0.  1.
</event>
<event>
 8    1  0.5834107E-011  0.9118800E+02  0.7816164E-02  0.1184000E+00
        -11   -1    0    0    0    0  0.00000000000E+00  0.00000000000E+00  0.45593999997E+02  0.45594000000E+02  0.51100000000E-03 0. -1.
         11   -1    0    0    0    0 -0.00000000000E+00 -0.00000000000E+00 -0.45593999997E+02  0.45594000000E+02  0.51100000000E-03 0.  1.
         23    2    1    2    0    0  0.00000000000E+00 -0.17763568394E-14 -0.35527136788E-14  0.91188000000E+02  0.91188000000E+02 0.  0.
    9900012    2    3    3    0    0 -0.28695285217E+02  0.14851372121E+02  0.28976559179E+02  0.47787266948E+02  0.19999981325E+02 0.  0.
        -12    1    3    3    0    0  0.28695285217E+02 -0.14851372121E+02 -0.28976559179E+02  0.43400733052E+02  0.00000000000E+00 0.  1.
         11    1    4    4    0    0 -0.13547134624E+02  0.17292475197E+01  0.14518438265E+02  0.19932390810E+02  0.51100000000E-03 0.  1.
        -11    1    4    4    0    0 -0.10716192897E+02  0.68354837963E+01  0.15175913319E+01  0.12800926241E+02  0.51100000000E-03 0. -1.
         12    1    4    4    0    0 -0.44319576970E+01  0.62866408050E+01  0.12940529582E+02  0.15053949897E+02  0.00000000000E+00 0. -1.
</event>
<event>
 8    1  0.5834107E-011  0.9118800E+02  0.7816164E-02  0.1184000E+00
        -11   -1    0    0    0    0  0.00000000000E+00  0.00000000000E+00  0.45593999997E+02  0.45594000000E+02  0.51100000000E-03 0. -1.
         11   -1    0    0    0    0 -0.00000000000E+00 -0.00000000000E+00 -0.45593999997E+02  0.45594000000E+02  0.51100000000E-03 0.  1.
         23    2    1    2    0    0  0.00000000000E+00  0.00000000000E+00  0.00000000000E+00  0.91188000000E+02  0.91188000000E+02 0.  0.
    9900012    2    3    3    0    0 -0.12085848736E+02  0.11295885218E+02 -0.40124290091E+02  0.47787269385E+02  0.19999992436E+02 0.  0.
         12    1    3    3    0    0  0.12085848736E+02 -0.11295885218E+02  0.40124290091E+02  0.43400730615E+02  0.00000000000E+00 0. -1.
         11    1    4    4    0    0 -0.42029901358E+01 -0.12394017667E+01  0.54499807199E+00  0.44156840897E+01  0.51100000000E-03 0. -1.
        -11    1    4    4    0    0 -0.12153579863E+01  0.42030404919E+01 -0.12943985980E+02  0.13663433600E+02  0.51100000000E-03 0.  1.
         12    1    4    4    0    0 -0.66675006143E+01  0.83322464929E+01 -0.27725302183E+02  0.29708151696E+02  0.00000000000E+00 0. -1.
</event>
<event>
 8    1  0.5834107E-011  0.9118800E+02  0.7816164E-02  0.1184000E+00
        -11   -1    0    0    0    0  0.00000000000E+00  0.00000000000E+00  0.45593999997E+02  0.45594000000E+02  0.51100000000E-03 0. -1.
         11   -1    0    0    0    0 -0.00000000000E+00 -0.00000000000E+00 -0.45593999997E+02  0.45594000000E+02  0.51100000000E-03 0.  1.
         23    2    1    2    0    0  0.44408920985E-15  0.00000000000E+00 -0.71054273576E-14  0.91188000000E+02  0.91188000000E+02 0.  0.
    9900012    2    3    3    0    0  0.30888946905E+01 -0.11949839696E+02  0.41608691175E+02  0.47787272812E+02  0.20000008059E+02 0.  0.
        -12    1    3    3    0    0 -0.30888946905E+01  0.11949839696E+02 -0.41608691175E+02  0.43400727188E+02  0.00000000000E+00 0.  1.
         11    1    4    4    0    0  0.40777605562E+01 -0.14715472227E+01  0.12459820820E+02  0.13192449262E+02  0.51100000000E-03 0. -1.
        -11    1    4    4    0    0 -0.51325405186E+01  0.78936568095E+00  0.34626362802E+01  0.62414678260E+01  0.51100000000E-03 0.  1.
        -12    1    4    4    0    0  0.41436746528E+01 -0.11267658154E+02  0.25686234074E+02  0.28353355724E+02  0.00000000000E+00 0.  1.
</event>
<event>
 8    1  0.5834107E-011  0.9118800E+02  0.7816164E-02  0.1184000E+00
        -11   -1    0    0    0    0  0.00000000000E+00  0.00000000000E+00  0.45593999997E+02  0.45594000000E+02  0.51100000000E-03 0. -1.
         11   -1    0    0    0    0 -0.00000000000E+00 -0.00000000000E+00 -0.45593999997E+02  0.45594000000E+02  0.51100000000E-03 0.  1.
         23    2    1    2    0    0  0.00000000000E+00  0.00000000000E+00  0.35527136788E-14  0.91188000000E+02  0.91188000000E+02 0.  0.
    9900012    2    3    3    0    0  0.21484701651E+02  0.32147763127E+02  0.19711694047E+02  0.47787286166E+02  0.20000068945E+02 0.  0.
        -12    1    3    3    0    0 -0.21484701651E+02 -0.32147763127E+02 -0.19711694047E+02  0.43400713834E+02  0.00000000000E+00 0.  1.
         11    1    4    4    0    0  0.56033320952E+01  0.19596840436E+02  0.17044579424E+02  0.26569741693E+02  0.51100000000E-03 0. -1.
        -11    1    4    4    0    0  0.39377667891E+01  0.59395471716E+00  0.15736202825E+01  0.42819470508E+01  0.51100000000E-03 0.  1.
        -12    1    4    4    0    0  0.11943602766E+02  0.11956967974E+02  0.10934943411E+01  0.16935597422E+02  0.00000000000E+00 0.  1.
</event>
<event>
 8    1  0.5834107E-011  0.9118800E+02  0.7816164E-02  0.1184000E+00
        -11   -1    0    0    0    0  0.00000000000E+00  0.00000000000E+00  0.45593999997E+02  0.45594000000E+02  0.51100000000E-03 0. -1.
         11   -1    0    0    0    0 -0.00000000000E+00 -0.00000000000E+00 -0.45593999997E+02  0.45594000000E+02  0.51100000000E-03 0.  1.
         23    2    1    2    0    0 -0.17763568394E-14  0.00000000000E+00  0.71054273576E-14  0.91188000000E+02  0.91188000000E+02 0.  0.
    9900012    2    3    3    0    0 -0.51826712167E+01  0.18121290031E+02  0.39094517995E+02  0.47787279147E+02  0.20000036942E+02 0.  0.
        -12    1    3    3    0    0  0.51826712167E+01 -0.18121290031E+02 -0.39094517995E+02  0.43400720853E+02  0.00000000000E+00 0.  1.
         11    1    4    4    0    0 -0.59259438186E+01  0.15240757830E+02  0.28047258330E+02  0.32466077827E+02  0.51100000000E-03 0. -1.
        -11    1    4    4    0    0 -0.44444128318E+01  0.26103248591E+01  0.72100765541E+01  0.88629456427E+01  0.51100000000E-03 0.  1.
        -12    1    4    4    0    0  0.51876854337E+01  0.27020734199E+00  0.38371831106E+01  0.64582556771E+01  0.00000000000E+00 0.  1.
</event>
<event>
 8    1  0.5834107E-011  0.9118800E+02  0.7816164E-02  0.1184000E+00
        -11   -1    0    0    0    0  0.00000000000E+00  0.00000000000E+00  0.45593999997E+02  0.45594000000E+02  0.51100000000E-03 0. -1.
         11   -1    0    0    0    0 -0.00000000000E+00 -0.00000000000E+00 -0.45593999997E+02  0.45594000000E+02  0.51100000000E-03 0.  1.
         23    2    1    2    0    0  0.00000000000E+00  0.00000000000E+00  0.35527136788E-14  0.91188000000E+02  0.91188000000E+02 0.  0.
    9900012    2    3    3    0    0 -0.22937020057E+02 -0.32996366497E+02 -0.16393779744E+02  0.47787272985E+02  0.20000008849E+02 0.  0.
         12    1    3    3    0    0  0.22937020057E+02  0.32996366497E+02  0.16393779744E+02  0.43400727015E+02  0.00000000000E+00 0. -1.
         11    1    4    4    0    0  0.29281156207E+01 -0.32793401280E+01 -0.25498723547E+01  0.50823008618E+01  0.51100000000E-03 0. -1.
        -11    1    4    4    0    0 -0.13690224248E+02 -0.21064241661E+02 -0.11327894802E+02  0.27558042703E+02  0.51100000000E-03 0.  1.
        -12    1    4    4    0    0 -0.12174911430E+02 -0.86527847081E+01 -0.25160125879E+01  0.15146929421E+02  0.00000000000E+00 0.  1.
</event>
<event>
 8    1  0.5834107E-011  0.9118800E+02  0.7816164E-02  0.1184000E+00
        -11   -1    0    0    0    0  0.00000000000E+00  0.00000000000E+00  0.45593999997E+02  0.45594000000E+02  0.51100000000E-03 0. -1.
         11   -1    0    0    0    0 -0.00000000000E+00 -0.00000000000E+00 -0.45593999997E+02  0.45594000000E+02  0.51100000000E-03 0.  1.
         23    2    1    2    0    0  0.00000000000E+00  0.00000000000E+00  0.00000000000E+00  0.91188000000E+02  0.91188000000E+02 0.  0.
    9900012    2    3    3    0    0  0.29319823517E+02 -0.26985833903E+02  0.17196984954E+02  0.47787267587E+02  0.19999984234E+02 0.  0.
        -12    1    3    3    0    0 -0.29319823517E+02  0.26985833903E+02 -0.17196984954E+02  0.43400732413E+02  0.00000000000E+00 0.  1.
         11    1    4    4    0    0  0.30477327639E+02 -0.23657593472E+02  0.16603738070E+02  0.42002777849E+02  0.51100000000E-03 0. -1.
        -11    1    4    4    0    0 -0.63908837879E-02  0.90617011871E+00  0.10333280287E+01  0.13743915757E+01  0.51100000000E-03 0.  1.
         12    1    4    4    0    0 -0.11511132374E+01 -0.42344105489E+01 -0.44008114447E+00  0.44100981617E+01  0.00000000000E+00 0. -1.
</event>
<event>
 8    1  0.5834107E-011  0.9118800E+02  0.7816164E-02  0.1184000E+00
        -11   -1    0    0    0    0  0.00000000000E+00  0.00000000000E+00  0.45593999997E+02  0.45594000000E+02  0.51100000000E-03 0. -1.
         11   -1    0    0    0    0 -0.00000000000E+00 -0.00000000000E+00 -0.45593999997E+02  0.45594000000E+02  0.51100000000E-03 0.  1.
         23    2    1    2    0    0  0.00000000000E+00  0.00000000000E+00  0.00000000000E+00  0.91188000000E+02  0.91188000000E+02 0.  0.
    9900012    2    3    3    0    0 -0.92371938485E+01 -0.12824938804E+02 -0.40420523524E+02  0.47787268122E+02  0.19999986677E+02 0.  0.
         12    1    3    3    0    0  0.92371938485E+01  0.12824938804E+02  0.40420523524E+02  0.43400731878E+02  0.00000000000E+00 0. -1.
         11    1    4    4    0    0 -0.88257760334E+01 -0.31570841723E+01 -0.12494885679E+02  0.15619976679E+02  0.51100000000E-03 0. -1.
        -11    1    4    4    0    0  0.47156365812E+01  0.30823603491E+00 -0.75022768474E+01  0.88665887451E+01  0.51100000000E-03 0.  1.
         12    1    4    4    0    0 -0.51270543964E+01 -0.99760906671E+01 -0.20423360998E+02  0.23300702698E+02  0.00000000000E+00 0. -1.
</event>
<event>
 8    1  0.5834107E-011  0.9118800E+02  0.7816164E-02  0.1184000E+00
        -11   -1    0    0    0    0  0.00000000000E+00  0.00000000000E+00  0.45593999997E+02  0.45594000000E+02  0.51100000000E-03 0. -1.
         11   -1    0    0    0    0 -0.00000000000E+00 -0.00000000000E+00 -0.45593999997E+02  0.45594000000E+02  0.51100000000E-03 0.  1.
         23    2    1    2    0    0 -0.71054273576E-14  0.17763568394E-14  0.00000000000E+00  0.91188000000E+02  0.91188000000E+02 0.  0.
    9900012    2    3    3    0    0 -0.35468241251E+02  0.11997232473E+02  0.21947516481E+02  0.47787271848E+02  0.20000003664E+02 0.  0.
        -12    1    3    3    0    0  0.35468241251E+02 -0.11997232473E+02 -0.21947516481E+02  0.43400728152E+02  0.00000000000E+00 0.  1.
         11    1    4    4    0    0 -0.60393930849E+00  0.58661981083E+01  0.56382236716E+01  0.81588350496E+01  0.51100000000E-03 0. -1.
        -11    1    4    4    0    0 -0.15516911742E+02  0.48844963910E+01  0.10605528980E+02  0.19419322857E+02  0.51100000000E-03 0.  1.
        -12    1    4    4    0    0 -0.19347390201E+02  0.12465379737E+01  0.57037638286E+01  0.20209113942E+02  0.00000000000E+00 0.  1.
</event>
<event>
 8    1  0.5834107E-011  0.9118800E+02  0.7816164E-02  0.1184000E+00
        -11   -1    0    0    0    0  0.00000000000E+00  0.00000000000E+00  0.45593999997E+02  0.45594000000E+02  0.51100000000E-03 0. -1.
         11   -1    0    0    0    0 -0.00000000000E+00 -0.00000000000E+00 -0.45593999997E+02  0.45594000000E+02  0.51100000000E-03 0.  1.
         23    2    1    2    0    0 -0.11102230246E-15  0.00000000000E+00 -0.71054273576E-14  0.91188000000E+02  0.91188000000E+02 0.  0.
    9900012    2    3    3    0    0  0.90162126232E+00 -0.61722152389E+01  0.42950134258E+02  0.47787271958E+02  0.20000004163E+02 0.  0.
        -12    1    3    3    0    0 -0.90162126232E+00  0.61722152389E+01 -0.42950134258E+02  0.43400728042E+02  0.00000000000E+00 0.  1.
         11    1    4    4    0    0  0.51087072322E+00  0.33617470615E+01  0.24508895323E+02  0.24743651356E+02  0.51100000000E-03 0. -1.
        -11    1    4    4    0    0 -0.44871349283E+01 -0.39210136796E+01  0.11075946979E+02  0.12577174956E+02  0.51100000000E-03 0.  1.
        -12    1    4    4    0    0  0.48778854674E+01 -0.56129486208E+01  0.73652919555E+01  0.10466445645E+02  0.00000000000E+00 0.  1.
</event>
<event>
 8    1  0.5834107E-011  0.9118800E+02  0.7816164E-02  0.1184000E+00
        -11   -1    0    0    0    0  0.00000000000E+00  0.00000000000E+00  0.45593999997E+02  0.45594000000E+02  0.51100000000E-03 0.  1.
         11   -1    0    0    0    0 -0.00000000000E+00 -0.00000000000E+00 -0.45593999997E+02  0.45594000000E+02  0.51100000000E-03 0. -1.
         23    2    1    2    0    0  0.00000000000E+00  0.35527136788E-14  0.00000000000E+00  0.91188000000E+02  0.91188000000E+02 0.  0.
    9900012    2    3    3    0    0  0.34342262618E+02 -0.18756056289E+02 -0.18773468604E+02  0.47787265298E+02  0.19999973800E+02 0.  0.
        -12    1    3    3    0    0 -0.34342262618E+02  0.18756056289E+02  0.18773468604E+02  0.43400734702E+02  0.00000000000E+00 0.  1.
         11    1    4    4    0    0  0.14286487810E+02 -0.48397004038E+01 -0.46019028704E+01  0.15770350162E+02  0.51100000000E-03 0. -1.
        -11    1    4    4    0    0  0.24626476489E+01 -0.72061297130E+01  0.12008096383E+01  0.77094022421E+01  0.51100000000E-03 0.  1.
         12    1    4    4    0    0  0.17593127159E+02 -0.67102261727E+01 -0.15372375371E+02  0.24307512894E+02  0.00000000000E+00 0. -1.
</event>
<event>
 8    1  0.5834107E-011  0.9118800E+02  0.7816164E-02  0.1184000E+00
        -11   -1    0    0    0    0  0.00000000000E+00  0.00000000000E+00  0.45593999997E+02  0.45594000000E+02  0.51100000000E-03 0. -1.
         11   -1    0    0    0    0 -0.00000000000E+00 -0.00000000000E+00 -0.45593999997E+02  0.45594000000E+02  0.51100000000E-03 0.  1.
         23    2    1    2    0    0  0.00000000000E+00 -0.83266726847E-15  0.00000000000E+00  0.91188000000E+02  0.91188000000E+02 0.  0.
    9900012    2    3    3    0    0 -0.20935428696E+02 -0.27950250555E+00  0.38016483843E+02  0.47787270281E+02  0.19999996521E+02 0.  0.
        -12    1    3    3    0    0  0.20935428696E+02  0.27950250555E+00 -0.38016483843E+02  0.43400729719E+02  0.00000000000E+00 0.  1.
         11    1    4    4    0    0 -0.82788977255E+01  0.85751070420E+01  0.14807784577E+02  0.19009026610E+02  0.51100000000E-03 0. -1.
        -11    1    4    4    0    0 -0.73305245726E+01 -0.28298554630E+01  0.63606301103E+01  0.10109514732E+02  0.51100000000E-03 0.  1.
         12    1    4    4    0    0 -0.53260063977E+01 -0.60247540845E+01  0.16848069156E+02  0.18668728940E+02  0.00000000000E+00 0. -1.
</event>
<event>
 8    1  0.5834107E-011  0.9118800E+02  0.7816164E-02  0.1184000E+00
        -11   -1    0    0    0    0  0.00000000000E+00  0.00000000000E+00  0.45593999997E+02  0.45594000000E+02  0.51100000000E-03 0. -1.
         11   -1    0    0    0    0 -0.00000000000E+00 -0.00000000000E+00 -0.45593999997E+02  0.45594000000E+02  0.51100000000E-03 0.  1.
         23    2    1    2    0    0  0.44408920985E-15  0.00000000000E+00 -0.71054273576E-14  0.91188000000E+02  0.91188000000E+02 0.  0.
    9900012    2    3    3    0    0 -0.36497241555E+01  0.15144197566E+02 -0.40508728266E+02  0.47787259545E+02  0.19999947569E+02 0.  0.
         12    1    3    3    0    0  0.36497241555E+01 -0.15144197566E+02  0.40508728266E+02  0.43400740455E+02  0.00000000000E+00 0. -1.
         11    1    4    4    0    0 -0.20245742796E+01 -0.16180746762E+01 -0.51472870546E+01  0.57629533188E+01  0.51100000000E-03 0. -1.
        -11    1    4    4    0    0  0.57375128333E+01  0.26108157335E+01 -0.14090439021E+02  0.15436187495E+02  0.51100000000E-03 0.  1.
         12    1    4    4    0    0 -0.73626627093E+01  0.14151456509E+02 -0.21271002190E+02  0.26588118732E+02  0.00000000000E+00 0. -1.
</event>
<event>
 8    1  0.5834107E-011  0.9118800E+02  0.7816164E-02  0.1184000E+00
        -11   -1    0    0    0    0  0.00000000000E+00  0.00000000000E+00  0.45593999997E+02  0.45594000000E+02  0.51100000000E-03 0. -1.
         11   -1    0    0    0    0 -0.00000000000E+00 -0.00000000000E+00 -0.45593999997E+02  0.45594000000E+02  0.51100000000E-03 0.  1.
         23    2    1    2    0    0 -0.17763568394E-14  0.00000000000E+00  0.00000000000E+00  0.91188000000E+02  0.91188000000E+02 0.  0.
    9900012    2    3    3    0    0  0.15210431054E+02 -0.30122315666E+02  0.27293077898E+02  0.47787271722E+02  0.20000003090E+02 0.  0.
        -12    1    3    3    0    0 -0.15210431054E+02  0.30122315666E+02 -0.27293077898E+02  0.43400728278E+02  0.00000000000E+00 0.  1.
         11    1    4    4    0    0  0.12729667446E+02 -0.46520711561E+01  0.87737731882E+01  0.16145132255E+02  0.51100000000E-03 0. -1.
        -11    1    4    4    0    0  0.58098596847E+00 -0.93355407973E+01  0.77912498281E+01  0.12173472833E+02  0.51100000000E-03 0.  1.
         12    1    4    4    0    0  0.18997776399E+01 -0.16134703712E+02  0.10728054882E+02  0.19468666634E+02  0.00000000000E+00 0. -1.
</event>
<event>
 8    1  0.5834107E-011  0.9118800E+02  0.7816164E-02  0.1184000E+00
        -11   -1    0    0    0    0  0.00000000000E+00  0.00000000000E+00  0.45593999997E+02  0.45594000000E+02  0.51100000000E-03 0. -1.
         11   -1    0    0    0    0 -0.00000000000E+00 -0.00000000000E+00 -0.45593999997E+02  0.45594000000E+02  0.51100000000E-03 0.  1.
         23    2    1    2    0    0 -0.44408920985E-15 -0.17763568394E-14  0.00000000000E+00  0.91188000000E+02  0.91188000000E+02 0.  0.
    9900012    2    3    3    0    0 -0.21188587038E+01 -0.11472804466E+02 -0.41803212495E+02  0.47787269829E+02  0.19999994456E+02 0.  0.
         12    1    3    3    0    0  0.21188587038E+01  0.11472804466E+02  0.41803212495E+02  0.43400730171E+02  0.00000000000E+00 0. -1.
         11    1    4    4    0    0 -0.42747984714E+01 -0.14573677826E+01 -0.77154449029E+01  0.89401293691E+01  0.51100000000E-03 0.  1.
        -11    1    4    4    0    0  0.70136919569E+01 -0.82925863009E+01 -0.30979654177E+02  0.32828308449E+02  0.51100000000E-03 0. -1.
         12    1    4    4    0    0 -0.48577521892E+01 -0.17228503825E+01 -0.31081134153E+01  0.60188320108E+01  0.00000000000E+00 0. -1.
</event>
<event>
 8    1  0.5834107E-011  0.9118800E+02  0.7816164E-02  0.1184000E+00
        -11   -1    0    0    0    0  0.00000000000E+00  0.00000000000E+00  0.45593999997E+02  0.45594000000E+02  0.51100000000E-03 0. -1.
         11   -1    0    0    0    0 -0.00000000000E+00 -0.00000000000E+00 -0.45593999997E+02  0.45594000000E+02  0.51100000000E-03 0.  1.
         23    2    1    2    0    0  0.17763568394E-14 -0.35527136788E-14 -0.35527136788E-14  0.91188000000E+02  0.91188000000E+02 0.  0.
    9900012    2    3    3    0    0  0.15173662501E+02 -0.25498538715E+02 -0.31673469317E+02  0.47787260733E+02  0.19999952987E+02 0.  0.
         12    1    3    3    0    0 -0.15173662501E+02  0.25498538715E+02  0.31673469317E+02  0.43400739267E+02  0.00000000000E+00 0. -1.
         11    1    4    4    0    0  0.46701207920E+01 -0.60359437067E+01 -0.21535878605E+02  0.22848122728E+02  0.51100000000E-03 0.  1.
        -11    1    4    4    0    0  0.16769901262E+01 -0.87244027822E+01 -0.40868196686E+01  0.97790385547E+01  0.51100000000E-03 0. -1.
        -12    1    4    4    0    0  0.88265515831E+01 -0.10738192226E+02 -0.60507710439E+01  0.15160099451E+02  0.00000000000E+00 0.  1.
</event>
<event>
 8    1  0.5834107E-011  0.9118800E+02  0.7816164E-02  0.1184000E+00
        -11   -1    0    0    0    0  0.00000000000E+00  0.00000000000E+00  0.45593999997E+02  0.45594000000E+02  0.51100000000E-03 0. -1.
         11   -1    0    0    0    0 -0.00000000000E+00 -0.00000000000E+00 -0.45593999997E+02  0.45594000000E+02  0.51100000000E-03 0.  1.
         23    2    1    2    0    0  0.00000000000E+00  0.00000000000E+00  0.00000000000E+00  0.91188000000E+02  0.91188000000E+02 0.  0.
    9900012    2    3    3    0    0 -0.40063911136E+01  0.40452970828E+02  0.15202936458E+02  0.47787270795E+02  0.19999998862E+02 0.  0.
        -12    1    3    3    0    0  0.40063911136E+01 -0.40452970828E+02 -0.15202936458E+02  0.43400729205E+02  0.00000000000E+00 0.  1.
         11    1    4    4    0    0  0.13949961919E+01  0.14853438770E+02 -0.23628397382E+01  0.15104756521E+02  0.51100000000E-03 0. -1.
        -11    1    4    4    0    0 -0.53165847555E+01  0.20845001962E+02  0.99451090338E+01  0.23699902409E+02  0.51100000000E-03 0.  1.
        -12    1    4    4    0    0 -0.84802549895E-01  0.47545300966E+01  0.76206671625E+01  0.89826118648E+01  0.00000000000E+00 0.  1.
</event>
<event>
 8    1  0.5834107E-011  0.9118800E+02  0.7816164E-02  0.1184000E+00
        -11   -1    0    0    0    0  0.00000000000E+00  0.00000000000E+00  0.45593999997E+02  0.45594000000E+02  0.51100000000E-03 0. -1.
         11   -1    0    0    0    0 -0.00000000000E+00 -0.00000000000E+00 -0.45593999997E+02  0.45594000000E+02  0.51100000000E-03 0.  1.
         23    2    1    2    0    0  0.00000000000E+00  0.00000000000E+00  0.00000000000E+00  0.91188000000E+02  0.91188000000E+02 0.  0.
    9900012    2    3    3    0    0  0.13205787376E+02 -0.27329877895E+02  0.31021096630E+02  0.47787268645E+02  0.19999989061E+02 0.  0.
        -12    1    3    3    0    0 -0.13205787376E+02  0.27329877895E+02 -0.31021096630E+02  0.43400731355E+02  0.00000000000E+00 0.  1.
         11    1    4    4    0    0  0.71599900294E+01 -0.59455065520E+01  0.35542650811E+01  0.99622942091E+01  0.51100000000E-03 0. -1.
        -11    1    4    4    0    0  0.10298207826E+01 -0.21664691503E+01  0.13084976134E+02  0.13303034244E+02  0.51100000000E-03 0.  1.
         12    1    4    4    0    0  0.50159765642E+01 -0.19217902193E+02  0.14381855416E+02  0.24521940192E+02  0.00000000000E+00 0. -1.
</event>
<event>
 8    1  0.5834107E-011  0.9118800E+02  0.7816164E-02  0.1184000E+00
        -11   -1    0    0    0    0  0.00000000000E+00  0.00000000000E+00  0.45593999997E+02  0.45594000000E+02  0.51100000000E-03 0. -1.
         11   -1    0    0    0    0 -0.00000000000E+00 -0.00000000000E+00 -0.45593999997E+02  0.45594000000E+02  0.51100000000E-03 0.  1.
         23    2    1    2    0    0  0.17763568394E-14  0.35527136788E-14 -0.71054273576E-14  0.91188000000E+02  0.91188000000E+02 0.  0.
    9900012    2    3    3    0    0 -0.13556207183E+02  0.25272907965E+02  0.32575041147E+02  0.47787263417E+02  0.19999965225E+02 0.  0.
        -12    1    3    3    0    0  0.13556207183E+02 -0.25272907965E+02 -0.32575041147E+02  0.43400736583E+02  0.00000000000E+00 0.  1.
         11    1    4    4    0    0 -0.90797319347E+01  0.18815698040E+02  0.12025461846E+02  0.24105678949E+02  0.51100000000E-03 0. -1.
        -11    1    4    4    0    0 -0.69742460666E+01  0.60624001439E+01  0.16210898555E+02  0.18659743726E+02  0.51100000000E-03 0.  1.
        -12    1    4    4    0    0  0.24977708187E+01  0.39480978175E+00  0.43386807462E+01  0.50218407426E+01  0.00000000000E+00 0.  1.
</event>
<event>
 8    1  0.5834107E-011  0.9118800E+02  0.7816164E-02  0.1184000E+00
        -11   -1    0    0    0    0  0.00000000000E+00  0.00000000000E+00  0.45593999997E+02  0.45594000000E+02  0.51100000000E-03 0. -1.
         11   -1    0    0    0    0 -0.00000000000E+00 -0.00000000000E+00 -0.45593999997E+02  0.45594000000E+02  0.51100000000E-03 0.  1.
         23    2    1    2    0    0  0.35527136788E-14 -0.71054273576E-14  0.00000000000E+00  0.91188000000E+02  0.91188000000E+02 0.  0.
    9900012    2    3    3    0    0  0.21504009399E+02 -0.33772090494E+02 -0.16752540618E+02  0.47787261138E+02  0.19999954833E+02 0.  0.
         12    1    3    3    0    0 -0.21504009399E+02  0.33772090494E+02  0.16752540618E+02  0.43400738862E+02  0.00000000000E+00 0. -1.
         11    1    4    4    0    0  0.19062266340E+00 -0.57734752272E+01  0.10344435492E+01  0.58685114736E+01  0.51100000000E-03 0. -1.
        -11    1    4    4    0    0  0.21919852570E+02 -0.28470391729E+02 -0.14843061523E+02  0.38876208888E+02  0.51100000000E-03 0.  1.
         12    1    4    4    0    0 -0.60646583409E+00  0.47177646209E+00 -0.29439226445E+01  0.30425407762E+01  0.00000000000E+00 0. -1.
</event>
<event>
 8    1  0.5834107E-011  0.9118800E+02  0.7816164E-02  0.1184000E+00
        -11   -1    0    0    0    0  0.00000000000E+00  0.00000000000E+00  0.45593999997E+02  0.45594000000E+02  0.51100000000E-03 0. -1.
         11   -1    0    0    0    0 -0.00000000000E+00 -0.00000000000E+00 -0.45593999997E+02  0.45594000000E+02  0.51100000000E-03 0.  1.
         23    2    1    2    0    0 -0.17763568394E-14  0.00000000000E+00  0.00000000000E+00  0.91188000000E+02  0.91188000000E+02 0.  0.
    9900012    2    3    3    0    0  0.15485578206E+02 -0.34112513777E+02  0.21912469357E+02  0.47787273717E+02  0.20000012187E+02 0.  0.
        -12    1    3    3    0    0 -0.15485578206E+02  0.34112513777E+02 -0.21912469357E+02  0.43400726283E+02  0.00000000000E+00 0.  1.
         11    1    4    4    0    0  0.37654117498E+01 -0.11808847914E+02  0.82225552858E+01  0.14874058975E+02  0.51100000000E-03 0.  1.
        -11    1    4    4    0    0  0.12903083296E+02 -0.14966937541E+02  0.15672821826E+02  0.25221739079E+02  0.51100000000E-03 0. -1.
        -12    1    4    4    0    0 -0.11829168400E+01 -0.73367283222E+01 -0.19829077551E+01  0.76914756639E+01  0.00000000000E+00 0.  1.
</event>
<event>
 8    1  0.5834107E-011  0.9118800E+02  0.7816164E-02  0.1184000E+00
        -11   -1    0    0    0    0  0.00000000000E+00  0.00000000000E+00  0.45593999997E+02  0.45594000000E+02  0.51100000000E-03 0. -1.
         11   -1    0    0    0    0 -0.00000000000E+00 -0.00000000000E+00 -0.45593999997E+02  0.45594000000E+02  0.51100000000E-03 0.  1.
         23    2    1    2    0    0  0.00000000000E+00  0.00000000000E+00  0.35527136788E-14  0.91188000000E+02  0.91188000000E+02 0.  0.
    9900012    2    3    3    0    0 -0.34523430856E+02 -0.19111264191E+02 -0.18069753047E+02  0.47787266455E+02  0.19999979076E+02 0.  0.
         12    1    3    3    0    0  0.34523430856E+02  0.19111264191E+02  0.18069753047E+02  0.43400733545E+02  0.00000000000E+00 0. -1.
         11    1    4    4    0    0 -0.15732235757E+02 -0.87151391257E+01 -0.34000216050E+00  0.17988120903E+02  0.51100000000E-03 0. -1.
        -11    1    4    4    0    0 -0.25057467132E+00  0.13357456130E+01 -0.32190205577E+01  0.34941519172E+01  0.51100000000E-03 0.  1.
        -12    1    4    4    0    0 -0.18540620427E+02 -0.11731870678E+02 -0.14510730328E+02  0.26304993634E+02  0.00000000000E+00 0.  1.
</event>
<event>
 8    1  0.5834107E-011  0.9118800E+02  0.7816164E-02  0.1184000E+00
        -11   -1    0    0    0    0  0.00000000000E+00  0.00000000000E+00  0.45593999997E+02  0.45594000000E+02  0.51100000000E-03 0. -1.
         11   -1    0    0    0    0 -0.00000000000E+00 -0.00000000000E+00 -0.45593999997E+02  0.45594000000E+02  0.51100000000E-03 0.  1.
         23    2    1    2    0    0  0.17763568394E-14  0.71054273576E-14  0.00000000000E+00  0.91188000000E+02  0.91188000000E+02 0.  0.
    9900012    2    3    3    0    0 -0.91116194988E+01 -0.37709449443E+02  0.19457620338E+02  0.47787272168E+02  0.20000005121E+02 0.  0.
        -12    1    3    3    0    0  0.91116194988E+01  0.37709449443E+02 -0.19457620338E+02  0.43400727832E+02  0.00000000000E+00 0.  1.
         11    1    4    4    0    0 -0.35518936027E+01 -0.65588769030E+00  0.22668500350E+01  0.42643576503E+01  0.51100000000E-03 0.  1.
        -11    1    4    4    0    0 -0.85600248660E+01 -0.31049956717E+02  0.17772215335E+02  0.36786213124E+02  0.51100000000E-03 0. -1.
         12    1    4    4    0    0  0.30002989699E+01 -0.60036050354E+01 -0.58144503258E+00  0.67367013928E+01  0.00000000000E+00 0. -1.
</event>
<event>
 8    1  0.5834107E-011  0.9118800E+02  0.7816164E-02  0.1184000E+00
        -11   -1    0    0    0    0  0.00000000000E+00  0.00000000000E+00  0.45593999997E+02  0.45594000000E+02  0.51100000000E-03 0. -1.
         11   -1    0    0    0    0 -0.00000000000E+00 -0.00000000000E+00 -0.45593999997E+02  0.45594000000E+02  0.51100000000E-03 0.  1.
         23    2    1    2    0    0  0.35527136788E-14  0.35527136788E-14  0.00000000000E+00  0.91188000000E+02  0.91188000000E+02 0.  0.
    9900012    2    3    3    0    0  0.17994392959E+02  0.21711063861E+02 -0.32991737181E+02  0.47787271962E+02  0.20000004185E+02 0.  0.
         12    1    3    3    0    0 -0.17994392959E+02 -0.21711063861E+02  0.32991737181E+02  0.43400728038E+02  0.00000000000E+00 0. -1.
         11    1    4    4    0    0  0.22680019041E+01  0.46500709905E+01 -0.16323363192E+02  0.17123643859E+02  0.51100000000E-03 0. -1.
        -11    1    4    4    0    0  0.11444056630E+02  0.43362014503E+01 -0.91074044486E+01  0.15254962839E+02  0.51100000000E-03 0.  1.
         12    1    4    4    0    0  0.42823344246E+01  0.12724791421E+02 -0.75609695406E+01  0.15408665264E+02  0.00000000000E+00 0. -1.
</event>
<event>
 8    1  0.5834107E-011  0.9118800E+02  0.7816164E-02  0.1184000E+00
        -11   -1    0    0    0    0  0.00000000000E+00  0.00000000000E+00  0.45593999997E+02  0.45594000000E+02  0.51100000000E-03 0. -1.
         11   -1    0    0    0    0 -0.00000000000E+00 -0.00000000000E+00 -0.45593999997E+02  0.45594000000E+02  0.51100000000E-03 0.  1.
         23    2    1    2    0    0  0.00000000000E+00  0.00000000000E+00  0.00000000000E+00  0.91188000000E+02  0.91188000000E+02 0.  0.
    9900012    2    3    3    0    0 -0.33477154667E+02  0.22343223109E+02 -0.16238247167E+02  0.47787306750E+02  0.20000162796E+02 0.  0.
         12    1    3    3    0    0  0.33477154667E+02 -0.22343223109E+02  0.16238247167E+02  0.43400693250E+02  0.00000000000E+00 0. -1.
         11    1    4    4    0    0 -0.11412813657E+02  0.27740065156E+01 -0.84864094684E+01  0.14490223382E+02  0.51100000000E-03 0.  1.
        -11    1    4    4    0    0 -0.16978300081E+02  0.20456736914E+02 -0.88494406009E+01  0.28018803650E+02  0.51100000000E-03 0. -1.
         12    1    4    4    0    0 -0.50860409292E+01 -0.88752031971E+00  0.10976029026E+01  0.52782797182E+01  0.00000000000E+00 0. -1.
</event>
<event>
 8    1  0.5834107E-011  0.9118800E+02  0.7816164E-02  0.1184000E+00
        -11   -1    0    0    0    0  0.00000000000E+00  0.00000000000E+00  0.45593999997E+02  0.45594000000E+02  0.51100000000E-03 0. -1.
         11   -1    0    0    0    0 -0.00000000000E+00 -0.00000000000E+00 -0.45593999997E+02  0.45594000000E+02  0.51100000000E-03 0.  1.
         23    2    1    2    0    0  0.44408920985E-15  0.00000000000E+00  0.71054273576E-14  0.91188000000E+02  0.91188000000E+02 0.  0.
    9900012    2    3    3    0    0 -0.21589073794E+01  0.28738928417E+02 -0.32450528732E+02  0.47787266105E+02  0.19999977480E+02 0.  0.
         12    1    3    3    0    0  0.21589073794E+01 -0.28738928417E+02  0.32450528732E+02  0.43400733895E+02  0.00000000000E+00 0. -1.
         11    1    4    4    0    0  0.18630831407E+01 -0.56569021688E+00  0.71546694018E+00  0.20743619294E+01  0.51100000000E-03 0.  1.
        -11    1    4    4    0    0 -0.69204729286E+01  0.12095329824E+02 -0.13193536357E+02  0.19190084705E+02  0.51100000000E-03 0. -1.
        -12    1    4    4    0    0  0.28984824085E+01  0.17209288809E+02 -0.19972459315E+02  0.26522819471E+02  0.00000000000E+00 0.  1.
</event>
<event>
 8    1  0.5834107E-011  0.9118800E+02  0.7816164E-02  0.1184000E+00
        -11   -1    0    0    0    0  0.00000000000E+00  0.00000000000E+00  0.45593999997E+02  0.45594000000E+02  0.51100000000E-03 0.  1.
         11   -1    0    0    0    0 -0.00000000000E+00 -0.00000000000E+00 -0.45593999997E+02  0.45594000000E+02  0.51100000000E-03 0. -1.
         23    2    1    2    0    0  0.00000000000E+00 -0.35527136788E-14 -0.22204460493E-15  0.91188000000E+02  0.91188000000E+02 0.  0.
    9900012    2    3    3    0    0  0.30365582154E+02 -0.30984343024E+02  0.12350116360E+01  0.47787270214E+02  0.19999996215E+02 0.  0.
        -12    1    3    3    0    0 -0.30365582154E+02  0.30984343024E+02 -0.12350116360E+01  0.43400729786E+02  0.00000000000E+00 0.  1.
         11    1    4    4    0    0  0.17543964438E+02 -0.85537067883E+01  0.23594707251E+01  0.19660205757E+02  0.51100000000E-03 0. -1.
        -11    1    4    4    0    0  0.47665853819E+01 -0.78524581999E+01 -0.57550169474E+01  0.10839818094E+02  0.51100000000E-03 0.  1.
         12    1    4    4    0    0  0.80550323334E+01 -0.14578178036E+02  0.46305578583E+01  0.17287246363E+02  0.00000000000E+00 0. -1.
</event>
<event>
 8    1  0.5834107E-011  0.9118800E+02  0.7816164E-02  0.1184000E+00
        -11   -1    0    0    0    0  0.00000000000E+00  0.00000000000E+00  0.45593999997E+02  0.45594000000E+02  0.51100000000E-03 0. -1.
         11   -1    0    0    0    0 -0.00000000000E+00 -0.00000000000E+00 -0.45593999997E+02  0.45594000000E+02  0.51100000000E-03 0.  1.
         23    2    1    2    0    0 -0.17763568394E-14  0.00000000000E+00  0.88817841970E-15  0.91188000000E+02  0.91188000000E+02 0.  0.
    9900012    2    3    3    0    0 -0.89803467959E+01 -0.41956803545E+02  0.65271127543E+01  0.47787271974E+02  0.20000004238E+02 0.  0.
        -12    1    3    3    0    0  0.89803467959E+01  0.41956803545E+02 -0.65271127543E+01  0.43400728026E+02  0.00000000000E+00 0.  1.
         11    1    4    4    0    0 -0.11946398704E+02 -0.32374577820E+02  0.68178226291E+01  0.35175452189E+02  0.51100000000E-03 0. -1.
        -11    1    4    4    0    0  0.16226607341E+01 -0.60252072691E+01  0.35734563287E+01  0.71906704060E+01  0.51100000000E-03 0.  1.
         12    1    4    4    0    0  0.13433911744E+01 -0.35570184562E+01 -0.38641662036E+01  0.54211493794E+01  0.00000000000E+00 0. -1.
</event>
<event>
 8    1  0.5834107E-011  0.9118800E+02  0.7816164E-02  0.1184000E+00
        -11   -1    0    0    0    0  0.00000000000E+00  0.00000000000E+00  0.45593999997E+02  0.45594000000E+02  0.51100000000E-03 0. -1.
         11   -1    0    0    0    0 -0.00000000000E+00 -0.00000000000E+00 -0.45593999997E+02  0.45594000000E+02  0.51100000000E-03 0.  1.
         23    2    1    2    0    0 -0.17763568394E-14  0.00000000000E+00  0.00000000000E+00  0.91188000000E+02  0.91188000000E+02 0.  0.
    9900012    2    3    3    0    0 -0.14840585610E+02  0.30500319692E+02 -0.27076014874E+02  0.47787273462E+02  0.20000011023E+02 0.  0.
         12    1    3    3    0    0  0.14840585610E+02 -0.30500319692E+02  0.27076014874E+02  0.43400726538E+02  0.00000000000E+00 0. -1.
         11    1    4    4    0    0 -0.25217784031E+01  0.14548415209E+02 -0.75614865822E+01  0.16588906866E+02  0.51100000000E-03 0. -1.
        -11    1    4    4    0    0 -0.46805077681E+01  0.58720616539E+01 -0.16600618358E+02  0.18220010734E+02  0.51100000000E-03 0.  1.
        -12    1    4    4    0    0 -0.76382994386E+01  0.10079842830E+02 -0.29139099338E+01  0.12978355862E+02  0.00000000000E+00 0.  1.
</event>
<event>
 8    1  0.5834107E-011  0.9118800E+02  0.7816164E-02  0.1184000E+00
        -11   -1    0    0    0    0  0.00000000000E+00  0.00000000000E+00  0.45593999997E+02  0.45594000000E+02  0.51100000000E-03 0. -1.
         11   -1    0    0    0    0 -0.00000000000E+00 -0.00000000000E+00 -0.45593999997E+02  0.45594000000E+02  0.51100000000E-03 0.  1.
         23    2    1    2    0    0  0.00000000000E+00  0.00000000000E+00  0.00000000000E+00  0.91188000000E+02  0.91188000000E+02 0.  0.
    9900012    2    3    3    0    0  0.34412145943E+02  0.18578153654E+02 -0.18822317410E+02  0.47787271731E+02  0.20000003128E+02 0.  0.
         12    1    3    3    0    0 -0.34412145943E+02 -0.18578153654E+02  0.18822317410E+02  0.43400728269E+02  0.00000000000E+00 0. -1.
         11    1    4    4    0    0  0.11265144081E+02  0.11845258642E+02 -0.27195680727E+01  0.16571351008E+02  0.51100000000E-03 0. -1.
        -11    1    4    4    0    0  0.20654172508E+01  0.10284263876E+00 -0.70276238276E+01  0.73255731484E+01  0.51100000000E-03 0.  1.
        -12    1    4    4    0    0  0.21081584611E+02  0.66300523738E+01 -0.90751255097E+01  0.23890347574E+02  0.00000000000E+00 0.  1.
</event>
<event>
 8    1  0.5834107E-011  0.9118800E+02  0.7816164E-02  0.1184000E+00
        -11   -1    0    0    0    0  0.00000000000E+00  0.00000000000E+00  0.45593999997E+02  0.45594000000E+02  0.51100000000E-03 0. -1.
         11   -1    0    0    0    0 -0.00000000000E+00 -0.00000000000E+00 -0.45593999997E+02  0.45594000000E+02  0.51100000000E-03 0.  1.
         23    2    1    2    0    0  0.00000000000E+00  0.00000000000E+00  0.35527136788E-14  0.91188000000E+02  0.91188000000E+02 0.  0.
    9900012    2    3    3    0    0 -0.33466717322E+02  0.51973619296E+01 -0.27140174750E+02  0.47787276218E+02  0.20000023589E+02 0.  0.
         12    1    3    3    0    0  0.33466717322E+02 -0.51973619296E+01  0.27140174750E+02  0.43400723782E+02  0.00000000000E+00 0. -1.
         11    1    4    4    0    0 -0.12635292445E+02  0.10834403964E+02 -0.91518920659E+01  0.18994526924E+02  0.51100000000E-03 0. -1.
        -11    1    4    4    0    0 -0.13519131978E+02 -0.89732043145E+00 -0.89511652076E+01  0.16238702911E+02  0.51100000000E-03 0.  1.
         12    1    4    4    0    0 -0.73122928992E+01 -0.47397216028E+01 -0.90371174767E+01  0.12554046384E+02  0.00000000000E+00 0. -1.
</event>
<event>
 8    1  0.5834107E-011  0.9118800E+02  0.7816164E-02  0.1184000E+00
        -11   -1    0    0    0    0  0.00000000000E+00  0.00000000000E+00  0.45593999997E+02  0.45594000000E+02  0.51100000000E-03 0. -1.
         11   -1    0    0    0    0 -0.00000000000E+00 -0.00000000000E+00 -0.45593999997E+02  0.45594000000E+02  0.51100000000E-03 0.  1.
         23    2    1    2    0    0 -0.35527136788E-14  0.35527136788E-14 -0.35527136788E-14  0.91188000000E+02  0.91188000000E+02 0.  0.
    9900012    2    3    3    0    0 -0.29915842256E+02  0.15850258900E+02 -0.27155752420E+02  0.47787271728E+02  0.20000003116E+02 0.  0.
         12    1    3    3    0    0  0.29915842256E+02 -0.15850258900E+02  0.27155752420E+02  0.43400728272E+02  0.00000000000E+00 0. -1.
         11    1    4    4    0    0 -0.96404585593E+01  0.27143333814E+00 -0.27893668326E+01  0.10039556010E+02  0.51100000000E-03 0. -1.
        -11    1    4    4    0    0 -0.20508300438E+02  0.10903308653E+02 -0.23395103792E+02  0.32966701506E+02  0.51100000000E-03 0.  1.
        -12    1    4    4    0    0  0.23291674156E+00  0.46755169084E+01 -0.97128179458E+00  0.47810142119E+01  0.00000000000E+00 0.  1.
</event>
<event>
 8    1  0.5834107E-011  0.9118800E+02  0.7816164E-02  0.1184000E+00
        -11   -1    0    0    0    0  0.00000000000E+00  0.00000000000E+00  0.45593999997E+02  0.45594000000E+02  0.51100000000E-03 0. -1.
         11   -1    0    0    0    0 -0.00000000000E+00 -0.00000000000E+00 -0.45593999997E+02  0.45594000000E+02  0.51100000000E-03 0.  1.
         23    2    1    2    0    0  0.00000000000E+00  0.00000000000E+00  0.00000000000E+00  0.91188000000E+02  0.91188000000E+02 0.  0.
    9900012    2    3    3    0    0 -0.19629556532E+02 -0.17627463563E+02  0.34461211448E+02  0.47787285077E+02  0.20000063982E+02 0.  0.
        -12    1    3    3    0    0  0.19629556532E+02  0.17627463563E+02 -0.34461211448E+02  0.43400714923E+02  0.00000000000E+00 0.  1.
         11    1    4    4    0    0 -0.10042723356E+02 -0.87437762676E+01  0.29874686046E+02  0.32707900918E+02  0.51100000000E-03 0. -1.
        -11    1    4    4    0    0 -0.30441867743E+01  0.96819759093E-01 -0.33934313523E-01  0.30459151303E+01  0.51100000000E-03 0.  1.
         12    1    4    4    0    0 -0.65426464020E+01 -0.89805070546E+01  0.46204597154E+01  0.12033469029E+02  0.00000000000E+00 0. -1.
</event>
<event>
 8    1  0.5834107E-011  0.9118800E+02  0.7816164E-02  0.1184000E+00
        -11   -1    0    0    0    0  0.00000000000E+00  0.00000000000E+00  0.45593999997E+02  0.45594000000E+02  0.51100000000E-03 0. -1.
         11   -1    0    0    0    0 -0.00000000000E+00 -0.00000000000E+00 -0.45593999997E+02  0.45594000000E+02  0.51100000000E-03 0.  1.
         23    2    1    2    0    0  0.00000000000E+00  0.17763568394E-14  0.00000000000E+00  0.91188000000E+02  0.91188000000E+02 0.  0.
    9900012    2    3    3    0    0  0.25665702575E+02 -0.10220116913E+02  0.33473037577E+02  0.47787270478E+02  0.19999997419E+02 0.  0.
        -12    1    3    3    0    0 -0.25665702575E+02  0.10220116913E+02 -0.33473037577E+02  0.43400729522E+02  0.00000000000E+00 0.  1.
         11    1    4    4    0    0 -0.27328908553E+01 -0.10715208429E+01  0.14616797385E+01  0.32792311999E+01  0.51100000000E-03 0. -1.
        -11    1    4    4    0    0  0.12140763403E+02  0.23920286949E+00  0.13016477167E+02  0.17801236815E+02  0.51100000000E-03 0.  1.
        -12    1    4    4    0    0  0.16257830027E+02 -0.93877989397E+01  0.18994880671E+02  0.26706802464E+02  0.00000000000E+00 0.  1.
</event>
<event>
 8    1  0.5834107E-011  0.9118800E+02  0.7816164E-02  0.1184000E+00
        -11   -1    0    0    0    0  0.00000000000E+00  0.00000000000E+00  0.45593999997E+02  0.45594000000E+02  0.51100000000E-03 0. -1.
         11   -1    0    0    0    0 -0.00000000000E+00 -0.00000000000E+00 -0.45593999997E+02  0.45594000000E+02  0.51100000000E-03 0.  1.
         23    2    1    2    0    0  0.00000000000E+00  0.00000000000E+00  0.00000000000E+00  0.91188000000E+02  0.91188000000E+02 0.  0.
    9900012    2    3    3    0    0  0.15359193871E+02  0.38050575555E+02 -0.14137638425E+02  0.47787263179E+02  0.19999964136E+02 0.  0.
         12    1    3    3    0    0 -0.15359193871E+02 -0.38050575555E+02  0.14137638425E+02  0.43400736821E+02  0.00000000000E+00 0. -1.
         11    1    4    4    0    0  0.38144518793E-01 -0.96915957566E+00  0.10923184017E+01  0.14607823381E+01  0.51100000000E-03 0. -1.
        -11    1    4    4    0    0 -0.16072318408E+01  0.73569335178E+00 -0.13548728965E+01  0.22271326239E+01  0.51100000000E-03 0.  1.
        -12    1    4    4    0    0  0.16928281193E+02  0.38284041779E+02 -0.13875083930E+02  0.44099348217E+02  0.00000000000E+00 0.  1.
</event>
<event>
 8    1  0.5834107E-011  0.9118800E+02  0.7816164E-02  0.1184000E+00
        -11   -1    0    0    0    0  0.00000000000E+00  0.00000000000E+00  0.45593999997E+02  0.45594000000E+02  0.51100000000E-03 0. -1.
         11   -1    0    0    0    0 -0.00000000000E+00 -0.00000000000E+00 -0.45593999997E+02  0.45594000000E+02  0.51100000000E-03 0.  1.
         23    2    1    2    0    0  0.00000000000E+00  0.00000000000E+00  0.00000000000E+00  0.91188000000E+02  0.91188000000E+02 0.  0.
    9900012    2    3    3    0    0 -0.10283163692E+01 -0.40259605196E+02  0.16178102478E+02  0.47787259858E+02  0.19999948996E+02 0.  0.
        -12    1    3    3    0    0  0.10283163692E+01  0.40259605196E+02 -0.16178102478E+02  0.43400740142E+02  0.00000000000E+00 0.  1.
         11    1    4    4    0    0  0.17548760693E+01 -0.15128278830E+02  0.72812185299E+01  0.16880774684E+02  0.51100000000E-03 0. -1.
        -11    1    4    4    0    0 -0.16421364710E+01  0.15719073994E+01  0.25876012214E+01  0.34442975196E+01  0.51100000000E-03 0.  1.
        -12    1    4    4    0    0 -0.11410559674E+01 -0.26703233766E+02  0.63092827262E+01  0.27462187655E+02  0.00000000000E+00 0.  1.
</event>
<event>
 8    1  0.5834107E-011  0.9118800E+02  0.7816164E-02  0.1184000E+00
        -11   -1    0    0    0    0  0.00000000000E+00  0.00000000000E+00  0.45593999997E+02  0.45594000000E+02  0.51100000000E-03 0. -1.
         11   -1    0    0    0    0 -0.00000000000E+00 -0.00000000000E+00 -0.45593999997E+02  0.45594000000E+02  0.51100000000E-03 0.  1.
         23    2    1    2    0    0 -0.22204460493E-15  0.00000000000E+00  0.00000000000E+00  0.91188000000E+02  0.91188000000E+02 0.  0.
    9900012    2    3    3    0    0 -0.16416702544E+01  0.37018389336E+02  0.22595728844E+02  0.47787271984E+02  0.20000004285E+02 0.  0.
        -12    1    3    3    0    0  0.16416702544E+01 -0.37018389336E+02 -0.22595728844E+02  0.43400728016E+02  0.00000000000E+00 0.  1.
         11    1    4    4    0    0 -0.37638033516E+01  0.35449629911E+01  0.11164583446E+02  0.12303694651E+02  0.51100000000E-03 0.  1.
        -11    1    4    4    0    0 -0.12623982901E+00  0.10678963984E+02  0.32968351779E+01  0.11177000077E+02  0.51100000000E-03 0. -1.
        -12    1    4    4    0    0  0.22483729261E+01  0.22794462361E+02  0.81343102206E+01  0.24306577256E+02  0.00000000000E+00 0.  1.
</event>
<event>
 8    1  0.5834107E-011  0.9118800E+02  0.7816164E-02  0.1184000E+00
        -11   -1    0    0    0    0  0.00000000000E+00  0.00000000000E+00  0.45593999997E+02  0.45594000000E+02  0.51100000000E-03 0. -1.
         11   -1    0    0    0    0 -0.00000000000E+00 -0.00000000000E+00 -0.45593999997E+02  0.45594000000E+02  0.51100000000E-03 0.  1.
         23    2    1    2    0    0  0.00000000000E+00  0.00000000000E+00  0.35527136788E-14  0.91188000000E+02  0.91188000000E+02 0.  0.
    9900012    2    3    3    0    0  0.21928128687E+01 -0.29398640598E+02  0.31851762283E+02  0.47787271230E+02  0.20000000844E+02 0.  0.
        -12    1    3    3    0    0 -0.21928128687E+01  0.29398640598E+02 -0.31851762283E+02  0.43400728770E+02  0.00000000000E+00 0.  1.
         11    1    4    4    0    0  0.34455726537E+01 -0.37352236244E+01 -0.12344327447E+01  0.52295019743E+01  0.51100000000E-03 0. -1.
        -11    1    4    4    0    0 -0.31960096279E+01 -0.13953422799E+02  0.13626361179E+02  0.19763355095E+02  0.51100000000E-03 0.  1.
        -12    1    4    4    0    0  0.19432498429E+01 -0.11709994175E+02  0.19459833848E+02  0.22794414161E+02  0.00000000000E+00 0.  1.
</event>
<event>
 8    1  0.5834107E-011  0.9118800E+02  0.7816164E-02  0.1184000E+00
        -11   -1    0    0    0    0  0.00000000000E+00  0.00000000000E+00  0.45593999997E+02  0.45594000000E+02  0.51100000000E-03 0. -1.
         11   -1    0    0    0    0 -0.00000000000E+00 -0.00000000000E+00 -0.45593999997E+02  0.45594000000E+02  0.51100000000E-03 0.  1.
         23    2    1    2    0    0  0.00000000000E+00  0.17763568394E-14  0.71054273576E-14  0.91188000000E+02  0.91188000000E+02 0.  0.
    9900012    2    3    3    0    0  0.44774151778E+01  0.56870327243E+01  0.42792925932E+02  0.47787261553E+02  0.19999956726E+02 0.  0.
        -12    1    3    3    0    0 -0.44774151778E+01 -0.56870327243E+01 -0.42792925932E+02  0.43400738447E+02  0.00000000000E+00 0.  1.
         11    1    4    4    0    0 -0.63495239196E+01  0.65197894037E+01  0.25432485047E+02  0.27011764174E+02  0.51100000000E-03 0. -1.
        -11    1    4    4    0    0  0.51777416087E+01 -0.94850430901E+00  0.53661957100E+01  0.75169625016E+01  0.51100000000E-03 0.  1.
         12    1    4    4    0    0  0.56491974887E+01  0.11574762962E+00  0.11994245175E+02  0.13258534878E+02  0.00000000000E+00 0. -1.
</event>
<event>
 8    1  0.5834107E-011  0.9118800E+02  0.7816164E-02  0.1184000E+00
        -11   -1    0    0    0    0  0.00000000000E+00  0.00000000000E+00  0.45593999997E+02  0.45594000000E+02  0.51100000000E-03 0. -1.
         11   -1    0    0    0    0 -0.00000000000E+00 -0.00000000000E+00 -0.45593999997E+02  0.45594000000E+02  0.51100000000E-03 0.  1.
         23    2    1    2    0    0  0.00000000000E+00  0.17763568394E-14 -0.71054273576E-14  0.91188000000E+02  0.91188000000E+02 0.  0.
    9900012    2    3    3    0    0  0.21066558560E+02  0.12805824759E+02 -0.35718829924E+02  0.47787264425E+02  0.19999969818E+02 0.  0.
         12    1    3    3    0    0 -0.21066558560E+02 -0.12805824759E+02  0.35718829924E+02  0.43400735575E+02  0.00000000000E+00 0. -1.
         11    1    4    4    0    0  0.63818526094E+01  0.10651874288E+02 -0.21749848095E+02  0.25044886923E+02  0.51100000000E-03 0. -1.
        -11    1    4    4    0    0  0.77370370401E+01  0.57655250306E+01 -0.10238816859E+02  0.14068986885E+02  0.51100000000E-03 0.  1.
         12    1    4    4    0    0  0.69476689102E+01 -0.36115745594E+01 -0.37301649703E+01  0.86733906167E+01  0.00000000000E+00 0. -1.
</event>
<event>
 8    1  0.5834107E-011  0.9118800E+02  0.7816164E-02  0.1184000E+00
        -11   -1    0    0    0    0  0.00000000000E+00  0.00000000000E+00  0.45593999997E+02  0.45594000000E+02  0.51100000000E-03 0. -1.
         11   -1    0    0    0    0 -0.00000000000E+00 -0.00000000000E+00 -0.45593999997E+02  0.45594000000E+02  0.51100000000E-03 0.  1.
         23    2    1    2    0    0  0.00000000000E+00  0.00000000000E+00  0.00000000000E+00  0.91188000000E+02  0.91188000000E+02 0.  0.
    9900012    2    3    3    0    0  0.28853624003E+02 -0.28074719332E+02 -0.16214244750E+02  0.47787271705E+02  0.20000003013E+02 0.  0.
         12    1    3    3    0    0 -0.28853624003E+02  0.28074719332E+02  0.16214244750E+02  0.43400728295E+02  0.00000000000E+00 0. -1.
         11    1    4    4    0    0  0.26928479447E+01 -0.10470211703E+02 -0.11291297397E+02  0.15632343405E+02  0.51100000000E-03 0. -1.
        -11    1    4    4    0    0  0.32941328313E+01 -0.29902990639E+01 -0.19406082665E+01  0.48537779416E+01  0.51100000000E-03 0.  1.
        -12    1    4    4    0    0  0.22866643227E+02 -0.14614208566E+02 -0.29823390860E+01  0.27301150359E+02  0.00000000000E+00 0.  1.
</event>
<event>
 8    1  0.5834107E-011  0.9118800E+02  0.7816164E-02  0.1184000E+00
        -11   -1    0    0    0    0  0.00000000000E+00  0.00000000000E+00  0.45593999997E+02  0.45594000000E+02  0.51100000000E-03 0. -1.
         11   -1    0    0    0    0 -0.00000000000E+00 -0.00000000000E+00 -0.45593999997E+02  0.45594000000E+02  0.51100000000E-03 0.  1.
         23    2    1    2    0    0  0.00000000000E+00  0.00000000000E+00  0.00000000000E+00  0.91188000000E+02  0.91188000000E+02 0.  0.
    9900012    2    3    3    0    0  0.24643499042E+02 -0.17031372946E+02 -0.31404673641E+02  0.47787271481E+02  0.20000001992E+02 0.  0.
         12    1    3    3    0    0 -0.24643499042E+02  0.17031372946E+02  0.31404673641E+02  0.43400728519E+02  0.00000000000E+00 0. -1.
         11    1    4    4    0    0 -0.13734858478E+01 -0.39262191742E+00 -0.20930187509E+00  0.14437530538E+01  0.51100000000E-03 0. -1.
        -11    1    4    4    0    0  0.34860083720E+01 -0.98596804237E+01 -0.12457518839E+02  0.16265156879E+02  0.51100000000E-03 0.  1.
        -12    1    4    4    0    0  0.22530976518E+02 -0.67790706053E+01 -0.18737852927E+02  0.30078361548E+02  0.00000000000E+00 0.  1.
</event>
<event>
 8    1  0.5834107E-011  0.9118800E+02  0.7816164E-02  0.1184000E+00
        -11   -1    0    0    0    0  0.00000000000E+00  0.00000000000E+00  0.45593999997E+02  0.45594000000E+02  0.51100000000E-03 0. -1.
         11   -1    0    0    0    0 -0.00000000000E+00 -0.00000000000E+00 -0.45593999997E+02  0.45594000000E+02  0.51100000000E-03 0.  1.
         23    2    1    2    0    0 -0.35527136788E-14 -0.88817841970E-15  0.00000000000E+00  0.91188000000E+02  0.91188000000E+02 0.  0.
    9900012    2    3    3    0    0  0.13019479595E+02  0.59922828509E+01 -0.40965940940E+02  0.47787278580E+02  0.20000034356E+02 0.  0.
         12    1    3    3    0    0 -0.13019479595E+02 -0.59922828509E+01  0.40965940940E+02  0.43400721420E+02  0.00000000000E+00 0. -1.
         11    1    4    4    0    0  0.30099535825E+01 -0.15168294844E+01 -0.13549801513E+01  0.36327074923E+01  0.51100000000E-03 0. -1.
        -11    1    4    4    0    0  0.10444396783E+02  0.20649971089E+01 -0.36158629397E+02  0.37693449263E+02  0.51100000000E-03 0.  1.
        -12    1    4    4    0    0 -0.43487077045E+00  0.54441152265E+01 -0.34523313921E+01  0.64611218242E+01  0.00000000000E+00 0.  1.
</event>
<event>
 8    1  0.5834107E-011  0.9118800E+02  0.7816164E-02  0.1184000E+00
        -11   -1    0    0    0    0  0.00000000000E+00  0.00000000000E+00  0.45593999997E+02  0.45594000000E+02  0.51100000000E-03 0. -1.
         11   -1    0    0    0    0 -0.00000000000E+00 -0.00000000000E+00 -0.45593999997E+02  0.45594000000E+02  0.51100000000E-03 0.  1.
         23    2    1    2    0    0 -0.66613381478E-15  0.00000000000E+00  0.00000000000E+00  0.91188000000E+02  0.91188000000E+02 0.  0.
    9900012    2    3    3    0    0  0.10266452550E+01 -0.35710358192E+02  0.24644257814E+02  0.47787272749E+02  0.20000007773E+02 0.  0.
        -12    1    3    3    0    0 -0.10266452550E+01  0.35710358192E+02 -0.24644257814E+02  0.43400727251E+02  0.00000000000E+00 0.  1.
         11    1    4    4    0    0  0.29756787112E-01 -0.12032738462E+01  0.14172796230E+01  0.18594179751E+01  0.51100000000E-03 0. -1.
        -11    1    4    4    0    0 -0.40977497881E+01 -0.59479481611E+01 -0.19877555230E+01  0.74913825782E+01  0.51100000000E-03 0.  1.
        -12    1    4    4    0    0  0.50946382560E+01 -0.28559136185E+02  0.25214733714E+02  0.38436472196E+02  0.00000000000E+00 0.  1.
</event>
<event>
 8    1  0.5834107E-011  0.9118800E+02  0.7816164E-02  0.1184000E+00
        -11   -1    0    0    0    0  0.00000000000E+00  0.00000000000E+00  0.45593999997E+02  0.45594000000E+02  0.51100000000E-03 0. -1.
         11   -1    0    0    0    0 -0.00000000000E+00 -0.00000000000E+00 -0.45593999997E+02  0.45594000000E+02  0.51100000000E-03 0.  1.
         23    2    1    2    0    0  0.00000000000E+00  0.00000000000E+00  0.17763568394E-14  0.91188000000E+02  0.91188000000E+02 0.  0.
    9900012    2    3    3    0    0 -0.16223788807E+02  0.37896671415E+02 -0.13573974613E+02  0.47787287859E+02  0.20000076662E+02 0.  0.
         12    1    3    3    0    0  0.16223788807E+02 -0.37896671415E+02  0.13573974613E+02  0.43400712141E+02  0.00000000000E+00 0. -1.
         11    1    4    4    0    0 -0.12839934589E+01 -0.90060311521E+00 -0.35468381840E+00  0.16079571032E+01  0.51100000000E-03 0. -1.
        -11    1    4    4    0    0  0.26827345832E+01  0.10287395771E+02 -0.45179188221E+01  0.11551587221E+02  0.51100000000E-03 0.  1.
        -12    1    4    4    0    0 -0.17622529931E+02  0.28509878759E+02 -0.87013719723E+01  0.34627743534E+02  0.00000000000E+00 0.  1.
</event>
<event>
 8    1  0.5834107E-011  0.9118800E+02  0.7816164E-02  0.1184000E+00
        -11   -1    0    0    0    0  0.00000000000E+00  0.00000000000E+00  0.45593999997E+02  0.45594000000E+02  0.51100000000E-03 0.  1.
         11   -1    0    0    0    0 -0.00000000000E+00 -0.00000000000E+00 -0.45593999997E+02  0.45594000000E+02  0.51100000000E-03 0. -1.
         23    2    1    2    0    0  0.00000000000E+00  0.00000000000E+00  0.00000000000E+00  0.91188000000E+02  0.91188000000E+02 0.  0.
    9900012    2    3    3    0    0 -0.12842696315E+02  0.33169956822E+02 -0.24868508336E+02  0.47787267390E+02  0.19999983337E+02 0.  0.
         12    1    3    3    0    0  0.12842696315E+02 -0.33169956822E+02  0.24868508336E+02  0.43400732610E+02  0.00000000000E+00 0. -1.
         11    1    4    4    0    0 -0.35691148888E+01  0.23422277174E+02 -0.24299823671E+02  0.33938519116E+02  0.51100000000E-03 0.  1.
        -11    1    4    4    0    0 -0.22755845621E+01  0.41153123598E+01  0.77418447451E+00  0.47658622283E+01  0.51100000000E-03 0. -1.
        -12    1    4    4    0    0 -0.69979968645E+01  0.56323672881E+01 -0.13428691404E+01  0.90828860453E+01  0.00000000000E+00 0.  1.
</event>
<event>
 8    1  0.5834107E-011  0.9118800E+02  0.7816164E-02  0.1184000E+00
        -11   -1    0    0    0    0  0.00000000000E+00  0.00000000000E+00  0.45593999997E+02  0.45594000000E+02  0.51100000000E-03 0. -1.
         11   -1    0    0    0    0 -0.00000000000E+00 -0.00000000000E+00 -0.45593999997E+02  0.45594000000E+02  0.51100000000E-03 0.  1.
         23    2    1    2    0    0  0.17763568394E-14  0.17763568394E-14 -0.71054273576E-14  0.91188000000E+02  0.91188000000E+02 0.  0.
    9900012    2    3    3    0    0  0.15026846246E+02  0.10467766701E+02 -0.39347718245E+02  0.47787272138E+02  0.20000004988E+02 0.  0.
         12    1    3    3    0    0 -0.15026846246E+02 -0.10467766701E+02  0.39347718245E+02  0.43400727862E+02  0.00000000000E+00 0. -1.
         11    1    4    4    0    0 -0.12313506850E+01 -0.44167305156E+00 -0.17007805376E+00  0.13191764095E+01  0.51100000000E-03 0. -1.
        -11    1    4    4    0    0  0.14492424172E+02  0.11483108947E+02 -0.40271290972E+02  0.44313305296E+02  0.51100000000E-03 0.  1.
         12    1    4    4    0    0  0.17657727589E+01 -0.57366919423E+00  0.10936507803E+01  0.21547904329E+01  0.00000000000E+00 0. -1.
</event>
<event>
 8    1  0.7965013E-011  0.9118800E+02  0.7816164E-02  0.1184000E+00
        -11   -1    0    0    0    0  0.00000000000E+00  0.00000000000E+00  0.45593999997E+02  0.45594000000E+02  0.51100000000E-03 0. -1.
         11   -1    0    0    0    0 -0.00000000000E+00 -0.00000000000E+00 -0.45593999997E+02  0.45594000000E+02  0.51100000000E-03 0.  1.
         23    2    1    2    0    0 -0.35527136788E-14  0.00000000000E+00  0.00000000000E+00  0.91188000000E+02  0.91188000000E+02 0.  0.
    9900012    2    3    3    0    0  0.26680459903E+02 -0.17492124749E+02  0.29424516181E+02  0.47787268194E+02  0.19999987002E+02 0.  0.
        -12    1    3    3    0    0 -0.26680459903E+02  0.17492124749E+02 -0.29424516181E+02  0.43400731806E+02  0.00000000000E+00 0.  1.
         11    1    4    4    0    0  0.16209267067E+02 -0.53395997760E+01  0.92560255021E+01  0.19414573727E+02  0.51100000000E-03 0. -1.
        -11    1    4    4    0    0 -0.94931445591E+00 -0.22096567924E+01 -0.77664538069E+00  0.25272434361E+01  0.51100000000E-03 0.  1.
         12    1    4    4    0    0  0.11420507291E+02 -0.99428681807E+01  0.20945136059E+02  0.25845451031E+02  0.00000000000E+00 0. -1.
</event>
<event>
 8    1  0.5834107E-011  0.9118800E+02  0.7816164E-02  0.1184000E+00
        -11   -1    0    0    0    0  0.00000000000E+00  0.00000000000E+00  0.45593999997E+02  0.45594000000E+02  0.51100000000E-03 0. -1.
         11   -1    0    0    0    0 -0.00000000000E+00 -0.00000000000E+00 -0.45593999997E+02  0.45594000000E+02  0.51100000000E-03 0.  1.
         23    2    1    2    0    0  0.00000000000E+00  0.35527136788E-14  0.17763568394E-14  0.91188000000E+02  0.91188000000E+02 0.  0.
    9900012    2    3    3    0    0  0.33292972499E+02  0.25997095026E+02  0.99675446261E+01  0.47787275197E+02  0.20000018931E+02 0.  0.
        -12    1    3    3    0    0 -0.33292972499E+02 -0.25997095026E+02 -0.99675446261E+01  0.43400724803E+02  0.00000000000E+00 0.  1.
         11    1    4    4    0    0  0.14777806279E+02  0.34934890455E+01  0.10040676319E+02  0.18204483111E+02  0.51100000000E-03 0. -1.
        -11    1    4    4    0    0  0.90382596127E+01  0.72949491948E+01 -0.85253551925E+00  0.11646168368E+02  0.51100000000E-03 0.  1.
         12    1    4    4    0    0  0.94769066073E+01  0.15208656785E+02  0.77940382600E+00  0.17936623717E+02  0.00000000000E+00 0. -1.
</event>
<event>
 8    1  0.5834107E-011  0.9118800E+02  0.7816164E-02  0.1184000E+00
        -11   -1    0    0    0    0  0.00000000000E+00  0.00000000000E+00  0.45593999997E+02  0.45594000000E+02  0.51100000000E-03 0. -1.
         11   -1    0    0    0    0 -0.00000000000E+00 -0.00000000000E+00 -0.45593999997E+02  0.45594000000E+02  0.51100000000E-03 0.  1.
         23    2    1    2    0    0  0.17763568394E-14 -0.71054273576E-14  0.00000000000E+00  0.91188000000E+02  0.91188000000E+02 0.  0.
    9900012    2    3    3    0    0 -0.97744629552E+01  0.35065556463E+02  0.23632394207E+02  0.47787269222E+02  0.19999991690E+02 0.  0.
        -12    1    3    3    0    0  0.97744629552E+01 -0.35065556463E+02 -0.23632394207E+02  0.43400730778E+02  0.00000000000E+00 0.  1.
         11    1    4    4    0    0 -0.68098745183E+01  0.23748844929E+02  0.20753225102E+02  0.32265746215E+02  0.51100000000E-03 0. -1.
        -11    1    4    4    0    0  0.20050385837E+01 -0.71109412567E+00  0.10732004041E+01  0.23827702252E+01  0.51100000000E-03 0.  1.
        -12    1    4    4    0    0 -0.49696270206E+01  0.12027805659E+02  0.18059687009E+01  0.13138752782E+02  0.00000000000E+00 0.  1.
</event>
<event>
 8    1  0.5834107E-011  0.9118800E+02  0.7816164E-02  0.1184000E+00
        -11   -1    0    0    0    0  0.00000000000E+00  0.00000000000E+00  0.45593999997E+02  0.45594000000E+02  0.51100000000E-03 0. -1.
         11   -1    0    0    0    0 -0.00000000000E+00 -0.00000000000E+00 -0.45593999997E+02  0.45594000000E+02  0.51100000000E-03 0.  1.
         23    2    1    2    0    0  0.44408920985E-15  0.00000000000E+00  0.00000000000E+00  0.91188000000E+02  0.91188000000E+02 0.  0.
    9900012    2    3    3    0    0 -0.28738707820E+01 -0.32553341214E+02  0.28559486187E+02  0.47787269491E+02  0.19999992919E+02 0.  0.
        -12    1    3    3    0    0  0.28738707820E+01  0.32553341214E+02 -0.28559486187E+02  0.43400730509E+02  0.00000000000E+00 0.  1.
         11    1    4    4    0    0 -0.71731605117E+01 -0.28660704125E+02  0.23471184822E+02  0.37733098334E+02  0.51100000000E-03 0. -1.
        -11    1    4    4    0    0  0.20179874379E+01 -0.35383074843E+01 -0.40701715017E+00  0.40935994399E+01  0.51100000000E-03 0.  1.
        -12    1    4    4    0    0  0.22813022919E+01 -0.35432960412E+00  0.54953185154E+01  0.59605717176E+01  0.00000000000E+00 0.  1.
</event>
<event>
 8    1  0.5834107E-011  0.9118800E+02  0.7816164E-02  0.1184000E+00
        -11   -1    0    0    0    0  0.00000000000E+00  0.00000000000E+00  0.45593999997E+02  0.45594000000E+02  0.51100000000E-03 0. -1.
         11   -1    0    0    0    0 -0.00000000000E+00 -0.00000000000E+00 -0.45593999997E+02  0.45594000000E+02  0.51100000000E-03 0.  1.
         23    2    1    2    0    0  0.00000000000E+00 -0.71054273576E-14 -0.17763568394E-14  0.91188000000E+02  0.91188000000E+02 0.  0.
    9900012    2    3    3    0    0  0.81316379144E+01  0.41776725751E+02  0.84973547104E+01  0.47787269744E+02  0.19999994073E+02 0.  0.
        -12    1    3    3    0    0 -0.81316379144E+01 -0.41776725751E+02 -0.84973547104E+01  0.43400730256E+02  0.00000000000E+00 0.  1.
         11    1    4    4    0    0  0.20098830905E+01  0.13191911606E+02  0.74839208022E+01  0.15299517401E+02  0.51100000000E-03 0. -1.
        -11    1    4    4    0    0 -0.35912285562E+01  0.44347837539E+01 -0.24840787413E+01  0.62237349671E+01  0.51100000000E-03 0.  1.
        -12    1    4    4    0    0  0.97129833800E+01  0.24150030391E+02  0.34975126495E+01  0.26264017377E+02  0.00000000000E+00 0.  1.
</event>
<event>
 8    1  0.5834107E-011  0.9118800E+02  0.7816164E-02  0.1184000E+00
        -11   -1    0    0    0    0  0.00000000000E+00  0.00000000000E+00  0.45593999997E+02  0.45594000000E+02  0.51100000000E-03 0. -1.
         11   -1    0    0    0    0 -0.00000000000E+00 -0.00000000000E+00 -0.45593999997E+02  0.45594000000E+02  0.51100000000E-03 0.  1.
         23    2    1    2    0    0  0.00000000000E+00  0.00000000000E+00  0.13322676296E-14  0.91188000000E+02  0.91188000000E+02 0.  0.
    9900012    2    3    3    0    0 -0.17313732333E+02 -0.39601995193E+02  0.39420446813E+01  0.47787273430E+02  0.20000010877E+02 0.  0.
        -12    1    3    3    0    0  0.17313732333E+02  0.39601995193E+02 -0.39420446813E+01  0.43400726570E+02  0.00000000000E+00 0.  1.
         11    1    4    4    0    0 -0.28720785717E+01 -0.12773554336E+02 -0.68535921867E+01  0.14777829740E+02  0.51100000000E-03 0. -1.
        -11    1    4    4    0    0 -0.34884223172E+01 -0.28076633444E+01 -0.24305819350E-01  0.44780190657E+01  0.51100000000E-03 0.  1.
        -12    1    4    4    0    0 -0.10953231444E+02 -0.24020777512E+02  0.10819942687E+02  0.28531424625E+02  0.00000000000E+00 0.  1.
</event>
<event>
 8    1  0.5834107E-011  0.9118800E+02  0.7816164E-02  0.1184000E+00
        -11   -1    0    0    0    0  0.00000000000E+00  0.00000000000E+00  0.45593999997E+02  0.45594000000E+02  0.51100000000E-03 0. -1.
         11   -1    0    0    0    0 -0.00000000000E+00 -0.00000000000E+00 -0.45593999997E+02  0.45594000000E+02  0.51100000000E-03 0.  1.
         23    2    1    2    0    0  0.71054273576E-14  0.35527136788E-14 -0.17763568394E-14  0.91188000000E+02  0.91188000000E+02 0.  0.
    9900012    2    3    3    0    0  0.31790802583E+02  0.25084100667E+02 -0.15612718314E+02  0.47787260280E+02  0.19999950919E+02 0.  0.
         12    1    3    3    0    0 -0.31790802583E+02 -0.25084100667E+02  0.15612718314E+02  0.43400739720E+02  0.00000000000E+00 0. -1.
         11    1    4    4    0    0  0.14818030086E+02  0.53431001804E+01 -0.26708452988E+01  0.15976737778E+02  0.51100000000E-03 0. -1.
        -11    1    4    4    0    0  0.18013535000E+02  0.13258988719E+02 -0.11219573662E+02  0.25023330284E+02  0.51100000000E-03 0.  1.
         12    1    4    4    0    0 -0.10407625034E+01  0.64820117671E+01 -0.17222993527E+01  0.67871922175E+01  0.00000000000E+00 0. -1.
</event>
<event>
 8    1  0.5834107E-011  0.9118800E+02  0.7816164E-02  0.1184000E+00
        -11   -1    0    0    0    0  0.00000000000E+00  0.00000000000E+00  0.45593999997E+02  0.45594000000E+02  0.51100000000E-03 0. -1.
         11   -1    0    0    0    0 -0.00000000000E+00 -0.00000000000E+00 -0.45593999997E+02  0.45594000000E+02  0.51100000000E-03 0.  1.
         23    2    1    2    0    0  0.44408920985E-15  0.00000000000E+00  0.00000000000E+00  0.91188000000E+02  0.91188000000E+02 0.  0.
    9900012    2    3    3    0    0  0.30518825904E+01 -0.11531768021E+02  0.41729218106E+02  0.47787270688E+02  0.19999998374E+02 0.  0.
        -12    1    3    3    0    0 -0.30518825904E+01  0.11531768021E+02 -0.41729218106E+02  0.43400729312E+02  0.00000000000E+00 0.  1.
         11    1    4    4    0    0  0.67934220083E+01 -0.91598332480E+01  0.13872481661E+02  0.17958253685E+02  0.51100000000E-03 0. -1.
        -11    1    4    4    0    0 -0.12117356255E+01  0.22212430371E+01  0.14699952903E+01  0.29262792537E+01  0.51100000000E-03 0.  1.
         12    1    4    4    0    0 -0.25298037924E+01 -0.45931778105E+01  0.26386741155E+02  0.26902737749E+02  0.00000000000E+00 0. -1.
</event>
<event>
 8    1  0.5834107E-011  0.9118800E+02  0.7816164E-02  0.1184000E+00
        -11   -1    0    0    0    0  0.00000000000E+00  0.00000000000E+00  0.45593999997E+02  0.45594000000E+02  0.51100000000E-03 0. -1.
         11   -1    0    0    0    0 -0.00000000000E+00 -0.00000000000E+00 -0.45593999997E+02  0.45594000000E+02  0.51100000000E-03 0.  1.
         23    2    1    2    0    0  0.00000000000E+00  0.00000000000E+00 -0.71054273576E-14  0.91188000000E+02  0.91188000000E+02 0.  0.
    9900012    2    3    3    0    0 -0.11098450362E+02 -0.20980129183E+02  0.36335691550E+02  0.47787263816E+02  0.19999967041E+02 0.  0.
        -12    1    3    3    0    0  0.11098450362E+02  0.20980129183E+02 -0.36335691550E+02  0.43400736184E+02  0.00000000000E+00 0.  1.
         11    1    4    4    0    0 -0.91424354949E+01 -0.26652290664E+01  0.18158606176E+02  0.20504208135E+02  0.51100000000E-03 0. -1.
        -11    1    4    4    0    0  0.32644462804E+01 -0.68983068316E+01  0.85676029997E+01  0.11473755622E+02  0.51100000000E-03 0.  1.
        -12    1    4    4    0    0 -0.52204611475E+01 -0.11416593285E+02  0.96094823742E+01  0.15809300058E+02  0.00000000000E+00 0.  1.
</event>
<event>
 8    1  0.5834107E-011  0.9118800E+02  0.7816164E-02  0.1184000E+00
        -11   -1    0    0    0    0  0.00000000000E+00  0.00000000000E+00  0.45593999997E+02  0.45594000000E+02  0.51100000000E-03 0. -1.
         11   -1    0    0    0    0 -0.00000000000E+00 -0.00000000000E+00 -0.45593999997E+02  0.45594000000E+02  0.51100000000E-03 0.  1.
         23    2    1    2    0    0  0.00000000000E+00 -0.44408920985E-15  0.00000000000E+00  0.91188000000E+02  0.91188000000E+02 0.  0.
    9900012    2    3    3    0    0  0.23172132561E+02  0.31768939263E+01 -0.36559303202E+02  0.47787273819E+02  0.20000012650E+02 0.  0.
         12    1    3    3    0    0 -0.23172132561E+02 -0.31768939263E+01  0.36559303202E+02  0.43400726181E+02  0.00000000000E+00 0. -1.
         11    1    4    4    0    0  0.74890988214E+01  0.52110912245E+01 -0.52032428000E+01  0.10503133285E+02  0.51100000000E-03 0. -1.
        -11    1    4    4    0    0  0.14422841484E+02  0.81195287848E+00 -0.15753221817E+02  0.21373853697E+02  0.51100000000E-03 0.  1.
         12    1    4    4    0    0  0.12601922556E+01 -0.28461501767E+01 -0.15602838584E+02  0.15910286837E+02  0.00000000000E+00 0. -1.
</event>
<event>
 8    1  0.5834107E-011  0.9118800E+02  0.7816164E-02  0.1184000E+00
        -11   -1    0    0    0    0  0.00000000000E+00  0.00000000000E+00  0.45593999997E+02  0.45594000000E+02  0.51100000000E-03 0.  1.
         11   -1    0    0    0    0 -0.00000000000E+00 -0.00000000000E+00 -0.45593999997E+02  0.45594000000E+02  0.51100000000E-03 0. -1.
         23    2    1    2    0    0  0.35527136788E-14  0.00000000000E+00  0.00000000000E+00  0.91188000000E+02  0.91188000000E+02 0.  0.
    9900012    2    3    3    0    0  0.28165693801E+02 -0.15054132327E+02 -0.29388600503E+02  0.47787273659E+02  0.20000011921E+02 0.  0.
         12    1    3    3    0    0 -0.28165693801E+02  0.15054132327E+02  0.29388600503E+02  0.43400726341E+02  0.00000000000E+00 0. -1.
         11    1    4    4    0    0  0.12768645426E+01  0.56294874236E+00 -0.87109489200E+01  0.88220136984E+01  0.51100000000E-03 0. -1.
        -11    1    4    4    0    0  0.97610916627E+01 -0.64736626346E+01 -0.17361007959E+01  0.11840661493E+02  0.51100000000E-03 0.  1.
         12    1    4    4    0    0  0.17127737595E+02 -0.91434184352E+01 -0.18941550787E+02  0.27124598468E+02  0.00000000000E+00 0. -1.
</event>
<event>
 8    1  0.5834107E-011  0.9118800E+02  0.7816164E-02  0.1184000E+00
        -11   -1    0    0    0    0  0.00000000000E+00  0.00000000000E+00  0.45593999997E+02  0.45594000000E+02  0.51100000000E-03 0. -1.
         11   -1    0    0    0    0 -0.00000000000E+00 -0.00000000000E+00 -0.45593999997E+02  0.45594000000E+02  0.51100000000E-03 0.  1.
         23    2    1    2    0    0  0.00000000000E+00  0.00000000000E+00  0.00000000000E+00  0.91188000000E+02  0.91188000000E+02 0.  0.
    9900012    2    3    3    0    0  0.37708924826E+02  0.64804935221E+01 -0.20485695645E+02  0.47787268049E+02  0.19999986344E+02 0.  0.
         12    1    3    3    0    0 -0.37708924826E+02 -0.64804935221E+01  0.20485695645E+02  0.43400731951E+02  0.00000000000E+00 0. -1.
         11    1    4    4    0    0  0.12305490855E+02 -0.32580340638E+01 -0.36035404950E+01  0.13229716380E+02  0.51100000000E-03 0. -1.
        -11    1    4    4    0    0  0.11483028705E+02 -0.23447405146E+01 -0.65928446196E+01  0.13447057551E+02  0.51100000000E-03 0.  1.
         12    1    4    4    0    0  0.13920405265E+02  0.12083268101E+02 -0.10289310530E+02  0.21110494118E+02  0.00000000000E+00 0. -1.
</event>
<event>
 8    1  0.5834107E-011  0.9118800E+02  0.7816164E-02  0.1184000E+00
        -11   -1    0    0    0    0  0.00000000000E+00  0.00000000000E+00  0.45593999997E+02  0.45594000000E+02  0.51100000000E-03 0. -1.
         11   -1    0    0    0    0 -0.00000000000E+00 -0.00000000000E+00 -0.45593999997E+02  0.45594000000E+02  0.51100000000E-03 0.  1.
         23    2    1    2    0    0 -0.17763568394E-14  0.00000000000E+00  0.00000000000E+00  0.91188000000E+02  0.91188000000E+02 0.  0.
    9900012    2    3    3    0    0  0.14196057632E+02 -0.19286223281E+02 -0.36195807875E+02  0.47787274563E+02  0.20000016043E+02 0.  0.
         12    1    3    3    0    0 -0.14196057632E+02  0.19286223281E+02  0.36195807875E+02  0.43400725437E+02  0.00000000000E+00 0. -1.
         11    1    4    4    0    0  0.64685714376E+01 -0.50982371131E+00 -0.15585768653E+02  0.16882491565E+02  0.51100000000E-03 0. -1.
        -11    1    4    4    0    0  0.16403168006E+01 -0.45156680863E+01  0.36794115783E+00  0.48184311169E+01  0.51100000000E-03 0.  1.
        -12    1    4    4    0    0  0.60871693934E+01 -0.14260731484E+02 -0.20977980380E+02  0.26086351881E+02  0.00000000000E+00 0.  1.
</event>
<event>
 8    1  0.5834107E-011  0.9118800E+02  0.7816164E-02  0.1184000E+00
        -11   -1    0    0    0    0  0.00000000000E+00  0.00000000000E+00  0.45593999997E+02  0.45594000000E+02  0.51100000000E-03 0. -1.
         11   -1    0    0    0    0 -0.00000000000E+00 -0.00000000000E+00 -0.45593999997E+02  0.45594000000E+02  0.51100000000E-03 0.  1.
         23    2    1    2    0    0  0.35527136788E-14  0.35527136788E-14 -0.35527136788E-14  0.91188000000E+02  0.91188000000E+02 0.  0.
    9900012    2    3    3    0    0 -0.22293941722E+02 -0.26779086874E+02  0.25874397256E+02  0.47787265390E+02  0.19999974221E+02 0.  0.
        -12    1    3    3    0    0  0.22293941722E+02  0.26779086874E+02 -0.25874397256E+02  0.43400734610E+02  0.00000000000E+00 0.  1.
         11    1    4    4    0    0 -0.76854714723E+01 -0.59825442227E+01  0.20878739071E+01  0.99607492108E+01  0.51100000000E-03 0. -1.
        -11    1    4    4    0    0 -0.14054614608E+02 -0.19180301125E+02  0.25866148522E+02  0.35135079090E+02  0.51100000000E-03 0.  1.
        -12    1    4    4    0    0 -0.55385564141E+00 -0.16162415263E+01 -0.20796251736E+01  0.26914370893E+01  0.00000000000E+00 0.  1.
</event>
<event>
 8    1  0.5834107E-011  0.9118800E+02  0.7816164E-02  0.1184000E+00
        -11   -1    0    0    0    0  0.00000000000E+00  0.00000000000E+00  0.45593999997E+02  0.45594000000E+02  0.51100000000E-03 0. -1.
         11   -1    0    0    0    0 -0.00000000000E+00 -0.00000000000E+00 -0.45593999997E+02  0.45594000000E+02  0.51100000000E-03 0.  1.
         23    2    1    2    0    0  0.35527136788E-14 -0.35527136788E-14  0.35527136788E-14  0.91188000000E+02  0.91188000000E+02 0.  0.
    9900012    2    3    3    0    0 -0.28043420478E+02  0.21090846565E+02 -0.25541459919E+02  0.47787269410E+02  0.19999992550E+02 0.  0.
         12    1    3    3    0    0  0.28043420478E+02 -0.21090846565E+02  0.25541459919E+02  0.43400730590E+02  0.00000000000E+00 0. -1.
         11    1    4    4    0    0 -0.14522863410E+02  0.20629525876E+01 -0.10374317484E+02  0.17966518820E+02  0.51100000000E-03 0. -1.
        -11    1    4    4    0    0 -0.10053834742E+02  0.12243540548E+02 -0.15541436780E+02  0.22192794678E+02  0.51100000000E-03 0.  1.
        -12    1    4    4    0    0 -0.34667223251E+01  0.67843534298E+01  0.37429434462E+00  0.76279559121E+01  0.00000000000E+00 0.  1.
</event>
<event>
 8    1  0.5834107E-011  0.9118800E+02  0.7816164E-02  0.1184000E+00
        -11   -1    0    0    0    0  0.00000000000E+00  0.00000000000E+00  0.45593999997E+02  0.45594000000E+02  0.51100000000E-03 0.  1.
         11   -1    0    0    0    0 -0.00000000000E+00 -0.00000000000E+00 -0.45593999997E+02  0.45594000000E+02  0.51100000000E-03 0. -1.
         23    2    1    2    0    0  0.00000000000E+00 -0.71054273576E-14  0.00000000000E+00  0.91188000000E+02  0.91188000000E+02 0.  0.
    9900012    2    3    3    0    0  0.24478102703E+02  0.31054378906E+02  0.17890541777E+02  0.47787269059E+02  0.19999990947E+02 0.  0.
        -12    1    3    3    0    0 -0.24478102703E+02 -0.31054378906E+02 -0.17890541777E+02  0.43400730941E+02  0.00000000000E+00 0.  1.
         11    1    4    4    0    0  0.99656797234E+01  0.22431792804E+02  0.98335673080E+01  0.26442374081E+02  0.51100000000E-03 0. -1.
        -11    1    4    4    0    0  0.13748330235E+02  0.97030299990E+01  0.95509919665E+01  0.19349078097E+02  0.51100000000E-03 0.  1.
         12    1    4    4    0    0  0.76409274408E+00 -0.10804438976E+01 -0.14940174978E+01  0.19958168806E+01  0.00000000000E+00 0. -1.
</event>
<event>
 8    1  0.5834107E-011  0.9118800E+02  0.7816164E-02  0.1184000E+00
        -11   -1    0    0    0    0  0.00000000000E+00  0.00000000000E+00  0.45593999997E+02  0.45594000000E+02  0.51100000000E-03 0. -1.
         11   -1    0    0    0    0 -0.00000000000E+00 -0.00000000000E+00 -0.45593999997E+02  0.45594000000E+02  0.51100000000E-03 0.  1.
         23    2    1    2    0    0  0.00000000000E+00  0.33306690739E-15  0.00000000000E+00  0.91188000000E+02  0.91188000000E+02 0.  0.
    9900012    2    3    3    0    0 -0.19097132508E+02  0.60749088816E+00 -0.38968623285E+02  0.47787272864E+02  0.20000008296E+02 0.  0.
         12    1    3    3    0    0  0.19097132508E+02 -0.60749088816E+00  0.38968623285E+02  0.43400727136E+02  0.00000000000E+00 0. -1.
         11    1    4    4    0    0 -0.30064091026E+01  0.65425420845E+01 -0.80880536743E+01  0.10828664051E+02  0.51100000000E-03 0. -1.
        -11    1    4    4    0    0 -0.22916725581E+01 -0.22494727028E+01 -0.16052458161E+02  0.16370501026E+02  0.51100000000E-03 0.  1.
         12    1    4    4    0    0 -0.13799050847E+02 -0.36855784935E+01 -0.14828111449E+02  0.20588107787E+02  0.00000000000E+00 0. -1.
</event>
<event>
 8    1  0.5834107E-011  0.9118800E+02  0.7816164E-02  0.1184000E+00
        -11   -1    0    0    0    0  0.00000000000E+00  0.00000000000E+00  0.45593999997E+02  0.45594000000E+02  0.51100000000E-03 0. -1.
         11   -1    0    0    0    0 -0.00000000000E+00 -0.00000000000E+00 -0.45593999997E+02  0.45594000000E+02  0.51100000000E-03 0.  1.
         23    2    1    2    0    0  0.00000000000E+00 -0.17763568394E-14  0.44408920985E-15  0.91188000000E+02  0.91188000000E+02 0.  0.
    9900012    2    3    3    0    0  0.40577352485E+02 -0.14965000146E+02  0.36263661912E+01  0.47787270792E+02  0.19999998848E+02 0.  0.
        -12    1    3    3    0    0 -0.40577352485E+02  0.14965000146E+02 -0.36263661912E+01  0.43400729208E+02  0.00000000000E+00 0.  1.
         11    1    4    4    0    0  0.25498816675E+02 -0.79129930448E+01 -0.20409942046E+01  0.26776309835E+02  0.51100000000E-03 0. -1.
        -11    1    4    4    0    0  0.10117460775E+02 -0.10170352684E+02  0.35302244987E+01  0.14773678334E+02  0.51100000000E-03 0.  1.
        -12    1    4    4    0    0  0.49610750343E+01  0.31183455830E+01  0.21371358971E+01  0.62372826226E+01  0.00000000000E+00 0.  1.
</event>
<event>
 8    1  0.5834107E-011  0.9118800E+02  0.7816164E-02  0.1184000E+00
        -11   -1    0    0    0    0  0.00000000000E+00  0.00000000000E+00  0.45593999997E+02  0.45594000000E+02  0.51100000000E-03 0. -1.
         11   -1    0    0    0    0 -0.00000000000E+00 -0.00000000000E+00 -0.45593999997E+02  0.45594000000E+02  0.51100000000E-03 0.  1.
         23    2    1    2    0    0  0.00000000000E+00  0.17763568394E-14 -0.71054273576E-14  0.91188000000E+02  0.91188000000E+02 0.  0.
    9900012    2    3    3    0    0  0.86293122517E+01  0.12841393545E+02 -0.40549438402E+02  0.47787269905E+02  0.19999994803E+02 0.  0.
         12    1    3    3    0    0 -0.86293122517E+01 -0.12841393545E+02  0.40549438402E+02  0.43400730095E+02  0.00000000000E+00 0. -1.
         11    1    4    4    0    0  0.51421294439E+01  0.13648379058E+02 -0.14917686593E+02  0.20862816677E+02  0.51100000000E-03 0. -1.
        -11    1    4    4    0    0  0.34643977509E+01  0.10097255100E+01 -0.47571576753E+01  0.59709418680E+01  0.51100000000E-03 0.  1.
        -12    1    4    4    0    0  0.22785056795E-01 -0.18167110226E+01 -0.20874594133E+02  0.20953511360E+02  0.00000000000E+00 0.  1.
</event>
<event>
 8    1  0.5834107E-011  0.9118800E+02  0.7816164E-02  0.1184000E+00
        -11   -1    0    0    0    0  0.00000000000E+00  0.00000000000E+00  0.45593999997E+02  0.45594000000E+02  0.51100000000E-03 0. -1.
         11   -1    0    0    0    0 -0.00000000000E+00 -0.00000000000E+00 -0.45593999997E+02  0.45594000000E+02  0.51100000000E-03 0.  1.
         23    2    1    2    0    0  0.00000000000E+00 -0.55511151231E-16  0.00000000000E+00  0.91188000000E+02  0.91188000000E+02 0.  0.
    9900012    2    3    3    0    0  0.14939390880E+02  0.13880403516E+00  0.40748233898E+02  0.47787271524E+02  0.20000002187E+02 0.  0.
        -12    1    3    3    0    0 -0.14939390880E+02 -0.13880403516E+00 -0.40748233898E+02  0.43400728476E+02  0.00000000000E+00 0.  1.
         11    1    4    4    0    0  0.47727994094E+01  0.26951978083E+01  0.68800881419E+01  0.87965515135E+01  0.51100000000E-03 0. -1.
        -11    1    4    4    0    0  0.80065920808E+01 -0.88773988356E+01  0.26341939903E+02  0.28927694774E+02  0.51100000000E-03 0.  1.
        -12    1    4    4    0    0  0.21599993897E+01  0.63210050624E+01  0.75262058534E+01  0.10063025236E+02  0.00000000000E+00 0.  1.
</event>
<event>
 8    1  0.5834107E-011  0.9118800E+02  0.7816164E-02  0.1184000E+00
        -11   -1    0    0    0    0  0.00000000000E+00  0.00000000000E+00  0.45593999997E+02  0.45594000000E+02  0.51100000000E-03 0.  1.
         11   -1    0    0    0    0 -0.00000000000E+00 -0.00000000000E+00 -0.45593999997E+02  0.45594000000E+02  0.51100000000E-03 0. -1.
         23    2    1    2    0    0  0.35527136788E-14  0.00000000000E+00  0.88817841970E-15  0.91188000000E+02  0.91188000000E+02 0.  0.
    9900012    2    3    3    0    0  0.20004602156E+02 -0.38029458238E+02  0.60991368758E+01  0.47787271067E+02  0.20000000104E+02 0.  0.
         12    1    3    3    0    0 -0.20004602156E+02  0.38029458238E+02 -0.60991368758E+01  0.43400728933E+02  0.00000000000E+00 0. -1.
         11    1    4    4    0    0  0.13525575599E+02 -0.13340978906E+02  0.10067443133E+02  0.21500612200E+02  0.51100000000E-03 0. -1.
        -11    1    4    4    0    0 -0.26125667794E+00 -0.71783259076E+01 -0.45138209037E+00  0.71972469695E+01  0.51100000000E-03 0.  1.
         12    1    4    4    0    0  0.67402832344E+01 -0.17510153424E+02 -0.35169241672E+01  0.19089411898E+02  0.00000000000E+00 0. -1.
</event>
<event>
 8    1  0.5834107E-011  0.9118800E+02  0.7816164E-02  0.1184000E+00
        -11   -1    0    0    0    0  0.00000000000E+00  0.00000000000E+00  0.45593999997E+02  0.45594000000E+02  0.51100000000E-03 0. -1.
         11   -1    0    0    0    0 -0.00000000000E+00 -0.00000000000E+00 -0.45593999997E+02  0.45594000000E+02  0.51100000000E-03 0.  1.
         23    2    1    2    0    0  0.00000000000E+00  0.00000000000E+00 -0.35527136788E-14  0.91188000000E+02  0.91188000000E+02 0.  0.
    9900012    2    3    3    0    0 -0.16443971513E+02  0.33737592106E+02  0.21794429599E+02  0.47787234087E+02  0.19999831497E+02 0.  0.
        -12    1    3    3    0    0  0.16443971513E+02 -0.33737592106E+02 -0.21794429599E+02  0.43400765913E+02  0.00000000000E+00 0.  1.
         11    1    4    4    0    0 -0.84789150216E+01  0.89573082659E+01  0.76174443899E-01  0.12334146672E+02  0.51100000000E-03 0.  1.
        -11    1    4    4    0    0  0.25474822733E+01  0.54981909013E+01  0.45858272121E+01  0.75993144823E+01  0.51100000000E-03 0. -1.
        -12    1    4    4    0    0 -0.10512538764E+02  0.19282092939E+02  0.17132427943E+02  0.27853772933E+02  0.00000000000E+00 0.  1.
</event>
<event>
 8    1  0.5834107E-011  0.9118800E+02  0.7816164E-02  0.1184000E+00
        -11   -1    0    0    0    0  0.00000000000E+00  0.00000000000E+00  0.45593999997E+02  0.45594000000E+02  0.51100000000E-03 0. -1.
         11   -1    0    0    0    0 -0.00000000000E+00 -0.00000000000E+00 -0.45593999997E+02  0.45594000000E+02  0.51100000000E-03 0.  1.
         23    2    1    2    0    0  0.00000000000E+00  0.00000000000E+00  0.00000000000E+00  0.91188000000E+02  0.91188000000E+02 0.  0.
    9900012    2    3    3    0    0 -0.17718886642E+02 -0.28996059208E+02 -0.26998013566E+02  0.47787272702E+02  0.20000007559E+02 0.  0.
         12    1    3    3    0    0  0.17718886642E+02  0.28996059208E+02  0.26998013566E+02  0.43400727298E+02  0.00000000000E+00 0. -1.
         11    1    4    4    0    0  0.44347882032E+00  0.48672202518E+00  0.35472523275E+00  0.74793184565E+00  0.51100000000E-03 0. -1.
        -11    1    4    4    0    0  0.10497976199E+01  0.14890853974E+01 -0.12522772018E+01  0.22108027535E+01  0.51100000000E-03 0.  1.
        -12    1    4    4    0    0 -0.19212163082E+02 -0.30971866631E+02 -0.26100461597E+02  0.44828538103E+02  0.00000000000E+00 0.  1.
</event>
<event>
 8    1  0.5834107E-011  0.9118800E+02  0.7816164E-02  0.1184000E+00
        -11   -1    0    0    0    0  0.00000000000E+00  0.00000000000E+00  0.45593999997E+02  0.45594000000E+02  0.51100000000E-03 0. -1.
         11   -1    0    0    0    0 -0.00000000000E+00 -0.00000000000E+00 -0.45593999997E+02  0.45594000000E+02  0.51100000000E-03 0.  1.
         23    2    1    2    0    0  0.00000000000E+00 -0.71054273576E-14  0.00000000000E+00  0.91188000000E+02  0.91188000000E+02 0.  0.
    9900012    2    3    3    0    0  0.13401340895E+02 -0.32034403058E+02 -0.26035077999E+02  0.47787260335E+02  0.19999951172E+02 0.  0.
         12    1    3    3    0    0 -0.13401340895E+02  0.32034403058E+02  0.26035077999E+02  0.43400739665E+02  0.00000000000E+00 0. -1.
         11    1    4    4    0    0  0.62432651325E+01 -0.12778380990E+02 -0.25400847405E+01  0.14447055443E+02  0.51100000000E-03 0. -1.
        -11    1    4    4    0    0 -0.21405460804E+01 -0.23253013028E+00 -0.40746792771E+01  0.46085810459E+01  0.51100000000E-03 0.  1.
        -12    1    4    4    0    0  0.92986218434E+01 -0.19023491938E+02 -0.19420313981E+02  0.28731623846E+02  0.00000000000E+00 0.  1.
</event>
<event>
 8    1  0.5834107E-011  0.9118800E+02  0.7816164E-02  0.1184000E+00
        -11   -1    0    0    0    0  0.00000000000E+00  0.00000000000E+00  0.45593999997E+02  0.45594000000E+02  0.51100000000E-03 0. -1.
         11   -1    0    0    0    0 -0.00000000000E+00 -0.00000000000E+00 -0.45593999997E+02  0.45594000000E+02  0.51100000000E-03 0.  1.
         23    2    1    2    0    0  0.00000000000E+00  0.00000000000E+00  0.00000000000E+00  0.91188000000E+02  0.91188000000E+02 0.  0.
    9900012    2    3    3    0    0  0.19920330482E+02 -0.77470983281E+01  0.37772820074E+02  0.47787273792E+02  0.20000012528E+02 0.  0.
        -12    1    3    3    0    0 -0.19920330482E+02  0.77470983281E+01 -0.37772820074E+02  0.43400726208E+02  0.00000000000E+00 0.  1.
         11    1    4    4    0    0  0.11485311378E+02 -0.11987730798E+01  0.96363697489E+01  0.15040247888E+02  0.51100000000E-03 0. -1.
        -11    1    4    4    0    0  0.70264634772E+01 -0.10025160623E+02  0.16669431677E+02  0.20681996693E+02  0.51100000000E-03 0.  1.
        -12    1    4    4    0    0  0.14085556268E+01  0.34768353746E+01  0.11467018649E+02  0.12065029211E+02  0.00000000000E+00 0.  1.
</event>
<event>
 8    1  0.5834107E-011  0.9118800E+02  0.7816164E-02  0.1184000E+00
        -11   -1    0    0    0    0  0.00000000000E+00  0.00000000000E+00  0.45593999997E+02  0.45594000000E+02  0.51100000000E-03 0. -1.
         11   -1    0    0    0    0 -0.00000000000E+00 -0.00000000000E+00 -0.45593999997E+02  0.45594000000E+02  0.51100000000E-03 0.  1.
         23    2    1    2    0    0  0.00000000000E+00  0.00000000000E+00  0.00000000000E+00  0.91188000000E+02  0.91188000000E+02 0.  0.
    9900012    2    3    3    0    0  0.95619620733E+01 -0.18473408602E+02 -0.38091009295E+02  0.47787274969E+02  0.20000017894E+02 0.  0.
         12    1    3    3    0    0 -0.95619620733E+01  0.18473408602E+02  0.38091009295E+02  0.43400725031E+02  0.00000000000E+00 0. -1.
         11    1    4    4    0    0 -0.16592622559E+01  0.19556741665E+01 -0.20838767828E+01  0.33045961003E+01  0.51100000000E-03 0. -1.
        -11    1    4    4    0    0 -0.26412042805E-01 -0.24783728898E+01  0.24971036431E+00  0.24910610800E+01  0.51100000000E-03 0.  1.
        -12    1    4    4    0    0  0.11247636372E+02 -0.17950709879E+02 -0.36256842877E+02  0.41991617789E+02  0.00000000000E+00 0.  1.
</event>
<event>
 8    1  0.5834107E-011  0.9118800E+02  0.7816164E-02  0.1184000E+00
        -11   -1    0    0    0    0  0.00000000000E+00  0.00000000000E+00  0.45593999997E+02  0.45594000000E+02  0.51100000000E-03 0. -1.
         11   -1    0    0    0    0 -0.00000000000E+00 -0.00000000000E+00 -0.45593999997E+02  0.45594000000E+02  0.51100000000E-03 0.  1.
         23    2    1    2    0    0  0.00000000000E+00  0.22204460493E-15 -0.17763568394E-14  0.91188000000E+02  0.91188000000E+02 0.  0.
    9900012    2    3    3    0    0 -0.41219108098E+02 -0.17394645255E+01 -0.13475243667E+02  0.47787276491E+02  0.20000024834E+02 0.  0.
        -12    1    3    3    0    0  0.41219108098E+02  0.17394645255E+01  0.13475243667E+02  0.43400723509E+02  0.00000000000E+00 0.  1.
         11    1    4    4    0    0 -0.12419169002E+02 -0.16657973745E+01 -0.65720191511E+01  0.14149278270E+02  0.51100000000E-03 0. -1.
        -11    1    4    4    0    0 -0.34165309443E+01 -0.59925840387E+00  0.46029063749E+01  0.57635528700E+01  0.51100000000E-03 0.  1.
        -12    1    4    4    0    0 -0.25383408152E+02  0.52559125287E+00 -0.11506130890E+02  0.27874445351E+02  0.00000000000E+00 0.  1.
</event>
<event>
 8    1  0.5834107E-011  0.9118800E+02  0.7816164E-02  0.1184000E+00
        -11   -1    0    0    0    0  0.00000000000E+00  0.00000000000E+00  0.45593999997E+02  0.45594000000E+02  0.51100000000E-03 0. -1.
         11   -1    0    0    0    0 -0.00000000000E+00 -0.00000000000E+00 -0.45593999997E+02  0.45594000000E+02  0.51100000000E-03 0.  1.
         23    2    1    2    0    0  0.88817841970E-15  0.00000000000E+00  0.00000000000E+00  0.91188000000E+02  0.91188000000E+02 0.  0.
    9900012    2    3    3    0    0  0.33305442658E+01 -0.17262532758E+02  0.39680419926E+02  0.47787270883E+02  0.19999999265E+02 0.  0.
        -12    1    3    3    0    0 -0.33305442658E+01  0.17262532758E+02 -0.39680419926E+02  0.43400729117E+02  0.00000000000E+00 0.  1.
         11    1    4    4    0    0 -0.20146210202E+00 -0.99188912495E+01  0.12082751053E+02  0.15633869126E+02  0.51100000000E-03 0. -1.
        -11    1    4    4    0    0  0.83420793237E+01 -0.36015986566E+01  0.22293807604E+02  0.24074377625E+02  0.51100000000E-03 0.  1.
        -12    1    4    4    0    0 -0.48100729559E+01 -0.37420428518E+01  0.53038612703E+01  0.80790241316E+01  0.00000000000E+00 0.  1.
</event>
<event>
 8    1  0.5834107E-011  0.9118800E+02  0.7816164E-02  0.1184000E+00
        -11   -1    0    0    0    0  0.00000000000E+00  0.00000000000E+00  0.45593999997E+02  0.45594000000E+02  0.51100000000E-03 0. -1.
         11   -1    0    0    0    0 -0.00000000000E+00 -0.00000000000E+00 -0.45593999997E+02  0.45594000000E+02  0.51100000000E-03 0.  1.
         23    2    1    2    0    0 -0.88817841970E-15  0.35527136788E-14 -0.71054273576E-14  0.91188000000E+02  0.91188000000E+02 0.  0.
    9900012    2    3    3    0    0 -0.37652651009E+01  0.24916286185E+02 -0.35335882141E+02  0.47787272988E+02  0.20000008860E+02 0.  0.
         12    1    3    3    0    0  0.37652651009E+01 -0.24916286185E+02  0.35335882141E+02  0.43400727012E+02  0.00000000000E+00 0. -1.
         11    1    4    4    0    0 -0.15975696976E+01  0.52218069658E+01 -0.13384538021E+02  0.14455634031E+02  0.51100000000E-03 0. -1.
        -11    1    4    4    0    0 -0.34726692575E+01  0.69720557206E+01  0.15704729669E+00  0.77906133813E+01  0.51100000000E-03 0.  1.
        -12    1    4    4    0    0  0.13049738543E+01  0.12722423498E+02 -0.22108391416E+02  0.25541025575E+02  0.00000000000E+00 0.  1.
</event>
<event>
 8    1  0.5834107E-011  0.9118800E+02  0.7816164E-02  0.1184000E+00
        -11   -1    0    0    0    0  0.00000000000E+00  0.00000000000E+00  0.45593999997E+02  0.45594000000E+02  0.51100000000E-03 0. -1.
         11   -1    0    0    0    0 -0.00000000000E+00 -0.00000000000E+00 -0.45593999997E+02  0.45594000000E+02  0.51100000000E-03 0.  1.
         23    2    1    2    0    0  0.00000000000E+00  0.00000000000E+00  0.00000000000E+00  0.91188000000E+02  0.91188000000E+02 0.  0.
    9900012    2    3    3    0    0 -0.19516454610E+02  0.18450793619E+02 -0.34092511257E+02  0.47787272938E+02  0.20000008632E+02 0.  0.
         12    1    3    3    0    0  0.19516454610E+02 -0.18450793619E+02  0.34092511257E+02  0.43400727062E+02  0.00000000000E+00 0. -1.
         11    1    4    4    0    0 -0.29076202624E+01  0.11262800461E+02 -0.59532864115E+01  0.13067002302E+02  0.51100000000E-03 0. -1.
        -11    1    4    4    0    0 -0.20956948762E+01  0.23727285411E+00 -0.11041015088E+02  0.11240651665E+02  0.51100000000E-03 0.  1.
        -12    1    4    4    0    0 -0.14513139472E+02  0.69507203042E+01 -0.17098209758E+02  0.23479618970E+02  0.00000000000E+00 0.  1.
</event>
<event>
 8    1  0.5834107E-011  0.9118800E+02  0.7816164E-02  0.1184000E+00
        -11   -1    0    0    0    0  0.00000000000E+00  0.00000000000E+00  0.45593999997E+02  0.45594000000E+02  0.51100000000E-03 0. -1.
         11   -1    0    0    0    0 -0.00000000000E+00 -0.00000000000E+00 -0.45593999997E+02  0.45594000000E+02  0.51100000000E-03 0.  1.
         23    2    1    2    0    0  0.00000000000E+00 -0.88817841970E-15  0.00000000000E+00  0.91188000000E+02  0.91188000000E+02 0.  0.
    9900012    2    3    3    0    0  0.65203853821E+01 -0.56126252643E+01  0.42539459259E+02  0.47787279016E+02  0.20000036347E+02 0.  0.
        -12    1    3    3    0    0 -0.65203853821E+01  0.56126252643E+01 -0.42539459259E+02  0.43400720984E+02  0.00000000000E+00 0.  1.
         11    1    4    4    0    0 -0.41844104403E+01  0.31405547439E-01  0.55559921826E+01  0.69555248857E+01  0.51100000000E-03 0. -1.
        -11    1    4    4    0    0  0.45362475168E+01 -0.18966838203E+01  0.31193967142E+02  0.31579083859E+02  0.51100000000E-03 0.  1.
        -12    1    4    4    0    0  0.61685483057E+01 -0.37473469914E+01  0.57894999344E+01  0.92526702721E+01  0.00000000000E+00 0.  1.
</event>
<event>
 8    1  0.5834107E-011  0.9118800E+02  0.7816164E-02  0.1184000E+00
        -11   -1    0    0    0    0  0.00000000000E+00  0.00000000000E+00  0.45593999997E+02  0.45594000000E+02  0.51100000000E-03 0. -1.
         11   -1    0    0    0    0 -0.00000000000E+00 -0.00000000000E+00 -0.45593999997E+02  0.45594000000E+02  0.51100000000E-03 0.  1.
         23    2    1    2    0    0  0.17763568394E-14 -0.88817841970E-15  0.00000000000E+00  0.91188000000E+02  0.91188000000E+02 0.  0.
    9900012    2    3    3    0    0 -0.13911659176E+02  0.78009588282E+01 -0.40363770767E+02  0.47787271778E+02  0.20000003345E+02 0.  0.
         12    1    3    3    0    0  0.13911659176E+02 -0.78009588282E+01  0.40363770767E+02  0.43400728222E+02  0.00000000000E+00 0. -1.
         11    1    4    4    0    0 -0.11673672132E+02  0.96481752308E+01 -0.13143532168E+02  0.20052788944E+02  0.51100000000E-03 0. -1.
        -11    1    4    4    0    0 -0.13682888615E+00  0.10092785616E+01 -0.18006203139E+01  0.20687192016E+01  0.51100000000E-03 0.  1.
         12    1    4    4    0    0 -0.21011581580E+01 -0.28564949642E+01 -0.25419618285E+02  0.25665763633E+02  0.00000000000E+00 0. -1.
</event>
<event>
 8    1  0.5834107E-011  0.9118800E+02  0.7816164E-02  0.1184000E+00
        -11   -1    0    0    0    0  0.00000000000E+00  0.00000000000E+00  0.45593999997E+02  0.45594000000E+02  0.51100000000E-03 0.  1.
         11   -1    0    0    0    0 -0.00000000000E+00 -0.00000000000E+00 -0.45593999997E+02  0.45594000000E+02  0.51100000000E-03 0. -1.
         23    2    1    2    0    0 -0.71054273576E-14 -0.17763568394E-14  0.17763568394E-14  0.91188000000E+02  0.91188000000E+02 0.  0.
    9900012    2    3    3    0    0 -0.40263734095E+02 -0.50081357919E+01  0.15406927971E+02  0.47787272623E+02  0.20000007198E+02 0.  0.
        -12    1    3    3    0    0  0.40263734095E+02  0.50081357919E+01 -0.15406927971E+02  0.43400727377E+02  0.00000000000E+00 0.  1.
         11    1    4    4    0    0 -0.28392324687E+01 -0.15976419587E+01 -0.23827301610E+01  0.40362239929E+01  0.51100000000E-03 0. -1.
        -11    1    4    4    0    0 -0.20460846649E+02 -0.85884763740E+01  0.10909538232E+02  0.24727033722E+02  0.51100000000E-03 0.  1.
         12    1    4    4    0    0 -0.16963654977E+02  0.51779825408E+01  0.68801198997E+01  0.19024014908E+02  0.00000000000E+00 0. -1.
</event>
<event>
 8    1  0.5834107E-011  0.9118800E+02  0.7816164E-02  0.1184000E+00
        -11   -1    0    0    0    0  0.00000000000E+00  0.00000000000E+00  0.45593999997E+02  0.45594000000E+02  0.51100000000E-03 0. -1.
         11   -1    0    0    0    0 -0.00000000000E+00 -0.00000000000E+00 -0.45593999997E+02  0.45594000000E+02  0.51100000000E-03 0.  1.
         23    2    1    2    0    0  0.00000000000E+00  0.00000000000E+00  0.00000000000E+00  0.91188000000E+02  0.91188000000E+02 0.  0.
    9900012    2    3    3    0    0 -0.68257715560E+01  0.29258766446E+02 -0.31320226079E+02  0.47787272668E+02  0.20000007403E+02 0.  0.
         12    1    3    3    0    0  0.68257715560E+01 -0.29258766446E+02  0.31320226079E+02  0.43400727332E+02  0.00000000000E+00 0. -1.
         11    1    4    4    0    0  0.27988919128E+00  0.57157758707E+01 -0.15315149477E+02  0.16349380279E+02  0.51100000000E-03 0. -1.
        -11    1    4    4    0    0  0.60605305880E+00  0.46664885481E+01 -0.84885933550E+01  0.97056495448E+01  0.51100000000E-03 0.  1.
         12    1    4    4    0    0 -0.77117138061E+01  0.18876502027E+02 -0.75164832478E+01  0.21732242844E+02  0.00000000000E+00 0. -1.
</event>
<event>
 8    1  0.5834107E-011  0.9118800E+02  0.7816164E-02  0.1184000E+00
        -11   -1    0    0    0    0  0.00000000000E+00  0.00000000000E+00  0.45593999997E+02  0.45594000000E+02  0.51100000000E-03 0. -1.
         11   -1    0    0    0    0 -0.00000000000E+00 -0.00000000000E+00 -0.45593999997E+02  0.45594000000E+02  0.51100000000E-03 0.  1.
         23    2    1    2    0    0  0.00000000000E+00  0.00000000000E+00  0.00000000000E+00  0.91188000000E+02  0.91188000000E+02 0.  0.
    9900012    2    3    3    0    0 -0.13955910120E+02  0.21934166793E+02 -0.34752671208E+02  0.47787271247E+02  0.20000000924E+02 0.  0.
         12    1    3    3    0    0  0.13955910120E+02 -0.21934166793E+02  0.34752671208E+02  0.43400728753E+02  0.00000000000E+00 0. -1.
         11    1    4    4    0    0 -0.69053414856E+00  0.27948510174E+01  0.12103125310E+01  0.31229611435E+01  0.51100000000E-03 0. -1.
        -11    1    4    4    0    0  0.23839135186E+01  0.19587467023E+01 -0.59843301850E+01  0.67328998457E+01  0.51100000000E-03 0.  1.
        -12    1    4    4    0    0 -0.15649289490E+02  0.17180569073E+02 -0.29978653554E+02  0.37931410258E+02  0.00000000000E+00 0.  1.
</event>
<event>
 8    1  0.5834107E-011  0.9118800E+02  0.7816164E-02  0.1184000E+00
        -11   -1    0    0    0    0  0.00000000000E+00  0.00000000000E+00  0.45593999997E+02  0.45594000000E+02  0.51100000000E-03 0.  1.
         11   -1    0    0    0    0 -0.00000000000E+00 -0.00000000000E+00 -0.45593999997E+02  0.45594000000E+02  0.51100000000E-03 0. -1.
         23    2    1    2    0    0 -0.71054273576E-14  0.00000000000E+00 -0.17763568394E-14  0.91188000000E+02  0.91188000000E+02 0.  0.
    9900012    2    3    3    0    0  0.41992195008E+02  0.45879704356E+01  0.99613987784E+01  0.47787269823E+02  0.19999994429E+02 0.  0.
         12    1    3    3    0    0 -0.41992195008E+02 -0.45879704356E+01 -0.99613987784E+01  0.43400730177E+02  0.00000000000E+00 0. -1.
         11    1    4    4    0    0  0.19326988112E+01 -0.28722530693E+01 -0.53570303367E+00  0.35031614850E+01  0.51100000000E-03 0. -1.
        -11    1    4    4    0    0  0.34763958265E+01 -0.15705078819E+01  0.48681763301E+01  0.61847363721E+01  0.51100000000E-03 0.  1.
        -12    1    4    4    0    0  0.36583100370E+02  0.90307313868E+01  0.56289254820E+01  0.38099371965E+02  0.00000000000E+00 0.  1.
</event>
<event>
 8    1  0.5834107E-011  0.9118800E+02  0.7816164E-02  0.1184000E+00
        -11   -1    0    0    0    0  0.00000000000E+00  0.00000000000E+00  0.45593999997E+02  0.45594000000E+02  0.51100000000E-03 0. -1.
         11   -1    0    0    0    0 -0.00000000000E+00 -0.00000000000E+00 -0.45593999997E+02  0.45594000000E+02  0.51100000000E-03 0.  1.
         23    2    1    2    0    0 -0.35527136788E-14  0.88817841970E-15  0.71054273576E-14  0.91188000000E+02  0.91188000000E+02 0.  0.
    9900012    2    3    3    0    0  0.28668531682E+02 -0.63984096700E+01 -0.31949946366E+02  0.47787269270E+02  0.19999991909E+02 0.  0.
         12    1    3    3    0    0 -0.28668531682E+02  0.63984096700E+01  0.31949946366E+02  0.43400730730E+02  0.00000000000E+00 0. -1.
         11    1    4    4    0    0 -0.16328199710E+00 -0.29357607193E+01 -0.78349876972E+01  0.83685353849E+01  0.51100000000E-03 0. -1.
        -11    1    4    4    0    0  0.21122320442E+02 -0.38822539599E+01 -0.23247617155E+02  0.31649265715E+02  0.51100000000E-03 0.  1.
         12    1    4    4    0    0  0.77094932372E+01  0.41960500921E+00 -0.86734151398E+00  0.77694681697E+01  0.00000000000E+00 0. -1.
</event>
<event>
 8    1  0.5834107E-011  0.9118800E+02  0.7816164E-02  0.1184000E+00
        -11   -1    0    0    0    0  0.00000000000E+00  0.00000000000E+00  0.45593999997E+02  0.45594000000E+02  0.51100000000E-03 0. -1.
         11   -1    0    0    0    0 -0.00000000000E+00 -0.00000000000E+00 -0.45593999997E+02  0.45594000000E+02  0.51100000000E-03 0.  1.
         23    2    1    2    0    0  0.00000000000E+00  0.35527136788E-14  0.00000000000E+00  0.91188000000E+02  0.91188000000E+02 0.  0.
    9900012    2    3    3    0    0 -0.68554059534E+01  0.20931521689E+02 -0.37396496708E+02  0.47787272390E+02  0.20000006137E+02 0.  0.
         12    1    3    3    0    0  0.68554059534E+01 -0.20931521689E+02  0.37396496708E+02  0.43400727610E+02  0.00000000000E+00 0. -1.
         11    1    4    4    0    0 -0.41747260117E+01  0.86439299775E+01 -0.21766680486E+02  0.23789372467E+02  0.51100000000E-03 0. -1.
        -11    1    4    4    0    0  0.94620002739E+00  0.71832629902E+01 -0.16163953103E+02  0.17713496037E+02  0.51100000000E-03 0.  1.
         12    1    4    4    0    0 -0.36268799690E+01  0.51043287212E+01  0.53413688044E+00  0.62844038867E+01  0.00000000000E+00 0. -1.
</event>
<event>
 8    1  0.5834107E-011  0.9118800E+02  0.7816164E-02  0.1184000E+00
        -11   -1    0    0    0    0  0.00000000000E+00  0.00000000000E+00  0.45593999997E+02  0.45594000000E+02  0.51100000000E-03 0. -1.
         11   -1    0    0    0    0 -0.00000000000E+00 -0.00000000000E+00 -0.45593999997E+02  0.45594000000E+02  0.51100000000E-03 0.  1.
         23    2    1    2    0    0  0.00000000000E+00  0.00000000000E+00  0.00000000000E+00  0.91188000000E+02  0.91188000000E+02 0.  0.
    9900012    2    3    3    0    0 -0.21376410646E+02 -0.19917383492E+02 -0.32093160230E+02  0.47787262324E+02  0.19999960241E+02 0.  0.
         12    1    3    3    0    0  0.21376410646E+02  0.19917383492E+02  0.32093160230E+02  0.43400737676E+02  0.00000000000E+00 0. -1.
         11    1    4    4    0    0 -0.92474496004E+00 -0.31881596320E+00  0.12583640951E+01  0.15938247446E+01  0.51100000000E-03 0. -1.
        -11    1    4    4    0    0 -0.11548274699E+02 -0.49715698852E+01 -0.22921605186E+02  0.26143433979E+02  0.51100000000E-03 0.  1.
        -12    1    4    4    0    0 -0.89033909869E+01 -0.14626997644E+02 -0.10429919138E+02  0.20050003600E+02  0.00000000000E+00 0.  1.
</event>
<event>
 8    1  0.5834107E-011  0.9118800E+02  0.7816164E-02  0.1184000E+00
        -11   -1    0    0    0    0  0.00000000000E+00  0.00000000000E+00  0.45593999997E+02  0.45594000000E+02  0.51100000000E-03 0. -1.
         11   -1    0    0    0    0 -0.00000000000E+00 -0.00000000000E+00 -0.45593999997E+02  0.45594000000E+02  0.51100000000E-03 0.  1.
         23    2    1    2    0    0  0.00000000000E+00  0.00000000000E+00  0.00000000000E+00  0.91188000000E+02  0.91188000000E+02 0.  0.
    9900012    2    3    3    0    0  0.21802813390E+02  0.18529460200E+02 -0.32633114936E+02  0.47787265473E+02  0.19999974598E+02 0.  0.
         12    1    3    3    0    0 -0.21802813390E+02 -0.18529460200E+02  0.32633114936E+02  0.43400734527E+02  0.00000000000E+00 0. -1.
         11    1    4    4    0    0 -0.13955166741E+01  0.30548161186E+01 -0.14368212447E+01  0.36529199084E+01  0.51100000000E-03 0. -1.
        -11    1    4    4    0    0  0.24234371740E+00 -0.22178336833E+01 -0.24436102432E+01  0.33088892405E+01  0.51100000000E-03 0.  1.
        -12    1    4    4    0    0  0.22955986347E+02  0.17692477765E+02 -0.28752683448E+02  0.40825456324E+02  0.00000000000E+00 0.  1.
</event>
<event>
 8    1  0.5834107E-011  0.9118800E+02  0.7816164E-02  0.1184000E+00
        -11   -1    0    0    0    0  0.00000000000E+00  0.00000000000E+00  0.45593999997E+02  0.45594000000E+02  0.51100000000E-03 0.  1.
         11   -1    0    0    0    0 -0.00000000000E+00 -0.00000000000E+00 -0.45593999997E+02  0.45594000000E+02  0.51100000000E-03 0. -1.
         23    2    1    2    0    0  0.17763568394E-14  0.00000000000E+00  0.00000000000E+00  0.91188000000E+02  0.91188000000E+02 0.  0.
    9900012    2    3    3    0    0  0.12397303623E+02 -0.40387176078E+02  0.99401309094E+01  0.47787270384E+02  0.19999996988E+02 0.  0.
        -12    1    3    3    0    0 -0.12397303623E+02  0.40387176078E+02 -0.99401309094E+01  0.43400729616E+02  0.00000000000E+00 0.  1.
         11    1    4    4    0    0  0.69116418348E+01 -0.14035536494E+02  0.62047118703E+00  0.15657332540E+02  0.51100000000E-03 0. -1.
        -11    1    4    4    0    0 -0.44291836269E+01 -0.65634087797E+01 -0.46213347147E+00  0.79315553340E+01  0.51100000000E-03 0.  1.
        -12    1    4    4    0    0  0.99148454155E+01 -0.19788230805E+02  0.97817931939E+01  0.24198382510E+02  0.00000000000E+00 0.  1.
</event>
<event>
 8    1  0.5834107E-011  0.9118800E+02  0.7816164E-02  0.1184000E+00
        -11   -1    0    0    0    0  0.00000000000E+00  0.00000000000E+00  0.45593999997E+02  0.45594000000E+02  0.51100000000E-03 0. -1.
         11   -1    0    0    0    0 -0.00000000000E+00 -0.00000000000E+00 -0.45593999997E+02  0.45594000000E+02  0.51100000000E-03 0.  1.
         23    2    1    2    0    0 -0.35527136788E-14  0.00000000000E+00  0.00000000000E+00  0.91188000000E+02  0.91188000000E+02 0.  0.
    9900012    2    3    3    0    0 -0.22878367667E+02  0.22748794710E+02 -0.29029223326E+02  0.47787272186E+02  0.20000005206E+02 0.  0.
         12    1    3    3    0    0  0.22878367667E+02 -0.22748794710E+02  0.29029223326E+02  0.43400727814E+02  0.00000000000E+00 0. -1.
         11    1    4    4    0    0 -0.99889842561E+01  0.12451532401E+02 -0.12588081733E+02  0.20329295797E+02  0.51100000000E-03 0. -1.
        -11    1    4    4    0    0 -0.92737215351E+00  0.99147737935E+01 -0.85250075977E+01  0.13108718980E+02  0.51100000000E-03 0.  1.
         12    1    4    4    0    0 -0.11962011258E+02  0.38248851510E+00 -0.79161339950E+01  0.14349257410E+02  0.00000000000E+00 0. -1.
</event>
<event>
 8    1  0.5834107E-011  0.9118800E+02  0.7816164E-02  0.1184000E+00
        -11   -1    0    0    0    0  0.00000000000E+00  0.00000000000E+00  0.45593999997E+02  0.45594000000E+02  0.51100000000E-03 0.  1.
         11   -1    0    0    0    0 -0.00000000000E+00 -0.00000000000E+00 -0.45593999997E+02  0.45594000000E+02  0.51100000000E-03 0. -1.
         23    2    1    2    0    0  0.00000000000E+00  0.00000000000E+00  0.00000000000E+00  0.91188000000E+02  0.91188000000E+02 0.  0.
    9900012    2    3    3    0    0 -0.22269124406E+01  0.43148313512E+02  0.41092441032E+01  0.47787285893E+02  0.20000067700E+02 0.  0.
         12    1    3    3    0    0  0.22269124406E+01 -0.43148313512E+02 -0.41092441032E+01  0.43400714107E+02  0.00000000000E+00 0. -1.
         11    1    4    4    0    0  0.56364390907E+01  0.11758749340E+02 -0.25692457708E+01  0.13290547609E+02  0.51100000000E-03 0. -1.
        -11    1    4    4    0    0 -0.65154617439E+01  0.82586585965E+01  0.56935488711E+00  0.10534744838E+02  0.51100000000E-03 0.  1.
        -12    1    4    4    0    0 -0.13478897874E+01  0.23130905575E+02  0.61091349869E+01  0.23961993446E+02  0.00000000000E+00 0.  1.
</event>
<event>
 8    1  0.5834107E-011  0.9118800E+02  0.7816164E-02  0.1184000E+00
        -11   -1    0    0    0    0  0.00000000000E+00  0.00000000000E+00  0.45593999997E+02  0.45594000000E+02  0.51100000000E-03 0. -1.
         11   -1    0    0    0    0 -0.00000000000E+00 -0.00000000000E+00 -0.45593999997E+02  0.45594000000E+02  0.51100000000E-03 0.  1.
         23    2    1    2    0    0  0.17763568394E-14  0.00000000000E+00  0.00000000000E+00  0.91188000000E+02  0.91188000000E+02 0.  0.
    9900012    2    3    3    0    0  0.13991932377E+02 -0.76317348118E+01 -0.40368376413E+02  0.47787270028E+02  0.19999995365E+02 0.  0.
         12    1    3    3    0    0 -0.13991932377E+02  0.76317348118E+01  0.40368376413E+02  0.43400729972E+02  0.00000000000E+00 0. -1.
         11    1    4    4    0    0 -0.10309737327E+01 -0.76621653680E+01 -0.14814840747E+02  0.16710810620E+02  0.51100000000E-03 0. -1.
        -11    1    4    4    0    0  0.10966293503E+02 -0.41114510510E+01 -0.19067208804E+02  0.22376820033E+02  0.51100000000E-03 0.  1.
        -12    1    4    4    0    0  0.40566126072E+01  0.41418816072E+01 -0.64863268620E+01  0.86996393750E+01  0.00000000000E+00 0.  1.
</event>
<event>
 8    1  0.5834107E-011  0.9118800E+02  0.7816164E-02  0.1184000E+00
        -11   -1    0    0    0    0  0.00000000000E+00  0.00000000000E+00  0.45593999997E+02  0.45594000000E+02  0.51100000000E-03 0. -1.
         11   -1    0    0    0    0 -0.00000000000E+00 -0.00000000000E+00 -0.45593999997E+02  0.45594000000E+02  0.51100000000E-03 0.  1.
         23    2    1    2    0    0  0.00000000000E+00  0.00000000000E+00  0.00000000000E+00  0.91188000000E+02  0.91188000000E+02 0.  0.
    9900012    2    3    3    0    0 -0.20772299269E+02 -0.19191544843E+02  0.32921412912E+02  0.47787271452E+02  0.20000001858E+02 0.  0.
        -12    1    3    3    0    0  0.20772299269E+02  0.19191544843E+02 -0.32921412912E+02  0.43400728548E+02  0.00000000000E+00 0.  1.
         11    1    4    4    0    0 -0.10485012312E+02 -0.14607130445E+02  0.18583027694E+02  0.25857932275E+02  0.51100000000E-03 0. -1.
        -11    1    4    4    0    0 -0.10205035539E+02 -0.45905868722E+01  0.44527963948E+01  0.12043406253E+02  0.51100000000E-03 0.  1.
         12    1    4    4    0    0 -0.82251418256E-01  0.61724736469E-02  0.98855888232E+01  0.98859329239E+01  0.00000000000E+00 0. -1.
</event>
<event>
 8    1  0.5834107E-011  0.9118800E+02  0.7816164E-02  0.1184000E+00
        -11   -1    0    0    0    0  0.00000000000E+00  0.00000000000E+00  0.45593999997E+02  0.45594000000E+02  0.51100000000E-03 0. -1.
         11   -1    0    0    0    0 -0.00000000000E+00 -0.00000000000E+00 -0.45593999997E+02  0.45594000000E+02  0.51100000000E-03 0.  1.
         23    2    1    2    0    0  0.00000000000E+00  0.00000000000E+00  0.35527136788E-14  0.91188000000E+02  0.91188000000E+02 0.  0.
    9900012    2    3    3    0    0 -0.14527797763E+02 -0.32706456087E+02 -0.24553086730E+02  0.47787271370E+02  0.20000001485E+02 0.  0.
         12    1    3    3    0    0  0.14527797763E+02  0.32706456087E+02  0.24553086730E+02  0.43400728630E+02  0.00000000000E+00 0. -1.
         11    1    4    4    0    0  0.48047245135E+00 -0.19059765894E+01 -0.29207973858E+01  0.35206048011E+01  0.51100000000E-03 0. -1.
        -11    1    4    4    0    0 -0.16070910364E+02 -0.20764220436E+02 -0.82844911539E+01  0.27532885867E+02  0.51100000000E-03 0.  1.
        -12    1    4    4    0    0  0.10626401489E+01 -0.10036259062E+02 -0.13347798191E+02  0.16733780702E+02  0.00000000000E+00 0.  1.
</event>
<event>
 8    1  0.5834107E-011  0.9118800E+02  0.7816164E-02  0.1184000E+00
        -11   -1    0    0    0    0  0.00000000000E+00  0.00000000000E+00  0.45593999997E+02  0.45594000000E+02  0.51100000000E-03 0. -1.
         11   -1    0    0    0    0 -0.00000000000E+00 -0.00000000000E+00 -0.45593999997E+02  0.45594000000E+02  0.51100000000E-03 0.  1.
         23    2    1    2    0    0 -0.35527136788E-14  0.00000000000E+00  0.00000000000E+00  0.91188000000E+02  0.91188000000E+02 0.  0.
    9900012    2    3    3    0    0 -0.16329780960E+02 -0.30085627855E+02 -0.26679885603E+02  0.47787273677E+02  0.20000012002E+02 0.  0.
         12    1    3    3    0    0  0.16329780960E+02  0.30085627855E+02  0.26679885603E+02  0.43400726323E+02  0.00000000000E+00 0. -1.
         11    1    4    4    0    0 -0.53919103346E+01 -0.55694348772E+01 -0.44565813781E+00  0.77646579670E+01  0.51100000000E-03 0. -1.
        -11    1    4    4    0    0 -0.11121159198E+01  0.18105445881E+01 -0.18407137311E+01  0.28112454225E+01  0.51100000000E-03 0.  1.
        -12    1    4    4    0    0 -0.98257547054E+01 -0.26326737565E+02 -0.24393513734E+02  0.37211370287E+02  0.00000000000E+00 0.  1.
</event>
<event>
 8    1  0.5834107E-011  0.9118800E+02  0.7816164E-02  0.1184000E+00
        -11   -1    0    0    0    0  0.00000000000E+00  0.00000000000E+00  0.45593999997E+02  0.45594000000E+02  0.51100000000E-03 0. -1.
         11   -1    0    0    0    0 -0.00000000000E+00 -0.00000000000E+00 -0.45593999997E+02  0.45594000000E+02  0.51100000000E-03 0.  1.
         23    2    1    2    0    0  0.00000000000E+00  0.00000000000E+00  0.00000000000E+00  0.91188000000E+02  0.91188000000E+02 0.  0.
    9900012    2    3    3    0    0 -0.26806687666E+02 -0.10858113984E+02 -0.32359328273E+02  0.47787271099E+02  0.20000000247E+02 0.  0.
         12    1    3    3    0    0  0.26806687666E+02  0.10858113984E+02  0.32359328273E+02  0.43400728901E+02  0.00000000000E+00 0. -1.
         11    1    4    4    0    0 -0.89113078077E+01 -0.50581679654E+01 -0.30971480026E+01  0.10704615641E+02  0.51100000000E-03 0. -1.
        -11    1    4    4    0    0 -0.79596620827E+01 -0.82162917884E+01 -0.96552162526E+01  0.14969531468E+02  0.51100000000E-03 0.  1.
         12    1    4    4    0    0 -0.99357177752E+01  0.24163457696E+01 -0.19606964018E+02  0.22113123990E+02  0.00000000000E+00 0. -1.
</event>
<event>
 8    1  0.5834107E-011  0.9118800E+02  0.7816164E-02  0.1184000E+00
        -11   -1    0    0    0    0  0.00000000000E+00  0.00000000000E+00  0.45593999997E+02  0.45594000000E+02  0.51100000000E-03 0.  1.
         11   -1    0    0    0    0 -0.00000000000E+00 -0.00000000000E+00 -0.45593999997E+02  0.45594000000E+02  0.51100000000E-03 0. -1.
         23    2    1    2    0    0  0.71054273576E-14  0.00000000000E+00 -0.35527136788E-14  0.91188000000E+02  0.91188000000E+02 0.  0.
    9900012    2    3    3    0    0 -0.38793298706E+02 -0.10875556837E+02  0.16137696147E+02  0.47787274224E+02  0.20000014495E+02 0.  0.
        -12    1    3    3    0    0  0.38793298706E+02  0.10875556837E+02 -0.16137696147E+02  0.43400725776E+02  0.00000000000E+00 0.  1.
         11    1    4    4    0    0 -0.17986058038E+02 -0.53618054197E+00  0.29310079191E+01  0.18231198014E+02  0.51100000000E-03 0. -1.
        -11    1    4    4    0    0  0.40287947512E+00 -0.14499162376E+01  0.48648257609E+01  0.50922587240E+01  0.51100000000E-03 0.  1.
         12    1    4    4    0    0 -0.21210120142E+02 -0.88894600575E+01  0.83418624672E+01  0.24463817486E+02  0.00000000000E+00 0. -1.
</event>
<event>
 8    1  0.5834107E-011  0.9118800E+02  0.7816164E-02  0.1184000E+00
        -11   -1    0    0    0    0  0.00000000000E+00  0.00000000000E+00  0.45593999997E+02  0.45594000000E+02  0.51100000000E-03 0. -1.
         11   -1    0    0    0    0 -0.00000000000E+00 -0.00000000000E+00 -0.45593999997E+02  0.45594000000E+02  0.51100000000E-03 0.  1.
         23    2    1    2    0    0 -0.17763568394E-14  0.00000000000E+00  0.00000000000E+00  0.91188000000E+02  0.91188000000E+02 0.  0.
    9900012    2    3    3    0    0  0.11776176713E+02 -0.22791316883E+02  0.35007153067E+02  0.47787271560E+02  0.20000002351E+02 0.  0.
        -12    1    3    3    0    0 -0.11776176713E+02  0.22791316883E+02 -0.35007153067E+02  0.43400728440E+02  0.00000000000E+00 0.  1.
         11    1    4    4    0    0  0.40612000801E+01 -0.19734741279E+01  0.63691088456E+01  0.78072718649E+01  0.51100000000E-03 0. -1.
        -11    1    4    4    0    0  0.77979949134E+01 -0.20505775075E+01  0.39787673755E+01  0.89913393259E+01  0.51100000000E-03 0.  1.
         12    1    4    4    0    0 -0.83018280529E-01 -0.18767265248E+02  0.24659276846E+02  0.30988660369E+02  0.00000000000E+00 0. -1.
</event>
<event>
 8    1  0.5834107E-011  0.9118800E+02  0.7816164E-02  0.1184000E+00
        -11   -1    0    0    0    0  0.00000000000E+00  0.00000000000E+00  0.45593999997E+02  0.45594000000E+02  0.51100000000E-03 0. -1.
         11   -1    0    0    0    0 -0.00000000000E+00 -0.00000000000E+00 -0.45593999997E+02  0.45594000000E+02  0.51100000000E-03 0.  1.
         23    2    1    2    0    0  0.35527136788E-14  0.00000000000E+00 -0.71054273576E-14  0.91188000000E+02  0.91188000000E+02 0.  0.
    9900012    2    3    3    0    0  0.20290148216E+02 -0.10237101229E+02 -0.36974798637E+02  0.47787261637E+02  0.19999957109E+02 0.  0.
         12    1    3    3    0    0 -0.20290148216E+02  0.10237101229E+02  0.36974798637E+02  0.43400738363E+02  0.00000000000E+00 0. -1.
         11    1    4    4    0    0  0.31587184370E+00  0.29052928411E+01 -0.25194177196E+01  0.38584928950E+01  0.51100000000E-03 0. -1.
        -11    1    4    4    0    0  0.57606686280E+01 -0.95294100594E+01 -0.22122131605E+02  0.24766583659E+02  0.51100000000E-03 0.  1.
         12    1    4    4    0    0  0.14213607744E+02 -0.36129840107E+01 -0.12333249312E+02  0.19162185083E+02  0.00000000000E+00 0. -1.
</event>
<event>
 8    1  0.5834107E-011  0.9118800E+02  0.7816164E-02  0.1184000E+00
        -11   -1    0    0    0    0  0.00000000000E+00  0.00000000000E+00  0.45593999997E+02  0.45594000000E+02  0.51100000000E-03 0. -1.
         11   -1    0    0    0    0 -0.00000000000E+00 -0.00000000000E+00 -0.45593999997E+02  0.45594000000E+02  0.51100000000E-03 0.  1.
         23    2    1    2    0    0  0.00000000000E+00  0.35527136788E-14 -0.35527136788E-14  0.91188000000E+02  0.91188000000E+02 0.  0.
    9900012    2    3    3    0    0 -0.33240133149E+02  0.18632865532E+02 -0.20773379005E+02  0.47787269534E+02  0.19999993114E+02 0.  0.
         12    1    3    3    0    0  0.33240133149E+02 -0.18632865532E+02  0.20773379005E+02  0.43400730466E+02  0.00000000000E+00 0. -1.
         11    1    4    4    0    0 -0.67934075665E+01  0.14233083952E+02 -0.61529474642E+01  0.16928964171E+02  0.51100000000E-03 0. -1.
        -11    1    4    4    0    0 -0.51061216833E+01 -0.79757389582E+00 -0.34773583040E+01  0.62290146732E+01  0.51100000000E-03 0.  1.
        -12    1    4    4    0    0 -0.21340603899E+02  0.51973554760E+01 -0.11143073237E+02  0.24629290690E+02  0.00000000000E+00 0.  1.
</event>
<event>
 8    1  0.5834107E-011  0.9118800E+02  0.7816164E-02  0.1184000E+00
        -11   -1    0    0    0    0  0.00000000000E+00  0.00000000000E+00  0.45593999997E+02  0.45594000000E+02  0.51100000000E-03 0. -1.
         11   -1    0    0    0    0 -0.00000000000E+00 -0.00000000000E+00 -0.45593999997E+02  0.45594000000E+02  0.51100000000E-03 0.  1.
         23    2    1    2    0    0  0.00000000000E+00  0.00000000000E+00  0.00000000000E+00  0.91188000000E+02  0.91188000000E+02 0.  0.
    9900012    2    3    3    0    0  0.10125027348E+02 -0.36060808440E+02 -0.21925448841E+02  0.47787269695E+02  0.19999993849E+02 0.  0.
         12    1    3    3    0    0 -0.10125027348E+02  0.36060808440E+02  0.21925448841E+02  0.43400730305E+02  0.00000000000E+00 0. -1.
         11    1    4    4    0    0  0.80183047060E+00 -0.14496854328E+02 -0.13177653702E+02  0.19607454574E+02  0.51100000000E-03 0. -1.
        -11    1    4    4    0    0  0.89549177865E+01 -0.23003425491E+02 -0.65715816278E+01  0.25544741577E+02  0.51100000000E-03 0.  1.
         12    1    4    4    0    0  0.36827909074E+00  0.14394713792E+01 -0.21762135106E+01  0.26350735444E+01  0.00000000000E+00 0. -1.
</event>
<event>
 8    1  0.5834107E-011  0.9118800E+02  0.7816164E-02  0.1184000E+00
        -11   -1    0    0    0    0  0.00000000000E+00  0.00000000000E+00  0.45593999997E+02  0.45594000000E+02  0.51100000000E-03 0. -1.
         11   -1    0    0    0    0 -0.00000000000E+00 -0.00000000000E+00 -0.45593999997E+02  0.45594000000E+02  0.51100000000E-03 0.  1.
         23    2    1    2    0    0 -0.35527136788E-14 -0.35527136788E-14  0.00000000000E+00  0.91188000000E+02  0.91188000000E+02 0.  0.
    9900012    2    3    3    0    0  0.22055158805E+02 -0.23031471139E+02  0.29440529828E+02  0.47787268563E+02  0.19999988685E+02 0.  0.
        -12    1    3    3    0    0 -0.22055158805E+02  0.23031471139E+02 -0.29440529828E+02  0.43400731437E+02  0.00000000000E+00 0.  1.
         11    1    4    4    0    0  0.15748512425E+02 -0.44731031833E+01  0.17397268720E+02  0.23889103267E+02  0.51100000000E-03 0. -1.
        -11    1    4    4    0    0  0.86676059358E+00 -0.80061634757E+01  0.80142287334E+01  0.11361240688E+02  0.51100000000E-03 0.  1.
         12    1    4    4    0    0  0.54398857860E+01 -0.10552204480E+02  0.40290323745E+01  0.12536924608E+02  0.00000000000E+00 0. -1.
</event>
<event>
 8    1  0.5834107E-011  0.9118800E+02  0.7816164E-02  0.1184000E+00
        -11   -1    0    0    0    0  0.00000000000E+00  0.00000000000E+00  0.45593999997E+02  0.45594000000E+02  0.51100000000E-03 0. -1.
         11   -1    0    0    0    0 -0.00000000000E+00 -0.00000000000E+00 -0.45593999997E+02  0.45594000000E+02  0.51100000000E-03 0.  1.
         23    2    1    2    0    0 -0.44408920985E-15  0.00000000000E+00  0.71054273576E-14  0.91188000000E+02  0.91188000000E+02 0.  0.
    9900012    2    3    3    0    0  0.31827285057E+01  0.17394223783E+02  0.39635018185E+02  0.47787269035E+02  0.19999990838E+02 0.  0.
        -12    1    3    3    0    0 -0.31827285057E+01 -0.17394223783E+02 -0.39635018185E+02  0.43400730965E+02  0.00000000000E+00 0.  1.
         11    1    4    4    0    0 -0.17115642003E+01 -0.79934141040E-01  0.67636512834E+01  0.69773075340E+01  0.51100000000E-03 0. -1.
        -11    1    4    4    0    0  0.55313196302E+01  0.81344143536E+01  0.42847565338E+01  0.10729554163E+02  0.51100000000E-03 0.  1.
        -12    1    4    4    0    0 -0.63702692428E+00  0.93397435706E+01  0.28586610368E+02  0.30080407338E+02  0.00000000000E+00 0.  1.
</event>
<event>
 8    1  0.5834107E-011  0.9118800E+02  0.7816164E-02  0.1184000E+00
        -11   -1    0    0    0    0  0.00000000000E+00  0.00000000000E+00  0.45593999997E+02  0.45594000000E+02  0.51100000000E-03 0. -1.
         11   -1    0    0    0    0 -0.00000000000E+00 -0.00000000000E+00 -0.45593999997E+02  0.45594000000E+02  0.51100000000E-03 0.  1.
         23    2    1    2    0    0 -0.35527136788E-14  0.00000000000E+00  0.00000000000E+00  0.91188000000E+02  0.91188000000E+02 0.  0.
    9900012    2    3    3    0    0 -0.22020639873E+02  0.21936099832E+02 -0.30290633139E+02  0.47787268298E+02  0.19999987479E+02 0.  0.
         12    1    3    3    0    0  0.22020639873E+02 -0.21936099832E+02  0.30290633139E+02  0.43400731702E+02  0.00000000000E+00 0. -1.
         11    1    4    4    0    0 -0.12822262406E+02  0.15182508354E+02 -0.10390928047E+02  0.22425217035E+02  0.51100000000E-03 0. -1.
        -11    1    4    4    0    0 -0.11697146826E+02  0.55340799290E+01 -0.16187853515E+02  0.20724282526E+02  0.51100000000E-03 0.  1.
         12    1    4    4    0    0  0.24987693593E+01  0.12195115497E+01 -0.37118515773E+01  0.46377687375E+01  0.00000000000E+00 0. -1.
</event>
<event>
 8    1  0.5834107E-011  0.9118800E+02  0.7816164E-02  0.1184000E+00
        -11   -1    0    0    0    0  0.00000000000E+00  0.00000000000E+00  0.45593999997E+02  0.45594000000E+02  0.51100000000E-03 0. -1.
         11   -1    0    0    0    0 -0.00000000000E+00 -0.00000000000E+00 -0.45593999997E+02  0.45594000000E+02  0.51100000000E-03 0.  1.
         23    2    1    2    0    0 -0.66613381478E-15  0.71054273576E-14  0.00000000000E+00  0.91188000000E+02  0.91188000000E+02 0.  0.
    9900012    2    3    3    0    0 -0.14676478166E+01  0.37977915708E+02 -0.20955840984E+02  0.47787270248E+02  0.19999996369E+02 0.  0.
         12    1    3    3    0    0  0.14676478166E+01 -0.37977915708E+02  0.20955840984E+02  0.43400729752E+02  0.00000000000E+00 0. -1.
         11    1    4    4    0    0  0.18211703131E+01  0.45309674764E+01 -0.41678537384E+01  0.64200726341E+01  0.51100000000E-03 0. -1.
        -11    1    4    4    0    0  0.32005065780E+01  0.14745196146E+02 -0.15342688785E+02  0.21518878948E+02  0.51100000000E-03 0.  1.
        -12    1    4    4    0    0 -0.64893247077E+01  0.18701752086E+02 -0.14452984603E+01  0.19848318666E+02  0.00000000000E+00 0.  1.
</event>
<event>
 8    1  0.5834107E-011  0.9118800E+02  0.7816164E-02  0.1184000E+00
        -11   -1    0    0    0    0  0.00000000000E+00  0.00000000000E+00  0.45593999997E+02  0.45594000000E+02  0.51100000000E-03 0. -1.
         11   -1    0    0    0    0 -0.00000000000E+00 -0.00000000000E+00 -0.45593999997E+02  0.45594000000E+02  0.51100000000E-03 0.  1.
         23    2    1    2    0    0  0.00000000000E+00 -0.35527136788E-14  0.00000000000E+00  0.91188000000E+02  0.91188000000E+02 0.  0.
    9900012    2    3    3    0    0 -0.14901720855E+02 -0.24864354264E+02 -0.32300557677E+02  0.47787269319E+02  0.19999992135E+02 0.  0.
         12    1    3    3    0    0  0.14901720855E+02  0.24864354264E+02  0.32300557677E+02  0.43400730681E+02  0.00000000000E+00 0. -1.
         11    1    4    4    0    0 -0.12833265544E+01 -0.80339416364E+01 -0.18052143906E+01  0.83336633313E+01  0.51100000000E-03 0. -1.
        -11    1    4    4    0    0 -0.93504843244E+01 -0.89445302784E+01 -0.79406853020E+01  0.15181918928E+02  0.51100000000E-03 0.  1.
        -12    1    4    4    0    0 -0.42679099760E+01 -0.78858823489E+01 -0.22554657984E+02  0.24271687060E+02  0.00000000000E+00 0.  1.
</event>
<event>
 8    1  0.5834107E-011  0.9118800E+02  0.7816164E-02  0.1184000E+00
        -11   -1    0    0    0    0  0.00000000000E+00  0.00000000000E+00  0.45593999997E+02  0.45594000000E+02  0.51100000000E-03 0. -1.
         11   -1    0    0    0    0 -0.00000000000E+00 -0.00000000000E+00 -0.45593999997E+02  0.45594000000E+02  0.51100000000E-03 0.  1.
         23    2    1    2    0    0 -0.17763568394E-14  0.00000000000E+00  0.00000000000E+00  0.91188000000E+02  0.91188000000E+02 0.  0.
    9900012    2    3    3    0    0  0.14728224160E+02 -0.34169139715E+02  0.22342171835E+02  0.47787270305E+02  0.19999996629E+02 0.  0.
        -12    1    3    3    0    0 -0.14728224160E+02  0.34169139715E+02 -0.22342171835E+02  0.43400729695E+02  0.00000000000E+00 0.  1.
         11    1    4    4    0    0  0.49628329411E+01 -0.14320590367E+02  0.43038525975E+01  0.15755385324E+02  0.51100000000E-03 0. -1.
        -11    1    4    4    0    0  0.58332976302E+01  0.21221510576E+00  0.24794705644E+01  0.63419374827E+01  0.51100000000E-03 0.  1.
         12    1    4    4    0    0  0.39320935882E+01 -0.20060764454E+02  0.15558848673E+02  0.25689947499E+02  0.00000000000E+00 0. -1.
</event>
<event>
 8    1  0.5834107E-011  0.9118800E+02  0.7816164E-02  0.1184000E+00
        -11   -1    0    0    0    0  0.00000000000E+00  0.00000000000E+00  0.45593999997E+02  0.45594000000E+02  0.51100000000E-03 0. -1.
         11   -1    0    0    0    0 -0.00000000000E+00 -0.00000000000E+00 -0.45593999997E+02  0.45594000000E+02  0.51100000000E-03 0.  1.
         23    2    1    2    0    0  0.00000000000E+00  0.00000000000E+00  0.88817841970E-15  0.91188000000E+02  0.91188000000E+02 0.  0.
    9900012    2    3    3    0    0 -0.32229675245E+02 -0.28235535072E+02 -0.69011413058E+01  0.47787272373E+02  0.20000006059E+02 0.  0.
         12    1    3    3    0    0  0.32229675245E+02  0.28235535072E+02  0.69011413058E+01  0.43400727627E+02  0.00000000000E+00 0. -1.
         11    1    4    4    0    0 -0.11394442127E+02 -0.80188113477E+01 -0.76038647135E+01  0.15873040215E+02  0.51100000000E-03 0. -1.
        -11    1    4    4    0    0 -0.18956435803E+02 -0.21779638597E+02 -0.10723015874E+01  0.28893752729E+02  0.51100000000E-03 0.  1.
        -12    1    4    4    0    0 -0.18787973150E+01  0.15629148734E+01  0.17750249951E+01  0.30204794298E+01  0.00000000000E+00 0.  1.
</event>
<event>
 8    1  0.5834107E-011  0.9118800E+02  0.7816164E-02  0.1184000E+00
        -11   -1    0    0    0    0  0.00000000000E+00  0.00000000000E+00  0.45593999997E+02  0.45594000000E+02  0.51100000000E-03 0. -1.
         11   -1    0    0    0    0 -0.00000000000E+00 -0.00000000000E+00 -0.45593999997E+02  0.45594000000E+02  0.51100000000E-03 0.  1.
         23    2    1    2    0    0 -0.17763568394E-14  0.00000000000E+00  0.00000000000E+00  0.91188000000E+02  0.91188000000E+02 0.  0.
    9900012    2    3    3    0    0 -0.12701922559E+02  0.23219075023E+01 -0.41435411277E+02  0.47787269604E+02  0.19999993434E+02 0.  0.
         12    1    3    3    0    0  0.12701922559E+02 -0.23219075023E+01  0.41435411277E+02  0.43400730396E+02  0.00000000000E+00 0. -1.
         11    1    4    4    0    0  0.11257727128E+01  0.36648574631E+01 -0.17170952801E+02  0.17593753573E+02  0.51100000000E-03 0. -1.
        -11    1    4    4    0    0 -0.29567256207E+01 -0.52850105780E+01 -0.56655208115E+01  0.82928698008E+01  0.51100000000E-03 0.  1.
        -12    1    4    4    0    0 -0.10870969651E+02  0.39420606172E+01 -0.18598937665E+02  0.21900646231E+02  0.00000000000E+00 0.  1.
</event>
<event>
 8    1  0.5834107E-011  0.9118800E+02  0.7816164E-02  0.1184000E+00
        -11   -1    0    0    0    0  0.00000000000E+00  0.00000000000E+00  0.45593999997E+02  0.45594000000E+02  0.51100000000E-03 0. -1.
         11   -1    0    0    0    0 -0.00000000000E+00 -0.00000000000E+00 -0.45593999997E+02  0.45594000000E+02  0.51100000000E-03 0.  1.
         23    2    1    2    0    0  0.88817841970E-15  0.00000000000E+00 -0.71054273576E-14  0.91188000000E+02  0.91188000000E+02 0.  0.
    9900012    2    3    3    0    0  0.34929751795E+01 -0.20410985569E+02  0.38142027505E+02  0.47787268788E+02  0.19999989714E+02 0.  0.
        -12    1    3    3    0    0 -0.34929751795E+01  0.20410985569E+02 -0.38142027505E+02  0.43400731212E+02  0.00000000000E+00 0.  1.
         11    1    4    4    0    0 -0.11412578368E+01 -0.17144565618E+01  0.29672453316E+01  0.36119767263E+01  0.51100000000E-03 0. -1.
        -11    1    4    4    0    0 -0.57541803136E+01 -0.11153714506E+01  0.11519169280E+02  0.12924624007E+02  0.51100000000E-03 0.  1.
         12    1    4    4    0    0  0.10388413330E+02 -0.17581157557E+02  0.23655612893E+02  0.31250668055E+02  0.00000000000E+00 0. -1.
</event>
<event>
 8    1  0.5834107E-011  0.9118800E+02  0.7816164E-02  0.1184000E+00
        -11   -1    0    0    0    0  0.00000000000E+00  0.00000000000E+00  0.45593999997E+02  0.45594000000E+02  0.51100000000E-03 0.  1.
         11   -1    0    0    0    0 -0.00000000000E+00 -0.00000000000E+00 -0.45593999997E+02  0.45594000000E+02  0.51100000000E-03 0. -1.
         23    2    1    2    0    0  0.35527136788E-14  0.00000000000E+00 -0.35527136788E-14  0.91188000000E+02  0.91188000000E+02 0.  0.
    9900012    2    3    3    0    0  0.19165223613E+02 -0.32187685310E+02 -0.21915039984E+02  0.47787287341E+02  0.20000074303E+02 0.  0.
         12    1    3    3    0    0 -0.19165223613E+02  0.32187685310E+02  0.21915039984E+02  0.43400712659E+02  0.00000000000E+00 0. -1.
         11    1    4    4    0    0  0.89482512903E+00  0.93517508056E+00 -0.30864647763E+00  0.13306116459E+01  0.51100000000E-03 0. -1.
        -11    1    4    4    0    0  0.15645753912E+02 -0.25916957624E+02 -0.23767927019E+02  0.38488864142E+02  0.51100000000E-03 0.  1.
        -12    1    4    4    0    0  0.26246445724E+01 -0.72059027672E+01  0.21615335119E+01  0.79678115530E+01  0.00000000000E+00 0.  1.
</event>
<event>
 8    1  0.5834107E-011  0.9118800E+02  0.7816164E-02  0.1184000E+00
        -11   -1    0    0    0    0  0.00000000000E+00  0.00000000000E+00  0.45593999997E+02  0.45594000000E+02  0.51100000000E-03 0.  1.
         11   -1    0    0    0    0 -0.00000000000E+00 -0.00000000000E+00 -0.45593999997E+02  0.45594000000E+02  0.51100000000E-03 0. -1.
         23    2    1    2    0    0  0.88817841970E-15  0.00000000000E+00 -0.17763568394E-14  0.91188000000E+02  0.91188000000E+02 0.  0.
    9900012    2    3    3    0    0 -0.56243157122E+01 -0.42191514261E+02  0.84774079389E+01  0.47787271340E+02  0.20000001349E+02 0.  0.
        -12    1    3    3    0    0  0.56243157122E+01  0.42191514261E+02 -0.84774079389E+01  0.43400728660E+02  0.00000000000E+00 0.  1.
         11    1    4    4    0    0 -0.34386076288E+01 -0.99925475340E+01 -0.17027656273E+01  0.10703945053E+02  0.51100000000E-03 0. -1.
        -11    1    4    4    0    0 -0.87115600052E+01 -0.19554948291E+02  0.67550081640E+01  0.22448104952E+02  0.51100000000E-03 0.  1.
         12    1    4    4    0    0  0.65258519218E+01 -0.12644018436E+02  0.34251654022E+01  0.14635221336E+02  0.00000000000E+00 0. -1.
</event>
<event>
 8    1  0.5834107E-011  0.9118800E+02  0.7816164E-02  0.1184000E+00
        -11   -1    0    0    0    0  0.00000000000E+00  0.00000000000E+00  0.45593999997E+02  0.45594000000E+02  0.51100000000E-03 0. -1.
         11   -1    0    0    0    0 -0.00000000000E+00 -0.00000000000E+00 -0.45593999997E+02  0.45594000000E+02  0.51100000000E-03 0.  1.
         23    2    1    2    0    0  0.00000000000E+00  0.00000000000E+00  0.00000000000E+00  0.91188000000E+02  0.91188000000E+02 0.  0.
    9900012    2    3    3    0    0  0.13767549631E+02  0.34668860547E+02 -0.22184412578E+02  0.47787268717E+02  0.19999989389E+02 0.  0.
         12    1    3    3    0    0 -0.13767549631E+02 -0.34668860547E+02  0.22184412578E+02  0.43400731283E+02  0.00000000000E+00 0. -1.
         11    1    4    4    0    0  0.62038947257E+01  0.15349962600E+01 -0.13522314067E+01  0.65324615057E+01  0.51100000000E-03 0. -1.
        -11    1    4    4    0    0  0.76524865397E+01  0.20794193359E+02 -0.82837927072E+01  0.23655448623E+02  0.51100000000E-03 0.  1.
        -12    1    4    4    0    0 -0.88831634476E-01  0.12339670928E+02 -0.12548388464E+02  0.17599358588E+02  0.00000000000E+00 0.  1.
</event>
<event>
 8    1  0.5834107E-011  0.9118800E+02  0.7816164E-02  0.1184000E+00
        -11   -1    0    0    0    0  0.00000000000E+00  0.00000000000E+00  0.45593999997E+02  0.45594000000E+02  0.51100000000E-03 0. -1.
         11   -1    0    0    0    0 -0.00000000000E+00 -0.00000000000E+00 -0.45593999997E+02  0.45594000000E+02  0.51100000000E-03 0.  1.
         23    2    1    2    0    0  0.00000000000E+00  0.35527136788E-14  0.00000000000E+00  0.91188000000E+02  0.91188000000E+02 0.  0.
    9900012    2    3    3    0    0 -0.10109034487E+02  0.27238444640E+02 -0.32241241519E+02  0.47787273054E+02  0.20000009164E+02 0.  0.
         12    1    3    3    0    0  0.10109034487E+02 -0.27238444640E+02  0.32241241519E+02  0.43400726946E+02  0.00000000000E+00 0. -1.
         11    1    4    4    0    0  0.35254030819E+00  0.10873634192E+01 -0.83792821458E+01  0.84568914747E+01  0.51100000000E-03 0.  1.
        -11    1    4    4    0    0 -0.74931609351E+01  0.25724341950E+02 -0.16715047224E+02  0.31579772538E+02  0.51100000000E-03 0. -1.
         12    1    4    4    0    0 -0.29684138599E+01  0.42673927094E+00 -0.71469121493E+01  0.77506090418E+01  0.00000000000E+00 0. -1.
</event>
<event>
 8    1  0.5834107E-011  0.9118800E+02  0.7816164E-02  0.1184000E+00
        -11   -1    0    0    0    0  0.00000000000E+00  0.00000000000E+00  0.45593999997E+02  0.45594000000E+02  0.51100000000E-03 0. -1.
         11   -1    0    0    0    0 -0.00000000000E+00 -0.00000000000E+00 -0.45593999997E+02  0.45594000000E+02  0.51100000000E-03 0.  1.
         23    2    1    2    0    0 -0.71054273576E-14  0.00000000000E+00  0.00000000000E+00  0.91188000000E+02  0.91188000000E+02 0.  0.
    9900012    2    3    3    0    0 -0.32604517868E+02 -0.12628957237E+02  0.25711437022E+02  0.47787272587E+02  0.20000007031E+02 0.  0.
        -12    1    3    3    0    0  0.32604517868E+02  0.12628957237E+02 -0.25711437022E+02  0.43400727413E+02  0.00000000000E+00 0.  1.
         11    1    4    4    0    0 -0.86721519524E+01 -0.54835240392E+01  0.13088146466E+02  0.16630539184E+02  0.51100000000E-03 0. -1.
        -11    1    4    4    0    0 -0.25701478636E+02 -0.61183483679E+01  0.11409269830E+02  0.28777971248E+02  0.51100000000E-03 0.  1.
        -12    1    4    4    0    0  0.17691127208E+01 -0.10270848295E+01  0.12140207270E+01  0.23787621553E+01  0.00000000000E+00 0.  1.
</event>
<event>
 8    1  0.5834107E-011  0.9118800E+02  0.7816164E-02  0.1184000E+00
        -11   -1    0    0    0    0  0.00000000000E+00  0.00000000000E+00  0.45593999997E+02  0.45594000000E+02  0.51100000000E-03 0. -1.
         11   -1    0    0    0    0 -0.00000000000E+00 -0.00000000000E+00 -0.45593999997E+02  0.45594000000E+02  0.51100000000E-03 0.  1.
         23    2    1    2    0    0 -0.35527136788E-14 -0.22204460493E-15  0.14210854715E-13  0.91188000000E+02  0.91188000000E+02 0.  0.
    9900012    2    3    3    0    0 -0.20945202788E+02 -0.11077670278E+01  0.37995979039E+02  0.47787273154E+02  0.20000009619E+02 0.  0.
        -12    1    3    3    0    0  0.20945202788E+02  0.11077670278E+01 -0.37995979039E+02  0.43400726846E+02  0.00000000000E+00 0.  1.
         11    1    4    4    0    0 -0.10625176488E+02 -0.33575754018E+00  0.16770137954E+02  0.19855594571E+02  0.51100000000E-03 0. -1.
        -11    1    4    4    0    0  0.18810920984E+01  0.28431815179E+01  0.11270355148E+02  0.11774680210E+02  0.51100000000E-03 0.  1.
        -12    1    4    4    0    0 -0.12201118398E+02 -0.36151910055E+01  0.99554859372E+01  0.16156998373E+02  0.00000000000E+00 0.  1.
</event>
<event>
 8    1  0.5834107E-011  0.9118800E+02  0.7816164E-02  0.1184000E+00
        -11   -1    0    0    0    0  0.00000000000E+00  0.00000000000E+00  0.45593999997E+02  0.45594000000E+02  0.51100000000E-03 0.  1.
         11   -1    0    0    0    0 -0.00000000000E+00 -0.00000000000E+00 -0.45593999997E+02  0.45594000000E+02  0.51100000000E-03 0. -1.
         23    2    1    2    0    0 -0.44408920985E-15 -0.71054273576E-14  0.00000000000E+00  0.91188000000E+02  0.91188000000E+02 0.  0.
    9900012    2    3    3    0    0  0.83051729757E+00 -0.42724644901E+02  0.75853763038E+01  0.47787274493E+02  0.20000015723E+02 0.  0.
        -12    1    3    3    0    0 -0.83051729757E+00  0.42724644901E+02 -0.75853763038E+01  0.43400725507E+02  0.00000000000E+00 0.  1.
         11    1    4    4    0    0  0.33407081507E+01 -0.37370257877E+02  0.49519858527E+01  0.37844664999E+02  0.51100000000E-03 0. -1.
        -11    1    4    4    0    0 -0.19275120035E+00 -0.99956051504E+00 -0.25749788386E+01  0.27688969877E+01  0.51100000000E-03 0.  1.
        -12    1    4    4    0    0 -0.23174396528E+01 -0.43548265087E+01  0.52083692896E+01  0.71737125062E+01  0.00000000000E+00 0.  1.
</event>
<event>
 8    1  0.5834107E-011  0.9118800E+02  0.7816164E-02  0.1184000E+00
        -11   -1    0    0    0    0  0.00000000000E+00  0.00000000000E+00  0.45593999997E+02  0.45594000000E+02  0.51100000000E-03 0. -1.
         11   -1    0    0    0    0 -0.00000000000E+00 -0.00000000000E+00 -0.45593999997E+02  0.45594000000E+02  0.51100000000E-03 0.  1.
         23    2    1    2    0    0  0.00000000000E+00  0.17763568394E-14  0.00000000000E+00  0.91188000000E+02  0.91188000000E+02 0.  0.
    9900012    2    3    3    0    0 -0.16534974011E+01  0.87826318194E+01 -0.42470636433E+02  0.47787266891E+02  0.19999981065E+02 0.  0.
         12    1    3    3    0    0  0.16534974011E+01 -0.87826318194E+01  0.42470636433E+02  0.43400733109E+02  0.00000000000E+00 0. -1.
         11    1    4    4    0    0  0.14895626615E+00  0.45912996228E+01 -0.11817891805E+02  0.12679305469E+02  0.51100000000E-03 0. -1.
        -11    1    4    4    0    0  0.31823630910E+01  0.82747642619E+01 -0.25037572019E+02  0.26560857880E+02  0.51100000000E-03 0.  1.
         12    1    4    4    0    0 -0.49848167582E+01 -0.40834320653E+01 -0.56151726089E+01  0.85471035429E+01  0.00000000000E+00 0. -1.
</event>
<event>
 8    1  0.5834107E-011  0.9118800E+02  0.7816164E-02  0.1184000E+00
        -11   -1    0    0    0    0  0.00000000000E+00  0.00000000000E+00  0.45593999997E+02  0.45594000000E+02  0.51100000000E-03 0. -1.
         11   -1    0    0    0    0 -0.00000000000E+00 -0.00000000000E+00 -0.45593999997E+02  0.45594000000E+02  0.51100000000E-03 0.  1.
         23    2    1    2    0    0  0.00000000000E+00  0.44408920985E-15  0.00000000000E+00  0.91188000000E+02  0.91188000000E+02 0.  0.
    9900012    2    3    3    0    0  0.43319940788E+02  0.81125683386E+00  0.25195108648E+01  0.47787270254E+02  0.19999996396E+02 0.  0.
        -12    1    3    3    0    0 -0.43319940788E+02 -0.81125683386E+00 -0.25195108648E+01  0.43400729746E+02  0.00000000000E+00 0.  1.
         11    1    4    4    0    0  0.75259077267E+01  0.29348694032E+01  0.58319966618E+01  0.99631787522E+01  0.51100000000E-03 0. -1.
        -11    1    4    4    0    0  0.18802214462E+02 -0.60886035673E+01  0.12060087738E+01  0.19800222714E+02  0.51100000000E-03 0.  1.
         12    1    4    4    0    0  0.16991818599E+02  0.39649909980E+01 -0.45184945708E+01  0.18023868788E+02  0.00000000000E+00 0. -1.
</event>
<event>
 8    1  0.5834107E-011  0.9118800E+02  0.7816164E-02  0.1184000E+00
        -11   -1    0    0    0    0  0.00000000000E+00  0.00000000000E+00  0.45593999997E+02  0.45594000000E+02  0.51100000000E-03 0. -1.
         11   -1    0    0    0    0 -0.00000000000E+00 -0.00000000000E+00 -0.45593999997E+02  0.45594000000E+02  0.51100000000E-03 0.  1.
         23    2    1    2    0    0  0.00000000000E+00 -0.17763568394E-14  0.00000000000E+00  0.91188000000E+02  0.91188000000E+02 0.  0.
    9900012    2    3    3    0    0 -0.22239586576E+02 -0.14753779497E+02 -0.34224992816E+02  0.47787270124E+02  0.19999995802E+02 0.  0.
         12    1    3    3    0    0  0.22239586576E+02  0.14753779497E+02  0.34224992816E+02  0.43400729876E+02  0.00000000000E+00 0. -1.
         11    1    4    4    0    0  0.20546527934E+01 -0.27839835778E+01 -0.10653849475E+02  0.11201637003E+02  0.51100000000E-03 0. -1.
        -11    1    4    4    0    0 -0.13637245879E+02 -0.72385292373E+01 -0.17840294325E+02  0.23593365223E+02  0.51100000000E-03 0.  1.
         12    1    4    4    0    0 -0.10656993490E+02 -0.47312666819E+01 -0.57308490167E+01  0.12992267897E+02  0.00000000000E+00 0. -1.
</event>
<event>
 8    1  0.5834107E-011  0.9118800E+02  0.7816164E-02  0.1184000E+00
        -11   -1    0    0    0    0  0.00000000000E+00  0.00000000000E+00  0.45593999997E+02  0.45594000000E+02  0.51100000000E-03 0. -1.
         11   -1    0    0    0    0 -0.00000000000E+00 -0.00000000000E+00 -0.45593999997E+02  0.45594000000E+02  0.51100000000E-03 0.  1.
         23    2    1    2    0    0  0.00000000000E+00  0.00000000000E+00  0.00000000000E+00  0.91188000000E+02  0.91188000000E+02 0.  0.
    9900012    2    3    3    0    0  0.94181079642E+01  0.27749047385E+02  0.32014262202E+02  0.47787269905E+02  0.19999994806E+02 0.  0.
        -12    1    3    3    0    0 -0.94181079642E+01 -0.27749047385E+02 -0.32014262202E+02  0.43400730095E+02  0.00000000000E+00 0.  1.
         11    1    4    4    0    0  0.88040670117E+01  0.11298491499E+02  0.20496258673E+02  0.25005281961E+02  0.51100000000E-03 0. -1.
        -11    1    4    4    0    0  0.45687818740E+01  0.26324464051E+01  0.27704882900E+01  0.59564374851E+01  0.51100000000E-03 0.  1.
         12    1    4    4    0    0 -0.39547409214E+01  0.13818109481E+02  0.87475152388E+01  0.16825550459E+02  0.00000000000E+00 0. -1.
</event>
<event>
 8    1  0.5834107E-011  0.9118800E+02  0.7816164E-02  0.1184000E+00
        -11   -1    0    0    0    0  0.00000000000E+00  0.00000000000E+00  0.45593999997E+02  0.45594000000E+02  0.51100000000E-03 0. -1.
         11   -1    0    0    0    0 -0.00000000000E+00 -0.00000000000E+00 -0.45593999997E+02  0.45594000000E+02  0.51100000000E-03 0.  1.
         23    2    1    2    0    0  0.00000000000E+00  0.88817841970E-15  0.00000000000E+00  0.91188000000E+02  0.91188000000E+02 0.  0.
    9900012    2    3    3    0    0  0.22110890466E+02 -0.65431460678E+01 -0.36768451050E+02  0.47787271547E+02  0.20000002292E+02 0.  0.
         12    1    3    3    0    0 -0.22110890466E+02  0.65431460678E+01  0.36768451050E+02  0.43400728453E+02  0.00000000000E+00 0. -1.
         11    1    4    4    0    0  0.19350552765E+01  0.12966440122E+01 -0.24055828732E+01  0.33485151692E+01  0.51100000000E-03 0. -1.
        -11    1    4    4    0    0 -0.13208562067E+01 -0.47571635260E+01 -0.17123218129E+01  0.52256398827E+01  0.51100000000E-03 0.  1.
        -12    1    4    4    0    0  0.21496691396E+02 -0.30826265540E+01 -0.32650546364E+02  0.39213116495E+02  0.00000000000E+00 0.  1.
</event>
<event>
 8    1  0.5834107E-011  0.9118800E+02  0.7816164E-02  0.1184000E+00
        -11   -1    0    0    0    0  0.00000000000E+00  0.00000000000E+00  0.45593999997E+02  0.45594000000E+02  0.51100000000E-03 0. -1.
         11   -1    0    0    0    0 -0.00000000000E+00 -0.00000000000E+00 -0.45593999997E+02  0.45594000000E+02  0.51100000000E-03 0.  1.
         23    2    1    2    0    0 -0.71054273576E-14  0.00000000000E+00  0.00000000000E+00  0.91188000000E+02  0.91188000000E+02 0.  0.
    9900012    2    3    3    0    0 -0.33780236008E+02  0.19963046085E+02 -0.18547109244E+02  0.47787276330E+02  0.20000024101E+02 0.  0.
         12    1    3    3    0    0  0.33780236008E+02 -0.19963046085E+02  0.18547109244E+02  0.43400723670E+02  0.00000000000E+00 0. -1.
         11    1    4    4    0    0 -0.13026124937E+02  0.43623764073E+01 -0.56554469992E+01  0.14855784725E+02  0.51100000000E-03 0. -1.
        -11    1    4    4    0    0  0.18890374662E+01 -0.77698062453E+00 -0.22230816460E+01  0.30189822301E+01  0.51100000000E-03 0.  1.
         12    1    4    4    0    0 -0.22643148538E+02  0.16377650302E+02 -0.10668580599E+02  0.29912509375E+02  0.00000000000E+00 0. -1.
</event>
<event>
 8    1  0.9885968E-011  0.9118800E+02  0.7816164E-02  0.1184000E+00
        -11   -1    0    0    0    0  0.00000000000E+00  0.00000000000E+00  0.45593999997E+02  0.45594000000E+02  0.51100000000E-03 0. -1.
         11   -1    0    0    0    0 -0.00000000000E+00 -0.00000000000E+00 -0.45593999997E+02  0.45594000000E+02  0.51100000000E-03 0.  1.
         23    2    1    2    0    0  0.77715611724E-15  0.00000000000E+00  0.00000000000E+00  0.91188000000E+02  0.91188000000E+02 0.  0.
    9900012    2    3    3    0    0 -0.68094086378E+00  0.64159282637E+01 -0.42918491130E+02  0.47787254651E+02  0.19999925255E+02 0.  0.
         12    1    3    3    0    0  0.68094086378E+00 -0.64159282637E+01  0.42918491130E+02  0.43400745349E+02  0.00000000000E+00 0. -1.
         11    1    4    4    0    0 -0.44488981052E+01  0.53527132277E+01 -0.17556829413E+02  0.18886145519E+02  0.51100000000E-03 0. -1.
        -11    1    4    4    0    0  0.57087517216E+01  0.13326169012E+00 -0.26028933422E+02  0.26647945141E+02  0.51100000000E-03 0.  1.
         12    1    4    4    0    0 -0.19407944802E+01  0.92995334594E+00  0.66727170524E+00  0.22531639906E+01  0.00000000000E+00 0. -1.
</event>
<event>
 8    1  0.5834107E-011  0.9118800E+02  0.7816164E-02  0.1184000E+00
        -11   -1    0    0    0    0  0.00000000000E+00  0.00000000000E+00  0.45593999997E+02  0.45594000000E+02  0.51100000000E-03 0. -1.
         11   -1    0    0    0    0 -0.00000000000E+00 -0.00000000000E+00 -0.45593999997E+02  0.45594000000E+02  0.51100000000E-03 0.  1.
         23    2    1    2    0    0 -0.22204460493E-15  0.00000000000E+00  0.00000000000E+00  0.91188000000E+02  0.91188000000E+02 0.  0.
    9900012    2    3    3    0    0 -0.17705477597E+01 -0.80172621665E+01 -0.42617036892E+02  0.47787272293E+02  0.20000005694E+02 0.  0.
         12    1    3    3    0    0  0.17705477597E+01  0.80172621665E+01  0.42617036892E+02  0.43400727707E+02  0.00000000000E+00 0. -1.
         11    1    4    4    0    0  0.10327712244E+01  0.19898895749E+01 -0.44166365895E+01  0.49530754030E+01  0.51100000000E-03 0. -1.
        -11    1    4    4    0    0 -0.24997687920E+01 -0.14510015304E+02 -0.26900240022E+02  0.30666142594E+02  0.51100000000E-03 0.  1.
        -12    1    4    4    0    0 -0.30355019219E+00  0.45028635623E+01 -0.11300160281E+02  0.12168054296E+02  0.00000000000E+00 0.  1.
</event>
<event>
 8    1  0.5834107E-011  0.9118800E+02  0.7816164E-02  0.1184000E+00
        -11   -1    0    0    0    0  0.00000000000E+00  0.00000000000E+00  0.45593999997E+02  0.45594000000E+02  0.51100000000E-03 0. -1.
         11   -1    0    0    0    0 -0.00000000000E+00 -0.00000000000E+00 -0.45593999997E+02  0.45594000000E+02  0.51100000000E-03 0.  1.
         23    2    1    2    0    0  0.00000000000E+00 -0.17763568394E-14  0.00000000000E+00  0.91188000000E+02  0.91188000000E+02 0.  0.
    9900012    2    3    3    0    0 -0.34967904013E+02 -0.15327302626E+02  0.20638394627E+02  0.47787264411E+02  0.19999969756E+02 0.  0.
        -12    1    3    3    0    0  0.34967904013E+02  0.15327302626E+02 -0.20638394627E+02  0.43400735589E+02  0.00000000000E+00 0.  1.
         11    1    4    4    0    0 -0.35997283614E+02 -0.11094905407E+02  0.18027154924E+02  0.41759785303E+02  0.51100000000E-03 0. -1.
        -11    1    4    4    0    0  0.45674188689E+00 -0.14259590609E+01  0.27807004247E+01  0.31582063751E+01  0.51100000000E-03 0.  1.
         12    1    4    4    0    0  0.57263771427E+00 -0.28064381574E+01 -0.16946072105E+00  0.28692727335E+01  0.00000000000E+00 0. -1.
</event>
<event>
 8    1  0.5834107E-011  0.9118800E+02  0.7816164E-02  0.1184000E+00
        -11   -1    0    0    0    0  0.00000000000E+00  0.00000000000E+00  0.45593999997E+02  0.45594000000E+02  0.51100000000E-03 0. -1.
         11   -1    0    0    0    0 -0.00000000000E+00 -0.00000000000E+00 -0.45593999997E+02  0.45594000000E+02  0.51100000000E-03 0.  1.
         23    2    1    2    0    0  0.00000000000E+00  0.00000000000E+00  0.00000000000E+00  0.91188000000E+02  0.91188000000E+02 0.  0.
    9900012    2    3    3    0    0  0.17644662517E+02 -0.24362231647E+02  0.31285315499E+02  0.47787269453E+02  0.19999992743E+02 0.  0.
        -12    1    3    3    0    0 -0.17644662517E+02  0.24362231647E+02 -0.31285315499E+02  0.43400730547E+02  0.00000000000E+00 0.  1.
         11    1    4    4    0    0  0.65570836519E+01 -0.18404574126E+02  0.12092760151E+02  0.22977348478E+02  0.51100000000E-03 0. -1.
        -11    1    4    4    0    0  0.13328696898E+01 -0.56680402256E+01  0.56145079170E+01  0.80886291187E+01  0.51100000000E-03 0.  1.
        -12    1    4    4    0    0  0.97547091756E+01 -0.28961729566E+00  0.13578047431E+02  0.16721291856E+02  0.00000000000E+00 0.  1.
</event>
<event>
 8    1  0.5834107E-011  0.9118800E+02  0.7816164E-02  0.1184000E+00
        -11   -1    0    0    0    0  0.00000000000E+00  0.00000000000E+00  0.45593999997E+02  0.45594000000E+02  0.51100000000E-03 0. -1.
         11   -1    0    0    0    0 -0.00000000000E+00 -0.00000000000E+00 -0.45593999997E+02  0.45594000000E+02  0.51100000000E-03 0.  1.
         23    2    1    2    0    0  0.17763568394E-14  0.35527136788E-14  0.00000000000E+00  0.91188000000E+02  0.91188000000E+02 0.  0.
    9900012    2    3    3    0    0 -0.10869604524E+02  0.26585805213E+02  0.32537206961E+02  0.47787272147E+02  0.20000005028E+02 0.  0.
        -12    1    3    3    0    0  0.10869604524E+02 -0.26585805213E+02 -0.32537206961E+02  0.43400727853E+02  0.00000000000E+00 0.  1.
         11    1    4    4    0    0  0.10404405753E+00  0.11521669656E+02  0.15122492747E+02  0.19011824846E+02  0.51100000000E-03 0. -1.
        -11    1    4    4    0    0 -0.11341785497E+02  0.17195398158E+02  0.14708875300E+02  0.25311436722E+02  0.51100000000E-03 0.  1.
         12    1    4    4    0    0  0.36813691536E+00 -0.21312626015E+01  0.27058389146E+01  0.34640105797E+01  0.00000000000E+00 0. -1.
</event>
<event>
 8    1  0.5834107E-011  0.9118800E+02  0.7816164E-02  0.1184000E+00
        -11   -1    0    0    0    0  0.00000000000E+00  0.00000000000E+00  0.45593999997E+02  0.45594000000E+02  0.51100000000E-03 0. -1.
         11   -1    0    0    0    0 -0.00000000000E+00 -0.00000000000E+00 -0.45593999997E+02  0.45594000000E+02  0.51100000000E-03 0.  1.
         23    2    1    2    0    0  0.00000000000E+00  0.00000000000E+00  0.00000000000E+00  0.91188000000E+02  0.91188000000E+02 0.  0.
    9900012    2    3    3    0    0 -0.69654884401E+01 -0.52959695880E+01 -0.42509504622E+02  0.47787270671E+02  0.19999998298E+02 0.  0.
         12    1    3    3    0    0  0.69654884401E+01  0.52959695880E+01  0.42509504622E+02  0.43400729329E+02  0.00000000000E+00 0. -1.
         11    1    4    4    0    0 -0.41108736394E+01 -0.14349567667E+01 -0.38644254777E+01  0.58216979942E+01  0.51100000000E-03 0. -1.
        -11    1    4    4    0    0  0.10772593837E+01  0.45583825711E+01 -0.25139205502E+02  0.25571839844E+02  0.51100000000E-03 0.  1.
         12    1    4    4    0    0 -0.39318741844E+01 -0.84193953924E+01 -0.13505873642E+02  0.16393732833E+02  0.00000000000E+00 0. -1.
</event>
<event>
 8    1  0.5834107E-011  0.9118800E+02  0.7816164E-02  0.1184000E+00
        -11   -1    0    0    0    0  0.00000000000E+00  0.00000000000E+00  0.45593999997E+02  0.45594000000E+02  0.51100000000E-03 0. -1.
         11   -1    0    0    0    0 -0.00000000000E+00 -0.00000000000E+00 -0.45593999997E+02  0.45594000000E+02  0.51100000000E-03 0.  1.
         23    2    1    2    0    0  0.35527136788E-14  0.00000000000E+00  0.00000000000E+00  0.91188000000E+02  0.91188000000E+02 0.  0.
    9900012    2    3    3    0    0 -0.19196225909E+02 -0.90493798463E+01  0.37858115853E+02  0.47787270735E+02  0.19999998591E+02 0.  0.
        -12    1    3    3    0    0  0.19196225909E+02  0.90493798463E+01 -0.37858115853E+02  0.43400729265E+02  0.00000000000E+00 0.  1.
         11    1    4    4    0    0 -0.59010573199E+01  0.86251195127E+00  0.59208080574E+01  0.84037118389E+01  0.51100000000E-03 0. -1.
        -11    1    4    4    0    0 -0.94141492670E+01 -0.14267266057E+02  0.25467749208E+02  0.30672256799E+02  0.51100000000E-03 0.  1.
        -12    1    4    4    0    0 -0.38810193220E+01  0.43553742593E+01  0.64695585875E+01  0.87113020975E+01  0.00000000000E+00 0.  1.
</event>
<event>
 8    1  0.5834107E-011  0.9118800E+02  0.7816164E-02  0.1184000E+00
        -11   -1    0    0    0    0  0.00000000000E+00  0.00000000000E+00  0.45593999997E+02  0.45594000000E+02  0.51100000000E-03 0. -1.
         11   -1    0    0    0    0 -0.00000000000E+00 -0.00000000000E+00 -0.45593999997E+02  0.45594000000E+02  0.51100000000E-03 0.  1.
         23    2    1    2    0    0 -0.17763568394E-14  0.35527136788E-14  0.00000000000E+00  0.91188000000E+02  0.91188000000E+02 0.  0.
    9900012    2    3    3    0    0  0.14587639856E+02  0.19748347267E+02  0.35788642394E+02  0.47787269813E+02  0.19999994386E+02 0.  0.
        -12    1    3    3    0    0 -0.14587639856E+02 -0.19748347267E+02 -0.35788642394E+02  0.43400730187E+02  0.00000000000E+00 0.  1.
         11    1    4    4    0    0  0.84122597308E+01  0.98665797890E+01  0.75812099279E+01  0.15019662271E+02  0.51100000000E-03 0. -1.
        -11    1    4    4    0    0  0.77455717352E+01  0.10640363250E+02  0.28089422136E+02  0.31019781556E+02  0.51100000000E-03 0.  1.
         12    1    4    4    0    0 -0.15701916104E+01 -0.75859577224E+00  0.11801033050E+00  0.17478259859E+01  0.00000000000E+00 0. -1.
</event>
<event>
 8    1  0.5834107E-011  0.9118800E+02  0.7816164E-02  0.1184000E+00
        -11   -1    0    0    0    0  0.00000000000E+00  0.00000000000E+00  0.45593999997E+02  0.45594000000E+02  0.51100000000E-03 0. -1.
         11   -1    0    0    0    0 -0.00000000000E+00 -0.00000000000E+00 -0.45593999997E+02  0.45594000000E+02  0.51100000000E-03 0.  1.
         23    2    1    2    0    0  0.00000000000E+00  0.00000000000E+00  0.35527136788E-14  0.91188000000E+02  0.91188000000E+02 0.  0.
    9900012    2    3    3    0    0  0.20472063942E+02  0.29651907205E+02  0.24192615467E+02  0.47787266757E+02  0.19999980450E+02 0.  0.
        -12    1    3    3    0    0 -0.20472063942E+02 -0.29651907205E+02 -0.24192615467E+02  0.43400733243E+02  0.00000000000E+00 0.  1.
         11    1    4    4    0    0  0.10067554796E+02  0.12050246926E+02  0.80896135188E+01  0.17663690376E+02  0.51100000000E-03 0.  1.
        -11    1    4    4    0    0  0.72283350488E+00 -0.26426860329E+01  0.32954379979E+01  0.42855792611E+01  0.51100000000E-03 0. -1.
         12    1    4    4    0    0  0.96816756409E+01  0.20244346312E+02  0.12807563950E+02  0.25837997119E+02  0.00000000000E+00 0. -1.
</event>
<event>
 8    1  0.5834107E-011  0.9118800E+02  0.7816164E-02  0.1184000E+00
        -11   -1    0    0    0    0  0.00000000000E+00  0.00000000000E+00  0.45593999997E+02  0.45594000000E+02  0.51100000000E-03 0. -1.
         11   -1    0    0    0    0 -0.00000000000E+00 -0.00000000000E+00 -0.45593999997E+02  0.45594000000E+02  0.51100000000E-03 0.  1.
         23    2    1    2    0    0  0.17763568394E-14 -0.13322676296E-14  0.71054273576E-14  0.91188000000E+02  0.91188000000E+02 0.  0.
    9900012    2    3    3    0    0  0.15609951581E+02  0.36581427999E+01  0.40330770264E+02  0.47787266974E+02  0.19999981442E+02 0.  0.
        -12    1    3    3    0    0 -0.15609951581E+02 -0.36581427999E+01 -0.40330770264E+02  0.43400733026E+02  0.00000000000E+00 0.  1.
         11    1    4    4    0    0  0.93810465563E+01  0.10038938797E+02  0.33880802018E+02  0.36560813343E+02  0.51100000000E-03 0. -1.
        -11    1    4    4    0    0  0.21380927918E+01 -0.21152763418E+01  0.95263189430E+00  0.31548918485E+01  0.51100000000E-03 0.  1.
        -12    1    4    4    0    0  0.40908122324E+01 -0.42655196549E+01  0.54973363512E+01  0.80715617823E+01  0.00000000000E+00 0.  1.
</event>
<event>
 8    1  0.5834107E-011  0.9118800E+02  0.7816164E-02  0.1184000E+00
        -11   -1    0    0    0    0  0.00000000000E+00  0.00000000000E+00  0.45593999997E+02  0.45594000000E+02  0.51100000000E-03 0. -1.
         11   -1    0    0    0    0 -0.00000000000E+00 -0.00000000000E+00 -0.45593999997E+02  0.45594000000E+02  0.51100000000E-03 0.  1.
         23    2    1    2    0    0 -0.44408920985E-15  0.00000000000E+00  0.35527136788E-14  0.91188000000E+02  0.91188000000E+02 0.  0.
    9900012    2    3    3    0    0 -0.37317165385E+01 -0.30096559491E+02  0.31046651412E+02  0.47787272294E+02  0.20000005696E+02 0.  0.
        -12    1    3    3    0    0  0.37317165385E+01  0.30096559491E+02 -0.31046651412E+02  0.43400727706E+02  0.00000000000E+00 0.  1.
         11    1    4    4    0    0  0.50771911959E+01 -0.70164919021E+01  0.15020167023E+02  0.17338236552E+02  0.51100000000E-03 0. -1.
        -11    1    4    4    0    0 -0.94019771786E+00 -0.13060614238E+02  0.71245369914E+01  0.14907133984E+02  0.51100000000E-03 0.  1.
         12    1    4    4    0    0 -0.78687100165E+01 -0.10019453351E+02  0.89019473975E+01  0.15541901758E+02  0.00000000000E+00 0. -1.
</event>
<event>
 8    1  0.5834107E-011  0.9118800E+02  0.7816164E-02  0.1184000E+00
        -11   -1    0    0    0    0  0.00000000000E+00  0.00000000000E+00  0.45593999997E+02  0.45594000000E+02  0.51100000000E-03 0. -1.
         11   -1    0    0    0    0 -0.00000000000E+00 -0.00000000000E+00 -0.45593999997E+02  0.45594000000E+02  0.51100000000E-03 0.  1.
         23    2    1    2    0    0  0.00000000000E+00  0.10658141036E-13  0.71054273576E-14  0.91188000000E+02  0.91188000000E+02 0.  0.
    9900012    2    3    3    0    0 -0.21383281852E+02 -0.28241284986E+02 -0.25076062128E+02  0.47787264842E+02  0.19999971721E+02 0.  0.
         12    1    3    3    0    0  0.21383281852E+02  0.28241284986E+02  0.25076062128E+02  0.43400735158E+02  0.00000000000E+00 0. -1.
         11    1    4    4    0    0 -0.87836810234E+01 -0.48652281623E+01 -0.74772346405E+01  0.12519286542E+02  0.51100000000E-03 0. -1.
        -11    1    4    4    0    0 -0.47380996788E+01 -0.18956777312E+02 -0.17527453052E+02  0.26249201995E+02  0.51100000000E-03 0.  1.
         12    1    4    4    0    0 -0.78615011497E+01 -0.44192795119E+01 -0.71374435319E-01  0.90187763051E+01  0.00000000000E+00 0. -1.
</event>
<event>
 8    1  0.5834107E-011  0.9118800E+02  0.7816164E-02  0.1184000E+00
        -11   -1    0    0    0    0  0.00000000000E+00  0.00000000000E+00  0.45593999997E+02  0.45594000000E+02  0.51100000000E-03 0.  1.
         11   -1    0    0    0    0 -0.00000000000E+00 -0.00000000000E+00 -0.45593999997E+02  0.45594000000E+02  0.51100000000E-03 0. -1.
         23    2    1    2    0    0  0.00000000000E+00  0.17763568394E-14  0.00000000000E+00  0.91188000000E+02  0.91188000000E+02 0.  0.
    9900012    2    3    3    0    0  0.40105382324E+02 -0.93217191544E+01  0.13721804469E+02  0.47787262020E+02  0.19999958852E+02 0.  0.
        -12    1    3    3    0    0 -0.40105382324E+02  0.93217191544E+01 -0.13721804469E+02  0.43400737980E+02  0.00000000000E+00 0.  1.
         11    1    4    4    0    0  0.14653051671E+02 -0.10943098911E+02  0.91040176840E+00  0.18310984919E+02  0.51100000000E-03 0. -1.
        -11    1    4    4    0    0  0.64711478997E+01 -0.23550636561E+01  0.15791934235E+01  0.70651208125E+01  0.51100000000E-03 0.  1.
        -12    1    4    4    0    0  0.18981182753E+02  0.39764434129E+01  0.11232209278E+02  0.22411156288E+02  0.00000000000E+00 0.  1.
</event>
<event>
 8    1  0.5834107E-011  0.9118800E+02  0.7816164E-02  0.1184000E+00
        -11   -1    0    0    0    0  0.00000000000E+00  0.00000000000E+00  0.45593999997E+02  0.45594000000E+02  0.51100000000E-03 0. -1.
         11   -1    0    0    0    0 -0.00000000000E+00 -0.00000000000E+00 -0.45593999997E+02  0.45594000000E+02  0.51100000000E-03 0.  1.
         23    2    1    2    0    0  0.00000000000E+00  0.00000000000E+00  0.00000000000E+00  0.91188000000E+02  0.91188000000E+02 0.  0.
    9900012    2    3    3    0    0  0.17466120522E+02 -0.21963688004E+02 -0.33108223389E+02  0.47787269444E+02  0.19999992702E+02 0.  0.
         12    1    3    3    0    0 -0.17466120522E+02  0.21963688004E+02  0.33108223389E+02  0.43400730556E+02  0.00000000000E+00 0. -1.
         11    1    4    4    0    0  0.84120561438E+01 -0.12384016403E+02 -0.12631660230E+02  0.19587888893E+02  0.51100000000E-03 0. -1.
        -11    1    4    4    0    0  0.12816347539E+02 -0.76716050694E+01 -0.17646711426E+02  0.23119660745E+02  0.51100000000E-03 0.  1.
         12    1    4    4    0    0 -0.37622831611E+01 -0.19080665315E+01 -0.28298517336E+01  0.50797198059E+01  0.00000000000E+00 0. -1.
</event>
<event>
 8    1  0.5834107E-011  0.9118800E+02  0.7816164E-02  0.1184000E+00
        -11   -1    0    0    0    0  0.00000000000E+00  0.00000000000E+00  0.45593999997E+02  0.45594000000E+02  0.51100000000E-03 0. -1.
         11   -1    0    0    0    0 -0.00000000000E+00 -0.00000000000E+00 -0.45593999997E+02  0.45594000000E+02  0.51100000000E-03 0.  1.
         23    2    1    2    0    0  0.00000000000E+00  0.17763568394E-14  0.00000000000E+00  0.91188000000E+02  0.91188000000E+02 0.  0.
    9900012    2    3    3    0    0  0.43619397515E+01 -0.14864082642E+02  0.40542020724E+02  0.47787275172E+02  0.20000018820E+02 0.  0.
        -12    1    3    3    0    0 -0.43619397515E+01  0.14864082642E+02 -0.40542020724E+02  0.43400724828E+02  0.00000000000E+00 0.  1.
         11    1    4    4    0    0  0.70928544978E+01 -0.13682279167E+02  0.15467648898E+02  0.21834869150E+02  0.51100000000E-03 0. -1.
        -11    1    4    4    0    0  0.12792918392E+01  0.13630019127E+01  0.89477802518E+01  0.91409591138E+01  0.51100000000E-03 0.  1.
         12    1    4    4    0    0 -0.40102065855E+01 -0.25448053877E+01  0.16126591575E+02  0.16811446908E+02  0.00000000000E+00 0. -1.
</event>
<event>
 8    1  0.5834107E-011  0.9118800E+02  0.7816164E-02  0.1184000E+00
        -11   -1    0    0    0    0  0.00000000000E+00  0.00000000000E+00  0.45593999997E+02  0.45594000000E+02  0.51100000000E-03 0. -1.
         11   -1    0    0    0    0 -0.00000000000E+00 -0.00000000000E+00 -0.45593999997E+02  0.45594000000E+02  0.51100000000E-03 0.  1.
         23    2    1    2    0    0  0.00000000000E+00  0.35527136788E-14  0.00000000000E+00  0.91188000000E+02  0.91188000000E+02 0.  0.
    9900012    2    3    3    0    0 -0.16865820540E+02 -0.29428249088E+02  0.27076659796E+02  0.47787271290E+02  0.20000001119E+02 0.  0.
        -12    1    3    3    0    0  0.16865820540E+02  0.29428249088E+02 -0.27076659796E+02  0.43400728710E+02  0.00000000000E+00 0.  1.
         11    1    4    4    0    0 -0.69439047895E+00 -0.62733751428E+01 -0.12080562242E+01  0.64262597147E+01  0.51100000000E-03 0. -1.
        -11    1    4    4    0    0  0.10609888174E+01 -0.46700968182E+01  0.32424195607E+01  0.57834925807E+01  0.51100000000E-03 0.  1.
        -12    1    4    4    0    0 -0.17232418878E+02 -0.18484777127E+02  0.25042296459E+02  0.35577518994E+02  0.00000000000E+00 0.  1.
</event>
<event>
 8    1  0.5834107E-011  0.9118800E+02  0.7816164E-02  0.1184000E+00
        -11   -1    0    0    0    0  0.00000000000E+00  0.00000000000E+00  0.45593999997E+02  0.45594000000E+02  0.51100000000E-03 0. -1.
         11   -1    0    0    0    0 -0.00000000000E+00 -0.00000000000E+00 -0.45593999997E+02  0.45594000000E+02  0.51100000000E-03 0.  1.
         23    2    1    2    0    0  0.00000000000E+00  0.35527136788E-14  0.00000000000E+00  0.91188000000E+02  0.91188000000E+02 0.  0.
    9900012    2    3    3    0    0 -0.97027367005E+01 -0.28898031717E+02  0.30893136058E+02  0.47787248945E+02  0.19999899241E+02 0.  0.
        -12    1    3    3    0    0  0.97027367005E+01  0.28898031717E+02 -0.30893136058E+02  0.43400751055E+02  0.00000000000E+00 0.  1.
         11    1    4    4    0    0  0.48286303694E+01 -0.11228197383E+02  0.76470247774E+01  0.14417526692E+02  0.51100000000E-03 0. -1.
        -11    1    4    4    0    0 -0.54211690132E+01 -0.25478803100E+01  0.37443462245E+01  0.70640566570E+01  0.51100000000E-03 0.  1.
        -12    1    4    4    0    0 -0.91101980567E+01 -0.15121954024E+02  0.19501765057E+02  0.26305665596E+02  0.00000000000E+00 0.  1.
</event>
<event>
 8    1  0.5834107E-011  0.9118800E+02  0.7816164E-02  0.1184000E+00
        -11   -1    0    0    0    0  0.00000000000E+00  0.00000000000E+00  0.45593999997E+02  0.45594000000E+02  0.51100000000E-03 0.  1.
         11   -1    0    0    0    0 -0.00000000000E+00 -0.00000000000E+00 -0.45593999997E+02  0.45594000000E+02  0.51100000000E-03 0. -1.
         23    2    1    2    0    0  0.00000000000E+00  0.35527136788E-14  0.00000000000E+00  0.91188000000E+02  0.91188000000E+02 0.  0.
    9900012    2    3    3    0    0 -0.30448191343E+02  0.30115470923E+02 -0.70419577225E+01  0.47787272891E+02  0.20000008421E+02 0.  0.
         12    1    3    3    0    0  0.30448191343E+02 -0.30115470923E+02  0.70419577225E+01  0.43400727109E+02  0.00000000000E+00 0. -1.
         11    1    4    4    0    0  0.48487138952E+00  0.62288522747E+01 -0.25028313247E+01  0.67303689219E+01  0.51100000000E-03 0. -1.
        -11    1    4    4    0    0 -0.12068118353E+02  0.13119107335E+02  0.29755898829E+01  0.18072204992E+02  0.51100000000E-03 0.  1.
         12    1    4    4    0    0 -0.18864944379E+02  0.10767511314E+02 -0.75147162806E+01  0.22984698978E+02  0.00000000000E+00 0. -1.
</event>
<event>
 8    1  0.5834107E-011  0.9118800E+02  0.7816164E-02  0.1184000E+00
        -11   -1    0    0    0    0  0.00000000000E+00  0.00000000000E+00  0.45593999997E+02  0.45594000000E+02  0.51100000000E-03 0. -1.
         11   -1    0    0    0    0 -0.00000000000E+00 -0.00000000000E+00 -0.45593999997E+02  0.45594000000E+02  0.51100000000E-03 0.  1.
         23    2    1    2    0    0  0.00000000000E+00  0.00000000000E+00  0.00000000000E+00  0.91188000000E+02  0.91188000000E+02 0.  0.
    9900012    2    3    3    0    0 -0.26975092459E+02 -0.25256602935E+02 -0.22761192267E+02  0.47787268689E+02  0.19999989258E+02 0.  0.
         12    1    3    3    0    0  0.26975092459E+02  0.25256602935E+02  0.22761192267E+02  0.43400731311E+02  0.00000000000E+00 0. -1.
         11    1    4    4    0    0  0.79111029971E+00 -0.23417098164E+01 -0.32260724604E+01  0.40641117297E+01  0.51100000000E-03 0. -1.
        -11    1    4    4    0    0 -0.40877625796E+01 -0.11652904887E+02 -0.29455797141E+01  0.12695528163E+02  0.51100000000E-03 0.  1.
        -12    1    4    4    0    0 -0.23678440179E+02 -0.11261988231E+02 -0.16589540093E+02  0.31027628796E+02  0.00000000000E+00 0.  1.
</event>
<event>
 8    1  0.5834107E-011  0.9118800E+02  0.7816164E-02  0.1184000E+00
        -11   -1    0    0    0    0  0.00000000000E+00  0.00000000000E+00  0.45593999997E+02  0.45594000000E+02  0.51100000000E-03 0. -1.
         11   -1    0    0    0    0 -0.00000000000E+00 -0.00000000000E+00 -0.45593999997E+02  0.45594000000E+02  0.51100000000E-03 0.  1.
         23    2    1    2    0    0  0.00000000000E+00  0.00000000000E+00 -0.35527136788E-14  0.91188000000E+02  0.91188000000E+02 0.  0.
    9900012    2    3    3    0    0  0.19556745739E+02  0.24765994216E+02 -0.29796014497E+02  0.47787271281E+02  0.20000001079E+02 0.  0.
         12    1    3    3    0    0 -0.19556745739E+02 -0.24765994216E+02  0.29796014497E+02  0.43400728719E+02  0.00000000000E+00 0. -1.
         11    1    4    4    0    0 -0.90069837815E+00  0.13410821958E+02 -0.13934426441E+02  0.19360517649E+02  0.51100000000E-03 0. -1.
        -11    1    4    4    0    0  0.11737973584E+02  0.65894318033E+01 -0.10895819472E+02  0.17318184592E+02  0.51100000000E-03 0.  1.
         12    1    4    4    0    0  0.87194705335E+01  0.47657404550E+01 -0.49657685845E+01  0.11108569039E+02  0.00000000000E+00 0. -1.
</event>
<event>
 8    1  0.5834107E-011  0.9118800E+02  0.7816164E-02  0.1184000E+00
        -11   -1    0    0    0    0  0.00000000000E+00  0.00000000000E+00  0.45593999997E+02  0.45594000000E+02  0.51100000000E-03 0. -1.
         11   -1    0    0    0    0 -0.00000000000E+00 -0.00000000000E+00 -0.45593999997E+02  0.45594000000E+02  0.51100000000E-03 0.  1.
         23    2    1    2    0    0  0.00000000000E+00 -0.35527136788E-14  0.00000000000E+00  0.91188000000E+02  0.91188000000E+02 0.  0.
    9900012    2    3    3    0    0 -0.24559125239E+02 -0.20580071765E+02  0.29273417459E+02  0.47787274706E+02  0.20000016694E+02 0.  0.
        -12    1    3    3    0    0  0.24559125239E+02  0.20580071765E+02 -0.29273417459E+02  0.43400725294E+02  0.00000000000E+00 0.  1.
         11    1    4    4    0    0 -0.13254298644E+02 -0.11058982329E+02  0.13807632784E+02  0.22104937142E+02  0.51100000000E-03 0. -1.
        -11    1    4    4    0    0 -0.68055736135E+01  0.27691943348E+01  0.65790613922E+01  0.98624702046E+01  0.51100000000E-03 0.  1.
        -12    1    4    4    0    0 -0.44992529809E+01 -0.12290283771E+02  0.88867232827E+01  0.15819867359E+02  0.00000000000E+00 0.  1.
</event>
<event>
 8    1  0.5834107E-011  0.9118800E+02  0.7816164E-02  0.1184000E+00
        -11   -1    0    0    0    0  0.00000000000E+00  0.00000000000E+00  0.45593999997E+02  0.45594000000E+02  0.51100000000E-03 0. -1.
         11   -1    0    0    0    0 -0.00000000000E+00 -0.00000000000E+00 -0.45593999997E+02  0.45594000000E+02  0.51100000000E-03 0.  1.
         23    2    1    2    0    0 -0.35527136788E-14  0.17763568394E-14  0.00000000000E+00  0.91188000000E+02  0.91188000000E+02 0.  0.
    9900012    2    3    3    0    0  0.23494219237E+02 -0.14088660843E+02 -0.33662355171E+02  0.47787275840E+02  0.20000021866E+02 0.  0.
         12    1    3    3    0    0 -0.23494219237E+02  0.14088660843E+02  0.33662355171E+02  0.43400724160E+02  0.00000000000E+00 0. -1.
         11    1    4    4    0    0  0.53795459845E+00 -0.62917862485E+01 -0.47451548912E+01  0.78988900834E+01  0.51100000000E-03 0. -1.
        -11    1    4    4    0    0  0.17634751916E+02 -0.92368988538E+01 -0.15021135222E+02  0.24938710456E+02  0.51100000000E-03 0.  1.
         12    1    4    4    0    0  0.53215127232E+01  0.14400242591E+01 -0.13896065058E+02  0.14949675301E+02  0.00000000000E+00 0. -1.
</event>
<event>
 8    1  0.5834107E-011  0.9118800E+02  0.7816164E-02  0.1184000E+00
        -11   -1    0    0    0    0  0.00000000000E+00  0.00000000000E+00  0.45593999997E+02  0.45594000000E+02  0.51100000000E-03 0. -1.
         11   -1    0    0    0    0 -0.00000000000E+00 -0.00000000000E+00 -0.45593999997E+02  0.45594000000E+02  0.51100000000E-03 0.  1.
         23    2    1    2    0    0  0.35527136788E-14  0.00000000000E+00  0.00000000000E+00  0.91188000000E+02  0.91188000000E+02 0.  0.
    9900012    2    3    3    0    0  0.24055976066E+02 -0.35924778475E+02  0.37870816809E+01  0.47787289399E+02  0.20000083686E+02 0.  0.
        -12    1    3    3    0    0 -0.24055976066E+02  0.35924778475E+02 -0.37870816809E+01  0.43400710601E+02  0.00000000000E+00 0.  1.
         11    1    4    4    0    0  0.14516059066E+02 -0.21894287440E+02  0.61406836106E+01  0.26977468168E+02  0.51100000000E-03 0. -1.
        -11    1    4    4    0    0  0.66355795702E+01 -0.14651595003E+02 -0.49879647805E+01  0.16839832103E+02  0.51100000000E-03 0.  1.
        -12    1    4    4    0    0  0.29043374299E+01  0.62110396682E+00  0.26343628508E+01  0.39699891276E+01  0.00000000000E+00 0.  1.
</event>
<event>
 8    1  0.5834107E-011  0.9118800E+02  0.7816164E-02  0.1184000E+00
        -11   -1    0    0    0    0  0.00000000000E+00  0.00000000000E+00  0.45593999997E+02  0.45594000000E+02  0.51100000000E-03 0. -1.
         11   -1    0    0    0    0 -0.00000000000E+00 -0.00000000000E+00 -0.45593999997E+02  0.45594000000E+02  0.51100000000E-03 0.  1.
         23    2    1    2    0    0  0.00000000000E+00  0.00000000000E+00 -0.71054273576E-14  0.91188000000E+02  0.91188000000E+02 0.  0.
    9900012    2    3    3    0    0  0.54440163150E+01  0.18163333309E+02 -0.39039443487E+02  0.47787284127E+02  0.20000059648E+02 0.  0.
         12    1    3    3    0    0 -0.54440163150E+01 -0.18163333309E+02  0.39039443487E+02  0.43400715873E+02  0.00000000000E+00 0. -1.
         11    1    4    4    0    0 -0.37079146740E+01  0.35657686785E+01 -0.12681353538E+02  0.13685030702E+02  0.51100000000E-03 0. -1.
        -11    1    4    4    0    0  0.33377092995E+01  0.17005026918E+01  0.46735434118E+00  0.37749745846E+01  0.51100000000E-03 0.  1.
        -12    1    4    4    0    0  0.58142216894E+01  0.12897061939E+02 -0.26825444290E+02  0.30327278841E+02  0.00000000000E+00 0.  1.
</event>
<event>
 8    1  0.5834107E-011  0.9118800E+02  0.7816164E-02  0.1184000E+00
        -11   -1    0    0    0    0  0.00000000000E+00  0.00000000000E+00  0.45593999997E+02  0.45594000000E+02  0.51100000000E-03 0. -1.
         11   -1    0    0    0    0 -0.00000000000E+00 -0.00000000000E+00 -0.45593999997E+02  0.45594000000E+02  0.51100000000E-03 0.  1.
         23    2    1    2    0    0  0.00000000000E+00  0.00000000000E+00  0.00000000000E+00  0.91188000000E+02  0.91188000000E+02 0.  0.
    9900012    2    3    3    0    0  0.41565706446E+02  0.11705535483E+02 -0.43469178080E+01  0.47787271806E+02  0.20000003472E+02 0.  0.
         12    1    3    3    0    0 -0.41565706446E+02 -0.11705535483E+02  0.43469178080E+01  0.43400728194E+02  0.00000000000E+00 0. -1.
         11    1    4    4    0    0  0.44110237419E+01  0.56103247870E+01  0.64627902625E+00  0.71659299123E+01  0.51100000000E-03 0. -1.
        -11    1    4    4    0    0  0.24227727915E+02 -0.30994783507E+01 -0.23321777101E+01  0.24536271500E+02  0.51100000000E-03 0.  1.
         12    1    4    4    0    0  0.12926954790E+02  0.91946890472E+01 -0.26610191241E+01  0.16085070394E+02  0.00000000000E+00 0. -1.
</event>
<event>
 8    1  0.5834107E-011  0.9118800E+02  0.7816164E-02  0.1184000E+00
        -11   -1    0    0    0    0  0.00000000000E+00  0.00000000000E+00  0.45593999997E+02  0.45594000000E+02  0.51100000000E-03 0. -1.
         11   -1    0    0    0    0 -0.00000000000E+00 -0.00000000000E+00 -0.45593999997E+02  0.45594000000E+02  0.51100000000E-03 0.  1.
         23    2    1    2    0    0  0.00000000000E+00 -0.35527136788E-14  0.71054273576E-14  0.91188000000E+02  0.91188000000E+02 0.  0.
    9900012    2    3    3    0    0  0.11960845232E+02  0.24547028050E+02 -0.33734333459E+02  0.47787266612E+02  0.19999979789E+02 0.  0.
         12    1    3    3    0    0 -0.11960845232E+02 -0.24547028050E+02  0.33734333459E+02  0.43400733388E+02  0.00000000000E+00 0. -1.
         11    1    4    4    0    0  0.32235275970E+00 -0.24723368100E+00 -0.63071958729E+01  0.63202654877E+01  0.51100000000E-03 0. -1.
        -11    1    4    4    0    0  0.12113374550E+02  0.14456480257E+02 -0.10390010060E+02  0.21533136644E+02  0.51100000000E-03 0.  1.
         12    1    4    4    0    0 -0.47488207804E+00  0.10337781474E+02 -0.17037127526E+02  0.19933864480E+02  0.00000000000E+00 0. -1.
</event>
<event>
 8    1  0.5834107E-011  0.9118800E+02  0.7816164E-02  0.1184000E+00
        -11   -1    0    0    0    0  0.00000000000E+00  0.00000000000E+00  0.45593999997E+02  0.45594000000E+02  0.51100000000E-03 0. -1.
         11   -1    0    0    0    0 -0.00000000000E+00 -0.00000000000E+00 -0.45593999997E+02  0.45594000000E+02  0.51100000000E-03 0.  1.
         23    2    1    2    0    0 -0.35527136788E-14  0.00000000000E+00  0.71054273576E-14  0.91188000000E+02  0.91188000000E+02 0.  0.
    9900012    2    3    3    0    0  0.17691740154E+02  0.18201464586E+02 -0.35204151816E+02  0.47787270883E+02  0.19999999266E+02 0.  0.
         12    1    3    3    0    0 -0.17691740154E+02 -0.18201464586E+02  0.35204151816E+02  0.43400729117E+02  0.00000000000E+00 0. -1.
         11    1    4    4    0    0 -0.31283240112E+01  0.12050819294E+01 -0.50927071546E+01  0.60970730683E+01  0.51100000000E-03 0. -1.
        -11    1    4    4    0    0  0.10145861198E+02  0.24199217174E+01 -0.14175468476E+02  0.17599387129E+02  0.51100000000E-03 0.  1.
        -12    1    4    4    0    0  0.10674202967E+02  0.14576460939E+02 -0.15935976186E+02  0.24090810686E+02  0.00000000000E+00 0.  1.
</event>
<event>
 8    1  0.5834107E-011  0.9118800E+02  0.7816164E-02  0.1184000E+00
        -11   -1    0    0    0    0  0.00000000000E+00  0.00000000000E+00  0.45593999997E+02  0.45594000000E+02  0.51100000000E-03 0. -1.
         11   -1    0    0    0    0 -0.00000000000E+00 -0.00000000000E+00 -0.45593999997E+02  0.45594000000E+02  0.51100000000E-03 0.  1.
         23    2    1    2    0    0  0.00000000000E+00  0.00000000000E+00  0.00000000000E+00  0.91188000000E+02  0.91188000000E+02 0.  0.
    9900012    2    3    3    0    0 -0.18224001982E+02  0.40931033630E+01  0.39175955830E+02  0.47787271220E+02  0.20000000803E+02 0.  0.
        -12    1    3    3    0    0  0.18224001982E+02 -0.40931033630E+01 -0.39175955830E+02  0.43400728780E+02  0.00000000000E+00 0.  1.
         11    1    4    4    0    0 -0.13739140880E+02  0.61166823206E+00  0.17465274414E+02  0.22230023408E+02  0.51100000000E-03 0. -1.
        -11    1    4    4    0    0 -0.13099928380E+01  0.15000907857E+01 -0.12118063435E+01  0.23312718580E+01  0.51100000000E-03 0.  1.
        -12    1    4    4    0    0 -0.31748682649E+01  0.19813443452E+01  0.22922487760E+02  0.23225975954E+02  0.00000000000E+00 0.  1.
</event>
<event>
 8    1  0.5834107E-011  0.9118800E+02  0.7816164E-02  0.1184000E+00
        -11   -1    0    0    0    0  0.00000000000E+00  0.00000000000E+00  0.45593999997E+02  0.45594000000E+02  0.51100000000E-03 0. -1.
         11   -1    0    0    0    0 -0.00000000000E+00 -0.00000000000E+00 -0.45593999997E+02  0.45594000000E+02  0.51100000000E-03 0.  1.
         23    2    1    2    0    0  0.35527136788E-14  0.00000000000E+00  0.00000000000E+00  0.91188000000E+02  0.91188000000E+02 0.  0.
    9900012    2    3    3    0    0  0.14010109580E+02 -0.35744016023E+02  0.20241184298E+02  0.47787269664E+02  0.19999993707E+02 0.  0.
        -12    1    3    3    0    0 -0.14010109580E+02  0.35744016023E+02 -0.20241184298E+02  0.43400730336E+02  0.00000000000E+00 0.  1.
         11    1    4    4    0    0  0.50804117190E+01 -0.41430788405E+01  0.94776078198E+01  0.11523920156E+02  0.51100000000E-03 0. -1.
        -11    1    4    4    0    0  0.96819294396E+01 -0.27602744098E+02  0.12537416764E+02  0.31825116791E+02  0.51100000000E-03 0.  1.
        -12    1    4    4    0    0 -0.75223157867E+00 -0.39981930850E+01 -0.17738402857E+01  0.44382327172E+01  0.00000000000E+00 0.  1.
</event>
<event>
 8    1  0.5834107E-011  0.9118800E+02  0.7816164E-02  0.1184000E+00
        -11   -1    0    0    0    0  0.00000000000E+00  0.00000000000E+00  0.45593999997E+02  0.45594000000E+02  0.51100000000E-03 0.  1.
         11   -1    0    0    0    0 -0.00000000000E+00 -0.00000000000E+00 -0.45593999997E+02  0.45594000000E+02  0.51100000000E-03 0. -1.
         23    2    1    2    0    0  0.71054273576E-14  0.00000000000E+00  0.55511151231E-15  0.91188000000E+02  0.91188000000E+02 0.  0.
    9900012    2    3    3    0    0  0.41233759752E+02  0.13523414068E+02  0.71801375807E+00  0.47787294763E+02  0.20000108143E+02 0.  0.
        -12    1    3    3    0    0 -0.41233759752E+02 -0.13523414068E+02 -0.71801375807E+00  0.43400705237E+02  0.00000000000E+00 0.  1.
         11    1    4    4    0    0  0.64970427224E+01  0.38517242192E+00 -0.31318309360E+01  0.72227617436E+01  0.51100000000E-03 0. -1.
        -11    1    4    4    0    0  0.32329247376E+02  0.16206878953E+02  0.49761169192E+01  0.36504861336E+02  0.51100000000E-03 0.  1.
        -12    1    4    4    0    0  0.24074696530E+01 -0.30686373074E+01 -0.11262722251E+01  0.40596716837E+01  0.00000000000E+00 0.  1.
</event>
<event>
 8    1  0.5834107E-011  0.9118800E+02  0.7816164E-02  0.1184000E+00
        -11   -1    0    0    0    0  0.00000000000E+00  0.00000000000E+00  0.45593999997E+02  0.45594000000E+02  0.51100000000E-03 0. -1.
         11   -1    0    0    0    0 -0.00000000000E+00 -0.00000000000E+00 -0.45593999997E+02  0.45594000000E+02  0.51100000000E-03 0.  1.
         23    2    1    2    0    0  0.00000000000E+00  0.00000000000E+00  0.00000000000E+00  0.91188000000E+02  0.91188000000E+02 0.  0.
    9900012    2    3    3    0    0 -0.58589545009E+01  0.87689032983E+01 -0.42099904162E+02  0.47787274852E+02  0.20000017361E+02 0.  0.
         12    1    3    3    0    0  0.58589545009E+01 -0.87689032983E+01  0.42099904162E+02  0.43400725148E+02  0.00000000000E+00 0. -1.
         11    1    4    4    0    0 -0.36622940736E+01  0.49197550002E+01 -0.28500365623E+01  0.67630685204E+01  0.51100000000E-03 0. -1.
        -11    1    4    4    0    0  0.11477612934E+00 -0.38698144196E+01 -0.12165811105E+02  0.12766972911E+02  0.51100000000E-03 0.  1.
        -12    1    4    4    0    0 -0.23114365567E+01  0.77189627177E+01 -0.27084056495E+02  0.28257233421E+02  0.00000000000E+00 0.  1.
</event>
<event>
 8    1  0.5834107E-011  0.9118800E+02  0.7816164E-02  0.1184000E+00
        -11   -1    0    0    0    0  0.00000000000E+00  0.00000000000E+00  0.45593999997E+02  0.45594000000E+02  0.51100000000E-03 0. -1.
         11   -1    0    0    0    0 -0.00000000000E+00 -0.00000000000E+00 -0.45593999997E+02  0.45594000000E+02  0.51100000000E-03 0.  1.
         23    2    1    2    0    0  0.00000000000E+00  0.35527136788E-14  0.00000000000E+00  0.91188000000E+02  0.91188000000E+02 0.  0.
    9900012    2    3    3    0    0 -0.14578648875E+02  0.25853663064E+02 -0.31665037006E+02  0.47787268837E+02  0.19999989937E+02 0.  0.
         12    1    3    3    0    0  0.14578648875E+02 -0.25853663064E+02  0.31665037006E+02  0.43400731163E+02  0.00000000000E+00 0. -1.
         11    1    4    4    0    0 -0.69896145039E+01  0.70265807282E+01 -0.19688736424E+01  0.10104652954E+02  0.51100000000E-03 0. -1.
        -11    1    4    4    0    0 -0.61735672853E+01  0.22708721239E+01 -0.86859730257E+01  0.10895683590E+02  0.51100000000E-03 0.  1.
         12    1    4    4    0    0 -0.14154670860E+01  0.16556210212E+02 -0.21010190338E+02  0.26786932293E+02  0.00000000000E+00 0. -1.
</event>
<event>
 8    1  0.5834107E-011  0.9118800E+02  0.7816164E-02  0.1184000E+00
        -11   -1    0    0    0    0  0.00000000000E+00  0.00000000000E+00  0.45593999997E+02  0.45594000000E+02  0.51100000000E-03 0. -1.
         11   -1    0    0    0    0 -0.00000000000E+00 -0.00000000000E+00 -0.45593999997E+02  0.45594000000E+02  0.51100000000E-03 0.  1.
         23    2    1    2    0    0  0.00000000000E+00  0.44408920985E-15  0.00000000000E+00  0.91188000000E+02  0.91188000000E+02 0.  0.
    9900012    2    3    3    0    0 -0.12347741788E+02  0.13795232707E+01 -0.41584290582E+02  0.47787273797E+02  0.20000012551E+02 0.  0.
         12    1    3    3    0    0  0.12347741788E+02 -0.13795232707E+01  0.41584290582E+02  0.43400726203E+02  0.00000000000E+00 0. -1.
         11    1    4    4    0    0 -0.36353520665E+01  0.24229869944E+01 -0.19844077604E+01  0.47983877546E+01  0.51100000000E-03 0. -1.
        -11    1    4    4    0    0 -0.49789574930E+01  0.24235240718E+01 -0.35432154095E+01  0.65740293841E+01  0.51100000000E-03 0.  1.
         12    1    4    4    0    0 -0.37334322284E+01 -0.34669877954E+01 -0.36056667412E+02  0.36414856658E+02  0.00000000000E+00 0. -1.
</event>
<event>
 8    1  0.5834107E-011  0.9118800E+02  0.7816164E-02  0.1184000E+00
        -11   -1    0    0    0    0  0.00000000000E+00  0.00000000000E+00  0.45593999997E+02  0.45594000000E+02  0.51100000000E-03 0. -1.
         11   -1    0    0    0    0 -0.00000000000E+00 -0.00000000000E+00 -0.45593999997E+02  0.45594000000E+02  0.51100000000E-03 0.  1.
         23    2    1    2    0    0  0.00000000000E+00  0.00000000000E+00 -0.71054273576E-14  0.91188000000E+02  0.91188000000E+02 0.  0.
    9900012    2    3    3    0    0  0.11548678063E+02 -0.19694732600E+02  0.36910283308E+02  0.47787268773E+02  0.19999989643E+02 0.  0.
        -12    1    3    3    0    0 -0.11548678063E+02  0.19694732600E+02 -0.36910283308E+02  0.43400731227E+02  0.00000000000E+00 0.  1.
         11    1    4    4    0    0  0.11019072623E+02 -0.17285558160E+02  0.30199323522E+02  0.36499446897E+02  0.51100000000E-03 0. -1.
        -11    1    4    4    0    0  0.28906504374E+00  0.88808795719E+00  0.77625868909E+01  0.78185685595E+01  0.51100000000E-03 0.  1.
         12    1    4    4    0    0  0.24054039630E+00 -0.32972623976E+01 -0.10516271053E+01  0.34692533159E+01  0.00000000000E+00 0. -1.
</event>
<event>
 8    1  0.5834107E-011  0.9118800E+02  0.7816164E-02  0.1184000E+00
        -11   -1    0    0    0    0  0.00000000000E+00  0.00000000000E+00  0.45593999997E+02  0.45594000000E+02  0.51100000000E-03 0. -1.
         11   -1    0    0    0    0 -0.00000000000E+00 -0.00000000000E+00 -0.45593999997E+02  0.45594000000E+02  0.51100000000E-03 0.  1.
         23    2    1    2    0    0  0.00000000000E+00 -0.71054273576E-14  0.35527136788E-14  0.91188000000E+02  0.91188000000E+02 0.  0.
    9900012    2    3    3    0    0 -0.81158286379E+00  0.38649079392E+02 -0.19728484679E+02  0.47787272906E+02  0.20000008486E+02 0.  0.
         12    1    3    3    0    0  0.81158286379E+00 -0.38649079392E+02  0.19728484679E+02  0.43400727094E+02  0.00000000000E+00 0. -1.
         11    1    4    4    0    0  0.48401269213E+00  0.14277017470E+01  0.26360496063E+01  0.30366689567E+01  0.51100000000E-03 0. -1.
        -11    1    4    4    0    0  0.27520661595E+01  0.27368061104E+02 -0.12428476061E+02  0.30183632223E+02  0.51100000000E-03 0.  1.
         12    1    4    4    0    0 -0.40476617154E+01  0.98533165411E+01 -0.99360582243E+01  0.14566971726E+02  0.00000000000E+00 0. -1.
</event>
<event>
 8    1  0.1131599E-010  0.9118800E+02  0.7816164E-02  0.1184000E+00
        -11   -1    0    0    0    0  0.00000000000E+00  0.00000000000E+00  0.45593999997E+02  0.45594000000E+02  0.51100000000E-03 0. -1.
         11   -1    0    0    0    0 -0.00000000000E+00 -0.00000000000E+00 -0.45593999997E+02  0.45594000000E+02  0.51100000000E-03 0.  1.
         23    2    1    2    0    0  0.00000000000E+00  0.88817841970E-15  0.00000000000E+00  0.91188000000E+02  0.91188000000E+02 0.  0.
    9900012    2    3    3    0    0 -0.16049080830E+02 -0.57595647894E+01 -0.39910872342E+02  0.47787270592E+02  0.19999997938E+02 0.  0.
         12    1    3    3    0    0  0.16049080830E+02  0.57595647894E+01  0.39910872342E+02  0.43400729408E+02  0.00000000000E+00 0. -1.
         11    1    4    4    0    0 -0.13009304278E+02  0.18455040460E+00 -0.18903219650E+02  0.22947936074E+02  0.51100000000E-03 0. -1.
        -11    1    4    4    0    0 -0.36542178556E+01 -0.54172762464E+01 -0.22342387241E+02  0.23278368885E+02  0.51100000000E-03 0.  1.
         12    1    4    4    0    0  0.61444130450E+00 -0.52683894766E+00  0.13347345485E+01  0.15609656333E+01  0.00000000000E+00 0. -1.
</event>
<event>
 8    1  0.5834107E-011  0.9118800E+02  0.7816164E-02  0.1184000E+00
        -11   -1    0    0    0    0  0.00000000000E+00  0.00000000000E+00  0.45593999997E+02  0.45594000000E+02  0.51100000000E-03 0. -1.
         11   -1    0    0    0    0 -0.00000000000E+00 -0.00000000000E+00 -0.45593999997E+02  0.45594000000E+02  0.51100000000E-03 0.  1.
         23    2    1    2    0    0  0.00000000000E+00  0.17763568394E-14  0.00000000000E+00  0.91188000000E+02  0.91188000000E+02 0.  0.
    9900012    2    3    3    0    0  0.23669144301E+02 -0.10790933116E+02 -0.34741193582E+02  0.47787272345E+02  0.20000005932E+02 0.  0.
         12    1    3    3    0    0 -0.23669144301E+02  0.10790933116E+02  0.34741193582E+02  0.43400727655E+02  0.00000000000E+00 0. -1.
         11    1    4    4    0    0  0.22691705717E+01  0.10590608097E+01 -0.17770197347E+02  0.17945769944E+02  0.51100000000E-03 0. -1.
        -11    1    4    4    0    0  0.56368427283E+01 -0.40546238402E+01 -0.43100356939E+01  0.81725380619E+01  0.51100000000E-03 0.  1.
         12    1    4    4    0    0  0.15763131001E+02 -0.77953700854E+01 -0.12660960541E+02  0.21668964339E+02  0.00000000000E+00 0. -1.
</event>
<event>
 8    1  0.5834107E-011  0.9118800E+02  0.7816164E-02  0.1184000E+00
        -11   -1    0    0    0    0  0.00000000000E+00  0.00000000000E+00  0.45593999997E+02  0.45594000000E+02  0.51100000000E-03 0.  1.
         11   -1    0    0    0    0 -0.00000000000E+00 -0.00000000000E+00 -0.45593999997E+02  0.45594000000E+02  0.51100000000E-03 0. -1.
         23    2    1    2    0    0  0.71054273576E-14 -0.17763568394E-14  0.35527136788E-14  0.91188000000E+02  0.91188000000E+02 0.  0.
    9900012    2    3    3    0    0  0.32035739200E+02 -0.86243623723E+01  0.27981342127E+02  0.47787265909E+02  0.19999976585E+02 0.  0.
        -12    1    3    3    0    0 -0.32035739200E+02  0.86243623723E+01 -0.27981342127E+02  0.43400734091E+02  0.00000000000E+00 0.  1.
         11    1    4    4    0    0  0.12493776950E+02 -0.44923165424E+01  0.65927647928E+01  0.14823627028E+02  0.51100000000E-03 0. -1.
        -11    1    4    4    0    0  0.13804017104E+02 -0.58934304872E+01  0.55106207271E+01  0.15989069772E+02  0.51100000000E-03 0.  1.
        -12    1    4    4    0    0  0.57379451456E+01  0.17613846573E+01  0.15877956607E+02  0.16974569109E+02  0.00000000000E+00 0.  1.
</event>
<event>
 8    1  0.5834107E-011  0.9118800E+02  0.7816164E-02  0.1184000E+00
        -11   -1    0    0    0    0  0.00000000000E+00  0.00000000000E+00  0.45593999997E+02  0.45594000000E+02  0.51100000000E-03 0. -1.
         11   -1    0    0    0    0 -0.00000000000E+00 -0.00000000000E+00 -0.45593999997E+02  0.45594000000E+02  0.51100000000E-03 0.  1.
         23    2    1    2    0    0 -0.35527136788E-14 -0.71054273576E-14  0.35527136788E-14  0.91188000000E+02  0.91188000000E+02 0.  0.
    9900012    2    3    3    0    0  0.93401812767E+01  0.33590817561E+02 -0.25846529628E+02  0.47787249955E+02  0.19999903844E+02 0.  0.
         12    1    3    3    0    0 -0.93401812767E+01 -0.33590817561E+02  0.25846529628E+02  0.43400750045E+02  0.00000000000E+00 0. -1.
         11    1    4    4    0    0 -0.11087696590E+01  0.10329686387E+02 -0.11032956033E+02  0.15154468321E+02  0.51100000000E-03 0. -1.
        -11    1    4    4    0    0  0.91500336524E+01  0.44869210125E+01 -0.41592656363E+01  0.11007046239E+02  0.51100000000E-03 0.  1.
         12    1    4    4    0    0  0.12989172832E+01  0.18774210161E+02 -0.10654307959E+02  0.21625735395E+02  0.00000000000E+00 0. -1.
</event>
<event>
 8    1  0.5834107E-011  0.9118800E+02  0.7816164E-02  0.1184000E+00
        -11   -1    0    0    0    0  0.00000000000E+00  0.00000000000E+00  0.45593999997E+02  0.45594000000E+02  0.51100000000E-03 0. -1.
         11   -1    0    0    0    0 -0.00000000000E+00 -0.00000000000E+00 -0.45593999997E+02  0.45594000000E+02  0.51100000000E-03 0.  1.
         23    2    1    2    0    0  0.00000000000E+00  0.00000000000E+00  0.00000000000E+00  0.91188000000E+02  0.91188000000E+02 0.  0.
    9900012    2    3    3    0    0 -0.34954171343E+02  0.41355049303E+01 -0.25391470105E+02  0.47787271326E+02  0.20000001286E+02 0.  0.
         12    1    3    3    0    0  0.34954171343E+02 -0.41355049303E+01  0.25391470105E+02  0.43400728674E+02  0.00000000000E+00 0. -1.
         11    1    4    4    0    0 -0.15927521423E+02 -0.27271781455E+01 -0.22130635105E+01  0.16310152963E+02  0.51100000000E-03 0. -1.
        -11    1    4    4    0    0 -0.15421981038E+02  0.54060422301E+01 -0.14035825388E+02  0.21542218696E+02  0.51100000000E-03 0.  1.
         12    1    4    4    0    0 -0.36046688822E+01  0.14566408457E+01 -0.91425812061E+01  0.99348996680E+01  0.00000000000E+00 0. -1.
</event>
<event>
 8    1  0.5834107E-011  0.9118800E+02  0.7816164E-02  0.1184000E+00
        -11   -1    0    0    0    0  0.00000000000E+00  0.00000000000E+00  0.45593999997E+02  0.45594000000E+02  0.51100000000E-03 0. -1.
         11   -1    0    0    0    0 -0.00000000000E+00 -0.00000000000E+00 -0.45593999997E+02  0.45594000000E+02  0.51100000000E-03 0.  1.
         23    2    1    2    0    0  0.17763568394E-14  0.17763568394E-14  0.00000000000E+00  0.91188000000E+02  0.91188000000E+02 0.  0.
    9900012    2    3    3    0    0 -0.10348267696E+02 -0.12759605141E+02  0.40171248214E+02  0.47787270159E+02  0.19999995964E+02 0.  0.
        -12    1    3    3    0    0  0.10348267696E+02  0.12759605141E+02 -0.40171248214E+02  0.43400729841E+02  0.00000000000E+00 0.  1.
         11    1    4    4    0    0 -0.84778039942E+01 -0.10619338009E+02  0.27813579463E+02  0.30955430915E+02  0.51100000000E-03 0. -1.
        -11    1    4    4    0    0 -0.57916208568E+01  0.10837000572E+01  0.42457699631E+01  0.72624954942E+01  0.51100000000E-03 0.  1.
        -12    1    4    4    0    0  0.39211571547E+01 -0.32239671890E+01  0.81118987874E+01  0.95693437500E+01  0.00000000000E+00 0.  1.
</event>
<event>
 8    1  0.5834107E-011  0.9118800E+02  0.7816164E-02  0.1184000E+00
        -11   -1    0    0    0    0  0.00000000000E+00  0.00000000000E+00  0.45593999997E+02  0.45594000000E+02  0.51100000000E-03 0. -1.
         11   -1    0    0    0    0 -0.00000000000E+00 -0.00000000000E+00 -0.45593999997E+02  0.45594000000E+02  0.51100000000E-03 0.  1.
         23    2    1    2    0    0  0.00000000000E+00 -0.35527136788E-14  0.35527136788E-14  0.91188000000E+02  0.91188000000E+02 0.  0.
    9900012    2    3    3    0    0 -0.35525369919E+02 -0.16586077997E+02  0.18613795003E+02  0.47787271255E+02  0.20000000959E+02 0.  0.
        -12    1    3    3    0    0  0.35525369919E+02  0.16586077997E+02 -0.18613795003E+02  0.43400728745E+02  0.00000000000E+00 0.  1.
         11    1    4    4    0    0 -0.10605838757E+02 -0.86232723024E+01  0.78765908780E+01  0.15776099805E+02  0.51100000000E-03 0. -1.
        -11    1    4    4    0    0 -0.79793115262E+01 -0.10214424945E+02  0.33089245822E+01  0.13377326771E+02  0.51100000000E-03 0.  1.
        -12    1    4    4    0    0 -0.16940219636E+02  0.22516192496E+01  0.74282795423E+01  0.18633844679E+02  0.00000000000E+00 0.  1.
</event>
<event>
 8    1  0.5834107E-011  0.9118800E+02  0.7816164E-02  0.1184000E+00
        -11   -1    0    0    0    0  0.00000000000E+00  0.00000000000E+00  0.45593999997E+02  0.45594000000E+02  0.51100000000E-03 0. -1.
         11   -1    0    0    0    0 -0.00000000000E+00 -0.00000000000E+00 -0.45593999997E+02  0.45594000000E+02  0.51100000000E-03 0.  1.
         23    2    1    2    0    0  0.00000000000E+00 -0.35527136788E-14  0.00000000000E+00  0.91188000000E+02  0.91188000000E+02 0.  0.
    9900012    2    3    3    0    0  0.14529173893E+02  0.17807769066E+02  0.36815887690E+02  0.47787272823E+02  0.20000008110E+02 0.  0.
        -12    1    3    3    0    0 -0.14529173893E+02 -0.17807769066E+02 -0.36815887690E+02  0.43400727177E+02  0.00000000000E+00 0.  1.
         11    1    4    4    0    0  0.57989864626E+01  0.54303666245E+01  0.28541916166E+01  0.84417732565E+01  0.51100000000E-03 0. -1.
        -11    1    4    4    0    0  0.13124811506E+01  0.15587860735E+01  0.20314328655E+02  0.20416277078E+02  0.51100000000E-03 0.  1.
         12    1    4    4    0    0  0.74177062796E+01  0.10818616368E+02  0.13647367418E+02  0.18929222488E+02  0.00000000000E+00 0. -1.
</event>
<event>
 8    1  0.5834107E-011  0.9118800E+02  0.7816164E-02  0.1184000E+00
        -11   -1    0    0    0    0  0.00000000000E+00  0.00000000000E+00  0.45593999997E+02  0.45594000000E+02  0.51100000000E-03 0. -1.
         11   -1    0    0    0    0 -0.00000000000E+00 -0.00000000000E+00 -0.45593999997E+02  0.45594000000E+02  0.51100000000E-03 0.  1.
         23    2    1    2    0    0  0.00000000000E+00  0.00000000000E+00 -0.35527136788E-14  0.91188000000E+02  0.91188000000E+02 0.  0.
    9900012    2    3    3    0    0  0.23986135968E+02 -0.27794885389E+02 -0.23145917989E+02  0.47787263923E+02  0.19999967531E+02 0.  0.
         12    1    3    3    0    0 -0.23986135968E+02  0.27794885389E+02  0.23145917989E+02  0.43400736077E+02  0.00000000000E+00 0. -1.
         11    1    4    4    0    0  0.81219357616E+01 -0.21306786293E+02 -0.66406138153E+01  0.23749583886E+02  0.51100000000E-03 0. -1.
        -11    1    4    4    0    0  0.42736562666E+01 -0.29078363387E+00 -0.33098084430E+01  0.54132730577E+01  0.51100000000E-03 0.  1.
        -12    1    4    4    0    0  0.11590543940E+02 -0.61973154625E+01 -0.13195495730E+02  0.18624406980E+02  0.00000000000E+00 0.  1.
</event>
<event>
 8    1  0.5834107E-011  0.9118800E+02  0.7816164E-02  0.1184000E+00
        -11   -1    0    0    0    0  0.00000000000E+00  0.00000000000E+00  0.45593999997E+02  0.45594000000E+02  0.51100000000E-03 0. -1.
         11   -1    0    0    0    0 -0.00000000000E+00 -0.00000000000E+00 -0.45593999997E+02  0.45594000000E+02  0.51100000000E-03 0.  1.
         23    2    1    2    0    0  0.00000000000E+00  0.88817841970E-15  0.00000000000E+00  0.91188000000E+02  0.91188000000E+02 0.  0.
    9900012    2    3    3    0    0  0.34216567354E+02 -0.30386602367E+01  0.26525768523E+02  0.47787270360E+02  0.19999996881E+02 0.  0.
        -12    1    3    3    0    0 -0.34216567354E+02  0.30386602367E+01 -0.26525768523E+02  0.43400729640E+02  0.00000000000E+00 0.  1.
         11    1    4    4    0    0  0.13301812678E+02 -0.99325808649E+00  0.14864610985E+01  0.13421413823E+02  0.51100000000E-03 0. -1.
        -11    1    4    4    0    0  0.82691314641E+01 -0.60648896105E+01  0.10323959927E+02  0.14551479993E+02  0.51100000000E-03 0.  1.
        -12    1    4    4    0    0  0.12645623211E+02  0.40194874603E+01  0.14715347498E+02  0.19814376544E+02  0.00000000000E+00 0.  1.
</event>
<event>
 8    1  0.5834107E-011  0.9118800E+02  0.7816164E-02  0.1184000E+00
        -11   -1    0    0    0    0  0.00000000000E+00  0.00000000000E+00  0.45593999997E+02  0.45594000000E+02  0.51100000000E-03 0. -1.
         11   -1    0    0    0    0 -0.00000000000E+00 -0.00000000000E+00 -0.45593999997E+02  0.45594000000E+02  0.51100000000E-03 0.  1.
         23    2    1    2    0    0  0.00000000000E+00 -0.49960036108E-15  0.00000000000E+00  0.91188000000E+02  0.91188000000E+02 0.  0.
    9900012    2    3    3    0    0  0.26434312865E+01  0.40194041264E+00  0.43318287532E+02  0.47787270516E+02  0.19999997590E+02 0.  0.
        -12    1    3    3    0    0 -0.26434312865E+01 -0.40194041264E+00 -0.43318287532E+02  0.43400729484E+02  0.00000000000E+00 0.  1.
         11    1    4    4    0    0  0.28987394579E+01  0.18149965221E+01  0.39079590327E+02  0.39228959752E+02  0.51100000000E-03 0. -1.
        -11    1    4    4    0    0 -0.64598422228E+00  0.29657427353E+01  0.16033839834E+01  0.34327490510E+01  0.51100000000E-03 0.  1.
         12    1    4    4    0    0  0.39067605085E+00 -0.43787988448E+01  0.26353132212E+01  0.51255617130E+01  0.00000000000E+00 0. -1.
</event>
<event>
 8    1  0.5834107E-011  0.9118800E+02  0.7816164E-02  0.1184000E+00
        -11   -1    0    0    0    0  0.00000000000E+00  0.00000000000E+00  0.45593999997E+02  0.45594000000E+02  0.51100000000E-03 0. -1.
         11   -1    0    0    0    0 -0.00000000000E+00 -0.00000000000E+00 -0.45593999997E+02  0.45594000000E+02  0.51100000000E-03 0.  1.
         23    2    1    2    0    0 -0.35527136788E-14  0.35527136788E-14  0.44408920985E-15  0.91188000000E+02  0.91188000000E+02 0.  0.
    9900012    2    3    3    0    0  0.30537106964E+02 -0.30696917105E+02  0.29677310202E+01  0.47787273636E+02  0.20000011816E+02 0.  0.
        -12    1    3    3    0    0 -0.30537106964E+02  0.30696917105E+02 -0.29677310202E+01  0.43400726364E+02  0.00000000000E+00 0.  1.
         11    1    4    4    0    0  0.35457810867E+01 -0.12649348108E+02 -0.75721931276E+00  0.13158721534E+02  0.51100000000E-03 0. -1.
        -11    1    4    4    0    0  0.57931840857E+01 -0.22963178893E+01  0.52878122755E+01  0.81728218274E+01  0.51100000000E-03 0.  1.
        -12    1    4    4    0    0  0.21198141792E+02 -0.15751251108E+02 -0.15628619426E+01  0.26455730274E+02  0.00000000000E+00 0.  1.
</event>
<event>
 8    1  0.5834107E-011  0.9118800E+02  0.7816164E-02  0.1184000E+00
        -11   -1    0    0    0    0  0.00000000000E+00  0.00000000000E+00  0.45593999997E+02  0.45594000000E+02  0.51100000000E-03 0. -1.
         11   -1    0    0    0    0 -0.00000000000E+00 -0.00000000000E+00 -0.45593999997E+02  0.45594000000E+02  0.51100000000E-03 0.  1.
         23    2    1    2    0    0  0.00000000000E+00  0.00000000000E+00  0.00000000000E+00  0.91188000000E+02  0.91188000000E+02 0.  0.
    9900012    2    3    3    0    0 -0.10091732474E+02  0.35088776155E+02 -0.23463973791E+02  0.47787270255E+02  0.19999996401E+02 0.  0.
         12    1    3    3    0    0  0.10091732474E+02 -0.35088776155E+02  0.23463973791E+02  0.43400729745E+02  0.00000000000E+00 0. -1.
         11    1    4    4    0    0  0.19341366344E+01  0.11060945327E+02 -0.12368633109E+02  0.16705342897E+02  0.51100000000E-03 0. -1.
        -11    1    4    4    0    0 -0.41648232262E+01  0.18637636550E+02 -0.49068659194E+01  0.19717621107E+02  0.51100000000E-03 0.  1.
        -12    1    4    4    0    0 -0.78610458817E+01  0.53901942771E+01 -0.61884747618E+01  0.11364306251E+02  0.00000000000E+00 0.  1.
</event>
<event>
 8    1  0.5834107E-011  0.9118800E+02  0.7816164E-02  0.1184000E+00
        -11   -1    0    0    0    0  0.00000000000E+00  0.00000000000E+00  0.45593999997E+02  0.45594000000E+02  0.51100000000E-03 0. -1.
         11   -1    0    0    0    0 -0.00000000000E+00 -0.00000000000E+00 -0.45593999997E+02  0.45594000000E+02  0.51100000000E-03 0.  1.
         23    2    1    2    0    0 -0.71054273576E-14  0.00000000000E+00  0.00000000000E+00  0.91188000000E+02  0.91188000000E+02 0.  0.
    9900012    2    3    3    0    0  0.39722909006E+02  0.23357868104E+01  0.17327961024E+02  0.47787266905E+02  0.19999981128E+02 0.  0.
        -12    1    3    3    0    0 -0.39722909006E+02 -0.23357868104E+01 -0.17327961024E+02  0.43400733095E+02  0.00000000000E+00 0.  1.
         11    1    4    4    0    0  0.12333997422E+02 -0.31745959442E-01  0.12481343957E+02  0.17547434213E+02  0.51100000000E-03 0. -1.
        -11    1    4    4    0    0  0.19815018487E+02  0.67617733823E+01  0.48147823345E+01  0.21483450983E+02  0.51100000000E-03 0.  1.
         12    1    4    4    0    0  0.75738930968E+01 -0.43942406126E+01  0.31834732150E-01  0.87563817101E+01  0.00000000000E+00 0. -1.
</event>
<event>
 8    1  0.5834107E-011  0.9118800E+02  0.7816164E-02  0.1184000E+00
        -11   -1    0    0    0    0  0.00000000000E+00  0.00000000000E+00  0.45593999997E+02  0.45594000000E+02  0.51100000000E-03 0. -1.
         11   -1    0    0    0    0 -0.00000000000E+00 -0.00000000000E+00 -0.45593999997E+02  0.45594000000E+02  0.51100000000E-03 0.  1.
         23    2    1    2    0    0  0.00000000000E+00  0.00000000000E+00  0.00000000000E+00  0.91188000000E+02  0.91188000000E+02 0.  0.
    9900012    2    3    3    0    0  0.27314663983E+02 -0.26126328919E+02 -0.21329497264E+02  0.47787269766E+02  0.19999994171E+02 0.  0.
         12    1    3    3    0    0 -0.27314663983E+02  0.26126328919E+02  0.21329497264E+02  0.43400730234E+02  0.00000000000E+00 0. -1.
         11    1    4    4    0    0  0.20649455800E+02 -0.17188313181E+02 -0.77034657325E+01  0.27949624674E+02  0.51100000000E-03 0. -1.
        -11    1    4    4    0    0  0.28892603226E+01  0.15183777151E+01 -0.25217395200E+01  0.41246171416E+01  0.51100000000E-03 0.  1.
        -12    1    4    4    0    0  0.37759478603E+01 -0.10456393454E+02 -0.11104292011E+02  0.15713027950E+02  0.00000000000E+00 0.  1.
</event>
<event>
 8    1  0.5834107E-011  0.9118800E+02  0.7816164E-02  0.1184000E+00
        -11   -1    0    0    0    0  0.00000000000E+00  0.00000000000E+00  0.45593999997E+02  0.45594000000E+02  0.51100000000E-03 0. -1.
         11   -1    0    0    0    0 -0.00000000000E+00 -0.00000000000E+00 -0.45593999997E+02  0.45594000000E+02  0.51100000000E-03 0.  1.
         23    2    1    2    0    0  0.00000000000E+00 -0.17763568394E-14  0.00000000000E+00  0.91188000000E+02  0.91188000000E+02 0.  0.
    9900012    2    3    3    0    0 -0.53193775051E+01 -0.69048332408E+01 -0.42516445115E+02  0.47787301799E+02  0.20000140223E+02 0.  0.
         12    1    3    3    0    0  0.53193775051E+01  0.69048332408E+01  0.42516445115E+02  0.43400698201E+02  0.00000000000E+00 0. -1.
         11    1    4    4    0    0  0.14008669133E+01 -0.15196071334E+01 -0.14648633422E+02  0.14793718104E+02  0.51100000000E-03 0. -1.
        -11    1    4    4    0    0  0.41681721452E+00 -0.47956019578E+01 -0.24696819121E+02  0.25161566121E+02  0.51100000000E-03 0.  1.
         12    1    4    4    0    0 -0.71370616329E+01 -0.58962414960E+00 -0.31709925722E+01  0.78320175742E+01  0.00000000000E+00 0. -1.
</event>
<event>
 8    1  0.5834107E-011  0.9118800E+02  0.7816164E-02  0.1184000E+00
        -11   -1    0    0    0    0  0.00000000000E+00  0.00000000000E+00  0.45593999997E+02  0.45594000000E+02  0.51100000000E-03 0.  1.
         11   -1    0    0    0    0 -0.00000000000E+00 -0.00000000000E+00 -0.45593999997E+02  0.45594000000E+02  0.51100000000E-03 0. -1.
         23    2    1    2    0    0  0.00000000000E+00 -0.35527136788E-14 -0.88817841970E-15  0.91188000000E+02  0.91188000000E+02 0.  0.
    9900012    2    3    3    0    0 -0.33137451558E+02 -0.27640152307E+02 -0.46427042804E+01  0.47787269380E+02  0.19999992413E+02 0.  0.
         12    1    3    3    0    0  0.33137451558E+02  0.27640152307E+02  0.46427042804E+01  0.43400730620E+02  0.00000000000E+00 0. -1.
         11    1    4    4    0    0 -0.46299955084E+01  0.93506671294E+00 -0.11668937589E+00  0.47249153259E+01  0.51100000000E-03 0. -1.
        -11    1    4    4    0    0 -0.26834459764E+02 -0.23003003733E+02 -0.80646188633E+01  0.36252785951E+02  0.51100000000E-03 0.  1.
        -12    1    4    4    0    0 -0.16729962850E+01 -0.55722152868E+01  0.35386039589E+01  0.68095681031E+01  0.00000000000E+00 0.  1.
</event>
<event>
 8    1  0.5834107E-011  0.9118800E+02  0.7816164E-02  0.1184000E+00
        -11   -1    0    0    0    0  0.00000000000E+00  0.00000000000E+00  0.45593999997E+02  0.45594000000E+02  0.51100000000E-03 0. -1.
         11   -1    0    0    0    0 -0.00000000000E+00 -0.00000000000E+00 -0.45593999997E+02  0.45594000000E+02  0.51100000000E-03 0.  1.
         23    2    1    2    0    0 -0.17763568394E-14  0.00000000000E+00  0.00000000000E+00  0.91188000000E+02  0.91188000000E+02 0.  0.
    9900012    2    3    3    0    0  0.13737060809E+02 -0.39684592305E+02  0.10956717352E+02  0.47787270038E+02  0.19999995411E+02 0.  0.
        -12    1    3    3    0    0 -0.13737060809E+02  0.39684592305E+02 -0.10956717352E+02  0.43400729962E+02  0.00000000000E+00 0.  1.
         11    1    4    4    0    0  0.63430670760E+01 -0.34672608326E+01 -0.13822122314E+01  0.73598171530E+01  0.51100000000E-03 0. -1.
        -11    1    4    4    0    0 -0.22588956416E+01 -0.15017717920E+02  0.42672255016E+01  0.15774779706E+02  0.51100000000E-03 0.  1.
         12    1    4    4    0    0  0.96528893746E+01 -0.21199613553E+02  0.80717040819E+01  0.24652673179E+02  0.00000000000E+00 0. -1.
</event>
<event>
 8    1  0.5834107E-011  0.9118800E+02  0.7816164E-02  0.1184000E+00
        -11   -1    0    0    0    0  0.00000000000E+00  0.00000000000E+00  0.45593999997E+02  0.45594000000E+02  0.51100000000E-03 0. -1.
         11   -1    0    0    0    0 -0.00000000000E+00 -0.00000000000E+00 -0.45593999997E+02  0.45594000000E+02  0.51100000000E-03 0.  1.
         23    2    1    2    0    0  0.00000000000E+00  0.00000000000E+00  0.00000000000E+00  0.91188000000E+02  0.91188000000E+02 0.  0.
    9900012    2    3    3    0    0 -0.13657102517E+02 -0.21703049424E+02 -0.35015490137E+02  0.47787270133E+02  0.19999995844E+02 0.  0.
         12    1    3    3    0    0  0.13657102517E+02  0.21703049424E+02  0.35015490137E+02  0.43400729867E+02  0.00000000000E+00 0. -1.
         11    1    4    4    0    0 -0.14941757969E+01 -0.41824732362E-01  0.10506934640E+01  0.18270926733E+01  0.51100000000E-03 0. -1.
        -11    1    4    4    0    0 -0.77809665497E+00 -0.59534131472E+01 -0.12932352170E+01  0.61417440596E+01  0.51100000000E-03 0.  1.
        -12    1    4    4    0    0 -0.11384830065E+02 -0.15707811545E+02 -0.34772948384E+02  0.39818433400E+02  0.00000000000E+00 0.  1.
</event>
<event>
 8    1  0.5834107E-011  0.9118800E+02  0.7816164E-02  0.1184000E+00
        -11   -1    0    0    0    0  0.00000000000E+00  0.00000000000E+00  0.45593999997E+02  0.45594000000E+02  0.51100000000E-03 0. -1.
         11   -1    0    0    0    0 -0.00000000000E+00 -0.00000000000E+00 -0.45593999997E+02  0.45594000000E+02  0.51100000000E-03 0.  1.
         23    2    1    2    0    0 -0.88817841970E-15  0.15543122345E-14  0.00000000000E+00  0.91188000000E+02  0.91188000000E+02 0.  0.
    9900012    2    3    3    0    0  0.59494044849E+01 -0.17878951555E+01 -0.42953827138E+02  0.47787271335E+02  0.20000001326E+02 0.  0.
         12    1    3    3    0    0 -0.59494044849E+01  0.17878951555E+01  0.42953827138E+02  0.43400728665E+02  0.00000000000E+00 0. -1.
         11    1    4    4    0    0  0.27948465936E-01 -0.43408190054E+01 -0.97056638703E+01  0.10632187083E+02  0.51100000000E-03 0. -1.
        -11    1    4    4    0    0  0.29251414039E+01 -0.44851092077E+01 -0.34013244204E+01  0.63436318392E+01  0.51100000000E-03 0.  1.
        -12    1    4    4    0    0  0.29963146150E+01  0.70380330576E+01 -0.29846838847E+02  0.30811452413E+02  0.00000000000E+00 0.  1.
</event>
<event>
 8    1  0.5834107E-011  0.9118800E+02  0.7816164E-02  0.1184000E+00
        -11   -1    0    0    0    0  0.00000000000E+00  0.00000000000E+00  0.45593999997E+02  0.45594000000E+02  0.51100000000E-03 0. -1.
         11   -1    0    0    0    0 -0.00000000000E+00 -0.00000000000E+00 -0.45593999997E+02  0.45594000000E+02  0.51100000000E-03 0.  1.
         23    2    1    2    0    0  0.00000000000E+00 -0.71054273576E-14 -0.17763568394E-14  0.91188000000E+02  0.91188000000E+02 0.  0.
    9900012    2    3    3    0    0 -0.20562986465E+01  0.40873712770E+02 -0.14447649247E+02  0.47787270415E+02  0.19999997131E+02 0.  0.
         12    1    3    3    0    0  0.20562986465E+01 -0.40873712770E+02  0.14447649247E+02  0.43400729585E+02  0.00000000000E+00 0. -1.
         11    1    4    4    0    0  0.39118030240E+01  0.40647409959E+01 -0.48116828270E+01  0.74146216458E+01  0.51100000000E-03 0.  1.
        -11    1    4    4    0    0 -0.52262401770E+00  0.31767743039E+02 -0.82181710269E+01  0.32817692925E+02  0.51100000000E-03 0. -1.
         12    1    4    4    0    0 -0.54454776528E+01  0.50412287352E+01 -0.14177953931E+01  0.75549558440E+01  0.00000000000E+00 0. -1.
</event>
<event>
 8    1  0.5834107E-011  0.9118800E+02  0.7816164E-02  0.1184000E+00
        -11   -1    0    0    0    0  0.00000000000E+00  0.00000000000E+00  0.45593999997E+02  0.45594000000E+02  0.51100000000E-03 0. -1.
         11   -1    0    0    0    0 -0.00000000000E+00 -0.00000000000E+00 -0.45593999997E+02  0.45594000000E+02  0.51100000000E-03 0.  1.
         23    2    1    2    0    0  0.00000000000E+00  0.00000000000E+00  0.00000000000E+00  0.91188000000E+02  0.91188000000E+02 0.  0.
    9900012    2    3    3    0    0 -0.25866786481E+02 -0.21308719846E+02  0.27576640447E+02  0.47787270943E+02  0.19999999538E+02 0.  0.
        -12    1    3    3    0    0  0.25866786481E+02  0.21308719846E+02 -0.27576640447E+02  0.43400729057E+02  0.00000000000E+00 0.  1.
         11    1    4    4    0    0 -0.65080713213E+01 -0.18610212216E+01  0.12758655941E+02  0.14443050023E+02  0.51100000000E-03 0. -1.
        -11    1    4    4    0    0 -0.28655973719E+01 -0.33932802675E+01 -0.19668509455E+01  0.48574172329E+01  0.51100000000E-03 0.  1.
        -12    1    4    4    0    0 -0.16493117788E+02 -0.16054418356E+02  0.16784835452E+02  0.28486803687E+02  0.00000000000E+00 0.  1.
</event>
<event>
 8    1  0.5834107E-011  0.9118800E+02  0.7816164E-02  0.1184000E+00
        -11   -1    0    0    0    0  0.00000000000E+00  0.00000000000E+00  0.45593999997E+02  0.45594000000E+02  0.51100000000E-03 0. -1.
         11   -1    0    0    0    0 -0.00000000000E+00 -0.00000000000E+00 -0.45593999997E+02  0.45594000000E+02  0.51100000000E-03 0.  1.
         23    2    1    2    0    0  0.00000000000E+00  0.00000000000E+00  0.00000000000E+00  0.91188000000E+02  0.91188000000E+02 0.  0.
    9900012    2    3    3    0    0  0.25092671355E+02 -0.24711112373E+02  0.25364188207E+02  0.47787271045E+02  0.20000000004E+02 0.  0.
        -12    1    3    3    0    0 -0.25092671355E+02  0.24711112373E+02 -0.25364188207E+02  0.43400728955E+02  0.00000000000E+00 0.  1.
         11    1    4    4    0    0  0.64184884970E+01 -0.12304583072E+02  0.20625255325E+02  0.24859624226E+02  0.51100000000E-03 0.  1.
        -11    1    4    4    0    0  0.57190085545E+01 -0.40850989152E+01  0.12219560596E+01  0.71336013952E+01  0.51100000000E-03 0. -1.
        -12    1    4    4    0    0  0.12955174303E+02 -0.83214303857E+01  0.35169768218E+01  0.15794045424E+02  0.00000000000E+00 0.  1.
</event>
<event>
 8    1  0.5834107E-011  0.9118800E+02  0.7816164E-02  0.1184000E+00
        -11   -1    0    0    0    0  0.00000000000E+00  0.00000000000E+00  0.45593999997E+02  0.45594000000E+02  0.51100000000E-03 0. -1.
         11   -1    0    0    0    0 -0.00000000000E+00 -0.00000000000E+00 -0.45593999997E+02  0.45594000000E+02  0.51100000000E-03 0.  1.
         23    2    1    2    0    0  0.00000000000E+00  0.00000000000E+00  0.00000000000E+00  0.91188000000E+02  0.91188000000E+02 0.  0.
    9900012    2    3    3    0    0  0.20013287658E+02 -0.35395917639E+02  0.15173032711E+02  0.47787267402E+02  0.19999983392E+02 0.  0.
        -12    1    3    3    0    0 -0.20013287658E+02  0.35395917639E+02 -0.15173032711E+02  0.43400732598E+02  0.00000000000E+00 0.  1.
         11    1    4    4    0    0  0.26674244764E+01 -0.33873803925E+01  0.10963576502E+01  0.44487638305E+01  0.51100000000E-03 0. -1.
        -11    1    4    4    0    0  0.61073868297E+01 -0.27448146453E+02  0.13510729602E+02  0.31196806443E+02  0.51100000000E-03 0.  1.
         12    1    4    4    0    0  0.11238476352E+02 -0.45603907933E+01  0.56594545955E+00  0.12141697129E+02  0.00000000000E+00 0. -1.
</event>
<event>
 8    1  0.6164049E-011  0.9118800E+02  0.7816164E-02  0.1184000E+00
        -11   -1    0    0    0    0  0.00000000000E+00  0.00000000000E+00  0.45593999997E+02  0.45594000000E+02  0.51100000000E-03 0. -1.
         11   -1    0    0    0    0 -0.00000000000E+00 -0.00000000000E+00 -0.45593999997E+02  0.45594000000E+02  0.51100000000E-03 0.  1.
         23    2    1    2    0    0  0.35527136788E-14  0.17763568394E-14  0.00000000000E+00  0.91188000000E+02  0.91188000000E+02 0.  0.
    9900012    2    3    3    0    0 -0.26547843672E+02 -0.84759134443E+01 -0.33271511009E+02  0.47787279301E+02  0.20000037646E+02 0.  0.
         12    1    3    3    0    0  0.26547843672E+02  0.84759134443E+01  0.33271511009E+02  0.43400720699E+02  0.00000000000E+00 0. -1.
         11    1    4    4    0    0 -0.23343676443E+01 -0.64775611400E+01 -0.10618612512E+02  0.12655552242E+02  0.51100000000E-03 0. -1.
        -11    1    4    4    0    0 -0.19935381250E+02 -0.43166758824E+01 -0.22346976436E+02  0.30256246831E+02  0.51100000000E-03 0.  1.
         12    1    4    4    0    0 -0.42780947780E+01  0.23183235781E+01 -0.30592206179E+00  0.48754802276E+01  0.00000000000E+00 0. -1.
</event>
<event>
 8    1  0.5834107E-011  0.9118800E+02  0.7816164E-02  0.1184000E+00
        -11   -1    0    0    0    0  0.00000000000E+00  0.00000000000E+00  0.45593999997E+02  0.45594000000E+02  0.51100000000E-03 0. -1.
         11   -1    0    0    0    0 -0.00000000000E+00 -0.00000000000E+00 -0.45593999997E+02  0.45594000000E+02  0.51100000000E-03 0.  1.
         23    2    1    2    0    0  0.00000000000E+00  0.00000000000E+00  0.44408920985E-15  0.91188000000E+02  0.91188000000E+02 0.  0.
    9900012    2    3    3    0    0  0.92678732443E+01 -0.42229434218E+02 -0.37956641563E+01  0.47787243610E+02  0.19999874915E+02 0.  0.
         12    1    3    3    0    0 -0.92678732443E+01  0.42229434218E+02  0.37956641563E+01  0.43400756390E+02  0.00000000000E+00 0. -1.
         11    1    4    4    0    0 -0.13043844233E+01 -0.37246483729E+01 -0.45829270409E+01  0.60479454982E+01  0.51100000000E-03 0. -1.
        -11    1    4    4    0    0  0.89498974344E+01 -0.38431101796E+02 -0.80116157810E+00  0.39467608358E+02  0.51100000000E-03 0.  1.
         12    1    4    4    0    0  0.16223602332E+01 -0.73684048889E-01  0.15884244628E+01  0.22716897542E+01  0.00000000000E+00 0. -1.
</event>
<event>
 8    1  0.5834107E-011  0.9118800E+02  0.7816164E-02  0.1184000E+00
        -11   -1    0    0    0    0  0.00000000000E+00  0.00000000000E+00  0.45593999997E+02  0.45594000000E+02  0.51100000000E-03 0. -1.
         11   -1    0    0    0    0 -0.00000000000E+00 -0.00000000000E+00 -0.45593999997E+02  0.45594000000E+02  0.51100000000E-03 0.  1.
         23    2    1    2    0    0  0.17763568394E-14  0.11657341759E-14  0.00000000000E+00  0.91188000000E+02  0.91188000000E+02 0.  0.
    9900012    2    3    3    0    0 -0.87234275793E+01  0.42669026854E+00  0.42512846547E+02  0.47787281402E+02  0.20000047223E+02 0.  0.
        -12    1    3    3    0    0  0.87234275793E+01 -0.42669026854E+00 -0.42512846547E+02  0.43400718598E+02  0.00000000000E+00 0.  1.
         11    1    4    4    0    0 -0.18498417168E+01 -0.49311403151E+01  0.29469164928E+02  0.29936094284E+02  0.51100000000E-03 0. -1.
        -11    1    4    4    0    0 -0.21135179338E+01 -0.15131852837E+01  0.30813247158E+00  0.26175625381E+01  0.51100000000E-03 0.  1.
        -12    1    4    4    0    0 -0.47600679286E+01  0.68710158674E+01  0.12735549148E+02  0.15233624579E+02  0.00000000000E+00 0.  1.
</event>
<event>
 8    1  0.5834107E-011  0.9118800E+02  0.7816164E-02  0.1184000E+00
        -11   -1    0    0    0    0  0.00000000000E+00  0.00000000000E+00  0.45593999997E+02  0.45594000000E+02  0.51100000000E-03 0. -1.
         11   -1    0    0    0    0 -0.00000000000E+00 -0.00000000000E+00 -0.45593999997E+02  0.45594000000E+02  0.51100000000E-03 0.  1.
         23    2    1    2    0    0  0.00000000000E+00 -0.88817841970E-15  0.00000000000E+00  0.91188000000E+02  0.91188000000E+02 0.  0.
    9900012    2    3    3    0    0  0.16084846723E+02 -0.23289017212E+01  0.40242728307E+02  0.47787271217E+02  0.20000000787E+02 0.  0.
        -12    1    3    3    0    0 -0.16084846723E+02  0.23289017212E+01 -0.40242728307E+02  0.43400728783E+02  0.00000000000E+00 0.  1.
         11    1    4    4    0    0  0.48768031535E+01  0.39194967413E+01  0.21493116957E+02  0.22385257213E+02  0.51100000000E-03 0. -1.
        -11    1    4    4    0    0  0.31809989661E+01 -0.25986088292E+00 -0.92692240309E+00  0.33234722059E+01  0.51100000000E-03 0.  1.
         12    1    4    4    0    0  0.80270446030E+01 -0.59885375795E+01  0.19676533753E+02  0.22078541799E+02  0.00000000000E+00 0. -1.
</event>
<event>
 8    1  0.5834107E-011  0.9118800E+02  0.7816164E-02  0.1184000E+00
        -11   -1    0    0    0    0  0.00000000000E+00  0.00000000000E+00  0.45593999997E+02  0.45594000000E+02  0.51100000000E-03 0. -1.
         11   -1    0    0    0    0 -0.00000000000E+00 -0.00000000000E+00 -0.45593999997E+02  0.45594000000E+02  0.51100000000E-03 0.  1.
         23    2    1    2    0    0  0.35527136788E-14  0.83266726847E-15  0.00000000000E+00  0.91188000000E+02  0.91188000000E+02 0.  0.
    9900012    2    3    3    0    0 -0.30405193374E+02  0.28736525950E+00  0.30968771280E+02  0.47787272385E+02  0.20000006111E+02 0.  0.
        -12    1    3    3    0    0  0.30405193374E+02 -0.28736525950E+00 -0.30968771280E+02  0.43400727615E+02  0.00000000000E+00 0.  1.
         11    1    4    4    0    0 -0.20845096470E+02  0.88265355502E+01  0.22667381667E+02  0.32034917958E+02  0.51100000000E-03 0. -1.
        -11    1    4    4    0    0 -0.22290929977E+01 -0.43643216387E+01  0.23999932053E+01  0.54567505537E+01  0.51100000000E-03 0.  1.
        -12    1    4    4    0    0 -0.73310039066E+01 -0.41748486520E+01  0.59013964078E+01  0.10295603873E+02  0.00000000000E+00 0.  1.
</event>
<event>
 8    1  0.5834107E-011  0.9118800E+02  0.7816164E-02  0.1184000E+00
        -11   -1    0    0    0    0  0.00000000000E+00  0.00000000000E+00  0.45593999997E+02  0.45594000000E+02  0.51100000000E-03 0. -1.
         11   -1    0    0    0    0 -0.00000000000E+00 -0.00000000000E+00 -0.45593999997E+02  0.45594000000E+02  0.51100000000E-03 0.  1.
         23    2    1    2    0    0 -0.17763568394E-14  0.00000000000E+00  0.00000000000E+00  0.91188000000E+02  0.91188000000E+02 0.  0.
    9900012    2    3    3    0    0  0.14770024453E+02 -0.27316205506E+02 -0.30319871840E+02  0.47787270352E+02  0.19999996844E+02 0.  0.
         12    1    3    3    0    0 -0.14770024453E+02  0.27316205506E+02  0.30319871840E+02  0.43400729648E+02  0.00000000000E+00 0. -1.
         11    1    4    4    0    0 -0.19831241217E+01 -0.40614796272E+01 -0.48112564282E+01  0.66012564503E+01  0.51100000000E-03 0. -1.
        -11    1    4    4    0    0  0.11272472300E+02 -0.37935512106E+01 -0.11830904447E+02  0.16775874428E+02  0.51100000000E-03 0.  1.
        -12    1    4    4    0    0  0.54806762751E+01 -0.19461174668E+02 -0.13677710965E+02  0.24410139474E+02  0.00000000000E+00 0.  1.
</event>
<event>
 8    1  0.5834107E-011  0.9118800E+02  0.7816164E-02  0.1184000E+00
        -11   -1    0    0    0    0  0.00000000000E+00  0.00000000000E+00  0.45593999997E+02  0.45594000000E+02  0.51100000000E-03 0.  1.
         11   -1    0    0    0    0 -0.00000000000E+00 -0.00000000000E+00 -0.45593999997E+02  0.45594000000E+02  0.51100000000E-03 0. -1.
         23    2    1    2    0    0  0.00000000000E+00  0.00000000000E+00  0.88817841970E-15  0.91188000000E+02  0.91188000000E+02 0.  0.
    9900012    2    3    3    0    0  0.37217825580E+02  0.21602714988E+02 -0.56373118323E+01  0.47787272812E+02  0.20000008060E+02 0.  0.
        -12    1    3    3    0    0 -0.37217825580E+02 -0.21602714988E+02  0.56373118323E+01  0.43400727188E+02  0.00000000000E+00 0.  1.
         11    1    4    4    0    0  0.18933836616E+02  0.59415479950E+01 -0.54035153246E+01  0.20566724088E+02  0.51100000000E-03 0. -1.
        -11    1    4    4    0    0  0.88091444888E+01  0.12430381017E+02 -0.51312597404E+01  0.16076231699E+02  0.51100000000E-03 0.  1.
        -12    1    4    4    0    0  0.94748444752E+01  0.32307859756E+01  0.48974632327E+01  0.11144317026E+02  0.00000000000E+00 0.  1.
</event>
<event>
 8    1  0.5834107E-011  0.9118800E+02  0.7816164E-02  0.1184000E+00
        -11   -1    0    0    0    0  0.00000000000E+00  0.00000000000E+00  0.45593999997E+02  0.45594000000E+02  0.51100000000E-03 0.  1.
         11   -1    0    0    0    0 -0.00000000000E+00 -0.00000000000E+00 -0.45593999997E+02  0.45594000000E+02  0.51100000000E-03 0. -1.
         23    2    1    2    0    0  0.00000000000E+00  0.00000000000E+00 -0.17763568394E-14  0.91188000000E+02  0.91188000000E+02 0.  0.
    9900012    2    3    3    0    0 -0.32218338831E+02  0.28998344186E+02 -0.21674736765E+01  0.47787271150E+02  0.20000000482E+02 0.  0.
        -12    1    3    3    0    0  0.32218338831E+02 -0.28998344186E+02  0.21674736765E+01  0.43400728850E+02  0.00000000000E+00 0.  1.
         11    1    4    4    0    0 -0.34164150221E+01  0.47838942452E+01  0.22429473690E+01  0.62919272814E+01  0.51100000000E-03 0. -1.
        -11    1    4    4    0    0 -0.99167348882E+01  0.59380193410E+01  0.62436356668E+01  0.13137149277E+02  0.51100000000E-03 0.  1.
         12    1    4    4    0    0 -0.18885188921E+02  0.18276430599E+02 -0.10654056712E+02  0.28358194591E+02  0.00000000000E+00 0. -1.
</event>
<event>
 8    1  0.5834107E-011  0.9118800E+02  0.7816164E-02  0.1184000E+00
        -11   -1    0    0    0    0  0.00000000000E+00  0.00000000000E+00  0.45593999997E+02  0.45594000000E+02  0.51100000000E-03 0. -1.
         11   -1    0    0    0    0 -0.00000000000E+00 -0.00000000000E+00 -0.45593999997E+02  0.45594000000E+02  0.51100000000E-03 0.  1.
         23    2    1    2    0    0  0.00000000000E+00  0.35527136788E-14  0.00000000000E+00  0.91188000000E+02  0.91188000000E+02 0.  0.
    9900012    2    3    3    0    0  0.57207150918E+01 -0.28407248093E+02  0.32309826606E+02  0.47787271657E+02  0.20000002793E+02 0.  0.
        -12    1    3    3    0    0 -0.57207150918E+01  0.28407248093E+02 -0.32309826606E+02  0.43400728343E+02  0.00000000000E+00 0.  1.
         11    1    4    4    0    0  0.22421466583E+01 -0.86685302935E+00  0.93569252226E+01  0.96607818366E+01  0.51100000000E-03 0. -1.
        -11    1    4    4    0    0  0.58260812970E+01 -0.87607460886E+01  0.37625788617E+01  0.11173669731E+02  0.51100000000E-03 0.  1.
         12    1    4    4    0    0 -0.23475128635E+01 -0.18779648975E+02  0.19190322522E+02  0.26952820089E+02  0.00000000000E+00 0. -1.
</event>
<event>
 8    1  0.5834107E-011  0.9118800E+02  0.7816164E-02  0.1184000E+00
        -11   -1    0    0    0    0  0.00000000000E+00  0.00000000000E+00  0.45593999997E+02  0.45594000000E+02  0.51100000000E-03 0. -1.
         11   -1    0    0    0    0 -0.00000000000E+00 -0.00000000000E+00 -0.45593999997E+02  0.45594000000E+02  0.51100000000E-03 0.  1.
         23    2    1    2    0    0  0.00000000000E+00  0.00000000000E+00 -0.35527136788E-14  0.91188000000E+02  0.91188000000E+02 0.  0.
    9900012    2    3    3    0    0 -0.34483062885E+02  0.99674080623E+01  0.24396565886E+02  0.47787271015E+02  0.19999999866E+02 0.  0.
        -12    1    3    3    0    0  0.34483062885E+02 -0.99674080623E+01 -0.24396565886E+02  0.43400728985E+02  0.00000000000E+00 0.  1.
         11    1    4    4    0    0 -0.24328327009E+00 -0.31393935956E-01  0.41977195895E+01  0.42048807762E+01  0.51100000000E-03 0. -1.
        -11    1    4    4    0    0 -0.97028833123E+00  0.20326035488E+01  0.62402776638E+01  0.66343049534E+01  0.51100000000E-03 0.  1.
         12    1    4    4    0    0 -0.33269491284E+02  0.79661984494E+01  0.13958568632E+02  0.36948085286E+02  0.00000000000E+00 0. -1.
</event>
<event>
 8    1  0.5834107E-011  0.9118800E+02  0.7816164E-02  0.1184000E+00
        -11   -1    0    0    0    0  0.00000000000E+00  0.00000000000E+00  0.45593999997E+02  0.45594000000E+02  0.51100000000E-03 0. -1.
         11   -1    0    0    0    0 -0.00000000000E+00 -0.00000000000E+00 -0.45593999997E+02  0.45594000000E+02  0.51100000000E-03 0.  1.
         23    2    1    2    0    0 -0.35527136788E-14  0.00000000000E+00  0.00000000000E+00  0.91188000000E+02  0.91188000000E+02 0.  0.
    9900012    2    3    3    0    0  0.25235346934E+02  0.34061376972E+02 -0.93071618701E+01  0.47787269612E+02  0.19999993471E+02 0.  0.
         12    1    3    3    0    0 -0.25235346934E+02 -0.34061376972E+02  0.93071618701E+01  0.43400730388E+02  0.00000000000E+00 0. -1.
         11    1    4    4    0    0  0.77048274134E+00 -0.11836404885E+01 -0.16760544462E+01  0.21917589348E+01  0.51100000000E-03 0. -1.
        -11    1    4    4    0    0  0.91665507209E+01  0.21282472099E+02 -0.89512560427E+01  0.24841381921E+02  0.51100000000E-03 0.  1.
         12    1    4    4    0    0  0.15298313472E+02  0.13962545362E+02  0.13201486188E+01  0.20754128757E+02  0.00000000000E+00 0. -1.
</event>
<event>
 8    1  0.5834107E-011  0.9118800E+02  0.7816164E-02  0.1184000E+00
        -11   -1    0    0    0    0  0.00000000000E+00  0.00000000000E+00  0.45593999997E+02  0.45594000000E+02  0.51100000000E-03 0.  1.
         11   -1    0    0    0    0 -0.00000000000E+00 -0.00000000000E+00 -0.45593999997E+02  0.45594000000E+02  0.51100000000E-03 0. -1.
         23    2    1    2    0    0 -0.35527136788E-14 -0.35527136788E-14  0.35527136788E-14  0.91188000000E+02  0.91188000000E+02 0.  0.
    9900012    2    3    3    0    0  0.29406085710E+02 -0.24267319164E+02  0.20736490800E+02  0.47787277577E+02  0.20000029782E+02 0.  0.
        -12    1    3    3    0    0 -0.29406085710E+02  0.24267319164E+02 -0.20736490800E+02  0.43400722423E+02  0.00000000000E+00 0.  1.
         11    1    4    4    0    0  0.27798921214E+02 -0.15454761788E+02  0.13357013043E+02  0.34496948854E+02  0.51100000000E-03 0. -1.
        -11    1    4    4    0    0  0.22680393495E+01 -0.40881019952E+01  0.71137713442E+01  0.85124804501E+01  0.51100000000E-03 0.  1.
         12    1    4    4    0    0 -0.66087485280E+00 -0.47244553807E+01  0.26570641235E+00  0.47778482722E+01  0.00000000000E+00 0. -1.
</event>
<event>
 8    1  0.5834107E-011  0.9118800E+02  0.7816164E-02  0.1184000E+00
        -11   -1    0    0    0    0  0.00000000000E+00  0.00000000000E+00  0.45593999997E+02  0.45594000000E+02  0.51100000000E-03 0.  1.
         11   -1    0    0    0    0 -0.00000000000E+00 -0.00000000000E+00 -0.45593999997E+02  0.45594000000E+02  0.51100000000E-03 0. -1.
         23    2    1    2    0    0 -0.71054273576E-14  0.00000000000E+00  0.00000000000E+00  0.91188000000E+02  0.91188000000E+02 0.  0.
    9900012    2    3    3    0    0  0.33632508829E+02  0.24410258062E+02 -0.12514756351E+02  0.47787245682E+02  0.19999884364E+02 0.  0.
         12    1    3    3    0    0 -0.33632508829E+02 -0.24410258062E+02  0.12514756351E+02  0.43400754318E+02  0.00000000000E+00 0. -1.
         11    1    4    4    0    0  0.68011788305E-01  0.16636302454E+01 -0.25283711202E+01  0.30273671695E+01  0.51100000000E-03 0. -1.
        -11    1    4    4    0    0  0.22069070961E+02  0.14900677345E+02  0.15628781519E+01  0.26674269752E+02  0.51100000000E-03 0.  1.
        -12    1    4    4    0    0  0.11495426080E+02  0.78459504717E+01 -0.11549263383E+02  0.18085608761E+02  0.00000000000E+00 0.  1.
</event>
<event>
 8    1  0.5834107E-011  0.9118800E+02  0.7816164E-02  0.1184000E+00
        -11   -1    0    0    0    0  0.00000000000E+00  0.00000000000E+00  0.45593999997E+02  0.45594000000E+02  0.51100000000E-03 0. -1.
         11   -1    0    0    0    0 -0.00000000000E+00 -0.00000000000E+00 -0.45593999997E+02  0.45594000000E+02  0.51100000000E-03 0.  1.
         23    2    1    2    0    0  0.17763568394E-14  0.17763568394E-14  0.00000000000E+00  0.91188000000E+02  0.91188000000E+02 0.  0.
    9900012    2    3    3    0    0  0.15962655798E+02  0.94607120272E+01  0.39234059588E+02  0.47787275537E+02  0.20000020482E+02 0.  0.
        -12    1    3    3    0    0 -0.15962655798E+02 -0.94607120272E+01 -0.39234059588E+02  0.43400724463E+02  0.00000000000E+00 0.  1.
         11    1    4    4    0    0 -0.95877887232E+00  0.44841487336E+01  0.61546693932E+01  0.76750767026E+01  0.51100000000E-03 0. -1.
        -11    1    4    4    0    0  0.71320276507E+01 -0.44277500103E+01  0.17758136288E+02  0.19642357120E+02  0.51100000000E-03 0.  1.
         12    1    4    4    0    0  0.97894070193E+01  0.94043133038E+01  0.15321253907E+02  0.20469841714E+02  0.00000000000E+00 0. -1.
</event>
<event>
 8    1  0.5834107E-011  0.9118800E+02  0.7816164E-02  0.1184000E+00
        -11   -1    0    0    0    0  0.00000000000E+00  0.00000000000E+00  0.45593999997E+02  0.45594000000E+02  0.51100000000E-03 0. -1.
         11   -1    0    0    0    0 -0.00000000000E+00 -0.00000000000E+00 -0.45593999997E+02  0.45594000000E+02  0.51100000000E-03 0.  1.
         23    2    1    2    0    0  0.88817841970E-15 -0.44408920985E-15  0.00000000000E+00  0.91188000000E+02  0.91188000000E+02 0.  0.
    9900012    2    3    3    0    0  0.54814939113E+01 -0.10289731549E+01  0.43040885338E+02  0.47787269914E+02  0.19999994848E+02 0.  0.
        -12    1    3    3    0    0 -0.54814939113E+01  0.10289731549E+01 -0.43040885338E+02  0.43400730086E+02  0.00000000000E+00 0.  1.
         11    1    4    4    0    0  0.47586372076E+01 -0.21868133127E+01  0.51834238191E+01  0.73684912490E+01  0.51100000000E-03 0. -1.
        -11    1    4    4    0    0  0.46092956091E+01  0.41535307918E+01  0.32763390527E+02  0.33345722111E+02  0.51100000000E-03 0.  1.
        -12    1    4    4    0    0 -0.38864389054E+01 -0.29956906341E+01  0.50940709928E+01  0.70730565543E+01  0.00000000000E+00 0.  1.
</event>
<event>
 8    1  0.5834107E-011  0.9118800E+02  0.7816164E-02  0.1184000E+00
        -11   -1    0    0    0    0  0.00000000000E+00  0.00000000000E+00  0.45593999997E+02  0.45594000000E+02  0.51100000000E-03 0.  1.
         11   -1    0    0    0    0 -0.00000000000E+00 -0.00000000000E+00 -0.45593999997E+02  0.45594000000E+02  0.51100000000E-03 0. -1.
         23    2    1    2    0    0 -0.35527136788E-14  0.35527136788E-14  0.88817841970E-15  0.91188000000E+02  0.91188000000E+02 0.  0.
    9900012    2    3    3    0    0  0.31016126369E+02 -0.29915980117E+02 -0.51630604717E+01  0.47787272417E+02  0.20000006258E+02 0.  0.
        -12    1    3    3    0    0 -0.31016126369E+02  0.29915980117E+02  0.51630604717E+01  0.43400727583E+02  0.00000000000E+00 0.  1.
         11    1    4    4    0    0  0.50111322302E+00 -0.96254327669E+00  0.28982868645E+01  0.30947812575E+01  0.51100000000E-03 0. -1.
        -11    1    4    4    0    0  0.14306025984E+02 -0.13444603762E+02 -0.10260343017E+02  0.22151622714E+02  0.51100000000E-03 0.  1.
         12    1    4    4    0    0  0.16208987162E+02 -0.15508833078E+02  0.21989956811E+01  0.22540868445E+02  0.00000000000E+00 0. -1.
</event>
<event>
 8    1  0.5834107E-011  0.9118800E+02  0.7816164E-02  0.1184000E+00
        -11   -1    0    0    0    0  0.00000000000E+00  0.00000000000E+00  0.45593999997E+02  0.45594000000E+02  0.51100000000E-03 0. -1.
         11   -1    0    0    0    0 -0.00000000000E+00 -0.00000000000E+00 -0.45593999997E+02  0.45594000000E+02  0.51100000000E-03 0.  1.
         23    2    1    2    0    0  0.00000000000E+00  0.00000000000E+00  0.71054273576E-14  0.91188000000E+02  0.91188000000E+02 0.  0.
    9900012    2    3    3    0    0 -0.44050911457E+01  0.21561024184E+02 -0.37407762187E+02  0.47787271161E+02  0.20000000532E+02 0.  0.
         12    1    3    3    0    0  0.44050911457E+01 -0.21561024184E+02  0.37407762187E+02  0.43400728839E+02  0.00000000000E+00 0. -1.
         11    1    4    4    0    0  0.53860157247E+01  0.11557031612E+02 -0.27576941347E+02  0.30381932779E+02  0.51100000000E-03 0. -1.
        -11    1    4    4    0    0 -0.22774671440E+01  0.41125097721E+01 -0.22390683514E+01  0.52070164740E+01  0.51100000000E-03 0.  1.
         12    1    4    4    0    0 -0.75136397263E+01  0.58914828005E+01 -0.75917524886E+01  0.12198321908E+02  0.00000000000E+00 0. -1.
</event>
<event>
 8    1  0.5834107E-011  0.9118800E+02  0.7816164E-02  0.1184000E+00
        -11   -1    0    0    0    0  0.00000000000E+00  0.00000000000E+00  0.45593999997E+02  0.45594000000E+02  0.51100000000E-03 0. -1.
         11   -1    0    0    0    0 -0.00000000000E+00 -0.00000000000E+00 -0.45593999997E+02  0.45594000000E+02  0.51100000000E-03 0.  1.
         23    2    1    2    0    0  0.71054273576E-14  0.44408920985E-15 -0.35527136788E-14  0.91188000000E+02  0.91188000000E+02 0.  0.
    9900012    2    3    3    0    0  0.35097104502E+02 -0.37171793656E+01 -0.25258643297E+02  0.47787271573E+02  0.20000002408E+02 0.  0.
         12    1    3    3    0    0 -0.35097104502E+02  0.37171793656E+01  0.25258643297E+02  0.43400728427E+02  0.00000000000E+00 0. -1.
         11    1    4    4    0    0  0.46872162942E+01 -0.50536421208E+01 -0.70544656849E+01  0.98627978603E+01  0.51100000000E-03 0. -1.
        -11    1    4    4    0    0  0.11788174880E+02  0.63263620068E-01  0.90354336570E-01  0.11788690913E+02  0.51100000000E-03 0.  1.
        -12    1    4    4    0    0  0.18621713328E+02  0.12731991352E+01 -0.18294531949E+02  0.26135782799E+02  0.00000000000E+00 0.  1.
</event>
<event>
 8    1  0.5834107E-011  0.9118800E+02  0.7816164E-02  0.1184000E+00
        -11   -1    0    0    0    0  0.00000000000E+00  0.00000000000E+00  0.45593999997E+02  0.45594000000E+02  0.51100000000E-03 0. -1.
         11   -1    0    0    0    0 -0.00000000000E+00 -0.00000000000E+00 -0.45593999997E+02  0.45594000000E+02  0.51100000000E-03 0.  1.
         23    2    1    2    0    0  0.00000000000E+00 -0.35527136788E-14  0.17763568394E-14  0.91188000000E+02  0.91188000000E+02 0.  0.
    9900012    2    3    3    0    0  0.32785115028E+02  0.24771758846E+02  0.13968525521E+02  0.47787268336E+02  0.19999987651E+02 0.  0.
        -12    1    3    3    0    0 -0.32785115028E+02 -0.24771758846E+02 -0.13968525521E+02  0.43400731664E+02  0.00000000000E+00 0.  1.
         11    1    4    4    0    0  0.93987685490E+01  0.75612182906E+01  0.85715150704E+01  0.14797964155E+02  0.51100000000E-03 0. -1.
        -11    1    4    4    0    0  0.18351239349E+02  0.18627331415E+02  0.10191815980E+01  0.26168381545E+02  0.51100000000E-03 0.  1.
        -12    1    4    4    0    0  0.50351071297E+01 -0.14167908588E+01  0.43778288527E+01  0.68209226362E+01  0.00000000000E+00 0.  1.
</event>
<event>
 8    1  0.5834107E-011  0.9118800E+02  0.7816164E-02  0.1184000E+00
        -11   -1    0    0    0    0  0.00000000000E+00  0.00000000000E+00  0.45593999997E+02  0.45594000000E+02  0.51100000000E-03 0. -1.
         11   -1    0    0    0    0 -0.00000000000E+00 -0.00000000000E+00 -0.45593999997E+02  0.45594000000E+02  0.51100000000E-03 0.  1.
         23    2    1    2    0    0 -0.17763568394E-14 -0.35527136788E-14 -0.35527136788E-14  0.91188000000E+02  0.91188000000E+02 0.  0.
    9900012    2    3    3    0    0  0.13972325392E+02  0.26228167167E+02  0.31630377914E+02  0.47787269168E+02  0.19999991444E+02 0.  0.
        -12    1    3    3    0    0 -0.13972325392E+02 -0.26228167167E+02 -0.31630377914E+02  0.43400730832E+02  0.00000000000E+00 0.  1.
         11    1    4    4    0    0 -0.50650841605E+00  0.19606798792E+02  0.16486399069E+02  0.25621952778E+02  0.51100000000E-03 0. -1.
        -11    1    4    4    0    0  0.38403252528E+01  0.97863253493E+00  0.24067789954E+01  0.46366372599E+01  0.51100000000E-03 0.  1.
         12    1    4    4    0    0  0.10638508555E+02  0.56427358403E+01  0.12737199850E+02  0.17528679130E+02  0.00000000000E+00 0. -1.
</event>
<event>
 8    1  0.5834107E-011  0.9118800E+02  0.7816164E-02  0.1184000E+00
        -11   -1    0    0    0    0  0.00000000000E+00  0.00000000000E+00  0.45593999997E+02  0.45594000000E+02  0.51100000000E-03 0. -1.
         11   -1    0    0    0    0 -0.00000000000E+00 -0.00000000000E+00 -0.45593999997E+02  0.45594000000E+02  0.51100000000E-03 0.  1.
         23    2    1    2    0    0  0.00000000000E+00  0.00000000000E+00  0.71054273576E-14  0.91188000000E+02  0.91188000000E+02 0.  0.
    9900012    2    3    3    0    0  0.10913064904E+02  0.24849570834E+02 -0.33867789106E+02  0.47787270799E+02  0.19999998882E+02 0.  0.
         12    1    3    3    0    0 -0.10913064904E+02 -0.24849570834E+02  0.33867789106E+02  0.43400729201E+02  0.00000000000E+00 0. -1.
         11    1    4    4    0    0  0.15757461861E+01 -0.17623223349E+01 -0.15902369475E+01  0.28491419525E+01  0.51100000000E-03 0. -1.
        -11    1    4    4    0    0  0.76235739517E+01  0.15038066170E+02 -0.27590593991E+02  0.32334241772E+02  0.51100000000E-03 0.  1.
        -12    1    4    4    0    0  0.17137447664E+01  0.11573826999E+02 -0.46869581675E+01  0.12603887075E+02  0.00000000000E+00 0.  1.
</event>
<event>
 8    1  0.5834107E-011  0.9118800E+02  0.7816164E-02  0.1184000E+00
        -11   -1    0    0    0    0  0.00000000000E+00  0.00000000000E+00  0.45593999997E+02  0.45594000000E+02  0.51100000000E-03 0. -1.
         11   -1    0    0    0    0 -0.00000000000E+00 -0.00000000000E+00 -0.45593999997E+02  0.45594000000E+02  0.51100000000E-03 0.  1.
         23    2    1    2    0    0 -0.35527136788E-14  0.11102230246E-15  0.35527136788E-14  0.91188000000E+02  0.91188000000E+02 0.  0.
    9900012    2    3    3    0    0  0.31670703827E+02 -0.72318847830E+00 -0.29665916345E+02  0.47787273335E+02  0.20000010442E+02 0.  0.
         12    1    3    3    0    0 -0.31670703827E+02  0.72318847830E+00  0.29665916345E+02  0.43400726665E+02  0.00000000000E+00 0. -1.
         11    1    4    4    0    0  0.78719316455E+01  0.44455229562E+01 -0.44934121743E+01  0.10095579994E+02  0.51100000000E-03 0. -1.
        -11    1    4    4    0    0  0.18100342772E+02 -0.31090304836E+01 -0.25724272302E+02  0.31607383074E+02  0.51100000000E-03 0.  1.
         12    1    4    4    0    0  0.56984294095E+01 -0.20596809508E+01  0.55176813135E+00  0.60843102670E+01  0.00000000000E+00 0. -1.
</event>
<event>
 8    1  0.5834107E-011  0.9118800E+02  0.7816164E-02  0.1184000E+00
        -11   -1    0    0    0    0  0.00000000000E+00  0.00000000000E+00  0.45593999997E+02  0.45594000000E+02  0.51100000000E-03 0. -1.
         11   -1    0    0    0    0 -0.00000000000E+00 -0.00000000000E+00 -0.45593999997E+02  0.45594000000E+02  0.51100000000E-03 0.  1.
         23    2    1    2    0    0  0.35527136788E-14  0.00000000000E+00 -0.71054273576E-14  0.91188000000E+02  0.91188000000E+02 0.  0.
    9900012    2    3    3    0    0  0.16042798687E+02 -0.15459093732E+02 -0.37246057085E+02  0.47787265708E+02  0.19999975668E+02 0.  0.
         12    1    3    3    0    0 -0.16042798687E+02  0.15459093732E+02  0.37246057085E+02  0.43400734292E+02  0.00000000000E+00 0. -1.
         11    1    4    4    0    0  0.33572833761E+01 -0.68538631278E+01 -0.15646392878E+01  0.77906923828E+01  0.51100000000E-03 0. -1.
        -11    1    4    4    0    0  0.34700726651E+01  0.20068526976E+01 -0.84060500957E+01  0.93129233071E+01  0.51100000000E-03 0.  1.
         12    1    4    4    0    0  0.92154426458E+01 -0.10612083302E+02 -0.27275367701E+02  0.30683650018E+02  0.00000000000E+00 0. -1.
</event>
<event>
 8    1  0.5834107E-011  0.9118800E+02  0.7816164E-02  0.1184000E+00
        -11   -1    0    0    0    0  0.00000000000E+00  0.00000000000E+00  0.45593999997E+02  0.45594000000E+02  0.51100000000E-03 0. -1.
         11   -1    0    0    0    0 -0.00000000000E+00 -0.00000000000E+00 -0.45593999997E+02  0.45594000000E+02  0.51100000000E-03 0.  1.
         23    2    1    2    0    0  0.71054273576E-14  0.88817841970E-15  0.00000000000E+00  0.91188000000E+02  0.91188000000E+02 0.  0.
    9900012    2    3    3    0    0 -0.41523637943E+02 -0.64967192977E+01 -0.10826058148E+02  0.47787269538E+02  0.19999993131E+02 0.  0.
        -12    1    3    3    0    0  0.41523637943E+02  0.64967192977E+01  0.10826058148E+02  0.43400730462E+02  0.00000000000E+00 0.  1.
         11    1    4    4    0    0 -0.32565965105E+02 -0.30782032379E+01 -0.11886696721E+02  0.34803893138E+02  0.51100000000E-03 0. -1.
        -11    1    4    4    0    0  0.86430967106E-02 -0.80742439306E+00 -0.27731383927E+01  0.28883049804E+01  0.51100000000E-03 0.  1.
         12    1    4    4    0    0 -0.89663159349E+01 -0.26110916668E+01  0.38337769661E+01  0.10095071419E+02  0.00000000000E+00 0. -1.
</event>
<event>
 8    1  0.5834107E-011  0.9118800E+02  0.7816164E-02  0.1184000E+00
        -11   -1    0    0    0    0  0.00000000000E+00  0.00000000000E+00  0.45593999997E+02  0.45594000000E+02  0.51100000000E-03 0. -1.
         11   -1    0    0    0    0 -0.00000000000E+00 -0.00000000000E+00 -0.45593999997E+02  0.45594000000E+02  0.51100000000E-03 0.  1.
         23    2    1    2    0    0  0.00000000000E+00  0.00000000000E+00 -0.35527136788E-14  0.91188000000E+02  0.91188000000E+02 0.  0.
    9900012    2    3    3    0    0 -0.38242033053E+02 -0.26430941415E+01 -0.20351524969E+02  0.47787267204E+02  0.19999982490E+02 0.  0.
         12    1    3    3    0    0  0.38242033053E+02  0.26430941415E+01  0.20351524969E+02  0.43400732796E+02  0.00000000000E+00 0. -1.
         11    1    4    4    0    0 -0.18091715428E+02  0.12283213661E+01 -0.54468261806E+01  0.18933749132E+02  0.51100000000E-03 0. -1.
        -11    1    4    4    0    0 -0.33832532034E+01 -0.25772730162E+01 -0.10706729445E+02  0.11520537926E+02  0.51100000000E-03 0.  1.
        -12    1    4    4    0    0 -0.16767064422E+02 -0.12941424914E+01 -0.41979693429E+01  0.17332980146E+02  0.00000000000E+00 0.  1.
</event>
<event>
 8    1  0.5834107E-011  0.9118800E+02  0.7816164E-02  0.1184000E+00
        -11   -1    0    0    0    0  0.00000000000E+00  0.00000000000E+00  0.45593999997E+02  0.45594000000E+02  0.51100000000E-03 0. -1.
         11   -1    0    0    0    0 -0.00000000000E+00 -0.00000000000E+00 -0.45593999997E+02  0.45594000000E+02  0.51100000000E-03 0.  1.
         23    2    1    2    0    0  0.00000000000E+00 -0.17763568394E-14  0.00000000000E+00  0.91188000000E+02  0.91188000000E+02 0.  0.
    9900012    2    3    3    0    0 -0.28809535225E+02 -0.13353895642E+02 -0.29585594245E+02  0.47787271486E+02  0.20000002012E+02 0.  0.
         12    1    3    3    0    0  0.28809535225E+02  0.13353895642E+02  0.29585594245E+02  0.43400728514E+02  0.00000000000E+00 0. -1.
         11    1    4    4    0    0 -0.70202260417E+01 -0.12008680902E+02 -0.73874897745E+01  0.15750142733E+02  0.51100000000E-03 0.  1.
        -11    1    4    4    0    0 -0.36840628565E+01  0.13906563259E+01 -0.78215409672E+01  0.87568685905E+01  0.51100000000E-03 0. -1.
        -12    1    4    4    0    0 -0.18105246327E+02 -0.27358710662E+01 -0.14376563504E+02  0.23280260162E+02  0.00000000000E+00 0.  1.
</event>
<event>
 8    1  0.5834107E-011  0.9118800E+02  0.7816164E-02  0.1184000E+00
        -11   -1    0    0    0    0  0.00000000000E+00  0.00000000000E+00  0.45593999997E+02  0.45594000000E+02  0.51100000000E-03 0.  1.
         11   -1    0    0    0    0 -0.00000000000E+00 -0.00000000000E+00 -0.45593999997E+02  0.45594000000E+02  0.51100000000E-03 0. -1.
         23    2    1    2    0    0  0.00000000000E+00  0.00000000000E+00 -0.35527136788E-14  0.91188000000E+02  0.91188000000E+02 0.  0.
    9900012    2    3    3    0    0 -0.13280878456E+02  0.37695173385E+02  0.16920840965E+02  0.47787277794E+02  0.20000030775E+02 0.  0.
        -12    1    3    3    0    0  0.13280878456E+02 -0.37695173385E+02 -0.16920840965E+02  0.43400722206E+02  0.00000000000E+00 0.  1.
         11    1    4    4    0    0 -0.99077569517E+01  0.27820029138E+02  0.14713247305E+02  0.32993898157E+02  0.51100000000E-03 0. -1.
        -11    1    4    4    0    0 -0.15133252668E+01  0.93507814888E+01 -0.24215972352E+01  0.97770855189E+01  0.51100000000E-03 0.  1.
         12    1    4    4    0    0 -0.18597962371E+01  0.52436275784E+00  0.46291908947E+01  0.50162941187E+01  0.00000000000E+00 0. -1.
</event>
<event>
 8    1  0.5834107E-011  0.9118800E+02  0.7816164E-02  0.1184000E+00
        -11   -1    0    0    0    0  0.00000000000E+00  0.00000000000E+00  0.45593999997E+02  0.45594000000E+02  0.51100000000E-03 0. -1.
         11   -1    0    0    0    0 -0.00000000000E+00 -0.00000000000E+00 -0.45593999997E+02  0.45594000000E+02  0.51100000000E-03 0.  1.
         23    2    1    2    0    0  0.00000000000E+00  0.00000000000E+00  0.00000000000E+00  0.91188000000E+02  0.91188000000E+02 0.  0.
    9900012    2    3    3    0    0 -0.18351985210E+02  0.26229633379E+02 -0.29305873635E+02  0.47787271229E+02  0.20000000841E+02 0.  0.
         12    1    3    3    0    0  0.18351985210E+02 -0.26229633379E+02  0.29305873635E+02  0.43400728771E+02  0.00000000000E+00 0. -1.
         11    1    4    4    0    0 -0.83980541468E+00  0.11360132149E+02 -0.12674630032E+02  0.17041247674E+02  0.51100000000E-03 0. -1.
        -11    1    4    4    0    0 -0.72639491135E+01  0.30837623801E+01 -0.12167340092E+02  0.14502369197E+02  0.51100000000E-03 0.  1.
         12    1    4    4    0    0 -0.10248230682E+02  0.11785738850E+02 -0.44639035106E+01  0.16243654358E+02  0.00000000000E+00 0. -1.
</event>
<event>
 8    1  0.5834107E-011  0.9118800E+02  0.7816164E-02  0.1184000E+00
        -11   -1    0    0    0    0  0.00000000000E+00  0.00000000000E+00  0.45593999997E+02  0.45594000000E+02  0.51100000000E-03 0.  1.
         11   -1    0    0    0    0 -0.00000000000E+00 -0.00000000000E+00 -0.45593999997E+02  0.45594000000E+02  0.51100000000E-03 0. -1.
         23    2    1    2    0    0  0.35527136788E-14  0.00000000000E+00  0.00000000000E+00  0.91188000000E+02  0.91188000000E+02 0.  0.
    9900012    2    3    3    0    0 -0.19794493791E+02 -0.35212853246E+02  0.15869981965E+02  0.47787270217E+02  0.19999996226E+02 0.  0.
        -12    1    3    3    0    0  0.19794493791E+02  0.35212853246E+02 -0.15869981965E+02  0.43400729783E+02  0.00000000000E+00 0.  1.
         11    1    4    4    0    0 -0.13877127047E+02 -0.30431613490E+02  0.61098570204E+01  0.33999825113E+02  0.51100000000E-03 0. -1.
        -11    1    4    4    0    0 -0.60010832551E+01 -0.35369477850E+01  0.42987479733E+01  0.81854892504E+01  0.51100000000E-03 0.  1.
         12    1    4    4    0    0  0.83716510357E-01 -0.12442919709E+01  0.54613769709E+01  0.56019558532E+01  0.00000000000E+00 0. -1.
</event>
<event>
 8    1  0.5834107E-011  0.9118800E+02  0.7816164E-02  0.1184000E+00
        -11   -1    0    0    0    0  0.00000000000E+00  0.00000000000E+00  0.45593999997E+02  0.45594000000E+02  0.51100000000E-03 0. -1.
         11   -1    0    0    0    0 -0.00000000000E+00 -0.00000000000E+00 -0.45593999997E+02  0.45594000000E+02  0.51100000000E-03 0.  1.
         23    2    1    2    0    0  0.00000000000E+00  0.00000000000E+00  0.00000000000E+00  0.91188000000E+02  0.91188000000E+02 0.  0.
    9900012    2    3    3    0    0  0.10773637253E+02  0.40739084959E+02  0.10386461587E+02  0.47787275498E+02  0.20000020305E+02 0.  0.
        -12    1    3    3    0    0 -0.10773637253E+02 -0.40739084959E+02 -0.10386461587E+02  0.43400724502E+02  0.00000000000E+00 0.  1.
         11    1    4    4    0    0  0.60747075743E+01  0.89289136213E+01  0.80014455451E+01  0.13440636207E+02  0.51100000000E-03 0. -1.
        -11    1    4    4    0    0 -0.39168378511E+01  0.73704299371E+01  0.37832926615E+00  0.83551175638E+01  0.51100000000E-03 0.  1.
         12    1    4    4    0    0  0.86157675302E+01  0.24439741401E+02  0.20066867761E+01  0.25991521727E+02  0.00000000000E+00 0. -1.
</event>
<event>
 8    1  0.5834107E-011  0.9118800E+02  0.7816164E-02  0.1184000E+00
        -11   -1    0    0    0    0  0.00000000000E+00  0.00000000000E+00  0.45593999997E+02  0.45594000000E+02  0.51100000000E-03 0. -1.
         11   -1    0    0    0    0 -0.00000000000E+00 -0.00000000000E+00 -0.45593999997E+02  0.45594000000E+02  0.51100000000E-03 0.  1.
         23    2    1    2    0    0  0.00000000000E+00  0.00000000000E+00  0.35527136788E-14  0.91188000000E+02  0.91188000000E+02 0.  0.
    9900012    2    3    3    0    0  0.17884885876E+02  0.32041285306E+02  0.23175636329E+02  0.47787271595E+02  0.20000002510E+02 0.  0.
        -12    1    3    3    0    0 -0.17884885876E+02 -0.32041285306E+02 -0.23175636329E+02  0.43400728405E+02  0.00000000000E+00 0.  1.
         11    1    4    4    0    0  0.59513819330E+01  0.11393476412E+01  0.25940634180E+01  0.65913750642E+01  0.51100000000E-03 0.  1.
        -11    1    4    4    0    0  0.37062304061E+01  0.48774602854E+01  0.10389600354E+02  0.12061076172E+02  0.51100000000E-03 0. -1.
        -12    1    4    4    0    0  0.82272735365E+01  0.26024477379E+02  0.10191972557E+02  0.29134820358E+02  0.00000000000E+00 0.  1.
</event>
<event>
 8    1  0.5834107E-011  0.9118800E+02  0.7816164E-02  0.1184000E+00
        -11   -1    0    0    0    0  0.00000000000E+00  0.00000000000E+00  0.45593999997E+02  0.45594000000E+02  0.51100000000E-03 0. -1.
         11   -1    0    0    0    0 -0.00000000000E+00 -0.00000000000E+00 -0.45593999997E+02  0.45594000000E+02  0.51100000000E-03 0.  1.
         23    2    1    2    0    0  0.00000000000E+00  0.00000000000E+00  0.00000000000E+00  0.91188000000E+02  0.91188000000E+02 0.  0.
    9900012    2    3    3    0    0 -0.11451400496E+02 -0.40037783133E+02 -0.12225576080E+02  0.47787270029E+02  0.19999995369E+02 0.  0.
         12    1    3    3    0    0  0.11451400496E+02  0.40037783133E+02  0.12225576080E+02  0.43400729971E+02  0.00000000000E+00 0. -1.
         11    1    4    4    0    0 -0.11303727148E+02 -0.16016516000E+02 -0.68116449266E+01  0.20753350069E+02  0.51100000000E-03 0. -1.
        -11    1    4    4    0    0  0.33412242324E+01 -0.16009058887E+01  0.78115892824E-02  0.37049615812E+01  0.51100000000E-03 0.  1.
        -12    1    4    4    0    0 -0.34888975807E+01 -0.22420361245E+02 -0.54217427427E+01  0.23328958379E+02  0.00000000000E+00 0.  1.
</event>
<event>
 8    1  0.5834107E-011  0.9118800E+02  0.7816164E-02  0.1184000E+00
        -11   -1    0    0    0    0  0.00000000000E+00  0.00000000000E+00  0.45593999997E+02  0.45594000000E+02  0.51100000000E-03 0. -1.
         11   -1    0    0    0    0 -0.00000000000E+00 -0.00000000000E+00 -0.45593999997E+02  0.45594000000E+02  0.51100000000E-03 0.  1.
         23    2    1    2    0    0  0.00000000000E+00 -0.88817841970E-15 -0.35527136788E-14  0.91188000000E+02  0.91188000000E+02 0.  0.
    9900012    2    3    3    0    0 -0.28974482696E+02 -0.56055738077E+01 -0.31822634595E+02  0.47787272152E+02  0.20000005048E+02 0.  0.
         12    1    3    3    0    0  0.28974482696E+02  0.56055738077E+01  0.31822634595E+02  0.43400727848E+02  0.00000000000E+00 0. -1.
         11    1    4    4    0    0 -0.10709877633E+02  0.73507872859E+00 -0.31124835644E+01  0.11177180944E+02  0.51100000000E-03 0. -1.
        -11    1    4    4    0    0 -0.16999844205E+02 -0.75193347610E+01 -0.18397229608E+02  0.26153262813E+02  0.51100000000E-03 0.  1.
        -12    1    4    4    0    0 -0.12647608578E+01  0.11786822247E+01 -0.10312921422E+02  0.10456828395E+02  0.00000000000E+00 0.  1.
</event>
<event>
 8    1  0.5834107E-011  0.9118800E+02  0.7816164E-02  0.1184000E+00
        -11   -1    0    0    0    0  0.00000000000E+00  0.00000000000E+00  0.45593999997E+02  0.45594000000E+02  0.51100000000E-03 0. -1.
         11   -1    0    0    0    0 -0.00000000000E+00 -0.00000000000E+00 -0.45593999997E+02  0.45594000000E+02  0.51100000000E-03 0.  1.
         23    2    1    2    0    0 -0.71054273576E-14  0.00000000000E+00  0.00000000000E+00  0.91188000000E+02  0.91188000000E+02 0.  0.
    9900012    2    3    3    0    0  0.34118347376E+02  0.43497574418E+01  0.26469644752E+02  0.47787261403E+02  0.19999956042E+02 0.  0.
        -12    1    3    3    0    0 -0.34118347376E+02 -0.43497574418E+01 -0.26469644752E+02  0.43400738597E+02  0.00000000000E+00 0.  1.
         11    1    4    4    0    0  0.75590729393E+01 -0.38903776588E+01  0.65690272141E+01  0.10743683764E+02  0.51100000000E-03 0. -1.
        -11    1    4    4    0    0  0.22790700884E+02  0.56756785523E+01  0.88659642631E+01  0.25104475625E+02  0.51100000000E-03 0.  1.
        -12    1    4    4    0    0  0.37685735524E+01  0.25644565483E+01  0.11034653274E+02  0.11939102014E+02  0.00000000000E+00 0.  1.
</event>
<event>
 8    1  0.5834107E-011  0.9118800E+02  0.7816164E-02  0.1184000E+00
        -11   -1    0    0    0    0  0.00000000000E+00  0.00000000000E+00  0.45593999997E+02  0.45594000000E+02  0.51100000000E-03 0. -1.
         11   -1    0    0    0    0 -0.00000000000E+00 -0.00000000000E+00 -0.45593999997E+02  0.45594000000E+02  0.51100000000E-03 0.  1.
         23    2    1    2    0    0  0.00000000000E+00  0.00000000000E+00 -0.71054273576E-14  0.91188000000E+02  0.91188000000E+02 0.  0.
    9900012    2    3    3    0    0 -0.18007656566E+02  0.12022183710E+02  0.37614025941E+02  0.47787267937E+02  0.19999985831E+02 0.  0.
        -12    1    3    3    0    0  0.18007656566E+02 -0.12022183710E+02 -0.37614025941E+02  0.43400732063E+02  0.00000000000E+00 0.  1.
         11    1    4    4    0    0 -0.10118295878E+02  0.37961609874E+01  0.20532047914E+02  0.23202494296E+02  0.51100000000E-03 0. -1.
        -11    1    4    4    0    0  0.31904506620E+00 -0.33701818286E+01  0.23688305896E+01  0.41317398195E+01  0.51100000000E-03 0.  1.
         12    1    4    4    0    0 -0.82084057539E+01  0.11596204551E+02  0.14713147437E+02  0.20453033822E+02  0.00000000000E+00 0. -1.
</event>
<event>
 8    1  0.5834107E-011  0.9118800E+02  0.7816164E-02  0.1184000E+00
        -11   -1    0    0    0    0  0.00000000000E+00  0.00000000000E+00  0.45593999997E+02  0.45594000000E+02  0.51100000000E-03 0.  1.
         11   -1    0    0    0    0 -0.00000000000E+00 -0.00000000000E+00 -0.45593999997E+02  0.45594000000E+02  0.51100000000E-03 0. -1.
         23    2    1    2    0    0  0.00000000000E+00  0.00000000000E+00  0.71054273576E-14  0.91188000000E+02  0.91188000000E+02 0.  0.
    9900012    2    3    3    0    0  0.20797769935E+02 -0.16069597207E+02  0.34537571888E+02  0.47787273501E+02  0.20000011202E+02 0.  0.
        -12    1    3    3    0    0 -0.20797769935E+02  0.16069597207E+02 -0.34537571888E+02  0.43400726499E+02  0.00000000000E+00 0.  1.
         11    1    4    4    0    0  0.36652510107E+01 -0.16436157099E+01 -0.18936512393E+01  0.44408842420E+01  0.51100000000E-03 0. -1.
        -11    1    4    4    0    0  0.17524886110E+01 -0.66617229464E+00  0.54993730162E+00  0.19538252621E+01  0.51100000000E-03 0.  1.
        -12    1    4    4    0    0  0.15380030314E+02 -0.13759809202E+02  0.35881285826E+02  0.41392563997E+02  0.00000000000E+00 0.  1.
</event>
<event>
 8    1  0.5834107E-011  0.9118800E+02  0.7816164E-02  0.1184000E+00
        -11   -1    0    0    0    0  0.00000000000E+00  0.00000000000E+00  0.45593999997E+02  0.45594000000E+02  0.51100000000E-03 0. -1.
         11   -1    0    0    0    0 -0.00000000000E+00 -0.00000000000E+00 -0.45593999997E+02  0.45594000000E+02  0.51100000000E-03 0.  1.
         23    2    1    2    0    0  0.00000000000E+00  0.17763568394E-14  0.00000000000E+00  0.91188000000E+02  0.91188000000E+02 0.  0.
    9900012    2    3    3    0    0  0.22511918258E+02 -0.12223756825E+02  0.35034508750E+02  0.47787268464E+02  0.19999988233E+02 0.  0.
        -12    1    3    3    0    0 -0.22511918258E+02  0.12223756825E+02 -0.35034508750E+02  0.43400731536E+02  0.00000000000E+00 0.  1.
         11    1    4    4    0    0  0.16266231599E+02  0.85447400275E+00  0.15608502998E+02  0.22559826736E+02  0.51100000000E-03 0. -1.
        -11    1    4    4    0    0 -0.63259218064E+00  0.35929322082E+00  0.14808238800E+00  0.74242382794E+00  0.51100000000E-03 0.  1.
         12    1    4    4    0    0  0.68782788398E+01 -0.13437524049E+02  0.19277923363E+02  0.24485017900E+02  0.00000000000E+00 0. -1.
</event>
<event>
 8    1  0.5834107E-011  0.9118800E+02  0.7816164E-02  0.1184000E+00
        -11   -1    0    0    0    0  0.00000000000E+00  0.00000000000E+00  0.45593999997E+02  0.45594000000E+02  0.51100000000E-03 0. -1.
         11   -1    0    0    0    0 -0.00000000000E+00 -0.00000000000E+00 -0.45593999997E+02  0.45594000000E+02  0.51100000000E-03 0.  1.
         23    2    1    2    0    0  0.00000000000E+00  0.00000000000E+00  0.00000000000E+00  0.91188000000E+02  0.91188000000E+02 0.  0.
    9900012    2    3    3    0    0 -0.93987270362E+01  0.38867839768E+02 -0.16869452568E+02  0.47787268807E+02  0.19999989801E+02 0.  0.
         12    1    3    3    0    0  0.93987270362E+01 -0.38867839768E+02  0.16869452568E+02  0.43400731193E+02  0.00000000000E+00 0. -1.
         11    1    4    4    0    0 -0.85355454092E+00 -0.11178443726E+00 -0.26921054770E+01  0.28263905030E+01  0.51100000000E-03 0. -1.
        -11    1    4    4    0    0 -0.10980906962E+02  0.25380354233E+02 -0.43205737499E+01  0.27989463312E+02  0.51100000000E-03 0.  1.
        -12    1    4    4    0    0  0.24357344663E+01  0.13599269972E+02 -0.98567733410E+01  0.16971414993E+02  0.00000000000E+00 0.  1.
</event>
<event>
 8    1  0.5834107E-011  0.9118800E+02  0.7816164E-02  0.1184000E+00
        -11   -1    0    0    0    0  0.00000000000E+00  0.00000000000E+00  0.45593999997E+02  0.45594000000E+02  0.51100000000E-03 0. -1.
         11   -1    0    0    0    0 -0.00000000000E+00 -0.00000000000E+00 -0.45593999997E+02  0.45594000000E+02  0.51100000000E-03 0.  1.
         23    2    1    2    0    0  0.00000000000E+00  0.00000000000E+00  0.00000000000E+00  0.91188000000E+02  0.91188000000E+02 0.  0.
    9900012    2    3    3    0    0 -0.34296964192E+02  0.15540095279E+02  0.21583514161E+02  0.47787258098E+02  0.19999940973E+02 0.  0.
        -12    1    3    3    0    0  0.34296964192E+02 -0.15540095279E+02 -0.21583514161E+02  0.43400741902E+02  0.00000000000E+00 0.  1.
         11    1    4    4    0    0 -0.17241900815E+02  0.82331275550E+01  0.91016137153E+01  0.21163811224E+02  0.51100000000E-03 0. -1.
        -11    1    4    4    0    0 -0.55344861465E+01 -0.15820983125E+01  0.10450729250E+02  0.11931106994E+02  0.51100000000E-03 0.  1.
        -12    1    4    4    0    0 -0.11520577231E+02  0.88890660369E+01  0.20311711956E+01  0.14692339881E+02  0.00000000000E+00 0.  1.
</event>
<event>
 8    1  0.5834107E-011  0.9118800E+02  0.7816164E-02  0.1184000E+00
        -11   -1    0    0    0    0  0.00000000000E+00  0.00000000000E+00  0.45593999997E+02  0.45594000000E+02  0.51100000000E-03 0. -1.
         11   -1    0    0    0    0 -0.00000000000E+00 -0.00000000000E+00 -0.45593999997E+02  0.45594000000E+02  0.51100000000E-03 0.  1.
         23    2    1    2    0    0  0.00000000000E+00  0.13877787808E-16  0.00000000000E+00  0.91188000000E+02  0.91188000000E+02 0.  0.
    9900012    2    3    3    0    0  0.10508049483E+02  0.67664296491E-01  0.42109355563E+02  0.47787291385E+02  0.20000092739E+02 0.  0.
        -12    1    3    3    0    0 -0.10508049483E+02 -0.67664296491E-01 -0.42109355563E+02  0.43400708615E+02  0.00000000000E+00 0.  1.
         11    1    4    4    0    0  0.42834488880E+01 -0.25138548425E+01  0.18677665421E+02  0.19326732429E+02  0.51100000000E-03 0. -1.
        -11    1    4    4    0    0 -0.19056584785E+01  0.63348183298E+01  0.13832759056E+02  0.15333188868E+02  0.51100000000E-03 0.  1.
        -12    1    4    4    0    0  0.81302590737E+01 -0.37532991907E+01  0.95989310859E+01  0.13127370087E+02  0.00000000000E+00 0.  1.
</event>
<event>
 8    1  0.5834107E-011  0.9118800E+02  0.7816164E-02  0.1184000E+00
        -11   -1    0    0    0    0  0.00000000000E+00  0.00000000000E+00  0.45593999997E+02  0.45594000000E+02  0.51100000000E-03 0. -1.
         11   -1    0    0    0    0 -0.00000000000E+00 -0.00000000000E+00 -0.45593999997E+02  0.45594000000E+02  0.51100000000E-03 0.  1.
         23    2    1    2    0    0  0.00000000000E+00 -0.17763568394E-14  0.00000000000E+00  0.91188000000E+02  0.91188000000E+02 0.  0.
    9900012    2    3    3    0    0 -0.36608106341E+02  0.95186361878E+01 -0.21280621047E+02  0.47787277462E+02  0.20000029258E+02 0.  0.
         12    1    3    3    0    0  0.36608106341E+02 -0.95186361878E+01  0.21280621047E+02  0.43400722538E+02  0.00000000000E+00 0. -1.
         11    1    4    4    0    0 -0.95920479066E+01  0.83510252756E+01 -0.80685792932E+01  0.15061506507E+02  0.51100000000E-03 0.  1.
        -11    1    4    4    0    0 -0.14103369282E+02  0.13983613221E+01  0.10775485636E+00  0.14172933742E+02  0.51100000000E-03 0. -1.
        -12    1    4    4    0    0 -0.12912689152E+02 -0.23075040989E+00 -0.13319796610E+02  0.18552837212E+02  0.00000000000E+00 0.  1.
</event>
<event>
 8    1  0.5834107E-011  0.9118800E+02  0.7816164E-02  0.1184000E+00
        -11   -1    0    0    0    0  0.00000000000E+00  0.00000000000E+00  0.45593999997E+02  0.45594000000E+02  0.51100000000E-03 0.  1.
         11   -1    0    0    0    0 -0.00000000000E+00 -0.00000000000E+00 -0.45593999997E+02  0.45594000000E+02  0.51100000000E-03 0. -1.
         23    2    1    2    0    0 -0.17763568394E-14  0.71054273576E-14  0.00000000000E+00  0.91188000000E+02  0.91188000000E+02 0.  0.
    9900012    2    3    3    0    0 -0.11500814184E+02  0.34669428767E+02 -0.23438963356E+02  0.47787273956E+02  0.20000013276E+02 0.  0.
         12    1    3    3    0    0  0.11500814184E+02 -0.34669428767E+02  0.23438963356E+02  0.43400726044E+02  0.00000000000E+00 0. -1.
         11    1    4    4    0    0  0.45952537617E+01  0.65553266240E+01 -0.35122995997E+01  0.87421343516E+01  0.51100000000E-03 0. -1.
        -11    1    4    4    0    0 -0.65456083413E+01  0.10210678021E+02 -0.26954737745E+01  0.12424512600E+02  0.51100000000E-03 0.  1.
        -12    1    4    4    0    0 -0.95504596046E+01  0.17903424122E+02 -0.17231189982E+02  0.26620627005E+02  0.00000000000E+00 0.  1.
</event>
<event>
 8    1  0.5834107E-011  0.9118800E+02  0.7816164E-02  0.1184000E+00
        -11   -1    0    0    0    0  0.00000000000E+00  0.00000000000E+00  0.45593999997E+02  0.45594000000E+02  0.51100000000E-03 0. -1.
         11   -1    0    0    0    0 -0.00000000000E+00 -0.00000000000E+00 -0.45593999997E+02  0.45594000000E+02  0.51100000000E-03 0.  1.
         23    2    1    2    0    0  0.00000000000E+00  0.17763568394E-14 -0.71054273576E-14  0.91188000000E+02  0.91188000000E+02 0.  0.
    9900012    2    3    3    0    0 -0.53841514859E+01  0.14197217250E+02  0.40658001925E+02  0.47787272064E+02  0.20000004647E+02 0.  0.
        -12    1    3    3    0    0  0.53841514859E+01 -0.14197217250E+02 -0.40658001925E+02  0.43400727936E+02  0.00000000000E+00 0.  1.
         11    1    4    4    0    0 -0.43543479844E+01  0.51683249102E+01  0.42353039647E+01  0.79755707433E+01  0.51100000000E-03 0.  1.
        -11    1    4    4    0    0 -0.15162007690E+01  0.12417332814E+02  0.26247377723E+02  0.29076001386E+02  0.51100000000E-03 0. -1.
         12    1    4    4    0    0  0.48639726746E+00 -0.33884404746E+01  0.10175320237E+02  0.10735699934E+02  0.00000000000E+00 0. -1.
</event>
<event>
 8    1  0.5834107E-011  0.9118800E+02  0.7816164E-02  0.1184000E+00
        -11   -1    0    0    0    0  0.00000000000E+00  0.00000000000E+00  0.45593999997E+02  0.45594000000E+02  0.51100000000E-03 0. -1.
         11   -1    0    0    0    0 -0.00000000000E+00 -0.00000000000E+00 -0.45593999997E+02  0.45594000000E+02  0.51100000000E-03 0.  1.
         23    2    1    2    0    0  0.71054273576E-14 -0.17763568394E-14 -0.35527136788E-14  0.91188000000E+02  0.91188000000E+02 0.  0.
    9900012    2    3    3    0    0 -0.33401808715E+02  0.11077138545E+02  0.25401557967E+02  0.47787274534E+02  0.20000015911E+02 0.  0.
        -12    1    3    3    0    0  0.33401808715E+02 -0.11077138545E+02 -0.25401557967E+02  0.43400725466E+02  0.00000000000E+00 0.  1.
         11    1    4    4    0    0 -0.12632306604E+02  0.40738469724E+01  0.13864639531E+02  0.19193739314E+02  0.51100000000E-03 0. -1.
        -11    1    4    4    0    0 -0.17315397185E+01 -0.38626401606E+01  0.21488696546E+01  0.47471949466E+01  0.51100000000E-03 0.  1.
         12    1    4    4    0    0 -0.19037962393E+02  0.10865931733E+02  0.93880487819E+01  0.23846340273E+02  0.00000000000E+00 0. -1.
</event>
<event>
 8    1  0.5834107E-011  0.9118800E+02  0.7816164E-02  0.1184000E+00
        -11   -1    0    0    0    0  0.00000000000E+00  0.00000000000E+00  0.45593999997E+02  0.45594000000E+02  0.51100000000E-03 0. -1.
         11   -1    0    0    0    0 -0.00000000000E+00 -0.00000000000E+00 -0.45593999997E+02  0.45594000000E+02  0.51100000000E-03 0.  1.
         23    2    1    2    0    0  0.11102230246E-15  0.71054273576E-14  0.35527136788E-14  0.91188000000E+02  0.91188000000E+02 0.  0.
    9900012    2    3    3    0    0  0.67443719335E+00 -0.32265968071E+02 -0.29018547729E+02  0.47787266442E+02  0.19999979016E+02 0.  0.
         12    1    3    3    0    0 -0.67443719335E+00  0.32265968071E+02  0.29018547729E+02  0.43400733558E+02  0.00000000000E+00 0. -1.
         11    1    4    4    0    0 -0.39615228402E+01 -0.26482396603E+02 -0.14641782631E+02  0.30518728544E+02  0.51100000000E-03 0. -1.
        -11    1    4    4    0    0  0.14939640642E+01 -0.62066072746E+01 -0.10005917732E+02  0.11868963409E+02  0.51100000000E-03 0.  1.
         12    1    4    4    0    0  0.31419959693E+01  0.42303580690E+00 -0.43708473662E+01  0.53995744891E+01  0.00000000000E+00 0. -1.
</event>
<event>
 8    1  0.5834107E-011  0.9118800E+02  0.7816164E-02  0.1184000E+00
        -11   -1    0    0    0    0  0.00000000000E+00  0.00000000000E+00  0.45593999997E+02  0.45594000000E+02  0.51100000000E-03 0. -1.
         11   -1    0    0    0    0 -0.00000000000E+00 -0.00000000000E+00 -0.45593999997E+02  0.45594000000E+02  0.51100000000E-03 0.  1.
         23    2    1    2    0    0  0.00000000000E+00  0.00000000000E+00  0.00000000000E+00  0.91188000000E+02  0.91188000000E+02 0.  0.
    9900012    2    3    3    0    0 -0.14387315286E+02 -0.14665886355E+02  0.38230094867E+02  0.47787271696E+02  0.20000002972E+02 0.  0.
        -12    1    3    3    0    0  0.14387315286E+02  0.14665886355E+02 -0.38230094867E+02  0.43400728304E+02  0.00000000000E+00 0.  1.
         11    1    4    4    0    0 -0.48513169718E+01 -0.37764907577E+01  0.18099372188E+02  0.19115031590E+02  0.51100000000E-03 0. -1.
        -11    1    4    4    0    0 -0.50639815324E+01 -0.74132862822E+01  0.21095608453E+02  0.22926522168E+02  0.51100000000E-03 0.  1.
        -12    1    4    4    0    0 -0.44720167822E+01 -0.34761093156E+01 -0.96488577378E+00  0.57457179387E+01  0.00000000000E+00 0.  1.
</event>
<event>
 8    1  0.5834107E-011  0.9118800E+02  0.7816164E-02  0.1184000E+00
        -11   -1    0    0    0    0  0.00000000000E+00  0.00000000000E+00  0.45593999997E+02  0.45594000000E+02  0.51100000000E-03 0. -1.
         11   -1    0    0    0    0 -0.00000000000E+00 -0.00000000000E+00 -0.45593999997E+02  0.45594000000E+02  0.51100000000E-03 0.  1.
         23    2    1    2    0    0  0.88817841970E-15  0.00000000000E+00  0.71054273576E-14  0.91188000000E+02  0.91188000000E+02 0.  0.
    9900012    2    3    3    0    0 -0.59029803989E+01  0.91032982733E+01 -0.42022708905E+02  0.47787270965E+02  0.19999999637E+02 0.  0.
         12    1    3    3    0    0  0.59029803989E+01 -0.91032982733E+01  0.42022708905E+02  0.43400729035E+02  0.00000000000E+00 0. -1.
         11    1    4    4    0    0 -0.26440515754E+01 -0.31104794717E+01 -0.86155177496E+01  0.95337945033E+01  0.51100000000E-03 0. -1.
        -11    1    4    4    0    0  0.17107993631E+00  0.14152483644E+02 -0.29422758247E+02  0.32649973427E+02  0.51100000000E-03 0.  1.
        -12    1    4    4    0    0 -0.34300087598E+01 -0.19387058995E+01 -0.39844329087E+01  0.56035030348E+01  0.00000000000E+00 0.  1.
</event>
<event>
 8    1  0.5834107E-011  0.9118800E+02  0.7816164E-02  0.1184000E+00
        -11   -1    0    0    0    0  0.00000000000E+00  0.00000000000E+00  0.45593999997E+02  0.45594000000E+02  0.51100000000E-03 0.  1.
         11   -1    0    0    0    0 -0.00000000000E+00 -0.00000000000E+00 -0.45593999997E+02  0.45594000000E+02  0.51100000000E-03 0. -1.
         23    2    1    2    0    0  0.00000000000E+00  0.00000000000E+00  0.00000000000E+00  0.91188000000E+02  0.91188000000E+02 0.  0.
    9900012    2    3    3    0    0 -0.13738351050E+02  0.32636273414E+02  0.25094911596E+02  0.47787271665E+02  0.20000002830E+02 0.  0.
        -12    1    3    3    0    0  0.13738351050E+02 -0.32636273414E+02 -0.25094911596E+02  0.43400728335E+02  0.00000000000E+00 0.  1.
         11    1    4    4    0    0 -0.15877675228E+02  0.20507164752E+02  0.16316814102E+02  0.30641194486E+02  0.51100000000E-03 0. -1.
        -11    1    4    4    0    0  0.93564493521E+00  0.85373417498E+01  0.11972930392E+01  0.86715135058E+01  0.51100000000E-03 0.  1.
        -12    1    4    4    0    0  0.12036792428E+01  0.35917669129E+01  0.75808044549E+01  0.84745636737E+01  0.00000000000E+00 0.  1.
</event>
<event>
 8    1  0.5834107E-011  0.9118800E+02  0.7816164E-02  0.1184000E+00
        -11   -1    0    0    0    0  0.00000000000E+00  0.00000000000E+00  0.45593999997E+02  0.45594000000E+02  0.51100000000E-03 0. -1.
         11   -1    0    0    0    0 -0.00000000000E+00 -0.00000000000E+00 -0.45593999997E+02  0.45594000000E+02  0.51100000000E-03 0.  1.
         23    2    1    2    0    0  0.35527136788E-14 -0.35527136788E-14 -0.35527136788E-14  0.91188000000E+02  0.91188000000E+02 0.  0.
    9900012    2    3    3    0    0  0.19722369556E+02 -0.28372064615E+02 -0.26261717151E+02  0.47787266145E+02  0.19999977663E+02 0.  0.
         12    1    3    3    0    0 -0.19722369556E+02  0.28372064615E+02  0.26261717151E+02  0.43400733855E+02  0.00000000000E+00 0. -1.
         11    1    4    4    0    0  0.49996058239E+01 -0.14607061329E+02 -0.16596826995E+02  0.22667531088E+02  0.51100000000E-03 0. -1.
        -11    1    4    4    0    0  0.51773797013E+01 -0.17743728654E+00 -0.63356664319E+01  0.81839729936E+01  0.51100000000E-03 0.  1.
         12    1    4    4    0    0  0.95453840312E+01 -0.13587565999E+02 -0.33292237245E+01  0.16935762064E+02  0.00000000000E+00 0. -1.
</event>
<event>
 8    1  0.5834107E-011  0.9118800E+02  0.7816164E-02  0.1184000E+00
        -11   -1    0    0    0    0  0.00000000000E+00  0.00000000000E+00  0.45593999997E+02  0.45594000000E+02  0.51100000000E-03 0. -1.
         11   -1    0    0    0    0 -0.00000000000E+00 -0.00000000000E+00 -0.45593999997E+02  0.45594000000E+02  0.51100000000E-03 0.  1.
         23    2    1    2    0    0 -0.17763568394E-14  0.00000000000E+00 -0.35527136788E-14  0.91188000000E+02  0.91188000000E+02 0.  0.
    9900012    2    3    3    0    0  0.84371150830E+01 -0.34263430711E+02  0.25267680974E+02  0.47787270781E+02  0.19999998797E+02 0.  0.
        -12    1    3    3    0    0 -0.84371150830E+01  0.34263430711E+02 -0.25267680974E+02  0.43400729219E+02  0.00000000000E+00 0.  1.
         11    1    4    4    0    0  0.33458720526E+01 -0.14105325596E+02  0.25585724920E+01  0.14720779987E+02  0.51100000000E-03 0. -1.
        -11    1    4    4    0    0  0.44309959560E+01 -0.36595201536E+01  0.10673545270E+01  0.58450884393E+01  0.51100000000E-03 0.  1.
         12    1    4    4    0    0  0.66024707446E+00 -0.16498584961E+02  0.21641753955E+02  0.27221402354E+02  0.00000000000E+00 0. -1.
</event>
<event>
 8    1  0.5834107E-011  0.9118800E+02  0.7816164E-02  0.1184000E+00
        -11   -1    0    0    0    0  0.00000000000E+00  0.00000000000E+00  0.45593999997E+02  0.45594000000E+02  0.51100000000E-03 0. -1.
         11   -1    0    0    0    0 -0.00000000000E+00 -0.00000000000E+00 -0.45593999997E+02  0.45594000000E+02  0.51100000000E-03 0.  1.
         23    2    1    2    0    0  0.17763568394E-14  0.00000000000E+00  0.00000000000E+00  0.91188000000E+02  0.91188000000E+02 0.  0.
    9900012    2    3    3    0    0 -0.11707436290E+02  0.21462828860E+02  0.35859528040E+02  0.47787276061E+02  0.20000022875E+02 0.  0.
        -12    1    3    3    0    0  0.11707436290E+02 -0.21462828860E+02 -0.35859528040E+02  0.43400723939E+02  0.00000000000E+00 0.  1.
         11    1    4    4    0    0 -0.52125011243E+01  0.31874965179E+00  0.23889739571E+01  0.57427315922E+01  0.51100000000E-03 0. -1.
        -11    1    4    4    0    0  0.32968423741E+01  0.79144336216E+01  0.15217862312E+02  0.17466847534E+02  0.51100000000E-03 0.  1.
         12    1    4    4    0    0 -0.97917775402E+01  0.13229645587E+02  0.18252691771E+02  0.24577696935E+02  0.00000000000E+00 0. -1.
</event>
<event>
 8    1  0.5834107E-011  0.9118800E+02  0.7816164E-02  0.1184000E+00
        -11   -1    0    0    0    0  0.00000000000E+00  0.00000000000E+00  0.45593999997E+02  0.45594000000E+02  0.51100000000E-03 0.  1.
         11   -1    0    0    0    0 -0.00000000000E+00 -0.00000000000E+00 -0.45593999997E+02  0.45594000000E+02  0.51100000000E-03 0. -1.
         23    2    1    2    0    0  0.00000000000E+00  0.00000000000E+00  0.00000000000E+00  0.91188000000E+02  0.91188000000E+02 0.  0.
    9900012    2    3    3    0    0  0.41964627886E+02 -0.10913247781E+02  0.18690929862E+01  0.47787280198E+02  0.20000041735E+02 0.  0.
         12    1    3    3    0    0 -0.41964627886E+02  0.10913247781E+02 -0.18690929862E+01  0.43400719802E+02  0.00000000000E+00 0. -1.
         11    1    4    4    0    0  0.30541623662E+01 -0.27222247700E+01  0.41884848318E+01  0.58550679676E+01  0.51100000000E-03 0. -1.
        -11    1    4    4    0    0  0.31929240079E+02 -0.11547587415E+02 -0.41703776918E+00  0.33955810518E+02  0.51100000000E-03 0.  1.
         12    1    4    4    0    0  0.69812254404E+01  0.33565644044E+01 -0.19023540764E+01  0.79764017127E+01  0.00000000000E+00 0. -1.
</event>
<event>
 8    1  0.5834107E-011  0.9118800E+02  0.7816164E-02  0.1184000E+00
        -11   -1    0    0    0    0  0.00000000000E+00  0.00000000000E+00  0.45593999997E+02  0.45594000000E+02  0.51100000000E-03 0. -1.
         11   -1    0    0    0    0 -0.00000000000E+00 -0.00000000000E+00 -0.45593999997E+02  0.45594000000E+02  0.51100000000E-03 0.  1.
         23    2    1    2    0    0  0.00000000000E+00  0.00000000000E+00  0.00000000000E+00  0.91188000000E+02  0.91188000000E+02 0.  0.
    9900012    2    3    3    0    0 -0.35303816369E+02  0.18874394785E+02 -0.16763676925E+02  0.47787273131E+02  0.20000009513E+02 0.  0.
         12    1    3    3    0    0  0.35303816369E+02 -0.18874394785E+02  0.16763676925E+02  0.43400726869E+02  0.00000000000E+00 0. -1.
         11    1    4    4    0    0 -0.17060121976E+01  0.17839751737E+01 -0.62289278388E+01  0.67001930808E+01  0.51100000000E-03 0. -1.
        -11    1    4    4    0    0 -0.10785398891E+02  0.58403636062E+01  0.24827335990E+01  0.12513937937E+02  0.51100000000E-03 0.  1.
        -12    1    4    4    0    0 -0.22812405280E+02  0.11250056005E+02 -0.13017482685E+02  0.28573142113E+02  0.00000000000E+00 0.  1.
</event>
<event>
 8    1  0.5834107E-011  0.9118800E+02  0.7816164E-02  0.1184000E+00
        -11   -1    0    0    0    0  0.00000000000E+00  0.00000000000E+00  0.45593999997E+02  0.45594000000E+02  0.51100000000E-03 0. -1.
         11   -1    0    0    0    0 -0.00000000000E+00 -0.00000000000E+00 -0.45593999997E+02  0.45594000000E+02  0.51100000000E-03 0.  1.
         23    2    1    2    0    0  0.00000000000E+00  0.35527136788E-14 -0.71054273576E-14  0.91188000000E+02  0.91188000000E+02 0.  0.
    9900012    2    3    3    0    0  0.13310060867E+02 -0.18783737759E+02  0.36791767545E+02  0.47787300886E+02  0.20000136059E+02 0.  0.
        -12    1    3    3    0    0 -0.13310060867E+02  0.18783737759E+02 -0.36791767545E+02  0.43400699114E+02  0.00000000000E+00 0.  1.
         11    1    4    4    0    0 -0.26776798686E+01 -0.46945273983E+01  0.12901001472E+02  0.13987294099E+02  0.51100000000E-03 0. -1.
        -11    1    4    4    0    0 -0.17376683088E+00 -0.51248415605E+01  0.31415887021E+01  0.60136324935E+01  0.51100000000E-03 0.  1.
        -12    1    4    4    0    0  0.16161507566E+02 -0.89643687998E+01  0.20749177372E+02  0.27786374294E+02  0.00000000000E+00 0.  1.
</event>
<event>
 8    1  0.5834107E-011  0.9118800E+02  0.7816164E-02  0.1184000E+00
        -11   -1    0    0    0    0  0.00000000000E+00  0.00000000000E+00  0.45593999997E+02  0.45594000000E+02  0.51100000000E-03 0.  1.
         11   -1    0    0    0    0 -0.00000000000E+00 -0.00000000000E+00 -0.45593999997E+02  0.45594000000E+02  0.51100000000E-03 0. -1.
         23    2    1    2    0    0 -0.44408920985E-15  0.00000000000E+00  0.00000000000E+00  0.91188000000E+02  0.91188000000E+02 0.  0.
    9900012    2    3    3    0    0  0.32129693430E+01  0.33157519384E+02 -0.27818661764E+02  0.47787283347E+02  0.20000056090E+02 0.  0.
         12    1    3    3    0    0 -0.32129693430E+01 -0.33157519384E+02  0.27818661764E+02  0.43400716653E+02  0.00000000000E+00 0. -1.
         11    1    4    4    0    0  0.59220048711E+01  0.14983009104E+02 -0.11168087733E+02  0.19603236656E+02  0.51100000000E-03 0. -1.
        -11    1    4    4    0    0  0.33713543048E+01  0.14520615669E+01  0.20222152533E+00  0.36763305685E+01  0.51100000000E-03 0.  1.
        -12    1    4    4    0    0 -0.60803898329E+01  0.16722448713E+02 -0.16852795556E+02  0.24507716122E+02  0.00000000000E+00 0.  1.
</event>
<event>
 8    1  0.5834107E-011  0.9118800E+02  0.7816164E-02  0.1184000E+00
        -11   -1    0    0    0    0  0.00000000000E+00  0.00000000000E+00  0.45593999997E+02  0.45594000000E+02  0.51100000000E-03 0. -1.
         11   -1    0    0    0    0 -0.00000000000E+00 -0.00000000000E+00 -0.45593999997E+02  0.45594000000E+02  0.51100000000E-03 0.  1.
         23    2    1    2    0    0  0.00000000000E+00 -0.35527136788E-14 -0.71054273576E-14  0.91188000000E+02  0.91188000000E+02 0.  0.
    9900012    2    3    3    0    0 -0.18763398837E+02  0.14175855615E+02  0.36477439229E+02  0.47787267390E+02  0.19999983340E+02 0.  0.
        -12    1    3    3    0    0  0.18763398837E+02 -0.14175855615E+02 -0.36477439229E+02  0.43400732610E+02  0.00000000000E+00 0.  1.
         11    1    4    4    0    0 -0.19456364518E+02  0.14193217660E+02  0.23546693247E+02  0.33681512896E+02  0.51100000000E-03 0. -1.
        -11    1    4    4    0    0 -0.10836504970E+01  0.58711404706E+00  0.21355233936E+00  0.12508421829E+01  0.51100000000E-03 0.  1.
         12    1    4    4    0    0  0.17766161787E+01 -0.60447609229E+00  0.12717193643E+02  0.12854912312E+02  0.00000000000E+00 0. -1.
</event>
<event>
 8    1  0.5834107E-011  0.9118800E+02  0.7816164E-02  0.1184000E+00
        -11   -1    0    0    0    0  0.00000000000E+00  0.00000000000E+00  0.45593999997E+02  0.45594000000E+02  0.51100000000E-03 0. -1.
         11   -1    0    0    0    0 -0.00000000000E+00 -0.00000000000E+00 -0.45593999997E+02  0.45594000000E+02  0.51100000000E-03 0.  1.
         23    2    1    2    0    0  0.00000000000E+00 -0.88817841970E-15  0.00000000000E+00  0.91188000000E+02  0.91188000000E+02 0.  0.
    9900012    2    3    3    0    0 -0.43767756490E+01  0.79470054732E+01  0.42441861413E+02  0.47787278102E+02  0.20000032178E+02 0.  0.
        -12    1    3    3    0    0  0.43767756490E+01 -0.79470054732E+01 -0.42441861413E+02  0.43400721898E+02  0.00000000000E+00 0.  1.
         11    1    4    4    0    0 -0.44618392072E+01 -0.12747712364E+01  0.70422868494E+01  0.84336738820E+01  0.51100000000E-03 0. -1.
        -11    1    4    4    0    0  0.17895789401E+01  0.86707130008E+01  0.81137224334E+01  0.12009011146E+02  0.51100000000E-03 0.  1.
        -12    1    4    4    0    0 -0.17045153818E+01  0.55106370875E+00  0.27285852130E+02  0.27344593074E+02  0.00000000000E+00 0.  1.
</event>
<event>
 8    1  0.5834107E-011  0.9118800E+02  0.7816164E-02  0.1184000E+00
        -11   -1    0    0    0    0  0.00000000000E+00  0.00000000000E+00  0.45593999997E+02  0.45594000000E+02  0.51100000000E-03 0. -1.
         11   -1    0    0    0    0 -0.00000000000E+00 -0.00000000000E+00 -0.45593999997E+02  0.45594000000E+02  0.51100000000E-03 0.  1.
         23    2    1    2    0    0  0.00000000000E+00 -0.22204460493E-15 -0.71054273576E-14  0.91188000000E+02  0.91188000000E+02 0.  0.
    9900012    2    3    3    0    0 -0.87752926777E+01 -0.10752163471E+01 -0.42490720773E+02  0.47787271854E+02  0.20000003693E+02 0.  0.
         12    1    3    3    0    0  0.87752926777E+01  0.10752163471E+01  0.42490720773E+02  0.43400728146E+02  0.00000000000E+00 0. -1.
         11    1    4    4    0    0 -0.57039699133E+01  0.51207755643E+01 -0.12921864519E+02  0.15024386778E+02  0.51100000000E-03 0. -1.
        -11    1    4    4    0    0 -0.30581204817E+01  0.22480612405E+01 -0.18254573494E+02  0.18644981468E+02  0.51100000000E-03 0.  1.
         12    1    4    4    0    0 -0.13202282689E-01 -0.84440531520E+01 -0.11314282760E+02  0.14117903609E+02  0.00000000000E+00 0. -1.
</event>
<event>
 8    1  0.5834107E-011  0.9118800E+02  0.7816164E-02  0.1184000E+00
        -11   -1    0    0    0    0  0.00000000000E+00  0.00000000000E+00  0.45593999997E+02  0.45594000000E+02  0.51100000000E-03 0. -1.
         11   -1    0    0    0    0 -0.00000000000E+00 -0.00000000000E+00 -0.45593999997E+02  0.45594000000E+02  0.51100000000E-03 0.  1.
         23    2    1    2    0    0  0.00000000000E+00  0.00000000000E+00  0.00000000000E+00  0.91188000000E+02  0.91188000000E+02 0.  0.
    9900012    2    3    3    0    0 -0.15168135677E+01 -0.36742588260E+02 -0.23050050845E+02  0.47787270059E+02  0.19999995506E+02 0.  0.
         12    1    3    3    0    0  0.15168135677E+01  0.36742588260E+02  0.23050050845E+02  0.43400729941E+02  0.00000000000E+00 0. -1.
         11    1    4    4    0    0 -0.15477774994E+01  0.57938871797E+00 -0.14057529744E+01  0.21696654489E+01  0.51100000000E-03 0. -1.
        -11    1    4    4    0    0  0.20695256674E+01 -0.24194551392E+02 -0.58470867672E+01  0.24976942917E+02  0.51100000000E-03 0.  1.
        -12    1    4    4    0    0 -0.20385617356E+01 -0.13127425586E+02 -0.15797211104E+02  0.20640661693E+02  0.00000000000E+00 0.  1.
</event>
<event>
 8    1  0.5834107E-011  0.9118800E+02  0.7816164E-02  0.1184000E+00
        -11   -1    0    0    0    0  0.00000000000E+00  0.00000000000E+00  0.45593999997E+02  0.45594000000E+02  0.51100000000E-03 0. -1.
         11   -1    0    0    0    0 -0.00000000000E+00 -0.00000000000E+00 -0.45593999997E+02  0.45594000000E+02  0.51100000000E-03 0.  1.
         23    2    1    2    0    0  0.35527136788E-14  0.35527136788E-14  0.00000000000E+00  0.91188000000E+02  0.91188000000E+02 0.  0.
    9900012    2    3    3    0    0  0.27985675455E+02  0.17350993126E+02 -0.28273091822E+02  0.47787277491E+02  0.20000029393E+02 0.  0.
         12    1    3    3    0    0 -0.27985675455E+02 -0.17350993126E+02  0.28273091822E+02  0.43400722509E+02  0.00000000000E+00 0. -1.
         11    1    4    4    0    0 -0.58600990066E+00 -0.23720539305E+01 -0.78829817711E+00  0.25673842194E+01  0.51100000000E-03 0. -1.
        -11    1    4    4    0    0  0.75583002045E+01  0.10234749137E+02 -0.11637268021E+02  0.17242505593E+02  0.51100000000E-03 0.  1.
         12    1    4    4    0    0  0.21013385151E+02  0.94882979192E+01 -0.15847525624E+02  0.27977387679E+02  0.00000000000E+00 0. -1.
</event>
<event>
 8    1  0.5834107E-011  0.9118800E+02  0.7816164E-02  0.1184000E+00
        -11   -1    0    0    0    0  0.00000000000E+00  0.00000000000E+00  0.45593999997E+02  0.45594000000E+02  0.51100000000E-03 0. -1.
         11   -1    0    0    0    0 -0.00000000000E+00 -0.00000000000E+00 -0.45593999997E+02  0.45594000000E+02  0.51100000000E-03 0.  1.
         23    2    1    2    0    0  0.44408920985E-15  0.00000000000E+00  0.00000000000E+00  0.91188000000E+02  0.91188000000E+02 0.  0.
    9900012    2    3    3    0    0 -0.32724502767E+01 -0.49748261428E+01 -0.42990295308E+02  0.47787270552E+02  0.19999997753E+02 0.  0.
         12    1    3    3    0    0  0.32724502767E+01  0.49748261428E+01  0.42990295308E+02  0.43400729448E+02  0.00000000000E+00 0. -1.
         11    1    4    4    0    0  0.33466559504E+00 -0.15939786371E+00 -0.35714477775E+02  0.35716401439E+02  0.51100000000E-03 0.  1.
        -11    1    4    4    0    0 -0.24106143236E+01 -0.60490234901E+01 -0.79042430170E+01  0.10241035325E+02  0.51100000000E-03 0. -1.
        -12    1    4    4    0    0 -0.11965015482E+01  0.12335952110E+01  0.62842548401E+00  0.18298337871E+01  0.00000000000E+00 0.  1.
</event>
<event>
 8    1  0.5834107E-011  0.9118800E+02  0.7816164E-02  0.1184000E+00
        -11   -1    0    0    0    0  0.00000000000E+00  0.00000000000E+00  0.45593999997E+02  0.45594000000E+02  0.51100000000E-03 0. -1.
         11   -1    0    0    0    0 -0.00000000000E+00 -0.00000000000E+00 -0.45593999997E+02  0.45594000000E+02  0.51100000000E-03 0.  1.
         23    2    1    2    0    0 -0.71054273576E-14  0.00000000000E+00  0.00000000000E+00  0.91188000000E+02  0.91188000000E+02 0.  0.
    9900012    2    3    3    0    0 -0.39845499166E+02 -0.16333164009E+02 -0.54025246002E+01  0.47787270486E+02  0.19999997453E+02 0.  0.
         12    1    3    3    0    0  0.39845499166E+02  0.16333164009E+02  0.54025246002E+01  0.43400729514E+02  0.00000000000E+00 0. -1.
         11    1    4    4    0    0 -0.26601340736E+02 -0.23966971131E+01 -0.29758591352E+01  0.26874359971E+02  0.51100000000E-03 0.  1.
        -11    1    4    4    0    0 -0.66334806824E+01 -0.56240881179E+01  0.27184056798E+01  0.91117047155E+01  0.51100000000E-03 0. -1.
        -12    1    4    4    0    0 -0.66106777470E+01 -0.83123787779E+01 -0.51450711448E+01  0.11801205799E+02  0.00000000000E+00 0.  1.
</event>
<event>
 8    1  0.5834107E-011  0.9118800E+02  0.7816164E-02  0.1184000E+00
        -11   -1    0    0    0    0  0.00000000000E+00  0.00000000000E+00  0.45593999997E+02  0.45594000000E+02  0.51100000000E-03 0. -1.
         11   -1    0    0    0    0 -0.00000000000E+00 -0.00000000000E+00 -0.45593999997E+02  0.45594000000E+02  0.51100000000E-03 0.  1.
         23    2    1    2    0    0  0.35527136788E-14  0.00000000000E+00  0.00000000000E+00  0.91188000000E+02  0.91188000000E+02 0.  0.
    9900012    2    3    3    0    0  0.31740068555E+02  0.31212149860E+01 -0.29435512897E+02  0.47787270117E+02  0.19999995773E+02 0.  0.
         12    1    3    3    0    0 -0.31740068555E+02 -0.31212149860E+01  0.29435512897E+02  0.43400729883E+02  0.00000000000E+00 0. -1.
         11    1    4    4    0    0  0.20890626467E+02 -0.34161677241E+01 -0.15404935455E+02  0.26180154941E+02  0.51100000000E-03 0. -1.
        -11    1    4    4    0    0  0.68760720324E+01  0.40878344868E+01 -0.13731312374E+01  0.81164183629E+01  0.51100000000E-03 0.  1.
         12    1    4    4    0    0  0.39733700555E+01  0.24495482233E+01 -0.12657446205E+02  0.13490696814E+02  0.00000000000E+00 0. -1.
</event>
<event>
 8    1  0.5834107E-011  0.9118800E+02  0.7816164E-02  0.1184000E+00
        -11   -1    0    0    0    0  0.00000000000E+00  0.00000000000E+00  0.45593999997E+02  0.45594000000E+02  0.51100000000E-03 0. -1.
         11   -1    0    0    0    0 -0.00000000000E+00 -0.00000000000E+00 -0.45593999997E+02  0.45594000000E+02  0.51100000000E-03 0.  1.
         23    2    1    2    0    0  0.00000000000E+00  0.00000000000E+00  0.35527136788E-14  0.91188000000E+02  0.91188000000E+02 0.  0.
    9900012    2    3    3    0    0  0.32582966630E+02 -0.97022513646E+01  0.26978517217E+02  0.47787265131E+02  0.19999973039E+02 0.  0.
        -12    1    3    3    0    0 -0.32582966630E+02  0.97022513646E+01 -0.26978517217E+02  0.43400734869E+02  0.00000000000E+00 0.  1.
         11    1    4    4    0    0  0.23978059168E+01 -0.57368684978E+01  0.33744893239E+01  0.70744831496E+01  0.51100000000E-03 0.  1.
        -11    1    4    4    0    0  0.26769169342E+02 -0.72082050074E+01  0.16729124201E+02  0.32379163724E+02  0.51100000000E-03 0. -1.
         12    1    4    4    0    0  0.34159913712E+01  0.32428221407E+01  0.68749036923E+01  0.83336182576E+01  0.00000000000E+00 0. -1.
</event>
<event>
 8    1  0.5834107E-011  0.9118800E+02  0.7816164E-02  0.1184000E+00
        -11   -1    0    0    0    0  0.00000000000E+00  0.00000000000E+00  0.45593999997E+02  0.45594000000E+02  0.51100000000E-03 0. -1.
         11   -1    0    0    0    0 -0.00000000000E+00 -0.00000000000E+00 -0.45593999997E+02  0.45594000000E+02  0.51100000000E-03 0.  1.
         23    2    1    2    0    0  0.00000000000E+00  0.00000000000E+00  0.35527136788E-14  0.91188000000E+02  0.91188000000E+02 0.  0.
    9900012    2    3    3    0    0  0.29771505621E+02  0.16153864134E+01 -0.31538415233E+02  0.47787266647E+02  0.19999979951E+02 0.  0.
         12    1    3    3    0    0 -0.29771505621E+02 -0.16153864134E+01  0.31538415233E+02  0.43400733353E+02  0.00000000000E+00 0. -1.
         11    1    4    4    0    0  0.14276801238E+02  0.77049346656E+00 -0.89418052956E+01  0.16863469275E+02  0.51100000000E-03 0. -1.
        -11    1    4    4    0    0  0.11998418757E+02  0.32178957229E+01 -0.23519577217E+02  0.26598635647E+02  0.51100000000E-03 0.  1.
        -12    1    4    4    0    0  0.34962856258E+01 -0.23730027761E+01  0.92296728006E+00  0.43251617256E+01  0.00000000000E+00 0.  1.
</event>
<event>
 8    1  0.5834107E-011  0.9118800E+02  0.7816164E-02  0.1184000E+00
        -11   -1    0    0    0    0  0.00000000000E+00  0.00000000000E+00  0.45593999997E+02  0.45594000000E+02  0.51100000000E-03 0. -1.
         11   -1    0    0    0    0 -0.00000000000E+00 -0.00000000000E+00 -0.45593999997E+02  0.45594000000E+02  0.51100000000E-03 0.  1.
         23    2    1    2    0    0  0.00000000000E+00  0.00000000000E+00  0.00000000000E+00  0.91188000000E+02  0.91188000000E+02 0.  0.
    9900012    2    3    3    0    0 -0.91584076184E+01 -0.25945151146E+02  0.33564787389E+02  0.47787282834E+02  0.20000053751E+02 0.  0.
        -12    1    3    3    0    0  0.91584076184E+01  0.25945151146E+02 -0.33564787389E+02  0.43400717166E+02  0.00000000000E+00 0.  1.
         11    1    4    4    0    0 -0.53954527045E+01 -0.59913815258E+01  0.12393574408E+02  0.14785406635E+02  0.51100000000E-03 0. -1.
        -11    1    4    4    0    0 -0.30930112848E+01 -0.21954294768E+02  0.15782216585E+02  0.27214630958E+02  0.51100000000E-03 0.  1.
        -12    1    4    4    0    0 -0.66994362909E+00  0.20005251477E+01  0.53889963954E+01  0.57872452412E+01  0.00000000000E+00 0.  1.
</event>
<event>
 8    1  0.5834107E-011  0.9118800E+02  0.7816164E-02  0.1184000E+00
        -11   -1    0    0    0    0  0.00000000000E+00  0.00000000000E+00  0.45593999997E+02  0.45594000000E+02  0.51100000000E-03 0. -1.
         11   -1    0    0    0    0 -0.00000000000E+00 -0.00000000000E+00 -0.45593999997E+02  0.45594000000E+02  0.51100000000E-03 0.  1.
         23    2    1    2    0    0  0.00000000000E+00 -0.66613381478E-15  0.00000000000E+00  0.91188000000E+02  0.91188000000E+02 0.  0.
    9900012    2    3    3    0    0  0.38669700631E+02 -0.12939198740E+01  0.19662227625E+02  0.47787272232E+02  0.20000005417E+02 0.  0.
        -12    1    3    3    0    0 -0.38669700631E+02  0.12939198740E+01 -0.19662227625E+02  0.43400727768E+02  0.00000000000E+00 0.  1.
         11    1    4    4    0    0  0.13095061982E+01  0.96408859258E+00 -0.31129002716E+01  0.35120395299E+01  0.51100000000E-03 0. -1.
        -11    1    4    4    0    0  0.11965620924E+02  0.19878641357E+01  0.87476352318E+01  0.14954892521E+02  0.51100000000E-03 0.  1.
         12    1    4    4    0    0  0.25394573510E+02 -0.42458726023E+01  0.14027492665E+02  0.29320340182E+02  0.00000000000E+00 0. -1.
</event>
<event>
 8    1  0.5834107E-011  0.9118800E+02  0.7816164E-02  0.1184000E+00
        -11   -1    0    0    0    0  0.00000000000E+00  0.00000000000E+00  0.45593999997E+02  0.45594000000E+02  0.51100000000E-03 0. -1.
         11   -1    0    0    0    0 -0.00000000000E+00 -0.00000000000E+00 -0.45593999997E+02  0.45594000000E+02  0.51100000000E-03 0.  1.
         23    2    1    2    0    0  0.88817841970E-15  0.00000000000E+00  0.00000000000E+00  0.91188000000E+02  0.91188000000E+02 0.  0.
    9900012    2    3    3    0    0 -0.61004417493E+01 -0.33855609173E+02 -0.26461401120E+02  0.47787269462E+02  0.19999992786E+02 0.  0.
         12    1    3    3    0    0  0.61004417493E+01  0.33855609173E+02  0.26461401120E+02  0.43400730538E+02  0.00000000000E+00 0. -1.
         11    1    4    4    0    0 -0.32298022516E+01 -0.77679545846E+01 -0.58578648855E+00  0.84330236028E+01  0.51100000000E-03 0. -1.
        -11    1    4    4    0    0 -0.60866093192E+01 -0.15477585805E+02 -0.22065000440E+02  0.27630901542E+02  0.51100000000E-03 0.  1.
        -12    1    4    4    0    0  0.32159698215E+01 -0.10610068783E+02 -0.38106141917E+01  0.11723344317E+02  0.00000000000E+00 0.  1.
</event>
<event>
 8    1  0.5834107E-011  0.9118800E+02  0.7816164E-02  0.1184000E+00
        -11   -1    0    0    0    0  0.00000000000E+00  0.00000000000E+00  0.45593999997E+02  0.45594000000E+02  0.51100000000E-03 0. -1.
         11   -1    0    0    0    0 -0.00000000000E+00 -0.00000000000E+00 -0.45593999997E+02  0.45594000000E+02  0.51100000000E-03 0.  1.
         23    2    1    2    0    0  0.00000000000E+00  0.00000000000E+00  0.00000000000E+00  0.91188000000E+02  0.91188000000E+02 0.  0.
    9900012    2    3    3    0    0 -0.20833227891E+02 -0.17513136205E+02  0.33806658383E+02  0.47787268726E+02  0.19999989428E+02 0.  0.
        -12    1    3    3    0    0  0.20833227891E+02  0.17513136205E+02 -0.33806658383E+02  0.43400731274E+02  0.00000000000E+00 0.  1.
         11    1    4    4    0    0  0.66165490438E+00  0.61205294458E+00 -0.12796663742E+01  0.15652291557E+01  0.51100000000E-03 0. -1.
        -11    1    4    4    0    0 -0.90633604204E+01 -0.32212545462E+01  0.17796434678E+02  0.20229534608E+02  0.51100000000E-03 0.  1.
         12    1    4    4    0    0 -0.12431522375E+02 -0.14903934604E+02  0.17289890080E+02  0.25992504962E+02  0.00000000000E+00 0. -1.
</event>
<event>
 8    1  0.5834107E-011  0.9118800E+02  0.7816164E-02  0.1184000E+00
        -11   -1    0    0    0    0  0.00000000000E+00  0.00000000000E+00  0.45593999997E+02  0.45594000000E+02  0.51100000000E-03 0. -1.
         11   -1    0    0    0    0 -0.00000000000E+00 -0.00000000000E+00 -0.45593999997E+02  0.45594000000E+02  0.51100000000E-03 0.  1.
         23    2    1    2    0    0  0.35527136788E-14  0.00000000000E+00  0.00000000000E+00  0.91188000000E+02  0.91188000000E+02 0.  0.
    9900012    2    3    3    0    0  0.18083289350E+02  0.34438351898E+02 -0.19251430217E+02  0.47787274193E+02  0.20000014356E+02 0.  0.
         12    1    3    3    0    0 -0.18083289350E+02 -0.34438351898E+02  0.19251430217E+02  0.43400725807E+02  0.00000000000E+00 0. -1.
         11    1    4    4    0    0  0.97439188051E+01  0.96887167993E+01 -0.97218068458E+01  0.16832371060E+02  0.51100000000E-03 0. -1.
        -11    1    4    4    0    0  0.78440051137E+01  0.25082644775E+02 -0.54600027708E+01  0.26841742039E+02  0.51100000000E-03 0.  1.
         12    1    4    4    0    0  0.49536543164E+00 -0.33300967702E+00 -0.40696206007E+01  0.41131610946E+01  0.00000000000E+00 0. -1.
</event>
<event>
 8    1  0.5834107E-011  0.9118800E+02  0.7816164E-02  0.1184000E+00
        -11   -1    0    0    0    0  0.00000000000E+00  0.00000000000E+00  0.45593999997E+02  0.45594000000E+02  0.51100000000E-03 0.  1.
         11   -1    0    0    0    0 -0.00000000000E+00 -0.00000000000E+00 -0.45593999997E+02  0.45594000000E+02  0.51100000000E-03 0. -1.
         23    2    1    2    0    0  0.00000000000E+00 -0.35527136788E-14  0.88817841970E-15  0.91188000000E+02  0.91188000000E+02 0.  0.
    9900012    2    3    3    0    0 -0.32512541416E+02 -0.28672113195E+02  0.21137146267E+01  0.47787271735E+02  0.20000003149E+02 0.  0.
         12    1    3    3    0    0  0.32512541416E+02  0.28672113195E+02 -0.21137146267E+01  0.43400728265E+02  0.00000000000E+00 0. -1.
         11    1    4    4    0    0 -0.82140863478E+01 -0.82527984791E+01 -0.63285489563E+01  0.13252563126E+02  0.51100000000E-03 0. -1.
        -11    1    4    4    0    0 -0.17331795212E+02 -0.83947481442E+01  0.24952952041E+01  0.19418790387E+02  0.51100000000E-03 0.  1.
        -12    1    4    4    0    0 -0.69666598563E+01 -0.12024566572E+02  0.59469683789E+01  0.15115918222E+02  0.00000000000E+00 0.  1.
</event>
<event>
 8    1  0.5834107E-011  0.9118800E+02  0.7816164E-02  0.1184000E+00
        -11   -1    0    0    0    0  0.00000000000E+00  0.00000000000E+00  0.45593999997E+02  0.45594000000E+02  0.51100000000E-03 0. -1.
         11   -1    0    0    0    0 -0.00000000000E+00 -0.00000000000E+00 -0.45593999997E+02  0.45594000000E+02  0.51100000000E-03 0.  1.
         23    2    1    2    0    0  0.00000000000E+00  0.17763568394E-14  0.00000000000E+00  0.91188000000E+02  0.91188000000E+02 0.  0.
    9900012    2    3    3    0    0 -0.19018282593E+02 -0.10743212057E+02 -0.37503487835E+02  0.47787270998E+02  0.19999999790E+02 0.  0.
         12    1    3    3    0    0  0.19018282593E+02  0.10743212057E+02  0.37503487835E+02  0.43400729002E+02  0.00000000000E+00 0. -1.
         11    1    4    4    0    0  0.16622390349E+01 -0.19131082922E+01 -0.27787910774E+00  0.25495566294E+01  0.51100000000E-03 0. -1.
        -11    1    4    4    0    0 -0.56683061322E+01  0.19910791936E+01 -0.15927630406E+02  0.17023028560E+02  0.51100000000E-03 0.  1.
        -12    1    4    4    0    0 -0.15012215495E+02 -0.10821182958E+02 -0.21297978322E+02  0.28214685809E+02  0.00000000000E+00 0.  1.
</event>
<event>
 8    1  0.5834107E-011  0.9118800E+02  0.7816164E-02  0.1184000E+00
        -11   -1    0    0    0    0  0.00000000000E+00  0.00000000000E+00  0.45593999997E+02  0.45594000000E+02  0.51100000000E-03 0. -1.
         11   -1    0    0    0    0 -0.00000000000E+00 -0.00000000000E+00 -0.45593999997E+02  0.45594000000E+02  0.51100000000E-03 0.  1.
         23    2    1    2    0    0  0.88817841970E-15 -0.35527136788E-14 -0.71054273576E-14  0.91188000000E+02  0.91188000000E+02 0.  0.
    9900012    2    3    3    0    0  0.45105449824E+01 -0.24000715809E+02  0.35878180141E+02  0.47787272062E+02  0.20000004638E+02 0.  0.
        -12    1    3    3    0    0 -0.45105449824E+01  0.24000715809E+02 -0.35878180141E+02  0.43400727938E+02  0.00000000000E+00 0.  1.
         11    1    4    4    0    0  0.13813024078E+01 -0.15379175749E+02  0.27571276056E+02  0.31600669402E+02  0.51100000000E-03 0. -1.
        -11    1    4    4    0    0  0.57385580111E+01 -0.94943897110E+01  0.61063070964E+01  0.12663390962E+02  0.51100000000E-03 0.  1.
        -12    1    4    4    0    0 -0.26093154365E+01  0.87284965145E+00  0.22005969887E+01  0.35232116978E+01  0.00000000000E+00 0.  1.
</event>
<event>
 8    1  0.5834107E-011  0.9118800E+02  0.7816164E-02  0.1184000E+00
        -11   -1    0    0    0    0  0.00000000000E+00  0.00000000000E+00  0.45593999997E+02  0.45594000000E+02  0.51100000000E-03 0. -1.
         11   -1    0    0    0    0 -0.00000000000E+00 -0.00000000000E+00 -0.45593999997E+02  0.45594000000E+02  0.51100000000E-03 0.  1.
         23    2    1    2    0    0  0.00000000000E+00  0.00000000000E+00  0.35527136788E-14  0.91188000000E+02  0.91188000000E+02 0.  0.
    9900012    2    3    3    0    0 -0.20863437113E+02 -0.26442020035E+02  0.27370776875E+02  0.47787275831E+02  0.20000021823E+02 0.  0.
        -12    1    3    3    0    0  0.20863437113E+02  0.26442020035E+02 -0.27370776875E+02  0.43400724169E+02  0.00000000000E+00 0.  1.
         11    1    4    4    0    0 -0.12606386188E+02 -0.16961311109E+02  0.15980033352E+02  0.26494688400E+02  0.51100000000E-03 0. -1.
        -11    1    4    4    0    0  0.23127586726E+01 -0.54185472109E+01  0.69958157674E+01  0.91460890585E+01  0.51100000000E-03 0.  1.
        -12    1    4    4    0    0 -0.10569809597E+02 -0.40621617151E+01  0.43949277557E+01  0.12146498372E+02  0.00000000000E+00 0.  1.
</event>
<event>
 8    1  0.5834107E-011  0.9118800E+02  0.7816164E-02  0.1184000E+00
        -11   -1    0    0    0    0  0.00000000000E+00  0.00000000000E+00  0.45593999997E+02  0.45594000000E+02  0.51100000000E-03 0. -1.
         11   -1    0    0    0    0 -0.00000000000E+00 -0.00000000000E+00 -0.45593999997E+02  0.45594000000E+02  0.51100000000E-03 0.  1.
         23    2    1    2    0    0  0.00000000000E+00  0.00000000000E+00  0.88817841970E-15  0.91188000000E+02  0.91188000000E+02 0.  0.
    9900012    2    3    3    0    0  0.42772986657E+02 -0.58830366374E+01 -0.44141633464E+01  0.47787270217E+02  0.19999996227E+02 0.  0.
        -12    1    3    3    0    0 -0.42772986657E+02  0.58830366374E+01  0.44141633464E+01  0.43400729783E+02  0.00000000000E+00 0.  1.
         11    1    4    4    0    0  0.27148405644E+02  0.40572975961E-02  0.25323653859E+01  0.27266257906E+02  0.51100000000E-03 0. -1.
        -11    1    4    4    0    0  0.16086988971E+02 -0.30559516618E+01 -0.65009520257E+01  0.17617957663E+02  0.51100000000E-03 0.  1.
         12    1    4    4    0    0 -0.46240795767E+00 -0.28311422732E+01 -0.44557670661E+00  0.29030546485E+01  0.00000000000E+00 0. -1.
</event>
<event>
 8    1  0.5834107E-011  0.9118800E+02  0.7816164E-02  0.1184000E+00
        -11   -1    0    0    0    0  0.00000000000E+00  0.00000000000E+00  0.45593999997E+02  0.45594000000E+02  0.51100000000E-03 0. -1.
         11   -1    0    0    0    0 -0.00000000000E+00 -0.00000000000E+00 -0.45593999997E+02  0.45594000000E+02  0.51100000000E-03 0.  1.
         23    2    1    2    0    0  0.00000000000E+00  0.00000000000E+00  0.00000000000E+00  0.91188000000E+02  0.91188000000E+02 0.  0.
    9900012    2    3    3    0    0 -0.21680449967E+02  0.19902879107E+02  0.31897600810E+02  0.47787269074E+02  0.19999991015E+02 0.  0.
        -12    1    3    3    0    0  0.21680449967E+02 -0.19902879107E+02 -0.31897600810E+02  0.43400730926E+02  0.00000000000E+00 0.  1.
         11    1    4    4    0    0 -0.15197341755E+01  0.15120318433E+01  0.67052718906E+01  0.70396380338E+01  0.51100000000E-03 0. -1.
        -11    1    4    4    0    0  0.39858120346E+00 -0.92516472755E+00 -0.15684285200E+01  0.18640721639E+01  0.51100000000E-03 0.  1.
         12    1    4    4    0    0 -0.20559296995E+02  0.19316011991E+02  0.26760757439E+02  0.38883558876E+02  0.00000000000E+00 0. -1.
</event>
<event>
 8    1  0.5834107E-011  0.9118800E+02  0.7816164E-02  0.1184000E+00
        -11   -1    0    0    0    0  0.00000000000E+00  0.00000000000E+00  0.45593999997E+02  0.45594000000E+02  0.51100000000E-03 0. -1.
         11   -1    0    0    0    0 -0.00000000000E+00 -0.00000000000E+00 -0.45593999997E+02  0.45594000000E+02  0.51100000000E-03 0.  1.
         23    2    1    2    0    0  0.00000000000E+00  0.00000000000E+00 -0.71054273576E-14  0.91188000000E+02  0.91188000000E+02 0.  0.
    9900012    2    3    3    0    0  0.22792305624E+02  0.14358967175E+02 -0.34028713428E+02  0.47787280288E+02  0.20000042144E+02 0.  0.
         12    1    3    3    0    0 -0.22792305624E+02 -0.14358967175E+02  0.34028713428E+02  0.43400719712E+02  0.00000000000E+00 0. -1.
         11    1    4    4    0    0  0.12890982890E+01 -0.27903149208E+01  0.95459823025E+00  0.32185229218E+01  0.51100000000E-03 0. -1.
        -11    1    4    4    0    0  0.99764023139E+01  0.67126852225E+01 -0.14071814000E+02  0.18509583883E+02  0.51100000000E-03 0.  1.
         12    1    4    4    0    0  0.11526805021E+02  0.10436596873E+02 -0.20911497659E+02  0.26059173483E+02  0.00000000000E+00 0. -1.
</event>
<event>
 8    1  0.5834107E-011  0.9118800E+02  0.7816164E-02  0.1184000E+00
        -11   -1    0    0    0    0  0.00000000000E+00  0.00000000000E+00  0.45593999997E+02  0.45594000000E+02  0.51100000000E-03 0. -1.
         11   -1    0    0    0    0 -0.00000000000E+00 -0.00000000000E+00 -0.45593999997E+02  0.45594000000E+02  0.51100000000E-03 0.  1.
         23    2    1    2    0    0  0.35527136788E-14 -0.17763568394E-14 -0.71054273576E-14  0.91188000000E+02  0.91188000000E+02 0.  0.
    9900012    2    3    3    0    0  0.26306318891E+02 -0.11735557205E+02 -0.32463472527E+02  0.47787276906E+02  0.20000026727E+02 0.  0.
         12    1    3    3    0    0 -0.26306318891E+02  0.11735557205E+02  0.32463472527E+02  0.43400723094E+02  0.00000000000E+00 0. -1.
         11    1    4    4    0    0  0.10047781804E+02 -0.42284335157E+01 -0.85627727597E+01  0.13862129950E+02  0.51100000000E-03 0.  1.
        -11    1    4    4    0    0  0.17155827347E+01 -0.54300262442E+01 -0.16541738567E+02  0.17494499827E+02  0.51100000000E-03 0. -1.
         12    1    4    4    0    0  0.14542954353E+02 -0.20770974447E+01 -0.73589612008E+01  0.16430647129E+02  0.00000000000E+00 0. -1.
</event>
<event>
 8    1  0.5834107E-011  0.9118800E+02  0.7816164E-02  0.1184000E+00
        -11   -1    0    0    0    0  0.00000000000E+00  0.00000000000E+00  0.45593999997E+02  0.45594000000E+02  0.51100000000E-03 0.  1.
         11   -1    0    0    0    0 -0.00000000000E+00 -0.00000000000E+00 -0.45593999997E+02  0.45594000000E+02  0.51100000000E-03 0. -1.
         23    2    1    2    0    0 -0.88817841970E-15  0.00000000000E+00  0.00000000000E+00  0.91188000000E+02  0.91188000000E+02 0.  0.
    9900012    2    3    3    0    0  0.59976797724E+01  0.38317942032E+02 -0.19477833829E+02  0.47787275871E+02  0.20000022008E+02 0.  0.
         12    1    3    3    0    0 -0.59976797724E+01 -0.38317942032E+02  0.19477833829E+02  0.43400724129E+02  0.00000000000E+00 0. -1.
         11    1    4    4    0    0  0.34389747330E+01  0.15935468742E+01  0.11905502434E+01  0.39728263236E+01  0.51100000000E-03 0. -1.
        -11    1    4    4    0    0 -0.60723711685E+00  0.25483338357E+02 -0.83095873101E+01  0.26810790967E+02  0.51100000000E-03 0.  1.
         12    1    4    4    0    0  0.31659421563E+01  0.11241056801E+02 -0.12358796762E+02  0.17003658581E+02  0.00000000000E+00 0. -1.
</event>
<event>
 8    1  0.5834107E-011  0.9118800E+02  0.7816164E-02  0.1184000E+00
        -11   -1    0    0    0    0  0.00000000000E+00  0.00000000000E+00  0.45593999997E+02  0.45594000000E+02  0.51100000000E-03 0. -1.
         11   -1    0    0    0    0 -0.00000000000E+00 -0.00000000000E+00 -0.45593999997E+02  0.45594000000E+02  0.51100000000E-03 0.  1.
         23    2    1    2    0    0  0.00000000000E+00  0.00000000000E+00  0.00000000000E+00  0.91188000000E+02  0.91188000000E+02 0.  0.
    9900012    2    3    3    0    0 -0.18546026736E+02  0.26721937886E+02  0.28733282483E+02  0.47787324955E+02  0.20000245798E+02 0.  0.
        -12    1    3    3    0    0  0.18546026736E+02 -0.26721937886E+02 -0.28733282483E+02  0.43400675045E+02  0.00000000000E+00 0.  1.
         11    1    4    4    0    0 -0.10806873027E+02  0.14022535420E+02  0.50461786344E+01  0.18408800159E+02  0.51100000000E-03 0. -1.
        -11    1    4    4    0    0  0.72524756799E-01  0.17309717636E+01 -0.40441612366E+00  0.17790659765E+01  0.51100000000E-03 0.  1.
        -12    1    4    4    0    0 -0.78116784665E+01  0.10968430703E+02  0.24091519973E+02  0.27599458820E+02  0.00000000000E+00 0.  1.
</event>
<event>
 8    1  0.5834107E-011  0.9118800E+02  0.7816164E-02  0.1184000E+00
        -11   -1    0    0    0    0  0.00000000000E+00  0.00000000000E+00  0.45593999997E+02  0.45594000000E+02  0.51100000000E-03 0. -1.
         11   -1    0    0    0    0 -0.00000000000E+00 -0.00000000000E+00 -0.45593999997E+02  0.45594000000E+02  0.51100000000E-03 0.  1.
         23    2    1    2    0    0  0.71054273576E-14  0.88817841970E-15  0.00000000000E+00  0.91188000000E+02  0.91188000000E+02 0.  0.
    9900012    2    3    3    0    0 -0.39872152054E+02  0.60762404441E+00 -0.17130827274E+02  0.47787274666E+02  0.20000016513E+02 0.  0.
         12    1    3    3    0    0  0.39872152054E+02 -0.60762404441E+00  0.17130827274E+02  0.43400725334E+02  0.00000000000E+00 0. -1.
         11    1    4    4    0    0 -0.84933637805E+01 -0.50198262932E+01 -0.76208317599E+01  0.12466473491E+02  0.51100000000E-03 0. -1.
        -11    1    4    4    0    0 -0.23426625453E+02  0.46822897201E+01 -0.12261905887E+02  0.26853025032E+02  0.51100000000E-03 0.  1.
         12    1    4    4    0    0 -0.79521628208E+01  0.94516061753E+00  0.27519103724E+01  0.84677761436E+01  0.00000000000E+00 0. -1.
</event>
<event>
 8    1  0.5834107E-011  0.9118800E+02  0.7816164E-02  0.1184000E+00
        -11   -1    0    0    0    0  0.00000000000E+00  0.00000000000E+00  0.45593999997E+02  0.45594000000E+02  0.51100000000E-03 0.  1.
         11   -1    0    0    0    0 -0.00000000000E+00 -0.00000000000E+00 -0.45593999997E+02  0.45594000000E+02  0.51100000000E-03 0. -1.
         23    2    1    2    0    0 -0.44408920985E-15 -0.14210854715E-13  0.00000000000E+00  0.91188000000E+02  0.91188000000E+02 0.  0.
    9900012    2    3    3    0    0 -0.18374025796E+01 -0.43206060973E+02  0.36720163465E+01  0.47787268934E+02  0.19999990376E+02 0.  0.
        -12    1    3    3    0    0  0.18374025796E+01  0.43206060973E+02 -0.36720163465E+01  0.43400731066E+02  0.00000000000E+00 0.  1.
         11    1    4    4    0    0 -0.42403146540E+01 -0.38247013805E+02  0.67371109546E+01  0.39066648150E+02  0.51100000000E-03 0. -1.
        -11    1    4    4    0    0 -0.17698623323E+01 -0.38364192564E+00 -0.14529053637E+01  0.23217510761E+01  0.51100000000E-03 0.  1.
        -12    1    4    4    0    0  0.41727744066E+01 -0.45754052422E+01 -0.16121892444E+01  0.63988697079E+01  0.00000000000E+00 0.  1.
</event>
<event>
 8    1  0.5834107E-011  0.9118800E+02  0.7816164E-02  0.1184000E+00
        -11   -1    0    0    0    0  0.00000000000E+00  0.00000000000E+00  0.45593999997E+02  0.45594000000E+02  0.51100000000E-03 0. -1.
         11   -1    0    0    0    0 -0.00000000000E+00 -0.00000000000E+00 -0.45593999997E+02  0.45594000000E+02  0.51100000000E-03 0.  1.
         23    2    1    2    0    0  0.00000000000E+00  0.00000000000E+00  0.00000000000E+00  0.91188000000E+02  0.91188000000E+02 0.  0.
    9900012    2    3    3    0    0  0.25894562972E+02 -0.15924753644E+02  0.30975749527E+02  0.47787271563E+02  0.20000002363E+02 0.  0.
        -12    1    3    3    0    0 -0.25894562972E+02  0.15924753644E+02 -0.30975749527E+02  0.43400728437E+02  0.00000000000E+00 0.  1.
         11    1    4    4    0    0  0.12286370085E+02 -0.22949144026E+01  0.65544422071E+01  0.14113193646E+02  0.51100000000E-03 0. -1.
        -11    1    4    4    0    0  0.15825751063E+02 -0.13747132274E+02  0.22195144131E+02  0.30529698094E+02  0.51100000000E-03 0.  1.
        -12    1    4    4    0    0 -0.22175581767E+01  0.11729303236E+00  0.22261631891E+01  0.31443798224E+01  0.00000000000E+00 0.  1.
</event>
<event>
 8    1  0.5834107E-011  0.9118800E+02  0.7816164E-02  0.1184000E+00
        -11   -1    0    0    0    0  0.00000000000E+00  0.00000000000E+00  0.45593999997E+02  0.45594000000E+02  0.51100000000E-03 0.  1.
         11   -1    0    0    0    0 -0.00000000000E+00 -0.00000000000E+00 -0.45593999997E+02  0.45594000000E+02  0.51100000000E-03 0. -1.
         23    2    1    2    0    0  0.00000000000E+00  0.00000000000E+00 -0.88817841970E-15  0.91188000000E+02  0.91188000000E+02 0.  0.
    9900012    2    3    3    0    0  0.20682150399E+02 -0.37770546080E+02  0.54090434757E+01  0.47787271347E+02  0.20000001379E+02 0.  0.
         12    1    3    3    0    0 -0.20682150399E+02  0.37770546080E+02 -0.54090434757E+01  0.43400728653E+02  0.00000000000E+00 0. -1.
         11    1    4    4    0    0  0.81507961978E+01 -0.75874709867E+01  0.65889466451E+01  0.12939065375E+02  0.51100000000E-03 0. -1.
        -11    1    4    4    0    0  0.33498476449E+01 -0.31585884973E+01 -0.40902649737E+01  0.61586060400E+01  0.51100000000E-03 0.  1.
         12    1    4    4    0    0  0.91815065564E+01 -0.27024486596E+02  0.29103618043E+01  0.28689599932E+02  0.00000000000E+00 0. -1.
</event>
<event>
 8    1  0.5834107E-011  0.9118800E+02  0.7816164E-02  0.1184000E+00
        -11   -1    0    0    0    0  0.00000000000E+00  0.00000000000E+00  0.45593999997E+02  0.45594000000E+02  0.51100000000E-03 0. -1.
         11   -1    0    0    0    0 -0.00000000000E+00 -0.00000000000E+00 -0.45593999997E+02  0.45594000000E+02  0.51100000000E-03 0.  1.
         23    2    1    2    0    0 -0.13322676296E-14  0.00000000000E+00  0.35527136788E-14  0.91188000000E+02  0.91188000000E+02 0.  0.
    9900012    2    3    3    0    0  0.80886723291E+00  0.37191666553E+02  0.22355062710E+02  0.47787272403E+02  0.20000006193E+02 0.  0.
        -12    1    3    3    0    0 -0.80886723291E+00 -0.37191666553E+02 -0.22355062710E+02  0.43400727597E+02  0.00000000000E+00 0.  1.
         11    1    4    4    0    0 -0.65266848719E+01  0.21238003941E+02  0.12020351675E+02  0.25261418833E+02  0.51100000000E-03 0. -1.
        -11    1    4    4    0    0  0.11406568978E+01  0.10799068003E+02  0.22091337445E+01  0.11081572093E+02  0.51100000000E-03 0.  1.
        -12    1    4    4    0    0  0.61948952070E+01  0.51545946095E+01  0.81255772904E+01  0.11444281477E+02  0.00000000000E+00 0.  1.
</event>
<event>
 8    1  0.5834107E-011  0.9118800E+02  0.7816164E-02  0.1184000E+00
        -11   -1    0    0    0    0  0.00000000000E+00  0.00000000000E+00  0.45593999997E+02  0.45594000000E+02  0.51100000000E-03 0.  1.
         11   -1    0    0    0    0 -0.00000000000E+00 -0.00000000000E+00 -0.45593999997E+02  0.45594000000E+02  0.51100000000E-03 0. -1.
         23    2    1    2    0    0  0.88817841970E-15  0.00000000000E+00 -0.88817841970E-15  0.91188000000E+02  0.91188000000E+02 0.  0.
    9900012    2    3    3    0    0 -0.21019615824E+01 -0.43117566004E+02 -0.44811249922E+01  0.47787271644E+02  0.20000002735E+02 0.  0.
        -12    1    3    3    0    0  0.21019615824E+01  0.43117566004E+02  0.44811249922E+01  0.43400728356E+02  0.00000000000E+00 0.  1.
         11    1    4    4    0    0 -0.70090846616E-01 -0.10559052444E+02 -0.73524117076E+01  0.12866874501E+02  0.51100000000E-03 0.  1.
        -11    1    4    4    0    0  0.44845659054E+01 -0.21459263660E+02  0.14361274478E+01  0.21969838199E+02  0.51100000000E-03 0. -1.
        -12    1    4    4    0    0 -0.65164366412E+01 -0.11099249900E+02  0.14351592677E+01  0.12950558944E+02  0.00000000000E+00 0.  1.
</event>
<event>
 8    1  0.5834107E-011  0.9118800E+02  0.7816164E-02  0.1184000E+00
        -11   -1    0    0    0    0  0.00000000000E+00  0.00000000000E+00  0.45593999997E+02  0.45594000000E+02  0.51100000000E-03 0. -1.
         11   -1    0    0    0    0 -0.00000000000E+00 -0.00000000000E+00 -0.45593999997E+02  0.45594000000E+02  0.51100000000E-03 0.  1.
         23    2    1    2    0    0  0.35527136788E-14 -0.17763568394E-14  0.00000000000E+00  0.91188000000E+02  0.91188000000E+02 0.  0.
    9900012    2    3    3    0    0  0.20186868625E+02 -0.11496404889E+02  0.36659897573E+02  0.47787250234E+02  0.19999905115E+02 0.  0.
        -12    1    3    3    0    0 -0.20186868625E+02  0.11496404889E+02 -0.36659897573E+02  0.43400749766E+02  0.00000000000E+00 0.  1.
         11    1    4    4    0    0  0.60701688786E+01 -0.78692286084E+01  0.87353662816E+01  0.13231716950E+02  0.51100000000E-03 0. -1.
        -11    1    4    4    0    0  0.10162439318E+02 -0.76158071939E+01  0.25399820399E+02  0.28397650760E+02  0.51100000000E-03 0.  1.
        -12    1    4    4    0    0  0.39542604280E+01  0.39886309128E+01  0.25247108920E+01  0.61578825240E+01  0.00000000000E+00 0.  1.
</event>
<event>
 8    1  0.5834107E-011  0.9118800E+02  0.7816164E-02  0.1184000E+00
        -11   -1    0    0    0    0  0.00000000000E+00  0.00000000000E+00  0.45593999997E+02  0.45594000000E+02  0.51100000000E-03 0.  1.
         11   -1    0    0    0    0 -0.00000000000E+00 -0.00000000000E+00 -0.45593999997E+02  0.45594000000E+02  0.51100000000E-03 0. -1.
         23    2    1    2    0    0  0.00000000000E+00  0.00000000000E+00  0.00000000000E+00  0.91188000000E+02  0.91188000000E+02 0.  0.
    9900012    2    3    3    0    0 -0.34140795009E+02  0.23621979294E+02 -0.12650366764E+02  0.47787267646E+02  0.19999984507E+02 0.  0.
         12    1    3    3    0    0  0.34140795009E+02 -0.23621979294E+02  0.12650366764E+02  0.43400732354E+02  0.00000000000E+00 0. -1.
         11    1    4    4    0    0 -0.19406291166E+01  0.67344993129E+01  0.22182509503E+01  0.73512012558E+01  0.51100000000E-03 0. -1.
        -11    1    4    4    0    0 -0.11249112238E+02  0.99740262393E+01 -0.93136367518E+01  0.17685235519E+02  0.51100000000E-03 0.  1.
        -12    1    4    4    0    0 -0.20951053654E+02  0.69134537414E+01 -0.55549809627E+01  0.22750830871E+02  0.00000000000E+00 0.  1.
</event>
<event>
 8    1  0.5834107E-011  0.9118800E+02  0.7816164E-02  0.1184000E+00
        -11   -1    0    0    0    0  0.00000000000E+00  0.00000000000E+00  0.45593999997E+02  0.45594000000E+02  0.51100000000E-03 0. -1.
         11   -1    0    0    0    0 -0.00000000000E+00 -0.00000000000E+00 -0.45593999997E+02  0.45594000000E+02  0.51100000000E-03 0.  1.
         23    2    1    2    0    0  0.00000000000E+00  0.00000000000E+00  0.00000000000E+00  0.91188000000E+02  0.91188000000E+02 0.  0.
    9900012    2    3    3    0    0  0.19162802600E+02  0.34257813436E+02  0.18515198867E+02  0.47787269891E+02  0.19999994741E+02 0.  0.
        -12    1    3    3    0    0 -0.19162802600E+02 -0.34257813436E+02 -0.18515198867E+02  0.43400730109E+02  0.00000000000E+00 0.  1.
         11    1    4    4    0    0  0.11432048991E+02  0.22321567796E+02  0.57212130951E+01  0.25723071600E+02  0.51100000000E-03 0. -1.
        -11    1    4    4    0    0  0.98862604379E+01  0.60928502656E+01  0.95859897081E+01  0.15058292358E+02  0.51100000000E-03 0.  1.
         12    1    4    4    0    0 -0.21555068286E+01  0.58433953745E+01  0.32079960633E+01  0.70059059324E+01  0.00000000000E+00 0. -1.
</event>
<event>
 8    1  0.5834107E-011  0.9118800E+02  0.7816164E-02  0.1184000E+00
        -11   -1    0    0    0    0  0.00000000000E+00  0.00000000000E+00  0.45593999997E+02  0.45594000000E+02  0.51100000000E-03 0. -1.
         11   -1    0    0    0    0 -0.00000000000E+00 -0.00000000000E+00 -0.45593999997E+02  0.45594000000E+02  0.51100000000E-03 0.  1.
         23    2    1    2    0    0  0.00000000000E+00  0.00000000000E+00  0.00000000000E+00  0.91188000000E+02  0.91188000000E+02 0.  0.
    9900012    2    3    3    0    0 -0.97159615369E+01  0.25216559047E+02  0.33960979239E+02  0.47787275702E+02  0.20000021234E+02 0.  0.
        -12    1    3    3    0    0  0.97159615369E+01 -0.25216559047E+02 -0.33960979239E+02  0.43400724298E+02  0.00000000000E+00 0.  1.
         11    1    4    4    0    0 -0.62649498867E+00  0.34975726495E+01  0.12102335366E+02  0.12613168991E+02  0.51100000000E-03 0. -1.
        -11    1    4    4    0    0  0.98376879848E+00  0.12057664505E+02  0.45174713798E+01  0.12913660298E+02  0.51100000000E-03 0.  1.
        -12    1    4    4    0    0 -0.10073235347E+02  0.96613218923E+01  0.17341172493E+02  0.22260446413E+02  0.00000000000E+00 0.  1.
</event>
<event>
 8    1  0.5834107E-011  0.9118800E+02  0.7816164E-02  0.1184000E+00
        -11   -1    0    0    0    0  0.00000000000E+00  0.00000000000E+00  0.45593999997E+02  0.45594000000E+02  0.51100000000E-03 0. -1.
         11   -1    0    0    0    0 -0.00000000000E+00 -0.00000000000E+00 -0.45593999997E+02  0.45594000000E+02  0.51100000000E-03 0.  1.
         23    2    1    2    0    0 -0.88817841970E-15 -0.17763568394E-14  0.00000000000E+00  0.91188000000E+02  0.91188000000E+02 0.  0.
    9900012    2    3    3    0    0  0.70393559803E+01  0.14436528927E+02 -0.40319441932E+02  0.47787270769E+02  0.19999998742E+02 0.  0.
         12    1    3    3    0    0 -0.70393559803E+01 -0.14436528927E+02  0.40319441932E+02  0.43400729231E+02  0.00000000000E+00 0. -1.
         11    1    4    4    0    0  0.10596834647E+02  0.65472555920E+01 -0.13461689507E+02  0.18340571010E+02  0.51100000000E-03 0. -1.
        -11    1    4    4    0    0 -0.77470804102E+00 -0.17809224674E+01 -0.56091663758E+01  0.59358744155E+01  0.51100000000E-03 0.  1.
        -12    1    4    4    0    0 -0.27827706256E+01  0.96701958023E+01 -0.21248586050E+02  0.23510825344E+02  0.00000000000E+00 0.  1.
</event>
<event>
 8    1  0.5834107E-011  0.9118800E+02  0.7816164E-02  0.1184000E+00
        -11   -1    0    0    0    0  0.00000000000E+00  0.00000000000E+00  0.45593999997E+02  0.45594000000E+02  0.51100000000E-03 0.  1.
         11   -1    0    0    0    0 -0.00000000000E+00 -0.00000000000E+00 -0.45593999997E+02  0.45594000000E+02  0.51100000000E-03 0. -1.
         23    2    1    2    0    0  0.00000000000E+00  0.00000000000E+00 -0.88817841970E-15  0.91188000000E+02  0.91188000000E+02 0.  0.
    9900012    2    3    3    0    0 -0.19159780220E+02 -0.38291973136E+02 -0.70887838807E+01  0.47787271416E+02  0.20000001693E+02 0.  0.
         12    1    3    3    0    0  0.19159780220E+02  0.38291973136E+02  0.70887838807E+01  0.43400728584E+02  0.00000000000E+00 0. -1.
         11    1    4    4    0    0 -0.30170051327E+01 -0.90633238202E+00  0.11195099992E+01  0.33432112193E+01  0.51100000000E-03 0. -1.
        -11    1    4    4    0    0 -0.18904385067E+02 -0.35232031447E+02 -0.86673221107E+01  0.40912031085E+02  0.51100000000E-03 0.  1.
        -12    1    4    4    0    0  0.27616099801E+01 -0.21536093074E+01  0.45902823083E+00  0.35320291120E+01  0.00000000000E+00 0.  1.
</event>
<event>
 8    1  0.5834107E-011  0.9118800E+02  0.7816164E-02  0.1184000E+00
        -11   -1    0    0    0    0  0.00000000000E+00  0.00000000000E+00  0.45593999997E+02  0.45594000000E+02  0.51100000000E-03 0. -1.
         11   -1    0    0    0    0 -0.00000000000E+00 -0.00000000000E+00 -0.45593999997E+02  0.45594000000E+02  0.51100000000E-03 0.  1.
         23    2    1    2    0    0  0.00000000000E+00  0.00000000000E+00  0.00000000000E+00  0.91188000000E+02  0.91188000000E+02 0.  0.
    9900012    2    3    3    0    0  0.14552606502E+02 -0.15474626658E+01  0.40858906635E+02  0.47787271341E+02  0.20000001353E+02 0.  0.
        -12    1    3    3    0    0 -0.14552606502E+02  0.15474626658E+01 -0.40858906635E+02  0.43400728659E+02  0.00000000000E+00 0.  1.
         11    1    4    4    0    0  0.18960814809E+01  0.14627546286E+00  0.16563018443E+02  0.16671835583E+02  0.51100000000E-03 0. -1.
        -11    1    4    4    0    0 -0.69798479053E+00 -0.13701468326E+01  0.14422527910E+02  0.14504268223E+02  0.51100000000E-03 0.  1.
         12    1    4    4    0    0  0.13354509811E+02 -0.32359129603E+00  0.98733602825E+01  0.16611167536E+02  0.00000000000E+00 0. -1.
</event>
<event>
 8    1  0.5834107E-011  0.9118800E+02  0.7816164E-02  0.1184000E+00
        -11   -1    0    0    0    0  0.00000000000E+00  0.00000000000E+00  0.45593999997E+02  0.45594000000E+02  0.51100000000E-03 0. -1.
         11   -1    0    0    0    0 -0.00000000000E+00 -0.00000000000E+00 -0.45593999997E+02  0.45594000000E+02  0.51100000000E-03 0.  1.
         23    2    1    2    0    0  0.00000000000E+00  0.00000000000E+00  0.00000000000E+00  0.91188000000E+02  0.91188000000E+02 0.  0.
    9900012    2    3    3    0    0 -0.22821066811E+02  0.21120412651E+02  0.30277880516E+02  0.47787274551E+02  0.20000015988E+02 0.  0.
        -12    1    3    3    0    0  0.22821066811E+02 -0.21120412651E+02 -0.30277880516E+02  0.43400725449E+02  0.00000000000E+00 0.  1.
         11    1    4    4    0    0 -0.84149192512E+00  0.43791376325E+01 -0.10896264088E+01  0.45904510711E+01  0.51100000000E-03 0. -1.
        -11    1    4    4    0    0 -0.99957674408E+01  0.14839756401E+01  0.13141379085E+02  0.16577496643E+02  0.51100000000E-03 0.  1.
         12    1    4    4    0    0 -0.11983807445E+02  0.15257299379E+02  0.18226127840E+02  0.26619326837E+02  0.00000000000E+00 0. -1.
</event>
<event>
 8    1  0.5834107E-011  0.9118800E+02  0.7816164E-02  0.1184000E+00
        -11   -1    0    0    0    0  0.00000000000E+00  0.00000000000E+00  0.45593999997E+02  0.45594000000E+02  0.51100000000E-03 0. -1.
         11   -1    0    0    0    0 -0.00000000000E+00 -0.00000000000E+00 -0.45593999997E+02  0.45594000000E+02  0.51100000000E-03 0.  1.
         23    2    1    2    0    0  0.00000000000E+00  0.00000000000E+00  0.00000000000E+00  0.91188000000E+02  0.91188000000E+02 0.  0.
    9900012    2    3    3    0    0  0.35137003977E+02 -0.90949482936E+01  0.23796978055E+02  0.47787270772E+02  0.19999998758E+02 0.  0.
        -12    1    3    3    0    0 -0.35137003977E+02  0.90949482936E+01 -0.23796978055E+02  0.43400729228E+02  0.00000000000E+00 0.  1.
         11    1    4    4    0    0  0.70016520483E+01 -0.35651656480E+01  0.15984651653E+02  0.17811306135E+02  0.51100000000E-03 0. -1.
        -11    1    4    4    0    0  0.11805475165E+02 -0.75154843717E+00  0.44091295607E+01  0.12624361079E+02  0.51100000000E-03 0.  1.
         12    1    4    4    0    0  0.16329876764E+02 -0.47782342085E+01  0.34031968419E+01  0.17351603558E+02  0.00000000000E+00 0. -1.
</event>
<event>
 8    1  0.5834107E-011  0.9118800E+02  0.7816164E-02  0.1184000E+00
        -11   -1    0    0    0    0  0.00000000000E+00  0.00000000000E+00  0.45593999997E+02  0.45594000000E+02  0.51100000000E-03 0. -1.
         11   -1    0    0    0    0 -0.00000000000E+00 -0.00000000000E+00 -0.45593999997E+02  0.45594000000E+02  0.51100000000E-03 0.  1.
         23    2    1    2    0    0 -0.71054273576E-14  0.00000000000E+00  0.00000000000E+00  0.91188000000E+02  0.91188000000E+02 0.  0.
    9900012    2    3    3    0    0  0.41523456157E+02 -0.76446629915E+01 -0.10049119185E+02  0.47787273279E+02  0.20000010190E+02 0.  0.
         12    1    3    3    0    0 -0.41523456157E+02  0.76446629915E+01  0.10049119185E+02  0.43400726721E+02  0.00000000000E+00 0. -1.
         11    1    4    4    0    0  0.28550092175E+02  0.16744133991E+01 -0.10772029950E+02  0.30560563688E+02  0.51100000000E-03 0. -1.
        -11    1    4    4    0    0  0.18359586183E+01  0.64217807524E+00 -0.99737524753E+00  0.21858395124E+01  0.51100000000E-03 0.  1.
         12    1    4    4    0    0  0.11137405364E+02 -0.99612544659E+01  0.17202860121E+01  0.15040870079E+02  0.00000000000E+00 0. -1.
</event>
<event>
 8    1  0.5834107E-011  0.9118800E+02  0.7816164E-02  0.1184000E+00
        -11   -1    0    0    0    0  0.00000000000E+00  0.00000000000E+00  0.45593999997E+02  0.45594000000E+02  0.51100000000E-03 0.  1.
         11   -1    0    0    0    0 -0.00000000000E+00 -0.00000000000E+00 -0.45593999997E+02  0.45594000000E+02  0.51100000000E-03 0. -1.
         23    2    1    2    0    0 -0.88817841970E-15 -0.35527136788E-14  0.00000000000E+00  0.91188000000E+02  0.91188000000E+02 0.  0.
    9900012    2    3    3    0    0 -0.65350219648E+01  0.30680085323E+02  0.29994158338E+02  0.47787266344E+02  0.19999978568E+02 0.  0.
        -12    1    3    3    0    0  0.65350219648E+01 -0.30680085323E+02 -0.29994158338E+02  0.43400733656E+02  0.00000000000E+00 0.  1.
         11    1    4    4    0    0 -0.14962371314E+01  0.20741719479E+02  0.28715556060E+02  0.35454771366E+02  0.51100000000E-03 0. -1.
        -11    1    4    4    0    0 -0.11140940751E+01  0.71748520812E+01  0.18657004557E+01  0.74967023715E+01  0.51100000000E-03 0.  1.
         12    1    4    4    0    0 -0.39246907583E+01  0.27635137622E+01 -0.58709817787E+00  0.48357926065E+01  0.00000000000E+00 0. -1.
</event>
<event>
 8    1  0.5834107E-011  0.9118800E+02  0.7816164E-02  0.1184000E+00
        -11   -1    0    0    0    0  0.00000000000E+00  0.00000000000E+00  0.45593999997E+02  0.45594000000E+02  0.51100000000E-03 0. -1.
         11   -1    0    0    0    0 -0.00000000000E+00 -0.00000000000E+00 -0.45593999997E+02  0.45594000000E+02  0.51100000000E-03 0.  1.
         23    2    1    2    0    0 -0.88817841970E-15 -0.71054273576E-14 -0.88817841970E-15  0.91188000000E+02  0.91188000000E+02 0.  0.
    9900012    2    3    3    0    0  0.54306735291E+01  0.42860588098E+02 -0.41353413101E+01  0.47787271033E+02  0.19999999949E+02 0.  0.
        -12    1    3    3    0    0 -0.54306735291E+01 -0.42860588098E+02  0.41353413101E+01  0.43400728967E+02  0.00000000000E+00 0.  1.
         11    1    4    4    0    0  0.12865461001E+00  0.37779172436E+02 -0.86767725502E+01  0.38762982394E+02  0.51100000000E-03 0. -1.
        -11    1    4    4    0    0  0.93637283073E+00  0.18044546173E-01  0.12789107738E+01  0.15851601535E+01  0.51100000000E-03 0.  1.
        -12    1    4    4    0    0  0.43656460884E+01  0.50633711160E+01  0.32625204663E+01  0.74391284852E+01  0.00000000000E+00 0.  1.
</event>
<event>
 8    1  0.5834107E-011  0.9118800E+02  0.7816164E-02  0.1184000E+00
        -11   -1    0    0    0    0  0.00000000000E+00  0.00000000000E+00  0.45593999997E+02  0.45594000000E+02  0.51100000000E-03 0. -1.
         11   -1    0    0    0    0 -0.00000000000E+00 -0.00000000000E+00 -0.45593999997E+02  0.45594000000E+02  0.51100000000E-03 0.  1.
         23    2    1    2    0    0 -0.88817841970E-15 -0.17763568394E-14  0.00000000000E+00  0.91188000000E+02  0.91188000000E+02 0.  0.
    9900012    2    3    3    0    0  0.79477595665E+01 -0.94163338863E+01 -0.41614770245E+02  0.47787270414E+02  0.19999997127E+02 0.  0.
         12    1    3    3    0    0 -0.79477595665E+01  0.94163338863E+01  0.41614770245E+02  0.43400729586E+02  0.00000000000E+00 0. -1.
         11    1    4    4    0    0 -0.14304696030E+00  0.81725493199E+00 -0.77664113930E+01  0.78106026812E+01  0.51100000000E-03 0. -1.
        -11    1    4    4    0    0 -0.18971849838E+01 -0.35629930540E+01 -0.24300039906E+02  0.24633030063E+02  0.51100000000E-03 0.  1.
         12    1    4    4    0    0  0.99879915106E+01 -0.66705957643E+01 -0.95483189463E+01  0.15343637671E+02  0.00000000000E+00 0. -1.
</event>
<event>
 8    1  0.5834107E-011  0.9118800E+02  0.7816164E-02  0.1184000E+00
        -11   -1    0    0    0    0  0.00000000000E+00  0.00000000000E+00  0.45593999997E+02  0.45594000000E+02  0.51100000000E-03 0. -1.
         11   -1    0    0    0    0 -0.00000000000E+00 -0.00000000000E+00 -0.45593999997E+02  0.45594000000E+02  0.51100000000E-03 0.  1.
         23    2    1    2    0    0  0.00000000000E+00  0.00000000000E+00  0.35527136788E-14  0.91188000000E+02  0.91188000000E+02 0.  0.
    9900012    2    3    3    0    0 -0.25988342425E+02  0.17318510529E+02  0.30137991430E+02  0.47787271016E+02  0.19999999869E+02 0.  0.
        -12    1    3    3    0    0  0.25988342425E+02 -0.17318510529E+02 -0.30137991430E+02  0.43400728984E+02  0.00000000000E+00 0.  1.
         11    1    4    4    0    0 -0.86550161106E+00  0.26050332281E+01  0.15465653599E+01  0.31507389342E+01  0.51100000000E-03 0.  1.
        -11    1    4    4    0    0 -0.26521880803E+02  0.13479506108E+02  0.20008304502E+02  0.35853026310E+02  0.51100000000E-03 0. -1.
        -12    1    4    4    0    0  0.13990399893E+01  0.12339711931E+01  0.85831215679E+01  0.87835057720E+01  0.00000000000E+00 0.  1.
</event>
<event>
 8    1  0.5834107E-011  0.9118800E+02  0.7816164E-02  0.1184000E+00
        -11   -1    0    0    0    0  0.00000000000E+00  0.00000000000E+00  0.45593999997E+02  0.45594000000E+02  0.51100000000E-03 0. -1.
         11   -1    0    0    0    0 -0.00000000000E+00 -0.00000000000E+00 -0.45593999997E+02  0.45594000000E+02  0.51100000000E-03 0.  1.
         23    2    1    2    0    0 -0.35527136788E-14 -0.71054273576E-14  0.00000000000E+00  0.91188000000E+02  0.91188000000E+02 0.  0.
    9900012    2    3    3    0    0  0.24813085680E+02  0.34571855047E+02  0.85276674922E+01  0.47787268494E+02  0.19999988373E+02 0.  0.
        -12    1    3    3    0    0 -0.24813085680E+02 -0.34571855047E+02 -0.85276674922E+01  0.43400731506E+02  0.00000000000E+00 0.  1.
         11    1    4    4    0    0  0.40859394965E+01  0.21943868546E+01 -0.27268654985E+01  0.53801515726E+01  0.51100000000E-03 0. -1.
        -11    1    4    4    0    0  0.18431690648E+02  0.27175095344E+02  0.38351908522E+01  0.33059366543E+02  0.51100000000E-03 0.  1.
        -12    1    4    4    0    0  0.22954555353E+01  0.52023728486E+01  0.74193421385E+01  0.93477503785E+01  0.00000000000E+00 0.  1.
</event>
<event>
 8    1  0.5834107E-011  0.9118800E+02  0.7816164E-02  0.1184000E+00
        -11   -1    0    0    0    0  0.00000000000E+00  0.00000000000E+00  0.45593999997E+02  0.45594000000E+02  0.51100000000E-03 0. -1.
         11   -1    0    0    0    0 -0.00000000000E+00 -0.00000000000E+00 -0.45593999997E+02  0.45594000000E+02  0.51100000000E-03 0.  1.
         23    2    1    2    0    0  0.00000000000E+00  0.00000000000E+00  0.71054273576E-14  0.91188000000E+02  0.91188000000E+02 0.  0.
    9900012    2    3    3    0    0  0.26778101694E+02  0.10549567060E+02  0.32484812997E+02  0.47787272230E+02  0.20000005406E+02 0.  0.
        -12    1    3    3    0    0 -0.26778101694E+02 -0.10549567060E+02 -0.32484812997E+02  0.43400727770E+02  0.00000000000E+00 0.  1.
         11    1    4    4    0    0  0.15913184005E+02  0.10509458645E+02  0.19931323629E+02  0.27585064945E+02  0.51100000000E-03 0. -1.
        -11    1    4    4    0    0  0.69135438634E+01 -0.18239458259E+01  0.13899364565E+02  0.15630617477E+02  0.51100000000E-03 0.  1.
         12    1    4    4    0    0  0.39513738258E+01  0.18640542409E+01 -0.13458751970E+01  0.45715898077E+01  0.00000000000E+00 0. -1.
</event>
<event>
 8    1  0.5834107E-011  0.9118800E+02  0.7816164E-02  0.1184000E+00
        -11   -1    0    0    0    0  0.00000000000E+00  0.00000000000E+00  0.45593999997E+02  0.45594000000E+02  0.51100000000E-03 0. -1.
         11   -1    0    0    0    0 -0.00000000000E+00 -0.00000000000E+00 -0.45593999997E+02  0.45594000000E+02  0.51100000000E-03 0.  1.
         23    2    1    2    0    0  0.00000000000E+00  0.00000000000E+00  0.00000000000E+00  0.91188000000E+02  0.91188000000E+02 0.  0.
    9900012    2    3    3    0    0 -0.40959081962E+02  0.11630762378E+02  0.84084546563E+01  0.47787272606E+02  0.20000007118E+02 0.  0.
        -12    1    3    3    0    0  0.40959081962E+02 -0.11630762378E+02 -0.84084546563E+01  0.43400727394E+02  0.00000000000E+00 0.  1.
         11    1    4    4    0    0 -0.11806581835E+02  0.62721009604E+01  0.36205862295E+01  0.13850749799E+02  0.51100000000E-03 0. -1.
        -11    1    4    4    0    0 -0.23298499139E+02 -0.28955337193E+01  0.33519117668E+01  0.23715806763E+02  0.51100000000E-03 0.  1.
        -12    1    4    4    0    0 -0.58540009874E+01  0.82541951369E+01  0.14359566600E+01  0.10220716044E+02  0.00000000000E+00 0.  1.
</event>
<event>
 8    1  0.5834107E-011  0.9118800E+02  0.7816164E-02  0.1184000E+00
        -11   -1    0    0    0    0  0.00000000000E+00  0.00000000000E+00  0.45593999997E+02  0.45594000000E+02  0.51100000000E-03 0. -1.
         11   -1    0    0    0    0 -0.00000000000E+00 -0.00000000000E+00 -0.45593999997E+02  0.45594000000E+02  0.51100000000E-03 0.  1.
         23    2    1    2    0    0 -0.71054273576E-14  0.17763568394E-14  0.00000000000E+00  0.91188000000E+02  0.91188000000E+02 0.  0.
    9900012    2    3    3    0    0  0.33426280637E+02 -0.82040509651E+01  0.26438628031E+02  0.47787265656E+02  0.19999975434E+02 0.  0.
        -12    1    3    3    0    0 -0.33426280637E+02  0.82040509651E+01 -0.26438628031E+02  0.43400734344E+02  0.00000000000E+00 0.  1.
         11    1    4    4    0    0  0.11480193033E+02  0.74322644398E+00  0.13815259871E+02  0.17978003871E+02  0.51100000000E-03 0. -1.
        -11    1    4    4    0    0  0.12744126793E+02 -0.11797286490E+02  0.83929807711E+01  0.19288101584E+02  0.51100000000E-03 0.  1.
        -12    1    4    4    0    0  0.92019608105E+01  0.28500090808E+01  0.42303873885E+01  0.10521160201E+02  0.00000000000E+00 0.  1.
</event>
<event>
 8    1  0.5834107E-011  0.9118800E+02  0.7816164E-02  0.1184000E+00
        -11   -1    0    0    0    0  0.00000000000E+00  0.00000000000E+00  0.45593999997E+02  0.45594000000E+02  0.51100000000E-03 0. -1.
         11   -1    0    0    0    0 -0.00000000000E+00 -0.00000000000E+00 -0.45593999997E+02  0.45594000000E+02  0.51100000000E-03 0.  1.
         23    2    1    2    0    0 -0.44408920985E-15 -0.17763568394E-14  0.00000000000E+00  0.91188000000E+02  0.91188000000E+02 0.  0.
    9900012    2    3    3    0    0  0.18268417248E+01 -0.10348918629E+02 -0.42109212740E+02  0.47787271146E+02  0.20000000464E+02 0.  0.
         12    1    3    3    0    0 -0.18268417248E+01  0.10348918629E+02  0.42109212740E+02  0.43400728854E+02  0.00000000000E+00 0. -1.
         11    1    4    4    0    0 -0.20907523866E+01 -0.91002268248E-01 -0.78013279877E+00  0.22334131726E+01  0.51100000000E-03 0. -1.
        -11    1    4    4    0    0  0.91402050023E+01 -0.28124638721E+01 -0.26330876651E+02  0.28013717461E+02  0.51100000000E-03 0.  1.
        -12    1    4    4    0    0 -0.52226108909E+01 -0.74454524883E+01 -0.14998203290E+02  0.17540140513E+02  0.00000000000E+00 0.  1.
</event>
<event>
 8    1  0.5834107E-011  0.9118800E+02  0.7816164E-02  0.1184000E+00
        -11   -1    0    0    0    0  0.00000000000E+00  0.00000000000E+00  0.45593999997E+02  0.45594000000E+02  0.51100000000E-03 0.  1.
         11   -1    0    0    0    0 -0.00000000000E+00 -0.00000000000E+00 -0.45593999997E+02  0.45594000000E+02  0.51100000000E-03 0. -1.
         23    2    1    2    0    0 -0.17763568394E-14  0.00000000000E+00  0.00000000000E+00  0.91188000000E+02  0.91188000000E+02 0.  0.
    9900012    2    3    3    0    0 -0.15068071411E+02 -0.35811529405E+02  0.19341939146E+02  0.47787273920E+02  0.20000013109E+02 0.  0.
        -12    1    3    3    0    0  0.15068071411E+02  0.35811529405E+02 -0.19341939146E+02  0.43400726080E+02  0.00000000000E+00 0.  1.
         11    1    4    4    0    0 -0.20318523305E+01 -0.12638565383E+01  0.41981905866E+01  0.48322418922E+01  0.51100000000E-03 0. -1.
        -11    1    4    4    0    0 -0.14445532481E+01 -0.33831840270E+01 -0.32912342190E+01  0.49360805496E+01  0.51100000000E-03 0.  1.
         12    1    4    4    0    0 -0.11591665833E+02 -0.31164488840E+02  0.18434982779E+02  0.38018951478E+02  0.00000000000E+00 0. -1.
</event>
<event>
 8    1  0.5834107E-011  0.9118800E+02  0.7816164E-02  0.1184000E+00
        -11   -1    0    0    0    0  0.00000000000E+00  0.00000000000E+00  0.45593999997E+02  0.45594000000E+02  0.51100000000E-03 0. -1.
         11   -1    0    0    0    0 -0.00000000000E+00 -0.00000000000E+00 -0.45593999997E+02  0.45594000000E+02  0.51100000000E-03 0.  1.
         23    2    1    2    0    0 -0.17763568394E-14  0.00000000000E+00 -0.35527136788E-14  0.91188000000E+02  0.91188000000E+02 0.  0.
    9900012    2    3    3    0    0  0.85861601506E+01 -0.37339689436E+02  0.20387458651E+02  0.47787273928E+02  0.20000013149E+02 0.  0.
        -12    1    3    3    0    0 -0.85861601506E+01  0.37339689436E+02 -0.20387458651E+02  0.43400726072E+02  0.00000000000E+00 0.  1.
         11    1    4    4    0    0  0.57052856109E+01 -0.18853585468E+02  0.10637003771E+02  0.22386465071E+02  0.51100000000E-03 0. -1.
        -11    1    4    4    0    0  0.27169282193E+01  0.10101030234E+01 -0.10853099964E+01  0.30951421803E+01  0.51100000000E-03 0.  1.
         12    1    4    4    0    0  0.16394632031E+00 -0.19496206991E+02  0.10835764877E+02  0.22305666677E+02  0.00000000000E+00 0. -1.
</event>
<event>
 8    1  0.5834107E-011  0.9118800E+02  0.7816164E-02  0.1184000E+00
        -11   -1    0    0    0    0  0.00000000000E+00  0.00000000000E+00  0.45593999997E+02  0.45594000000E+02  0.51100000000E-03 0. -1.
         11   -1    0    0    0    0 -0.00000000000E+00 -0.00000000000E+00 -0.45593999997E+02  0.45594000000E+02  0.51100000000E-03 0.  1.
         23    2    1    2    0    0 -0.17763568394E-14  0.00000000000E+00  0.00000000000E+00  0.91188000000E+02  0.91188000000E+02 0.  0.
    9900012    2    3    3    0    0  0.80751914611E+01 -0.40645978471E+02 -0.12896473205E+02  0.47787270696E+02  0.19999998412E+02 0.  0.
         12    1    3    3    0    0 -0.80751914611E+01  0.40645978471E+02  0.12896473205E+02  0.43400729304E+02  0.00000000000E+00 0. -1.
         11    1    4    4    0    0 -0.13021927652E+01 -0.18816233761E+01 -0.31210149699E+01  0.38700061022E+01  0.51100000000E-03 0.  1.
        -11    1    4    4    0    0  0.60619718816E+01 -0.11603900173E+02  0.34321619370E+01  0.13534317055E+02  0.51100000000E-03 0. -1.
        -12    1    4    4    0    0  0.33154123447E+01 -0.27160454921E+02 -0.13207620172E+02  0.30382947539E+02  0.00000000000E+00 0.  1.
</event>
<event>
 8    1  0.5834107E-011  0.9118800E+02  0.7816164E-02  0.1184000E+00
        -11   -1    0    0    0    0  0.00000000000E+00  0.00000000000E+00  0.45593999997E+02  0.45594000000E+02  0.51100000000E-03 0. -1.
         11   -1    0    0    0    0 -0.00000000000E+00 -0.00000000000E+00 -0.45593999997E+02  0.45594000000E+02  0.51100000000E-03 0.  1.
         23    2    1    2    0    0  0.88817841970E-15  0.00000000000E+00  0.00000000000E+00  0.91188000000E+02  0.91188000000E+02 0.  0.
    9900012    2    3    3    0    0  0.18649344496E+01  0.20983600649E+02 -0.37945134996E+02  0.47787277120E+02  0.20000027699E+02 0.  0.
         12    1    3    3    0    0 -0.18649344496E+01 -0.20983600649E+02  0.37945134996E+02  0.43400722880E+02  0.00000000000E+00 0. -1.
         11    1    4    4    0    0 -0.16421192404E+01 -0.30597579891E+00 -0.10302347981E+01  0.19625393727E+01  0.51100000000E-03 0. -1.
        -11    1    4    4    0    0  0.77499726985E+01  0.15751921773E+02 -0.33998681265E+02  0.38263500158E+02  0.51100000000E-03 0.  1.
         12    1    4    4    0    0 -0.42429190086E+01  0.55376546743E+01 -0.29162189331E+01  0.75612375886E+01  0.00000000000E+00 0. -1.
</event>
<event>
 8    1  0.5834107E-011  0.9118800E+02  0.7816164E-02  0.1184000E+00
        -11   -1    0    0    0    0  0.00000000000E+00  0.00000000000E+00  0.45593999997E+02  0.45594000000E+02  0.51100000000E-03 0. -1.
         11   -1    0    0    0    0 -0.00000000000E+00 -0.00000000000E+00 -0.45593999997E+02  0.45594000000E+02  0.51100000000E-03 0.  1.
         23    2    1    2    0    0  0.00000000000E+00  0.00000000000E+00  0.00000000000E+00  0.91188000000E+02  0.91188000000E+02 0.  0.
    9900012    2    3    3    0    0  0.14991595188E+02 -0.19715904651E+02 -0.35639284024E+02  0.47787269727E+02  0.19999993994E+02 0.  0.
         12    1    3    3    0    0 -0.14991595188E+02  0.19715904651E+02  0.35639284024E+02  0.43400730273E+02  0.00000000000E+00 0. -1.
         11    1    4    4    0    0  0.38505534591E+01  0.22280694015E+01 -0.17048607856E+00  0.44519794433E+01  0.51100000000E-03 0. -1.
        -11    1    4    4    0    0  0.51508754513E+01 -0.63430668724E+01 -0.12375331959E+02  0.14829526514E+02  0.51100000000E-03 0.  1.
         12    1    4    4    0    0  0.59901662777E+01 -0.15600907180E+02 -0.23093465986E+02  0.28505763770E+02  0.00000000000E+00 0. -1.
</event>
<event>
 8    1  0.5834107E-011  0.9118800E+02  0.7816164E-02  0.1184000E+00
        -11   -1    0    0    0    0  0.00000000000E+00  0.00000000000E+00  0.45593999997E+02  0.45594000000E+02  0.51100000000E-03 0. -1.
         11   -1    0    0    0    0 -0.00000000000E+00 -0.00000000000E+00 -0.45593999997E+02  0.45594000000E+02  0.51100000000E-03 0.  1.
         23    2    1    2    0    0  0.00000000000E+00  0.44408920985E-15  0.00000000000E+00  0.91188000000E+02  0.91188000000E+02 0.  0.
    9900012    2    3    3    0    0  0.34742660890E+02  0.18947462600E+01 -0.25941871475E+02  0.47787271380E+02  0.20000001531E+02 0.  0.
         12    1    3    3    0    0 -0.34742660890E+02 -0.18947462600E+01  0.25941871475E+02  0.43400728620E+02  0.00000000000E+00 0. -1.
         11    1    4    4    0    0  0.13574393641E+02 -0.23148243493E+01 -0.86763614901E+01  0.16275804848E+02  0.51100000000E-03 0. -1.
        -11    1    4    4    0    0  0.17042374229E+02  0.90516700701E+01 -0.15903140895E+02  0.25005702170E+02  0.51100000000E-03 0.  1.
        -12    1    4    4    0    0  0.41258930190E+01 -0.48420994608E+01 -0.13623690901E+01  0.65057643617E+01  0.00000000000E+00 0.  1.
</event>
<event>
 8    1  0.6082755E-011  0.9118800E+02  0.7816164E-02  0.1184000E+00
        -11   -1    0    0    0    0  0.00000000000E+00  0.00000000000E+00  0.45593999997E+02  0.45594000000E+02  0.51100000000E-03 0. -1.
         11   -1    0    0    0    0 -0.00000000000E+00 -0.00000000000E+00 -0.45593999997E+02  0.45594000000E+02  0.51100000000E-03 0.  1.
         23    2    1    2    0    0  0.00000000000E+00  0.00000000000E+00  0.00000000000E+00  0.91188000000E+02  0.91188000000E+02 0.  0.
    9900012    2    3    3    0    0  0.85379986375E+01 -0.32627259698E+01  0.42427353533E+02  0.47787272710E+02  0.20000007595E+02 0.  0.
        -12    1    3    3    0    0 -0.85379986375E+01  0.32627259698E+01 -0.42427353533E+02  0.43400727290E+02  0.00000000000E+00 0.  1.
         11    1    4    4    0    0 -0.13460983202E+01 -0.43033745545E+01  0.16822527937E+02  0.17416327389E+02  0.51100000000E-03 0. -1.
        -11    1    4    4    0    0  0.20690048536E+01  0.10997566084E+01 -0.10692189969E+01  0.25755533787E+01  0.51100000000E-03 0.  1.
         12    1    4    4    0    0  0.78150921041E+01 -0.59108023758E-01  0.26674044592E+02  0.27795391943E+02  0.00000000000E+00 0. -1.
</event>
<event>
 8    1  0.5834107E-011  0.9118800E+02  0.7816164E-02  0.1184000E+00
        -11   -1    0    0    0    0  0.00000000000E+00  0.00000000000E+00  0.45593999997E+02  0.45594000000E+02  0.51100000000E-03 0. -1.
         11   -1    0    0    0    0 -0.00000000000E+00 -0.00000000000E+00 -0.45593999997E+02  0.45594000000E+02  0.51100000000E-03 0.  1.
         23    2    1    2    0    0  0.00000000000E+00  0.00000000000E+00  0.35527136788E-14  0.91188000000E+02  0.91188000000E+02 0.  0.
    9900012    2    3    3    0    0 -0.74127306312E+01 -0.35345340572E+02  0.24070411709E+02  0.47787235083E+02  0.19999836038E+02 0.  0.
        -12    1    3    3    0    0  0.74127306312E+01  0.35345340572E+02 -0.24070411709E+02  0.43400764917E+02  0.00000000000E+00 0.  1.
         11    1    4    4    0    0  0.19473360588E+01 -0.20575594240E+02  0.15436755199E+02  0.25796135513E+02  0.51100000000E-03 0. -1.
        -11    1    4    4    0    0 -0.85460194742E+01 -0.82034839175E+01  0.99886218044E+00  0.11888201006E+02  0.51100000000E-03 0.  1.
        -12    1    4    4    0    0 -0.81404721580E+00 -0.65662624138E+01  0.76347943296E+01  0.10102898565E+02  0.00000000000E+00 0.  1.
</event>
<event>
 8    1  0.5834107E-011  0.9118800E+02  0.7816164E-02  0.1184000E+00
        -11   -1    0    0    0    0  0.00000000000E+00  0.00000000000E+00  0.45593999997E+02  0.45594000000E+02  0.51100000000E-03 0. -1.
         11   -1    0    0    0    0 -0.00000000000E+00 -0.00000000000E+00 -0.45593999997E+02  0.45594000000E+02  0.51100000000E-03 0.  1.
         23    2    1    2    0    0  0.00000000000E+00  0.00000000000E+00  0.00000000000E+00  0.91188000000E+02  0.91188000000E+02 0.  0.
    9900012    2    3    3    0    0 -0.12064249554E+02 -0.70878088729E+01 -0.41083327931E+02  0.47787274363E+02  0.20000015131E+02 0.  0.
         12    1    3    3    0    0  0.12064249554E+02  0.70878088729E+01  0.41083327931E+02  0.43400725637E+02  0.00000000000E+00 0. -1.
         11    1    4    4    0    0  0.13406081507E+01 -0.33019074766E+01 -0.15177885418E+01  0.38734358799E+01  0.51100000000E-03 0. -1.
        -11    1    4    4    0    0 -0.15684876936E+02 -0.49025711227E+01 -0.32770424242E+02  0.36659940990E+02  0.51100000000E-03 0.  1.
         12    1    4    4    0    0  0.22800192319E+01  0.11166697264E+01 -0.67951151477E+01  0.72538974935E+01  0.00000000000E+00 0. -1.
</event>
<event>
 8    1  0.5834107E-011  0.9118800E+02  0.7816164E-02  0.1184000E+00
        -11   -1    0    0    0    0  0.00000000000E+00  0.00000000000E+00  0.45593999997E+02  0.45594000000E+02  0.51100000000E-03 0.  1.
         11   -1    0    0    0    0 -0.00000000000E+00 -0.00000000000E+00 -0.45593999997E+02  0.45594000000E+02  0.51100000000E-03 0. -1.
         23    2    1    2    0    0  0.00000000000E+00  0.35527136788E-14  0.35527136788E-14  0.91188000000E+02  0.91188000000E+02 0.  0.
    9900012    2    3    3    0    0  0.18869348532E+02  0.29772100463E+02  0.25321795168E+02  0.47787267397E+02  0.19999983369E+02 0.  0.
         12    1    3    3    0    0 -0.18869348532E+02 -0.29772100463E+02 -0.25321795168E+02  0.43400732603E+02  0.00000000000E+00 0. -1.
         11    1    4    4    0    0  0.96526797915E+00  0.16908835835E+02  0.10057162757E+02  0.19697385475E+02  0.51100000000E-03 0. -1.
        -11    1    4    4    0    0  0.70278451806E+01  0.60639422251E+01  0.17286682504E+01  0.94419435167E+01  0.51100000000E-03 0.  1.
        -12    1    4    4    0    0  0.10876235372E+02  0.67993224023E+01  0.13535964160E+02  0.18647938405E+02  0.00000000000E+00 0.  1.
</event>
<event>
 8    1  0.5834107E-011  0.9118800E+02  0.7816164E-02  0.1184000E+00
        -11   -1    0    0    0    0  0.00000000000E+00  0.00000000000E+00  0.45593999997E+02  0.45594000000E+02  0.51100000000E-03 0. -1.
         11   -1    0    0    0    0 -0.00000000000E+00 -0.00000000000E+00 -0.45593999997E+02  0.45594000000E+02  0.51100000000E-03 0.  1.
         23    2    1    2    0    0 -0.35527136788E-14  0.00000000000E+00  0.00000000000E+00  0.91188000000E+02  0.91188000000E+02 0.  0.
    9900012    2    3    3    0    0 -0.26303659169E+02  0.20366910121E+02 -0.27873466710E+02  0.47787266596E+02  0.19999979720E+02 0.  0.
         12    1    3    3    0    0  0.26303659169E+02 -0.20366910121E+02  0.27873466710E+02  0.43400733404E+02  0.00000000000E+00 0. -1.
         11    1    4    4    0    0  0.14745539340E+01  0.26829675449E+01 -0.49666503450E+01  0.58344014313E+01  0.51100000000E-03 0. -1.
        -11    1    4    4    0    0 -0.16854970409E+02  0.14146182232E+02 -0.86411543285E+01  0.23640517076E+02  0.51100000000E-03 0.  1.
         12    1    4    4    0    0 -0.10923242694E+02  0.35377603436E+01 -0.14265662037E+02  0.18312348089E+02  0.00000000000E+00 0. -1.
</event>
<event>
 8    1  0.5834107E-011  0.9118800E+02  0.7816164E-02  0.1184000E+00
        -11   -1    0    0    0    0  0.00000000000E+00  0.00000000000E+00  0.45593999997E+02  0.45594000000E+02  0.51100000000E-03 0. -1.
         11   -1    0    0    0    0 -0.00000000000E+00 -0.00000000000E+00 -0.45593999997E+02  0.45594000000E+02  0.51100000000E-03 0.  1.
         23    2    1    2    0    0 -0.71054273576E-14  0.00000000000E+00  0.00000000000E+00  0.91188000000E+02  0.91188000000E+02 0.  0.
    9900012    2    3    3    0    0  0.36990969533E+02 -0.20943213422E+02 -0.87563292492E+01  0.47787270543E+02  0.19999997716E+02 0.  0.
         12    1    3    3    0    0 -0.36990969533E+02  0.20943213422E+02  0.87563292492E+01  0.43400729457E+02  0.00000000000E+00 0. -1.
         11    1    4    4    0    0  0.94969575081E+01 -0.36119400167E-01 -0.14679415347E+01  0.96098053639E+01  0.51100000000E-03 0. -1.
        -11    1    4    4    0    0  0.13032703661E+02 -0.13914713005E+02 -0.10546041616E+02  0.21787372415E+02  0.51100000000E-03 0.  1.
        -12    1    4    4    0    0  0.14461308364E+02 -0.69923810168E+01  0.32576539015E+01  0.16390092765E+02  0.00000000000E+00 0.  1.
</event>
<event>
 8    1  0.5834107E-011  0.9118800E+02  0.7816164E-02  0.1184000E+00
        -11   -1    0    0    0    0  0.00000000000E+00  0.00000000000E+00  0.45593999997E+02  0.45594000000E+02  0.51100000000E-03 0.  1.
         11   -1    0    0    0    0 -0.00000000000E+00 -0.00000000000E+00 -0.45593999997E+02  0.45594000000E+02  0.51100000000E-03 0. -1.
         23    2    1    2    0    0  0.17763568394E-14 -0.71054273576E-14  0.44408920985E-15  0.91188000000E+02  0.91188000000E+02 0.  0.
    9900012    2    3    3    0    0 -0.92196444892E+01 -0.42243702601E+02  0.37538180100E+01  0.47787269550E+02  0.19999993185E+02 0.  0.
        -12    1    3    3    0    0  0.92196444892E+01  0.42243702601E+02 -0.37538180100E+01  0.43400730450E+02  0.00000000000E+00 0.  1.
         11    1    4    4    0    0  0.59949262051E+01 -0.12811184395E+02  0.22243919915E+01  0.14318292698E+02  0.51100000000E-03 0. -1.
        -11    1    4    4    0    0 -0.41481372308E+01 -0.60391630870E+01 -0.12819231592E+01  0.74378666648E+01  0.51100000000E-03 0.  1.
         12    1    4    4    0    0 -0.11066433463E+02 -0.23393355120E+02  0.28113491777E+01  0.26031110187E+02  0.00000000000E+00 0. -1.
</event>
<event>
 8    1  0.5834107E-011  0.9118800E+02  0.7816164E-02  0.1184000E+00
        -11   -1    0    0    0    0  0.00000000000E+00  0.00000000000E+00  0.45593999997E+02  0.45594000000E+02  0.51100000000E-03 0. -1.
         11   -1    0    0    0    0 -0.00000000000E+00 -0.00000000000E+00 -0.45593999997E+02  0.45594000000E+02  0.51100000000E-03 0.  1.
         23    2    1    2    0    0 -0.44408920985E-15 -0.88817841970E-15 -0.71054273576E-14  0.91188000000E+02  0.91188000000E+02 0.  0.
    9900012    2    3    3    0    0 -0.13970866141E+01  0.41097529893E+01 -0.43183114750E+02  0.47787270511E+02  0.19999997570E+02 0.  0.
         12    1    3    3    0    0  0.13970866141E+01 -0.41097529893E+01  0.43183114750E+02  0.43400729489E+02  0.00000000000E+00 0. -1.
         11    1    4    4    0    0 -0.30457439830E+01 -0.27385240486E+01 -0.11225998022E+02  0.11949857833E+02  0.51100000000E-03 0. -1.
        -11    1    4    4    0    0 -0.39642481526E+01 -0.72263415381E+00 -0.21323606809E+01  0.45589939537E+01  0.51100000000E-03 0.  1.
        -12    1    4    4    0    0  0.56129055214E+01  0.75709111917E+01 -0.29824756047E+02  0.31278418725E+02  0.00000000000E+00 0.  1.
</event>
<event>
 8    1  0.5834107E-011  0.9118800E+02  0.7816164E-02  0.1184000E+00
        -11   -1    0    0    0    0  0.00000000000E+00  0.00000000000E+00  0.45593999997E+02  0.45594000000E+02  0.51100000000E-03 0. -1.
         11   -1    0    0    0    0 -0.00000000000E+00 -0.00000000000E+00 -0.45593999997E+02  0.45594000000E+02  0.51100000000E-03 0.  1.
         23    2    1    2    0    0 -0.17763568394E-14  0.00000000000E+00  0.00000000000E+00  0.91188000000E+02  0.91188000000E+02 0.  0.
    9900012    2    3    3    0    0  0.12110942369E+02 -0.73859736258E+01  0.41017018026E+02  0.47787270753E+02  0.19999998669E+02 0.  0.
        -12    1    3    3    0    0 -0.12110942369E+02  0.73859736258E+01 -0.41017018026E+02  0.43400729247E+02  0.00000000000E+00 0.  1.
         11    1    4    4    0    0  0.15410665378E+01 -0.76944757851E+01  0.29906409408E+02  0.30918815754E+02  0.51100000000E-03 0. -1.
        -11    1    4    4    0    0  0.37743167550E+01  0.25676085741E+01  0.76651824634E+01  0.89214966914E+01  0.51100000000E-03 0.  1.
         12    1    4    4    0    0  0.67955590762E+01 -0.22591064148E+01  0.34454261548E+01  0.79469583074E+01  0.00000000000E+00 0. -1.
</event>
<event>
 8    1  0.5834107E-011  0.9118800E+02  0.7816164E-02  0.1184000E+00
        -11   -1    0    0    0    0  0.00000000000E+00  0.00000000000E+00  0.45593999997E+02  0.45594000000E+02  0.51100000000E-03 0. -1.
         11   -1    0    0    0    0 -0.00000000000E+00 -0.00000000000E+00 -0.45593999997E+02  0.45594000000E+02  0.51100000000E-03 0.  1.
         23    2    1    2    0    0  0.00000000000E+00 -0.88817841970E-15  0.00000000000E+00  0.91188000000E+02  0.91188000000E+02 0.  0.
    9900012    2    3    3    0    0 -0.14022469704E+02 -0.40266193170E+01  0.40875176139E+02  0.47787270235E+02  0.19999996311E+02 0.  0.
        -12    1    3    3    0    0  0.14022469704E+02  0.40266193170E+01 -0.40875176139E+02  0.43400729765E+02  0.00000000000E+00 0.  1.
         11    1    4    4    0    0 -0.19132697344E+01 -0.41190705692E+01  0.12319826437E+02  0.13130326239E+02  0.51100000000E-03 0. -1.
        -11    1    4    4    0    0 -0.44972213299E+01  0.66726979215E+01  0.19597993060E+02  0.21185637340E+02  0.51100000000E-03 0.  1.
         12    1    4    4    0    0 -0.76119786402E+01 -0.65802466693E+01  0.89573566413E+01  0.13471306657E+02  0.00000000000E+00 0. -1.
</event>
<event>
 8    1  0.5834107E-011  0.9118800E+02  0.7816164E-02  0.1184000E+00
        -11   -1    0    0    0    0  0.00000000000E+00  0.00000000000E+00  0.45593999997E+02  0.45594000000E+02  0.51100000000E-03 0. -1.
         11   -1    0    0    0    0 -0.00000000000E+00 -0.00000000000E+00 -0.45593999997E+02  0.45594000000E+02  0.51100000000E-03 0.  1.
         23    2    1    2    0    0  0.17763568394E-14  0.00000000000E+00  0.00000000000E+00  0.91188000000E+02  0.91188000000E+02 0.  0.
    9900012    2    3    3    0    0 -0.14865317415E+02 -0.16546690901E+02 -0.37267272777E+02  0.47787305745E+02  0.20000158212E+02 0.  0.
         12    1    3    3    0    0  0.14865317415E+02  0.16546690901E+02  0.37267272777E+02  0.43400694255E+02  0.00000000000E+00 0. -1.
         11    1    4    4    0    0 -0.10405929228E+02 -0.52667010016E+01 -0.62967129797E+01  0.13254059648E+02  0.51100000000E-03 0. -1.
        -11    1    4    4    0    0 -0.40504170219E+01 -0.33588664545E+01 -0.45781958281E+01  0.69747931304E+01  0.51100000000E-03 0.  1.
        -12    1    4    4    0    0 -0.40897116524E+00 -0.79211234453E+01 -0.26392363969E+02  0.27558452967E+02  0.00000000000E+00 0.  1.
</event>
<event>
 8    1  0.6403189E-011  0.9118800E+02  0.7816164E-02  0.1184000E+00
        -11   -1    0    0    0    0  0.00000000000E+00  0.00000000000E+00  0.45593999997E+02  0.45594000000E+02  0.51100000000E-03 0. -1.
         11   -1    0    0    0    0 -0.00000000000E+00 -0.00000000000E+00 -0.45593999997E+02  0.45594000000E+02  0.51100000000E-03 0.  1.
         23    2    1    2    0    0  0.00000000000E+00  0.00000000000E+00  0.00000000000E+00  0.91188000000E+02  0.91188000000E+02 0.  0.
    9900012    2    3    3    0    0 -0.10281094827E+02  0.30294217021E+02 -0.29328869885E+02  0.47787272996E+02  0.20000008897E+02 0.  0.
         12    1    3    3    0    0  0.10281094827E+02 -0.30294217021E+02  0.29328869885E+02  0.43400727004E+02  0.00000000000E+00 0. -1.
         11    1    4    4    0    0 -0.28691439720E+01  0.10219480365E+02 -0.18818275813E+01  0.10780122512E+02  0.51100000000E-03 0. -1.
        -11    1    4    4    0    0 -0.98973471328E+01  0.19752970157E+02 -0.22934470060E+02  0.31845364301E+02  0.51100000000E-03 0.  1.
         12    1    4    4    0    0  0.24853962782E+01  0.32176649908E+00 -0.45125722436E+01  0.51617861824E+01  0.00000000000E+00 0. -1.
</event>
<event>
 8    1  0.5834107E-011  0.9118800E+02  0.7816164E-02  0.1184000E+00
        -11   -1    0    0    0    0  0.00000000000E+00  0.00000000000E+00  0.45593999997E+02  0.45594000000E+02  0.51100000000E-03 0. -1.
         11   -1    0    0    0    0 -0.00000000000E+00 -0.00000000000E+00 -0.45593999997E+02  0.45594000000E+02  0.51100000000E-03 0.  1.
         23    2    1    2    0    0 -0.44408920985E-15 -0.17763568394E-14  0.00000000000E+00  0.91188000000E+02  0.91188000000E+02 0.  0.
    9900012    2    3    3    0    0  0.18553861642E+01  0.10658806465E+02 -0.42030595046E+02  0.47787268059E+02  0.19999986390E+02 0.  0.
         12    1    3    3    0    0 -0.18553861642E+01 -0.10658806465E+02  0.42030595046E+02  0.43400731941E+02  0.00000000000E+00 0. -1.
         11    1    4    4    0    0  0.41369388707E+01  0.18911671344E+01 -0.58801223550E+01  0.74341519705E+01  0.51100000000E-03 0. -1.
        -11    1    4    4    0    0 -0.27818936177E+01  0.95265254601E+01 -0.37463730584E+02  0.38755963786E+02  0.51100000000E-03 0.  1.
        -12    1    4    4    0    0  0.50034091116E+00 -0.75888612955E+00  0.13132578933E+01  0.15971523031E+01  0.00000000000E+00 0.  1.
</event>
<event>
 8    1  0.5834107E-011  0.9118800E+02  0.7816164E-02  0.1184000E+00
        -11   -1    0    0    0    0  0.00000000000E+00  0.00000000000E+00  0.45593999997E+02  0.45594000000E+02  0.51100000000E-03 0. -1.
         11   -1    0    0    0    0 -0.00000000000E+00 -0.00000000000E+00 -0.45593999997E+02  0.45594000000E+02  0.51100000000E-03 0.  1.
         23    2    1    2    0    0 -0.71054273576E-14  0.44408920985E-15  0.00000000000E+00  0.91188000000E+02  0.91188000000E+02 0.  0.
    9900012    2    3    3    0    0 -0.33670113077E+02  0.21022187964E+01  0.27304369796E+02  0.47787257513E+02  0.19999938305E+02 0.  0.
        -12    1    3    3    0    0  0.33670113077E+02 -0.21022187964E+01 -0.27304369796E+02  0.43400742487E+02  0.00000000000E+00 0.  1.
         11    1    4    4    0    0 -0.47352818647E+01 -0.26596660084E+01  0.71367504853E+01  0.89682732655E+01  0.51100000000E-03 0. -1.
        -11    1    4    4    0    0 -0.68510169306E+00 -0.13983547533E+00  0.73998980873E+01  0.74328601664E+01  0.51100000000E-03 0.  1.
        -12    1    4    4    0    0 -0.28249729519E+02  0.49017202801E+01  0.12767721223E+02  0.31386124081E+02  0.00000000000E+00 0.  1.
</event>
<event>
 8    1  0.5834107E-011  0.9118800E+02  0.7816164E-02  0.1184000E+00
        -11   -1    0    0    0    0  0.00000000000E+00  0.00000000000E+00  0.45593999997E+02  0.45594000000E+02  0.51100000000E-03 0. -1.
         11   -1    0    0    0    0 -0.00000000000E+00 -0.00000000000E+00 -0.45593999997E+02  0.45594000000E+02  0.51100000000E-03 0.  1.
         23    2    1    2    0    0  0.00000000000E+00  0.35527136788E-14  0.00000000000E+00  0.91188000000E+02  0.91188000000E+02 0.  0.
    9900012    2    3    3    0    0 -0.32802735696E+02  0.22457560130E+02  0.17414385458E+02  0.47787282298E+02  0.20000051310E+02 0.  0.
        -12    1    3    3    0    0  0.32802735696E+02 -0.22457560130E+02 -0.17414385458E+02  0.43400717702E+02  0.00000000000E+00 0.  1.
         11    1    4    4    0    0 -0.80903483591E+01  0.10432495986E+02  0.10343491880E+02  0.16771360517E+02  0.51100000000E-03 0. -1.
        -11    1    4    4    0    0 -0.24202760625E+02  0.12990519390E+02  0.89096636009E+01  0.28877488146E+02  0.51100000000E-03 0.  1.
        -12    1    4    4    0    0 -0.50962671232E+00 -0.96545524590E+00 -0.18387700222E+01  0.21384336352E+01  0.00000000000E+00 0.  1.
</event>
<event>
 8    1  0.5834107E-011  0.9118800E+02  0.7816164E-02  0.1184000E+00
        -11   -1    0    0    0    0  0.00000000000E+00  0.00000000000E+00  0.45593999997E+02  0.45594000000E+02  0.51100000000E-03 0. -1.
         11   -1    0    0    0    0 -0.00000000000E+00 -0.00000000000E+00 -0.45593999997E+02  0.45594000000E+02  0.51100000000E-03 0.  1.
         23    2    1    2    0    0  0.00000000000E+00  0.88817841970E-15  0.00000000000E+00  0.91188000000E+02  0.91188000000E+02 0.  0.
    9900012    2    3    3    0    0  0.17524554380E+02  0.70153518643E+01 -0.39080661249E+02  0.47787271301E+02  0.20000001169E+02 0.  0.
         12    1    3    3    0    0 -0.17524554380E+02 -0.70153518643E+01  0.39080661249E+02  0.43400728699E+02  0.00000000000E+00 0. -1.
         11    1    4    4    0    0  0.88200387844E+01 -0.33475431378E+01 -0.91946714275E+01  0.13173500375E+02  0.51100000000E-03 0. -1.
        -11    1    4    4    0    0  0.76719920380E+01  0.84001273644E+01 -0.11794825072E+02  0.16387174873E+02  0.51100000000E-03 0.  1.
        -12    1    4    4    0    0  0.10325235576E+01  0.19627676377E+01 -0.18091164749E+02  0.18226596053E+02  0.00000000000E+00 0.  1.
</event>
<event>
 8    1  0.5834107E-011  0.9118800E+02  0.7816164E-02  0.1184000E+00
        -11   -1    0    0    0    0  0.00000000000E+00  0.00000000000E+00  0.45593999997E+02  0.45594000000E+02  0.51100000000E-03 0. -1.
         11   -1    0    0    0    0 -0.00000000000E+00 -0.00000000000E+00 -0.45593999997E+02  0.45594000000E+02  0.51100000000E-03 0.  1.
         23    2    1    2    0    0  0.00000000000E+00  0.00000000000E+00  0.00000000000E+00  0.91188000000E+02  0.91188000000E+02 0.  0.
    9900012    2    3    3    0    0 -0.31573117672E+02  0.55596804093E+01  0.29254936547E+02  0.47787272838E+02  0.20000008179E+02 0.  0.
        -12    1    3    3    0    0  0.31573117672E+02 -0.55596804093E+01 -0.29254936547E+02  0.43400727162E+02  0.00000000000E+00 0.  1.
         11    1    4    4    0    0 -0.73837609916E+00 -0.15206703073E+01  0.63046376541E+01  0.65273343455E+01  0.51100000000E-03 0. -1.
        -11    1    4    4    0    0 -0.22863597388E+02 -0.98632921237E+00  0.16503706169E+02  0.28215053578E+02  0.51100000000E-03 0.  1.
        -12    1    4    4    0    0 -0.79711441848E+01  0.80666799290E+01  0.64465927238E+01  0.13044884915E+02  0.00000000000E+00 0.  1.
</event>
<event>
 8    1  0.5834107E-011  0.9118800E+02  0.7816164E-02  0.1184000E+00
        -11   -1    0    0    0    0  0.00000000000E+00  0.00000000000E+00  0.45593999997E+02  0.45594000000E+02  0.51100000000E-03 0. -1.
         11   -1    0    0    0    0 -0.00000000000E+00 -0.00000000000E+00 -0.45593999997E+02  0.45594000000E+02  0.51100000000E-03 0.  1.
         23    2    1    2    0    0 -0.44408920985E-15  0.88817841970E-15 -0.71054273576E-14  0.91188000000E+02  0.91188000000E+02 0.  0.
    9900012    2    3    3    0    0 -0.32323909034E+01  0.75117034178E+01  0.42623339765E+02  0.47787272680E+02  0.20000007457E+02 0.  0.
        -12    1    3    3    0    0  0.32323909034E+01 -0.75117034178E+01 -0.42623339765E+02  0.43400727320E+02  0.00000000000E+00 0.  1.
         11    1    4    4    0    0 -0.29148684391E+01  0.43182245704E+01  0.39959623365E+01  0.65659147659E+01  0.51100000000E-03 0. -1.
        -11    1    4    4    0    0  0.80356088629E+00  0.54898439664E+01  0.38235634680E+02  0.38636095254E+02  0.51100000000E-03 0.  1.
        -12    1    4    4    0    0 -0.11210833506E+01 -0.22963651191E+01  0.39174274893E+00  0.25852626599E+01  0.00000000000E+00 0.  1.
</event>
<event>
 8    1  0.5834107E-011  0.9118800E+02  0.7816164E-02  0.1184000E+00
        -11   -1    0    0    0    0  0.00000000000E+00  0.00000000000E+00  0.45593999997E+02  0.45594000000E+02  0.51100000000E-03 0. -1.
         11   -1    0    0    0    0 -0.00000000000E+00 -0.00000000000E+00 -0.45593999997E+02  0.45594000000E+02  0.51100000000E-03 0.  1.
         23    2    1    2    0    0  0.00000000000E+00  0.00000000000E+00  0.00000000000E+00  0.91188000000E+02  0.91188000000E+02 0.  0.
    9900012    2    3    3    0    0 -0.25600501700E+02 -0.22967371219E+02  0.26471455025E+02  0.47787265454E+02  0.19999974511E+02 0.  0.
        -12    1    3    3    0    0  0.25600501700E+02  0.22967371219E+02 -0.26471455025E+02  0.43400734546E+02  0.00000000000E+00 0.  1.
         11    1    4    4    0    0 -0.13997946963E+02 -0.67565399150E+01  0.12304201532E+02  0.19823892817E+02  0.51100000000E-03 0. -1.
        -11    1    4    4    0    0 -0.33405665483E+01  0.21089736859E+01  0.30938375123E+01  0.50178666469E+01  0.51100000000E-03 0.  1.
        -12    1    4    4    0    0 -0.82619881887E+01 -0.18319804990E+02  0.11073415980E+02  0.22945505990E+02  0.00000000000E+00 0.  1.
</event>
<event>
 8    1  0.5834107E-011  0.9118800E+02  0.7816164E-02  0.1184000E+00
        -11   -1    0    0    0    0  0.00000000000E+00  0.00000000000E+00  0.45593999997E+02  0.45594000000E+02  0.51100000000E-03 0.  1.
         11   -1    0    0    0    0 -0.00000000000E+00 -0.00000000000E+00 -0.45593999997E+02  0.45594000000E+02  0.51100000000E-03 0. -1.
         23    2    1    2    0    0 -0.17763568394E-14  0.35527136788E-14  0.00000000000E+00  0.91188000000E+02  0.91188000000E+02 0.  0.
    9900012    2    3    3    0    0 -0.91641801616E+01 -0.31577591544E+02 -0.28328370421E+02  0.47787273549E+02  0.20000011420E+02 0.  0.
         12    1    3    3    0    0  0.91641801616E+01  0.31577591544E+02  0.28328370421E+02  0.43400726451E+02  0.00000000000E+00 0. -1.
         11    1    4    4    0    0 -0.22380579684E+01 -0.64465258383E+01 -0.18029623255E+01  0.70581351830E+01  0.51100000000E-03 0. -1.
        -11    1    4    4    0    0 -0.90377353826E+01 -0.44018953408E+01 -0.79832296611E+01  0.12837028454E+02  0.51100000000E-03 0.  1.
         12    1    4    4    0    0  0.21116131893E+01 -0.20729170365E+02 -0.18542178434E+02  0.27892109913E+02  0.00000000000E+00 0. -1.
</event>
<event>
 8    1  0.5834107E-011  0.9118800E+02  0.7816164E-02  0.1184000E+00
        -11   -1    0    0    0    0  0.00000000000E+00  0.00000000000E+00  0.45593999997E+02  0.45594000000E+02  0.51100000000E-03 0. -1.
         11   -1    0    0    0    0 -0.00000000000E+00 -0.00000000000E+00 -0.45593999997E+02  0.45594000000E+02  0.51100000000E-03 0.  1.
         23    2    1    2    0    0  0.00000000000E+00 -0.35527136788E-14  0.00000000000E+00  0.91188000000E+02  0.91188000000E+02 0.  0.
    9900012    2    3    3    0    0 -0.10442924488E+02 -0.22929138677E+02  0.35338709280E+02  0.47787257542E+02  0.19999938437E+02 0.  0.
        -12    1    3    3    0    0  0.10442924488E+02  0.22929138677E+02 -0.35338709280E+02  0.43400742458E+02  0.00000000000E+00 0.  1.
         11    1    4    4    0    0 -0.55747124432E+01 -0.14679774878E+02  0.70586536319E+01  0.17216207499E+02  0.51100000000E-03 0. -1.
        -11    1    4    4    0    0  0.48932415128E+00 -0.54419057864E+01  0.15424449701E+02  0.16363600629E+02  0.51100000000E-03 0.  1.
         12    1    4    4    0    0 -0.53575361956E+01 -0.28074580123E+01  0.12855605947E+02  0.14207449414E+02  0.00000000000E+00 0. -1.
</event>
<event>
 8    1  0.5834107E-011  0.9118800E+02  0.7816164E-02  0.1184000E+00
        -11   -1    0    0    0    0  0.00000000000E+00  0.00000000000E+00  0.45593999997E+02  0.45594000000E+02  0.51100000000E-03 0. -1.
         11   -1    0    0    0    0 -0.00000000000E+00 -0.00000000000E+00 -0.45593999997E+02  0.45594000000E+02  0.51100000000E-03 0.  1.
         23    2    1    2    0    0  0.71054273576E-14 -0.17763568394E-14  0.00000000000E+00  0.91188000000E+02  0.91188000000E+02 0.  0.
    9900012    2    3    3    0    0 -0.26794476645E+02  0.64398314777E+01  0.33529205468E+02  0.47787273884E+02  0.20000012946E+02 0.  0.
        -12    1    3    3    0    0  0.26794476645E+02 -0.64398314777E+01 -0.33529205468E+02  0.43400726116E+02  0.00000000000E+00 0.  1.
         11    1    4    4    0    0 -0.19180385329E+02  0.67048969212E+01  0.26207214866E+02  0.33161135918E+02  0.51100000000E-03 0. -1.
        -11    1    4    4    0    0 -0.69053290376E+01  0.29932642218E+01  0.11534960225E+01  0.76140497210E+01  0.51100000000E-03 0.  1.
        -12    1    4    4    0    0 -0.70876227780E+00 -0.32583296652E+01  0.61684945791E+01  0.70120882443E+01  0.00000000000E+00 0.  1.
</event>
<event>
 8    1  0.5834107E-011  0.9118800E+02  0.7816164E-02  0.1184000E+00
        -11   -1    0    0    0    0  0.00000000000E+00  0.00000000000E+00  0.45593999997E+02  0.45594000000E+02  0.51100000000E-03 0. -1.
         11   -1    0    0    0    0 -0.00000000000E+00 -0.00000000000E+00 -0.45593999997E+02  0.45594000000E+02  0.51100000000E-03 0.  1.
         23    2    1    2    0    0  0.00000000000E+00  0.00000000000E+00 -0.71054273576E-14  0.91188000000E+02  0.91188000000E+02 0.  0.
    9900012    2    3    3    0    0  0.13208508305E+01  0.10989140674E+02 -0.41965675425E+02  0.47787265288E+02  0.19999973754E+02 0.  0.
         12    1    3    3    0    0 -0.13208508305E+01 -0.10989140674E+02  0.41965675425E+02  0.43400734712E+02  0.00000000000E+00 0. -1.
         11    1    4    4    0    0 -0.42216675549E+01 -0.84692356420E+00 -0.36093770088E+01  0.56184837030E+01  0.51100000000E-03 0. -1.
        -11    1    4    4    0    0  0.39023017254E+01  0.31209969204E+01 -0.28397818602E+02  0.28834088890E+02  0.51100000000E-03 0.  1.
        -12    1    4    4    0    0  0.16402166600E+01  0.87150673177E+01 -0.99584798147E+01  0.13334692695E+02  0.00000000000E+00 0.  1.
</event>
<event>
 8    1  0.5834107E-011  0.9118800E+02  0.7816164E-02  0.1184000E+00
        -11   -1    0    0    0    0  0.00000000000E+00  0.00000000000E+00  0.45593999997E+02  0.45594000000E+02  0.51100000000E-03 0.  1.
         11   -1    0    0    0    0 -0.00000000000E+00 -0.00000000000E+00 -0.45593999997E+02  0.45594000000E+02  0.51100000000E-03 0. -1.
         23    2    1    2    0    0  0.44408920985E-15 -0.71054273576E-14  0.13322676296E-14  0.91188000000E+02  0.91188000000E+02 0.  0.
    9900012    2    3    3    0    0 -0.38362380863E+01  0.43063276261E+02  0.38027655377E+01  0.47787268316E+02  0.19999987560E+02 0.  0.
        -12    1    3    3    0    0  0.38362380863E+01 -0.43063276261E+02 -0.38027655377E+01  0.43400731684E+02  0.00000000000E+00 0.  1.
         11    1    4    4    0    0 -0.16707156222E+01  0.38636366775E+02  0.32503560742E+01  0.38808825583E+02  0.51100000000E-03 0. -1.
        -11    1    4    4    0    0  0.16403510102E+01  0.24646494827E+01  0.28581731647E+01  0.41151430849E+01  0.51100000000E-03 0.  1.
         12    1    4    4    0    0 -0.38058734743E+01  0.19622600031E+01 -0.23057637012E+01  0.48632996481E+01  0.00000000000E+00 0. -1.
</event>
<event>
 8    1  0.5834107E-011  0.9118800E+02  0.7816164E-02  0.1184000E+00
        -11   -1    0    0    0    0  0.00000000000E+00  0.00000000000E+00  0.45593999997E+02  0.45594000000E+02  0.51100000000E-03 0. -1.
         11   -1    0    0    0    0 -0.00000000000E+00 -0.00000000000E+00 -0.45593999997E+02  0.45594000000E+02  0.51100000000E-03 0.  1.
         23    2    1    2    0    0 -0.88817841970E-15  0.00000000000E+00  0.71054273576E-14  0.91188000000E+02  0.91188000000E+02 0.  0.
    9900012    2    3    3    0    0  0.67525165901E+01 -0.14666245187E+02 -0.40285592066E+02  0.47787260879E+02  0.19999953651E+02 0.  0.
         12    1    3    3    0    0 -0.67525165901E+01  0.14666245187E+02  0.40285592066E+02  0.43400739121E+02  0.00000000000E+00 0. -1.
         11    1    4    4    0    0  0.24312266382E+01 -0.75277405729E+01 -0.25109855665E+02  0.26326461838E+02  0.51100000000E-03 0. -1.
        -11    1    4    4    0    0  0.65140677598E+01 -0.82356056760E+01 -0.62838193003E+01  0.12237020262E+02  0.51100000000E-03 0.  1.
         12    1    4    4    0    0 -0.21927778079E+01  0.10971010623E+01 -0.88919170999E+01  0.92237787792E+01  0.00000000000E+00 0. -1.
</event>
<event>
 8    1  0.5834107E-011  0.9118800E+02  0.7816164E-02  0.1184000E+00
        -11   -1    0    0    0    0  0.00000000000E+00  0.00000000000E+00  0.45593999997E+02  0.45594000000E+02  0.51100000000E-03 0. -1.
         11   -1    0    0    0    0 -0.00000000000E+00 -0.00000000000E+00 -0.45593999997E+02  0.45594000000E+02  0.51100000000E-03 0.  1.
         23    2    1    2    0    0  0.00000000000E+00  0.71054273576E-14  0.88817841970E-15  0.91188000000E+02  0.91188000000E+02 0.  0.
    9900012    2    3    3    0    0 -0.10998899706E+02 -0.41376054424E+02 -0.71182548762E+01  0.47787271585E+02  0.20000002464E+02 0.  0.
         12    1    3    3    0    0  0.10998899706E+02  0.41376054424E+02  0.71182548762E+01  0.43400728415E+02  0.00000000000E+00 0. -1.
         11    1    4    4    0    0 -0.34851626553E+01 -0.29048150719E+01  0.33461907935E+01  0.56374907914E+01  0.51100000000E-03 0. -1.
        -11    1    4    4    0    0 -0.36812360128E+01 -0.23763702970E+02 -0.64654044836E+00  0.24055832811E+02  0.51100000000E-03 0.  1.
         12    1    4    4    0    0 -0.38325010382E+01 -0.14707536383E+02 -0.98179052214E+01  0.18093947982E+02  0.00000000000E+00 0. -1.
</event>
<event>
 8    1  0.5834107E-011  0.9118800E+02  0.7816164E-02  0.1184000E+00
        -11   -1    0    0    0    0  0.00000000000E+00  0.00000000000E+00  0.45593999997E+02  0.45594000000E+02  0.51100000000E-03 0. -1.
         11   -1    0    0    0    0 -0.00000000000E+00 -0.00000000000E+00 -0.45593999997E+02  0.45594000000E+02  0.51100000000E-03 0.  1.
         23    2    1    2    0    0  0.00000000000E+00  0.00000000000E+00  0.22204460493E-15  0.91188000000E+02  0.91188000000E+02 0.  0.
    9900012    2    3    3    0    0  0.27429737648E+02 -0.33623973433E+02  0.81327399319E+00  0.47787268307E+02  0.19999987521E+02 0.  0.
        -12    1    3    3    0    0 -0.27429737648E+02  0.33623973433E+02 -0.81327399319E+00  0.43400731693E+02  0.00000000000E+00 0.  1.
         11    1    4    4    0    0  0.10244271988E+02 -0.19718225125E+02  0.30624896525E+01  0.22430611979E+02  0.51100000000E-03 0. -1.
        -11    1    4    4    0    0  0.11153192329E+02 -0.15408019190E+02 -0.21194791050E+01  0.19138781216E+02  0.51100000000E-03 0.  1.
        -12    1    4    4    0    0  0.60322733307E+01  0.15022708817E+01 -0.12973655427E+00  0.62178751123E+01  0.00000000000E+00 0.  1.
</event>
<event>
 8    1  0.5834107E-011  0.9118800E+02  0.7816164E-02  0.1184000E+00
        -11   -1    0    0    0    0  0.00000000000E+00  0.00000000000E+00  0.45593999997E+02  0.45594000000E+02  0.51100000000E-03 0. -1.
         11   -1    0    0    0    0 -0.00000000000E+00 -0.00000000000E+00 -0.45593999997E+02  0.45594000000E+02  0.51100000000E-03 0.  1.
         23    2    1    2    0    0  0.88817841970E-15  0.71054273576E-14  0.00000000000E+00  0.91188000000E+02  0.91188000000E+02 0.  0.
    9900012    2    3    3    0    0 -0.68277304916E+01 -0.28349363028E+02 -0.32145278739E+02  0.47787271516E+02  0.20000002149E+02 0.  0.
         12    1    3    3    0    0  0.68277304916E+01  0.28349363028E+02  0.32145278739E+02  0.43400728484E+02  0.00000000000E+00 0. -1.
         11    1    4    4    0    0  0.26835255887E+01 -0.16445653551E+02 -0.16428149711E+02  0.23399678064E+02  0.51100000000E-03 0. -1.
        -11    1    4    4    0    0  0.10669905127E+01 -0.31663355345E+01 -0.79451123926E+01  0.86191044003E+01  0.51100000000E-03 0.  1.
         12    1    4    4    0    0 -0.10578246593E+02 -0.87373739429E+01 -0.77720166346E+01  0.15768489052E+02  0.00000000000E+00 0. -1.
</event>
<event>
 8    1  0.5834107E-011  0.9118800E+02  0.7816164E-02  0.1184000E+00
        -11   -1    0    0    0    0  0.00000000000E+00  0.00000000000E+00  0.45593999997E+02  0.45594000000E+02  0.51100000000E-03 0. -1.
         11   -1    0    0    0    0 -0.00000000000E+00 -0.00000000000E+00 -0.45593999997E+02  0.45594000000E+02  0.51100000000E-03 0.  1.
         23    2    1    2    0    0 -0.35527136788E-14  0.00000000000E+00  0.00000000000E+00  0.91188000000E+02  0.91188000000E+02 0.  0.
    9900012    2    3    3    0    0 -0.20924799700E+02  0.12183532677E+02  0.36018569739E+02  0.47787273312E+02  0.20000010338E+02 0.  0.
        -12    1    3    3    0    0  0.20924799700E+02 -0.12183532677E+02 -0.36018569739E+02  0.43400726688E+02  0.00000000000E+00 0.  1.
         11    1    4    4    0    0 -0.13365236849E+02  0.48352405787E+01  0.10589786242E+02  0.17724352750E+02  0.51100000000E-03 0. -1.
        -11    1    4    4    0    0  0.22163899532E+01 -0.12432753499E+01  0.18947410761E+01  0.31698835983E+01  0.51100000000E-03 0.  1.
        -12    1    4    4    0    0 -0.97759528042E+01  0.85915674487E+01  0.23534042421E+02  0.26893036964E+02  0.00000000000E+00 0.  1.
</event>
<event>
 8    1  0.5834107E-011  0.9118800E+02  0.7816164E-02  0.1184000E+00
        -11   -1    0    0    0    0  0.00000000000E+00  0.00000000000E+00  0.45593999997E+02  0.45594000000E+02  0.51100000000E-03 0. -1.
         11   -1    0    0    0    0 -0.00000000000E+00 -0.00000000000E+00 -0.45593999997E+02  0.45594000000E+02  0.51100000000E-03 0.  1.
         23    2    1    2    0    0 -0.35527136788E-14 -0.35527136788E-14  0.00000000000E+00  0.91188000000E+02  0.91188000000E+02 0.  0.
    9900012    2    3    3    0    0  0.23417405053E+02 -0.19277546396E+02 -0.31042307178E+02  0.47787268562E+02  0.19999988680E+02 0.  0.
         12    1    3    3    0    0 -0.23417405053E+02  0.19277546396E+02  0.31042307178E+02  0.43400731438E+02  0.00000000000E+00 0. -1.
         11    1    4    4    0    0 -0.11882304374E+01  0.61404138558E+00 -0.24698591270E+01  0.28087617849E+01  0.51100000000E-03 0. -1.
        -11    1    4    4    0    0  0.20227809949E+02 -0.20411667609E+02 -0.28636999414E+02  0.40569424516E+02  0.51100000000E-03 0.  1.
        -12    1    4    4    0    0  0.43778255418E+01  0.52007982740E+00  0.64551363141E-01  0.44090822605E+01  0.00000000000E+00 0.  1.
</event>
<event>
 8    1  0.5834107E-011  0.9118800E+02  0.7816164E-02  0.1184000E+00
        -11   -1    0    0    0    0  0.00000000000E+00  0.00000000000E+00  0.45593999997E+02  0.45594000000E+02  0.51100000000E-03 0. -1.
         11   -1    0    0    0    0 -0.00000000000E+00 -0.00000000000E+00 -0.45593999997E+02  0.45594000000E+02  0.51100000000E-03 0.  1.
         23    2    1    2    0    0 -0.35527136788E-14  0.00000000000E+00 -0.88817841970E-15  0.91188000000E+02  0.91188000000E+02 0.  0.
    9900012    2    3    3    0    0 -0.22584110576E+02  0.36666976558E+02 -0.53955138257E+01  0.47787299662E+02  0.20000130477E+02 0.  0.
        -12    1    3    3    0    0  0.22584110576E+02 -0.36666976558E+02  0.53955138257E+01  0.43400700338E+02  0.00000000000E+00 0.  1.
         11    1    4    4    0    0 -0.11964967005E+02  0.24832082857E+02 -0.40882686277E+01  0.27865870076E+02  0.51100000000E-03 0. -1.
        -11    1    4    4    0    0  0.13016401882E+01  0.36347924507E+01 -0.35919491739E+01  0.52733369386E+01  0.51100000000E-03 0.  1.
         12    1    4    4    0    0 -0.11920783759E+02  0.82001012500E+01  0.22847039759E+01  0.14648092647E+02  0.00000000000E+00 0. -1.
</event>
<event>
 8    1  0.5834107E-011  0.9118800E+02  0.7816164E-02  0.1184000E+00
        -11   -1    0    0    0    0  0.00000000000E+00  0.00000000000E+00  0.45593999997E+02  0.45594000000E+02  0.51100000000E-03 0.  1.
         11   -1    0    0    0    0 -0.00000000000E+00 -0.00000000000E+00 -0.45593999997E+02  0.45594000000E+02  0.51100000000E-03 0. -1.
         23    2    1    2    0    0 -0.71054273576E-14  0.00000000000E+00  0.00000000000E+00  0.91188000000E+02  0.91188000000E+02 0.  0.
    9900012    2    3    3    0    0  0.38778447447E+02 -0.18704695152E+02 -0.54762883582E+01  0.47787270267E+02  0.19999996457E+02 0.  0.
         12    1    3    3    0    0 -0.38778447447E+02  0.18704695152E+02  0.54762883582E+01  0.43400729733E+02  0.00000000000E+00 0. -1.
         11    1    4    4    0    0  0.22895004785E+02 -0.10494630570E+02  0.25765449784E+01  0.25317130548E+02  0.51100000000E-03 0. -1.
        -11    1    4    4    0    0  0.27389997904E+01  0.25086816007E+01 -0.46277436668E-01  0.37145316108E+01  0.51100000000E-03 0.  1.
        -12    1    4    4    0    0  0.13144442872E+02 -0.10718746183E+02 -0.80065558999E+01  0.18755608109E+02  0.00000000000E+00 0.  1.
</event>
<event>
 8    1  0.5834107E-011  0.9118800E+02  0.7816164E-02  0.1184000E+00
        -11   -1    0    0    0    0  0.00000000000E+00  0.00000000000E+00  0.45593999997E+02  0.45594000000E+02  0.51100000000E-03 0. -1.
         11   -1    0    0    0    0 -0.00000000000E+00 -0.00000000000E+00 -0.45593999997E+02  0.45594000000E+02  0.51100000000E-03 0.  1.
         23    2    1    2    0    0  0.00000000000E+00  0.00000000000E+00 -0.35527136788E-14  0.91188000000E+02  0.91188000000E+02 0.  0.
    9900012    2    3    3    0    0  0.55844633451E+01 -0.38431745593E+02 -0.19376219488E+02  0.47787272105E+02  0.20000004834E+02 0.  0.
         12    1    3    3    0    0 -0.55844633451E+01  0.38431745593E+02  0.19376219488E+02  0.43400727895E+02  0.00000000000E+00 0. -1.
         11    1    4    4    0    0  0.32055916474E+01 -0.50223955255E+00 -0.41017637486E+01  0.52299644825E+01  0.51100000000E-03 0. -1.
        -11    1    4    4    0    0  0.69543944236E+01 -0.21686225394E+02 -0.10038245620E+02  0.24888196982E+02  0.51100000000E-03 0.  1.
        -12    1    4    4    0    0 -0.45755227258E+01 -0.16243280647E+02 -0.52362101192E+01  0.17669110640E+02  0.00000000000E+00 0.  1.
</event>
<event>
 8    1  0.5834107E-011  0.9118800E+02  0.7816164E-02  0.1184000E+00
        -11   -1    0    0    0    0  0.00000000000E+00  0.00000000000E+00  0.45593999997E+02  0.45594000000E+02  0.51100000000E-03 0. -1.
         11   -1    0    0    0    0 -0.00000000000E+00 -0.00000000000E+00 -0.45593999997E+02  0.45594000000E+02  0.51100000000E-03 0.  1.
         23    2    1    2    0    0 -0.44408920985E-15  0.71054273576E-14  0.00000000000E+00  0.91188000000E+02  0.91188000000E+02 0.  0.
    9900012    2    3    3    0    0 -0.34640611015E+01  0.34311561564E+02 -0.26350341441E+02  0.47787268781E+02  0.19999989681E+02 0.  0.
         12    1    3    3    0    0  0.34640611015E+01 -0.34311561564E+02  0.26350341441E+02  0.43400731219E+02  0.00000000000E+00 0. -1.
         11    1    4    4    0    0  0.75353772864E+00  0.25233689426E+00  0.16423303246E+01  0.18244840840E+01  0.51100000000E-03 0. -1.
        -11    1    4    4    0    0 -0.42913052842E+01  0.30176195319E+02 -0.18373989390E+02  0.35589627019E+02  0.51100000000E-03 0.  1.
         12    1    4    4    0    0  0.73706454039E-01  0.38830293507E+01 -0.96186823757E+01  0.10373157679E+02  0.00000000000E+00 0. -1.
</event>
<event>
 8    1  0.5834107E-011  0.9118800E+02  0.7816164E-02  0.1184000E+00
        -11   -1    0    0    0    0  0.00000000000E+00  0.00000000000E+00  0.45593999997E+02  0.45594000000E+02  0.51100000000E-03 0.  1.
         11   -1    0    0    0    0 -0.00000000000E+00 -0.00000000000E+00 -0.45593999997E+02  0.45594000000E+02  0.51100000000E-03 0. -1.
         23    2    1    2    0    0 -0.88817841970E-15  0.00000000000E+00  0.00000000000E+00  0.91188000000E+02  0.91188000000E+02 0.  0.
    9900012    2    3    3    0    0 -0.51281501432E+01  0.36634412025E+02 -0.22699008464E+02  0.47787273583E+02  0.20000011574E+02 0.  0.
         12    1    3    3    0    0  0.51281501432E+01 -0.36634412025E+02  0.22699008464E+02  0.43400726417E+02  0.00000000000E+00 0. -1.
         11    1    4    4    0    0 -0.59676692580E+00  0.29611821638E+00  0.12134742952E+01  0.13843182033E+01  0.51100000000E-03 0. -1.
        -11    1    4    4    0    0 -0.30129542226E+01  0.26098380926E+02 -0.24649317970E+02  0.36024883855E+02  0.51100000000E-03 0.  1.
        -12    1    4    4    0    0 -0.15184289949E+01  0.10239912882E+02  0.73683521043E+00  0.10378071525E+02  0.00000000000E+00 0.  1.
</event>
<event>
 8    1  0.5834107E-011  0.9118800E+02  0.7816164E-02  0.1184000E+00
        -11   -1    0    0    0    0  0.00000000000E+00  0.00000000000E+00  0.45593999997E+02  0.45594000000E+02  0.51100000000E-03 0. -1.
         11   -1    0    0    0    0 -0.00000000000E+00 -0.00000000000E+00 -0.45593999997E+02  0.45594000000E+02  0.51100000000E-03 0.  1.
         23    2    1    2    0    0  0.00000000000E+00  0.00000000000E+00  0.00000000000E+00  0.91188000000E+02  0.91188000000E+02 0.  0.
    9900012    2    3    3    0    0 -0.36096678944E+02  0.24675988377E+01  0.23970062131E+02  0.47787272432E+02  0.20000006327E+02 0.  0.
        -12    1    3    3    0    0  0.36096678944E+02 -0.24675988377E+01 -0.23970062131E+02  0.43400727568E+02  0.00000000000E+00 0.  1.
         11    1    4    4    0    0 -0.10410542611E+02  0.79731608546E+01  0.10459003665E+02  0.16773236104E+02  0.51100000000E-03 0. -1.
        -11    1    4    4    0    0 -0.12760917509E+02  0.31055979874E-01  0.21588310347E+01  0.12942276919E+02  0.51100000000E-03 0.  1.
         12    1    4    4    0    0 -0.12925218824E+02 -0.55366179967E+01  0.11352227432E+02  0.18071759409E+02  0.00000000000E+00 0. -1.
</event>
<event>
 8    1  0.5834107E-011  0.9118800E+02  0.7816164E-02  0.1184000E+00
        -11   -1    0    0    0    0  0.00000000000E+00  0.00000000000E+00  0.45593999997E+02  0.45594000000E+02  0.51100000000E-03 0. -1.
         11   -1    0    0    0    0 -0.00000000000E+00 -0.00000000000E+00 -0.45593999997E+02  0.45594000000E+02  0.51100000000E-03 0.  1.
         23    2    1    2    0    0  0.00000000000E+00 -0.16653345369E-15  0.00000000000E+00  0.91188000000E+02  0.91188000000E+02 0.  0.
    9900012    2    3    3    0    0 -0.22713298902E+02  0.11267461070E+00 -0.36982654438E+02  0.47787269916E+02  0.19999994853E+02 0.  0.
         12    1    3    3    0    0  0.22713298902E+02 -0.11267461070E+00  0.36982654438E+02  0.43400730084E+02  0.00000000000E+00 0. -1.
         11    1    4    4    0    0 -0.89834275685E+01 -0.79556394382E+00 -0.25060711383E+01  0.93603037172E+01  0.51100000000E-03 0. -1.
        -11    1    4    4    0    0  0.98227998651E-01  0.29564113121E+01 -0.69826785129E+01  0.75833908024E+01  0.51100000000E-03 0.  1.
         12    1    4    4    0    0 -0.13828099332E+02 -0.20481727576E+01 -0.27493904787E+02  0.30843575396E+02  0.00000000000E+00 0. -1.
</event>
<event>
 8    1  0.5834107E-011  0.9118800E+02  0.7816164E-02  0.1184000E+00
        -11   -1    0    0    0    0  0.00000000000E+00  0.00000000000E+00  0.45593999997E+02  0.45594000000E+02  0.51100000000E-03 0. -1.
         11   -1    0    0    0    0 -0.00000000000E+00 -0.00000000000E+00 -0.45593999997E+02  0.45594000000E+02  0.51100000000E-03 0.  1.
         23    2    1    2    0    0 -0.11102230246E-14  0.00000000000E+00  0.00000000000E+00  0.91188000000E+02  0.91188000000E+02 0.  0.
    9900012    2    3    3    0    0 -0.18981234686E+01 -0.34153631373E+02  0.26712354112E+02  0.47787271079E+02  0.20000000159E+02 0.  0.
        -12    1    3    3    0    0  0.18981234686E+01  0.34153631373E+02 -0.26712354112E+02  0.43400728921E+02  0.00000000000E+00 0.  1.
         11    1    4    4    0    0  0.27201312271E+00 -0.25638455253E+02  0.19458118117E+02  0.32187307123E+02  0.51100000000E-03 0. -1.
        -11    1    4    4    0    0  0.37417021257E+01 -0.10998252144E+01  0.39666552390E+01  0.55627604969E+01  0.51100000000E-03 0.  1.
        -12    1    4    4    0    0 -0.59118387170E+01 -0.74153509052E+01  0.32875807562E+01  0.10037203460E+02  0.00000000000E+00 0.  1.
</event>
<event>
 8    1  0.5834107E-011  0.9118800E+02  0.7816164E-02  0.1184000E+00
        -11   -1    0    0    0    0  0.00000000000E+00  0.00000000000E+00  0.45593999997E+02  0.45594000000E+02  0.51100000000E-03 0. -1.
         11   -1    0    0    0    0 -0.00000000000E+00 -0.00000000000E+00 -0.45593999997E+02  0.45594000000E+02  0.51100000000E-03 0.  1.
         23    2    1    2    0    0  0.88817841970E-15  0.13322676296E-14  0.71054273576E-14  0.91188000000E+02  0.91188000000E+02 0.  0.
    9900012    2    3    3    0    0 -0.64961129200E+01 -0.17288147241E+01 -0.42876970915E+02  0.47787275141E+02  0.20000018678E+02 0.  0.
         12    1    3    3    0    0  0.64961129200E+01  0.17288147241E+01  0.42876970915E+02  0.43400724859E+02  0.00000000000E+00 0. -1.
         11    1    4    4    0    0 -0.82051701250E+01  0.29779491742E+01 -0.35970418072E+02  0.37014375243E+02  0.51100000000E-03 0.  1.
        -11    1    4    4    0    0 -0.41200492159E+00  0.59703589242E+00 -0.45272325650E+01  0.45849792662E+01  0.51100000000E-03 0. -1.
        -12    1    4    4    0    0  0.21210621265E+01 -0.53037997907E+01 -0.23793202780E+01  0.61879206321E+01  0.00000000000E+00 0.  1.
</event>
<event>
 8    1  0.5834107E-011  0.9118800E+02  0.7816164E-02  0.1184000E+00
        -11   -1    0    0    0    0  0.00000000000E+00  0.00000000000E+00  0.45593999997E+02  0.45594000000E+02  0.51100000000E-03 0. -1.
         11   -1    0    0    0    0 -0.00000000000E+00 -0.00000000000E+00 -0.45593999997E+02  0.45594000000E+02  0.51100000000E-03 0.  1.
         23    2    1    2    0    0 -0.88817841970E-15  0.35527136788E-14  0.00000000000E+00  0.91188000000E+02  0.91188000000E+02 0.  0.
    9900012    2    3    3    0    0  0.79151549371E+01 -0.15391339343E+02  0.39800520541E+02  0.47787257613E+02  0.19999938759E+02 0.  0.
        -12    1    3    3    0    0 -0.79151549371E+01  0.15391339343E+02 -0.39800520541E+02  0.43400742387E+02  0.00000000000E+00 0.  1.
         11    1    4    4    0    0  0.57872356427E+00 -0.82967662232E+01  0.68750826488E+01  0.10790644671E+02  0.51100000000E-03 0. -1.
        -11    1    4    4    0    0  0.94984376862E+00 -0.40977715456E+00  0.24395646531E+02  0.24417569298E+02  0.51100000000E-03 0.  1.
         12    1    4    4    0    0  0.63865876042E+01 -0.66847959648E+01  0.85297913614E+01  0.12579043644E+02  0.00000000000E+00 0. -1.
</event>
<event>
 8    1  0.5834107E-011  0.9118800E+02  0.7816164E-02  0.1184000E+00
        -11   -1    0    0    0    0  0.00000000000E+00  0.00000000000E+00  0.45593999997E+02  0.45594000000E+02  0.51100000000E-03 0.  1.
         11   -1    0    0    0    0 -0.00000000000E+00 -0.00000000000E+00 -0.45593999997E+02  0.45594000000E+02  0.51100000000E-03 0. -1.
         23    2    1    2    0    0  0.00000000000E+00  0.00000000000E+00  0.00000000000E+00  0.91188000000E+02  0.91188000000E+02 0.  0.
    9900012    2    3    3    0    0  0.34185164104E+02  0.26607754116E+02 -0.26507361193E+01  0.47787257773E+02  0.19999939490E+02 0.  0.
        -12    1    3    3    0    0 -0.34185164104E+02 -0.26607754116E+02  0.26507361193E+01  0.43400742227E+02  0.00000000000E+00 0.  1.
         11    1    4    4    0    0  0.90538497899E+01  0.41513408501E+00 -0.30031018877E+01  0.95479397535E+01  0.51100000000E-03 0. -1.
        -11    1    4    4    0    0  0.13118792400E+01  0.83568889601E+01  0.61011221206E+00  0.84812061291E+01  0.51100000000E-03 0.  1.
        -12    1    4    4    0    0  0.23819435074E+02  0.17835731071E+02 -0.25774644366E+00  0.29758111890E+02  0.00000000000E+00 0.  1.
</event>
<event>
 8    1  0.5834107E-011  0.9118800E+02  0.7816164E-02  0.1184000E+00
        -11   -1    0    0    0    0  0.00000000000E+00  0.00000000000E+00  0.45593999997E+02  0.45594000000E+02  0.51100000000E-03 0. -1.
         11   -1    0    0    0    0 -0.00000000000E+00 -0.00000000000E+00 -0.45593999997E+02  0.45594000000E+02  0.51100000000E-03 0.  1.
         23    2    1    2    0    0  0.00000000000E+00  0.00000000000E+00 -0.35527136788E-14  0.91188000000E+02  0.91188000000E+02 0.  0.
    9900012    2    3    3    0    0  0.19358340225E+02 -0.22986209888E+02 -0.31313119280E+02  0.47787278573E+02  0.20000034328E+02 0.  0.
         12    1    3    3    0    0 -0.19358340225E+02  0.22986209888E+02  0.31313119280E+02  0.43400721427E+02  0.00000000000E+00 0. -1.
         11    1    4    4    0    0  0.56578921420E+01 -0.38552445089E+01 -0.11145241206E+02  0.13080177962E+02  0.51100000000E-03 0. -1.
        -11    1    4    4    0    0  0.13241856403E+02 -0.20154201614E+02 -0.12891129619E+02  0.27344466110E+02  0.51100000000E-03 0.  1.
         12    1    4    4    0    0  0.45859167991E+00  0.10232362354E+01 -0.72767484557E+01  0.73626345020E+01  0.00000000000E+00 0. -1.
</event>
<event>
 8    1  0.5834107E-011  0.9118800E+02  0.7816164E-02  0.1184000E+00
        -11   -1    0    0    0    0  0.00000000000E+00  0.00000000000E+00  0.45593999997E+02  0.45594000000E+02  0.51100000000E-03 0. -1.
         11   -1    0    0    0    0 -0.00000000000E+00 -0.00000000000E+00 -0.45593999997E+02  0.45594000000E+02  0.51100000000E-03 0.  1.
         23    2    1    2    0    0  0.00000000000E+00  0.00000000000E+00  0.00000000000E+00  0.91188000000E+02  0.91188000000E+02 0.  0.
    9900012    2    3    3    0    0 -0.99740444360E+01 -0.35670244019E+01  0.42088215623E+02  0.47787272819E+02  0.20000008090E+02 0.  0.
        -12    1    3    3    0    0  0.99740444360E+01  0.35670244019E+01 -0.42088215623E+02  0.43400727181E+02  0.00000000000E+00 0.  1.
         11    1    4    4    0    0 -0.49220976580E+01 -0.66679887615E+01  0.13699323542E+02  0.16011264324E+02  0.51100000000E-03 0. -1.
        -11    1    4    4    0    0  0.25928875226E+01  0.46870538728E+01  0.18001406130E+02  0.18781431325E+02  0.51100000000E-03 0.  1.
         12    1    4    4    0    0 -0.76448343005E+01 -0.15860895132E+01  0.10387485951E+02  0.12994577169E+02  0.00000000000E+00 0. -1.
</event>
<event>
 8    1  0.5834107E-011  0.9118800E+02  0.7816164E-02  0.1184000E+00
        -11   -1    0    0    0    0  0.00000000000E+00  0.00000000000E+00  0.45593999997E+02  0.45594000000E+02  0.51100000000E-03 0. -1.
         11   -1    0    0    0    0 -0.00000000000E+00 -0.00000000000E+00 -0.45593999997E+02  0.45594000000E+02  0.51100000000E-03 0.  1.
         23    2    1    2    0    0  0.00000000000E+00  0.00000000000E+00  0.00000000000E+00  0.91188000000E+02  0.91188000000E+02 0.  0.
    9900012    2    3    3    0    0  0.85659530427E+01  0.71671442018E+01  0.41939003193E+02  0.47787268481E+02  0.19999988311E+02 0.  0.
        -12    1    3    3    0    0 -0.85659530427E+01 -0.71671442018E+01 -0.41939003193E+02  0.43400731519E+02  0.00000000000E+00 0.  1.
         11    1    4    4    0    0  0.47244998146E+01  0.76455040496E+00  0.13661007929E+02  0.14475101855E+02  0.51100000000E-03 0. -1.
        -11    1    4    4    0    0 -0.38191261798E+01 -0.20065366950E+01  0.21603966783E+01  0.48248552677E+01  0.51100000000E-03 0.  1.
        -12    1    4    4    0    0  0.76605794080E+01  0.84091304918E+01  0.26117598586E+02  0.28487311358E+02  0.00000000000E+00 0.  1.
</event>
<event>
 8    1  0.5834107E-011  0.9118800E+02  0.7816164E-02  0.1184000E+00
        -11   -1    0    0    0    0  0.00000000000E+00  0.00000000000E+00  0.45593999997E+02  0.45594000000E+02  0.51100000000E-03 0. -1.
         11   -1    0    0    0    0 -0.00000000000E+00 -0.00000000000E+00 -0.45593999997E+02  0.45594000000E+02  0.51100000000E-03 0.  1.
         23    2    1    2    0    0  0.44408920985E-15  0.00000000000E+00  0.71054273576E-14  0.91188000000E+02  0.91188000000E+02 0.  0.
    9900012    2    3    3    0    0 -0.26301808429E+01  0.22965771940E+02 -0.36732530606E+02  0.47787270320E+02  0.19999996697E+02 0.  0.
         12    1    3    3    0    0  0.26301808429E+01 -0.22965771940E+02  0.36732530606E+02  0.43400729680E+02  0.00000000000E+00 0. -1.
         11    1    4    4    0    0 -0.33330576743E+01  0.15704313151E+02 -0.15951685685E+02  0.22631637180E+02  0.51100000000E-03 0. -1.
        -11    1    4    4    0    0 -0.22670193772E+01  0.99267520089E+01 -0.15171616435E+02  0.18271774074E+02  0.51100000000E-03 0.  1.
         12    1    4    4    0    0  0.29698962087E+01 -0.26652932196E+01 -0.56092284862E+01  0.68838590664E+01  0.00000000000E+00 0. -1.
</event>
<event>
 8    1  0.5834107E-011  0.9118800E+02  0.7816164E-02  0.1184000E+00
        -11   -1    0    0    0    0  0.00000000000E+00  0.00000000000E+00  0.45593999997E+02  0.45594000000E+02  0.51100000000E-03 0. -1.
         11   -1    0    0    0    0 -0.00000000000E+00 -0.00000000000E+00 -0.45593999997E+02  0.45594000000E+02  0.51100000000E-03 0.  1.
         23    2    1    2    0    0  0.00000000000E+00 -0.35527136788E-14  0.00000000000E+00  0.91188000000E+02  0.91188000000E+02 0.  0.
    9900012    2    3    3    0    0  0.24463493274E+02 -0.11928955138E+02 -0.33806221577E+02  0.47787273149E+02  0.20000009595E+02 0.  0.
         12    1    3    3    0    0 -0.24463493274E+02  0.11928955138E+02  0.33806221577E+02  0.43400726851E+02  0.00000000000E+00 0. -1.
         11    1    4    4    0    0  0.57479419606E+01 -0.68886114092E+01 -0.22105660984E+02  0.23856907841E+02  0.51100000000E-03 0. -1.
        -11    1    4    4    0    0  0.74931000483E+00 -0.12841048793E+01 -0.35473195742E+01  0.38462796631E+01  0.51100000000E-03 0.  1.
        -12    1    4    4    0    0  0.17966241309E+02 -0.37562388498E+01 -0.81532410190E+01  0.20084085645E+02  0.00000000000E+00 0.  1.
</event>
<event>
 8    1  0.5834107E-011  0.9118800E+02  0.7816164E-02  0.1184000E+00
        -11   -1    0    0    0    0  0.00000000000E+00  0.00000000000E+00  0.45593999997E+02  0.45594000000E+02  0.51100000000E-03 0. -1.
         11   -1    0    0    0    0 -0.00000000000E+00 -0.00000000000E+00 -0.45593999997E+02  0.45594000000E+02  0.51100000000E-03 0.  1.
         23    2    1    2    0    0  0.35527136788E-14  0.00000000000E+00  0.00000000000E+00  0.91188000000E+02  0.91188000000E+02 0.  0.
    9900012    2    3    3    0    0  0.30117382989E+02  0.27668441322E+02 -0.14526662784E+02  0.47787270342E+02  0.19999996795E+02 0.  0.
         12    1    3    3    0    0 -0.30117382989E+02 -0.27668441322E+02  0.14526662784E+02  0.43400729658E+02  0.00000000000E+00 0. -1.
         11    1    4    4    0    0  0.11031434499E+01  0.29181803187E+01  0.33103374811E+01  0.45487400831E+01  0.51100000000E-03 0. -1.
        -11    1    4    4    0    0  0.22579241645E+02  0.17567554790E+02 -0.85711083934E+01  0.29864779154E+02  0.51100000000E-03 0.  1.
        -12    1    4    4    0    0  0.64349978933E+01  0.71827062131E+01 -0.92658918713E+01  0.13373751104E+02  0.00000000000E+00 0.  1.
</event>
<event>
 8    1  0.5834107E-011  0.9118800E+02  0.7816164E-02  0.1184000E+00
        -11   -1    0    0    0    0  0.00000000000E+00  0.00000000000E+00  0.45593999997E+02  0.45594000000E+02  0.51100000000E-03 0. -1.
         11   -1    0    0    0    0 -0.00000000000E+00 -0.00000000000E+00 -0.45593999997E+02  0.45594000000E+02  0.51100000000E-03 0.  1.
         23    2    1    2    0    0 -0.35527136788E-14  0.35527136788E-14  0.00000000000E+00  0.91188000000E+02  0.91188000000E+02 0.  0.
    9900012    2    3    3    0    0  0.23729725591E+02 -0.24218150238E+02 -0.27092545952E+02  0.47787254341E+02  0.19999923842E+02 0.  0.
         12    1    3    3    0    0 -0.23729725591E+02  0.24218150238E+02  0.27092545952E+02  0.43400745659E+02  0.00000000000E+00 0. -1.
         11    1    4    4    0    0  0.54577408002E+01 -0.20318501098E+01 -0.10708655000E+01  0.59213260922E+01  0.51100000000E-03 0. -1.
        -11    1    4    4    0    0  0.15929259955E+02 -0.24587309588E+02 -0.24462880682E+02  0.38166865827E+02  0.51100000000E-03 0.  1.
        -12    1    4    4    0    0  0.23427248350E+01  0.24010094594E+01 -0.15587997701E+01  0.36990624218E+01  0.00000000000E+00 0.  1.
</event>
<event>
 8    1  0.5834107E-011  0.9118800E+02  0.7816164E-02  0.1184000E+00
        -11   -1    0    0    0    0  0.00000000000E+00  0.00000000000E+00  0.45593999997E+02  0.45594000000E+02  0.51100000000E-03 0. -1.
         11   -1    0    0    0    0 -0.00000000000E+00 -0.00000000000E+00 -0.45593999997E+02  0.45594000000E+02  0.51100000000E-03 0.  1.
         23    2    1    2    0    0  0.00000000000E+00  0.00000000000E+00  0.00000000000E+00  0.91188000000E+02  0.91188000000E+02 0.  0.
    9900012    2    3    3    0    0  0.15694452737E+02 -0.15164422120E+02  0.37514633697E+02  0.47787270901E+02  0.19999999345E+02 0.  0.
        -12    1    3    3    0    0 -0.15694452737E+02  0.15164422120E+02 -0.37514633697E+02  0.43400729099E+02  0.00000000000E+00 0.  1.
         11    1    4    4    0    0  0.94311662101E+00 -0.30880286036E+01  0.52939693460E+01  0.62009274560E+01  0.51100000000E-03 0. -1.
        -11    1    4    4    0    0 -0.17085891870E+01 -0.14352440047E+01  0.15971430139E+02  0.16126555221E+02  0.51100000000E-03 0.  1.
         12    1    4    4    0    0  0.16459925303E+02 -0.10641149511E+02  0.16249234212E+02  0.25459788223E+02  0.00000000000E+00 0. -1.
</event>
<event>
 8    1  0.5834107E-011  0.9118800E+02  0.7816164E-02  0.1184000E+00
        -11   -1    0    0    0    0  0.00000000000E+00  0.00000000000E+00  0.45593999997E+02  0.45594000000E+02  0.51100000000E-03 0. -1.
         11   -1    0    0    0    0 -0.00000000000E+00 -0.00000000000E+00 -0.45593999997E+02  0.45594000000E+02  0.51100000000E-03 0.  1.
         23    2    1    2    0    0  0.35527136788E-14  0.00000000000E+00  0.00000000000E+00  0.91188000000E+02  0.91188000000E+02 0.  0.
    9900012    2    3    3    0    0  0.31791718574E+02  0.23483469919E+02 -0.17928662010E+02  0.47787266702E+02  0.19999980202E+02 0.  0.
         12    1    3    3    0    0 -0.31791718574E+02 -0.23483469919E+02  0.17928662010E+02  0.43400733298E+02  0.00000000000E+00 0. -1.
         11    1    4    4    0    0  0.76728571979E+01  0.59776271311E+01  0.33466078224E+01  0.10286133767E+02  0.51100000000E-03 0. -1.
        -11    1    4    4    0    0  0.12809750168E+02  0.44034270483E+01 -0.85440215262E+01  0.16014998384E+02  0.51100000000E-03 0.  1.
        -12    1    4    4    0    0  0.11309111208E+02  0.13102415739E+02 -0.12731248306E+02  0.21486134551E+02  0.00000000000E+00 0.  1.
</event>
<event>
 8    1  0.5834107E-011  0.9118800E+02  0.7816164E-02  0.1184000E+00
        -11   -1    0    0    0    0  0.00000000000E+00  0.00000000000E+00  0.45593999997E+02  0.45594000000E+02  0.51100000000E-03 0. -1.
         11   -1    0    0    0    0 -0.00000000000E+00 -0.00000000000E+00 -0.45593999997E+02  0.45594000000E+02  0.51100000000E-03 0.  1.
         23    2    1    2    0    0  0.00000000000E+00  0.00000000000E+00  0.00000000000E+00  0.91188000000E+02  0.91188000000E+02 0.  0.
    9900012    2    3    3    0    0  0.63015513521E+01  0.18994503761E+02  0.38511332866E+02  0.47787268651E+02  0.19999989087E+02 0.  0.
        -12    1    3    3    0    0 -0.63015513521E+01 -0.18994503761E+02 -0.38511332866E+02  0.43400731349E+02  0.00000000000E+00 0.  1.
         11    1    4    4    0    0 -0.19122764077E+00 -0.14416058270E+01  0.22589260759E+01  0.26865484638E+01  0.51100000000E-03 0. -1.
        -11    1    4    4    0    0  0.84119090791E+01  0.53897842112E+01  0.22532826597E+02  0.24648291278E+02  0.51100000000E-03 0.  1.
         12    1    4    4    0    0 -0.19191300863E+01  0.15046325377E+02  0.13719580192E+02  0.20452428909E+02  0.00000000000E+00 0. -1.
</event>
<event>
 8    1  0.5834107E-011  0.9118800E+02  0.7816164E-02  0.1184000E+00
        -11   -1    0    0    0    0  0.00000000000E+00  0.00000000000E+00  0.45593999997E+02  0.45594000000E+02  0.51100000000E-03 0. -1.
         11   -1    0    0    0    0 -0.00000000000E+00 -0.00000000000E+00 -0.45593999997E+02  0.45594000000E+02  0.51100000000E-03 0.  1.
         23    2    1    2    0    0 -0.88817841970E-15  0.00000000000E+00 -0.71054273576E-14  0.91188000000E+02  0.91188000000E+02 0.  0.
    9900012    2    3    3    0    0  0.52427855547E+01  0.17889905515E+02  0.39192950713E+02  0.47787275291E+02  0.20000019362E+02 0.  0.
        -12    1    3    3    0    0 -0.52427855547E+01 -0.17889905515E+02 -0.39192950713E+02  0.43400724709E+02  0.00000000000E+00 0.  1.
         11    1    4    4    0    0 -0.76628661731E+00  0.75775850083E+01  0.31344045640E+02  0.32256103098E+02  0.51100000000E-03 0. -1.
        -11    1    4    4    0    0  0.21924957470E+00  0.41357775318E+01  0.24019361557E+00  0.41485442510E+01  0.51100000000E-03 0.  1.
        -12    1    4    4    0    0  0.57898225973E+01  0.61765429746E+01  0.76087114570E+01  0.11382627942E+02  0.00000000000E+00 0.  1.
</event>
<event>
 8    1  0.5834107E-011  0.9118800E+02  0.7816164E-02  0.1184000E+00
        -11   -1    0    0    0    0  0.00000000000E+00  0.00000000000E+00  0.45593999997E+02  0.45594000000E+02  0.51100000000E-03 0. -1.
         11   -1    0    0    0    0 -0.00000000000E+00 -0.00000000000E+00 -0.45593999997E+02  0.45594000000E+02  0.51100000000E-03 0.  1.
         23    2    1    2    0    0 -0.88817841970E-15  0.00000000000E+00  0.00000000000E+00  0.91188000000E+02  0.91188000000E+02 0.  0.
    9900012    2    3    3    0    0  0.42379006568E+01  0.13719905342E+02  0.40956418269E+02  0.47787264960E+02  0.19999972259E+02 0.  0.
        -12    1    3    3    0    0 -0.42379006568E+01 -0.13719905342E+02 -0.40956418269E+02  0.43400735040E+02  0.00000000000E+00 0.  1.
         11    1    4    4    0    0  0.67793935359E-01 -0.34633736131E+01  0.15039685448E+02  0.15433460125E+02  0.51100000000E-03 0. -1.
        -11    1    4    4    0    0 -0.14853103610E+01  0.10101137290E+02  0.15314180923E+02  0.18405522514E+02  0.51100000000E-03 0.  1.
        -12    1    4    4    0    0  0.56554170824E+01  0.70821416647E+01  0.10602551899E+02  0.13948282321E+02  0.00000000000E+00 0.  1.
</event>
<event>
 8    1  0.8750906E-011  0.9118800E+02  0.7816164E-02  0.1184000E+00
        -11   -1    0    0    0    0  0.00000000000E+00  0.00000000000E+00  0.45593999997E+02  0.45594000000E+02  0.51100000000E-03 0. -1.
         11   -1    0    0    0    0 -0.00000000000E+00 -0.00000000000E+00 -0.45593999997E+02  0.45594000000E+02  0.51100000000E-03 0.  1.
         23    2    1    2    0    0  0.00000000000E+00 -0.17763568394E-14  0.00000000000E+00  0.91188000000E+02  0.91188000000E+02 0.  0.
    9900012    2    3    3    0    0  0.79475181580E+01 -0.46860673461E+01  0.42408736192E+02  0.47787272155E+02  0.20000005065E+02 0.  0.
        -12    1    3    3    0    0 -0.79475181580E+01  0.46860673461E+01 -0.42408736192E+02  0.43400727845E+02  0.00000000000E+00 0.  1.
         11    1    4    4    0    0 -0.45608264379E-01  0.33629915115E+01  0.25734036311E+02  0.25952888416E+02  0.51100000000E-03 0. -1.
        -11    1    4    4    0    0  0.24857824155E+01  0.14978527141E+00  0.42563428825E-01  0.24906548840E+01  0.51100000000E-03 0.  1.
         12    1    4    4    0    0  0.55073440068E+01 -0.81988441291E+01  0.16632136452E+02  0.19343728855E+02  0.00000000000E+00 0. -1.
</event>
<event>
 8    1  0.5834107E-011  0.9118800E+02  0.7816164E-02  0.1184000E+00
        -11   -1    0    0    0    0  0.00000000000E+00  0.00000000000E+00  0.45593999997E+02  0.45594000000E+02  0.51100000000E-03 0. -1.
         11   -1    0    0    0    0 -0.00000000000E+00 -0.00000000000E+00 -0.45593999997E+02  0.45594000000E+02  0.51100000000E-03 0.  1.
         23    2    1    2    0    0  0.35527136788E-14  0.00000000000E+00 -0.35527136788E-14  0.91188000000E+02  0.91188000000E+02 0.  0.
    9900012    2    3    3    0    0  0.21280980876E+02 -0.21456126950E+02 -0.31150881472E+02  0.47787274808E+02  0.20000017159E+02 0.  0.
         12    1    3    3    0    0 -0.21280980876E+02  0.21456126950E+02  0.31150881472E+02  0.43400725192E+02  0.00000000000E+00 0. -1.
         11    1    4    4    0    0  0.12458296225E+01  0.23337850838E+01 -0.24113015634E+01  0.35795278678E+01  0.51100000000E-03 0. -1.
        -11    1    4    4    0    0  0.34788870598E+01 -0.11680929277E+02 -0.15803527801E+02  0.19957411034E+02  0.51100000000E-03 0.  1.
        -12    1    4    4    0    0  0.16556264193E+02 -0.12108982757E+02 -0.12936052107E+02  0.24250335906E+02  0.00000000000E+00 0.  1.
</event>
<event>
 8    1  0.5834107E-011  0.9118800E+02  0.7816164E-02  0.1184000E+00
        -11   -1    0    0    0    0  0.00000000000E+00  0.00000000000E+00  0.45593999997E+02  0.45594000000E+02  0.51100000000E-03 0. -1.
         11   -1    0    0    0    0 -0.00000000000E+00 -0.00000000000E+00 -0.45593999997E+02  0.45594000000E+02  0.51100000000E-03 0.  1.
         23    2    1    2    0    0  0.00000000000E+00  0.00000000000E+00  0.00000000000E+00  0.91188000000E+02  0.91188000000E+02 0.  0.
    9900012    2    3    3    0    0  0.18503940531E+02  0.54614009367E+01 -0.38876735697E+02  0.47787270815E+02  0.19999998953E+02 0.  0.
         12    1    3    3    0    0 -0.18503940531E+02 -0.54614009367E+01  0.38876735697E+02  0.43400729185E+02  0.00000000000E+00 0. -1.
         11    1    4    4    0    0 -0.58931723932E+00  0.46851229989E+00  0.84410075525E+00  0.11310636277E+01  0.51100000000E-03 0. -1.
        -11    1    4    4    0    0  0.35500290413E+00 -0.33834393264E+01 -0.97860605011E+01  0.10360534211E+02  0.51100000000E-03 0.  1.
        -12    1    4    4    0    0  0.18738254866E+02  0.83763279632E+01 -0.29934775951E+02  0.36295672976E+02  0.00000000000E+00 0.  1.
</event>
<event>
 8    1  0.5834107E-011  0.9118800E+02  0.7816164E-02  0.1184000E+00
        -11   -1    0    0    0    0  0.00000000000E+00  0.00000000000E+00  0.45593999997E+02  0.45594000000E+02  0.51100000000E-03 0. -1.
         11   -1    0    0    0    0 -0.00000000000E+00 -0.00000000000E+00 -0.45593999997E+02  0.45594000000E+02  0.51100000000E-03 0.  1.
         23    2    1    2    0    0 -0.71054273576E-14  0.17763568394E-14  0.00000000000E+00  0.91188000000E+02  0.91188000000E+02 0.  0.
    9900012    2    3    3    0    0  0.39195181733E+02 -0.10607471313E+02 -0.15324575345E+02  0.47787270418E+02  0.19999997143E+02 0.  0.
         12    1    3    3    0    0 -0.39195181733E+02  0.10607471313E+02  0.15324575345E+02  0.43400729582E+02  0.00000000000E+00 0. -1.
         11    1    4    4    0    0  0.13066087766E+02 -0.12623819522E+02 -0.17661777968E+01  0.18253844886E+02  0.51100000000E-03 0. -1.
        -11    1    4    4    0    0  0.71385038023E+01  0.34991064172E+00 -0.42956445796E+01  0.83386591613E+01  0.51100000000E-03 0.  1.
         12    1    4    4    0    0  0.18990590165E+02  0.16664375670E+01 -0.92627529682E+01  0.21194766371E+02  0.00000000000E+00 0. -1.
</event>
<event>
 8    1  0.5834107E-011  0.9118800E+02  0.7816164E-02  0.1184000E+00
        -11   -1    0    0    0    0  0.00000000000E+00  0.00000000000E+00  0.45593999997E+02  0.45594000000E+02  0.51100000000E-03 0.  1.
         11   -1    0    0    0    0 -0.00000000000E+00 -0.00000000000E+00 -0.45593999997E+02  0.45594000000E+02  0.51100000000E-03 0. -1.
         23    2    1    2    0    0  0.71054273576E-14  0.17763568394E-14  0.00000000000E+00  0.91188000000E+02  0.91188000000E+02 0.  0.
    9900012    2    3    3    0    0  0.39518787744E+02  0.15527947653E+02  0.89872972360E+01  0.47787271265E+02  0.20000001006E+02 0.  0.
        -12    1    3    3    0    0 -0.39518787744E+02 -0.15527947653E+02 -0.89872972360E+01  0.43400728735E+02  0.00000000000E+00 0.  1.
         11    1    4    4    0    0  0.83655766996E+01 -0.22290353662E+01  0.12969917197E-01  0.86574615598E+01  0.51100000000E-03 0. -1.
        -11    1    4    4    0    0  0.95889185377E+01  0.88486497538E+00 -0.16318355904E+01  0.97669459097E+01  0.51100000000E-03 0.  1.
         12    1    4    4    0    0  0.21564292507E+02  0.16872118044E+02  0.10606162909E+02  0.29362863796E+02  0.00000000000E+00 0. -1.
</event>
<event>
 8    1  0.8905033E-011  0.9118800E+02  0.7816164E-02  0.1184000E+00
        -11   -1    0    0    0    0  0.00000000000E+00  0.00000000000E+00  0.45593999997E+02  0.45594000000E+02  0.51100000000E-03 0. -1.
         11   -1    0    0    0    0 -0.00000000000E+00 -0.00000000000E+00 -0.45593999997E+02  0.45594000000E+02  0.51100000000E-03 0.  1.
         23    2    1    2    0    0  0.35527136788E-14  0.00000000000E+00  0.00000000000E+00  0.91188000000E+02  0.91188000000E+02 0.  0.
    9900012    2    3    3    0    0 -0.30784977562E+02 -0.20758565924E+02 -0.22472066181E+02  0.47787232021E+02  0.19999822075E+02 0.  0.
         12    1    3    3    0    0  0.30784977562E+02  0.20758565924E+02  0.22472066181E+02  0.43400767979E+02  0.00000000000E+00 0. -1.
         11    1    4    4    0    0 -0.15407561697E+02 -0.92034488728E+01 -0.19310706501E+02  0.26362849134E+02  0.51100000000E-03 0. -1.
        -11    1    4    4    0    0 -0.14277177613E+02 -0.72477066204E+01 -0.47534967914E+01  0.16702179015E+02  0.51100000000E-03 0.  1.
         12    1    4    4    0    0 -0.11002382516E+01 -0.43074104308E+01  0.15921371111E+01  0.47222038721E+01  0.00000000000E+00 0. -1.
</event>
<event>
 8    1  0.5834107E-011  0.9118800E+02  0.7816164E-02  0.1184000E+00
        -11   -1    0    0    0    0  0.00000000000E+00  0.00000000000E+00  0.45593999997E+02  0.45594000000E+02  0.51100000000E-03 0. -1.
         11   -1    0    0    0    0 -0.00000000000E+00 -0.00000000000E+00 -0.45593999997E+02  0.45594000000E+02  0.51100000000E-03 0.  1.
         23    2    1    2    0    0  0.00000000000E+00  0.88817841970E-15  0.00000000000E+00  0.91188000000E+02  0.91188000000E+02 0.  0.
    9900012    2    3    3    0    0  0.28093176492E+02 -0.13702638107E+01 -0.33053267915E+02  0.47787277562E+02  0.20000029715E+02 0.  0.
         12    1    3    3    0    0 -0.28093176492E+02  0.13702638107E+01  0.33053267915E+02  0.43400722438E+02  0.00000000000E+00 0. -1.
         11    1    4    4    0    0  0.76657408372E+01  0.43691505658E+01 -0.88465387492E+01  0.12494571115E+02  0.51100000000E-03 0. -1.
        -11    1    4    4    0    0  0.12822382391E+02  0.37849975405E+01 -0.14396746450E+02  0.19647035531E+02  0.51100000000E-03 0.  1.
         12    1    4    4    0    0  0.76050532638E+01 -0.95244119171E+01 -0.98099827156E+01  0.15645670915E+02  0.00000000000E+00 0. -1.
</event>
<event>
 8    1  0.5834107E-011  0.9118800E+02  0.7816164E-02  0.1184000E+00
        -11   -1    0    0    0    0  0.00000000000E+00  0.00000000000E+00  0.45593999997E+02  0.45594000000E+02  0.51100000000E-03 0. -1.
         11   -1    0    0    0    0 -0.00000000000E+00 -0.00000000000E+00 -0.45593999997E+02  0.45594000000E+02  0.51100000000E-03 0.  1.
         23    2    1    2    0    0  0.35527136788E-14  0.35527136788E-14  0.00000000000E+00  0.91188000000E+02  0.91188000000E+02 0.  0.
    9900012    2    3    3    0    0  0.19899562274E+02  0.30342620609E+02 -0.23810836521E+02  0.47787272588E+02  0.20000007036E+02 0.  0.
         12    1    3    3    0    0 -0.19899562274E+02 -0.30342620609E+02  0.23810836521E+02  0.43400727412E+02  0.00000000000E+00 0. -1.
         11    1    4    4    0    0  0.49033469922E+01  0.81865585749E+01 -0.10098116508E+01  0.95959508574E+01  0.51100000000E-03 0. -1.
        -11    1    4    4    0    0  0.15572505755E+02  0.11296647393E+02 -0.17845340787E+02  0.26240681505E+02  0.51100000000E-03 0.  1.
         12    1    4    4    0    0 -0.57629047292E+00  0.10859414641E+02 -0.49556840833E+01  0.11950640225E+02  0.00000000000E+00 0. -1.
</event>
<event>
 8    1  0.5834107E-011  0.9118800E+02  0.7816164E-02  0.1184000E+00
        -11   -1    0    0    0    0  0.00000000000E+00  0.00000000000E+00  0.45593999997E+02  0.45594000000E+02  0.51100000000E-03 0. -1.
         11   -1    0    0    0    0 -0.00000000000E+00 -0.00000000000E+00 -0.45593999997E+02  0.45594000000E+02  0.51100000000E-03 0.  1.
         23    2    1    2    0    0  0.00000000000E+00  0.00000000000E+00  0.00000000000E+00  0.91188000000E+02  0.91188000000E+02 0.  0.
    9900012    2    3    3    0    0  0.70639675161E+01  0.14411829731E+02 -0.40323974689E+02  0.47787269500E+02  0.19999992956E+02 0.  0.
         12    1    3    3    0    0 -0.70639675161E+01 -0.14411829731E+02  0.40323974689E+02  0.43400730500E+02  0.00000000000E+00 0. -1.
         11    1    4    4    0    0 -0.21718825307E+01  0.40220894654E+00 -0.38145700038E+01  0.44079235859E+01  0.51100000000E-03 0. -1.
        -11    1    4    4    0    0  0.10316249670E+02  0.16999447113E+02 -0.28402740615E+02  0.34671629384E+02  0.51100000000E-03 0.  1.
        -12    1    4    4    0    0 -0.10803996232E+01 -0.29898263290E+01 -0.81066640700E+01  0.87077165300E+01  0.00000000000E+00 0.  1.
</event>
<event>
 8    1  0.5834107E-011  0.9118800E+02  0.7816164E-02  0.1184000E+00
        -11   -1    0    0    0    0  0.00000000000E+00  0.00000000000E+00  0.45593999997E+02  0.45594000000E+02  0.51100000000E-03 0. -1.
         11   -1    0    0    0    0 -0.00000000000E+00 -0.00000000000E+00 -0.45593999997E+02  0.45594000000E+02  0.51100000000E-03 0.  1.
         23    2    1    2    0    0  0.44408920985E-15  0.00000000000E+00  0.00000000000E+00  0.91188000000E+02  0.91188000000E+02 0.  0.
    9900012    2    3    3    0    0 -0.30473752555E+01 -0.49964585683E+01 -0.43004327187E+02  0.47787271308E+02  0.20000001202E+02 0.  0.
         12    1    3    3    0    0  0.30473752555E+01  0.49964585683E+01  0.43004327187E+02  0.43400728692E+02  0.00000000000E+00 0. -1.
         11    1    4    4    0    0  0.28009791373E+01  0.57676657141E+00 -0.32281493404E+01  0.43126664873E+01  0.51100000000E-03 0. -1.
        -11    1    4    4    0    0  0.52902877222E+01 -0.14205054081E+01 -0.15603017655E+02  0.16536600013E+02  0.51100000000E-03 0.  1.
         12    1    4    4    0    0 -0.11138642115E+02 -0.41527197317E+01 -0.24173160192E+02  0.26938004807E+02  0.00000000000E+00 0. -1.
</event>
<event>
 8    1  0.5834107E-011  0.9118800E+02  0.7816164E-02  0.1184000E+00
        -11   -1    0    0    0    0  0.00000000000E+00  0.00000000000E+00  0.45593999997E+02  0.45594000000E+02  0.51100000000E-03 0. -1.
         11   -1    0    0    0    0 -0.00000000000E+00 -0.00000000000E+00 -0.45593999997E+02  0.45594000000E+02  0.51100000000E-03 0.  1.
         23    2    1    2    0    0  0.00000000000E+00  0.35527136788E-14  0.00000000000E+00  0.91188000000E+02  0.91188000000E+02 0.  0.
    9900012    2    3    3    0    0  0.26224769702E+01  0.29645734940E+02  0.31589157889E+02  0.47787287083E+02  0.20000073124E+02 0.  0.
        -12    1    3    3    0    0 -0.26224769702E+01 -0.29645734940E+02 -0.31589157889E+02  0.43400712917E+02  0.00000000000E+00 0.  1.
         11    1    4    4    0    0 -0.34971254020E+01  0.42839867181E+01  0.10828252141E+02  0.12158678916E+02  0.51100000000E-03 0. -1.
        -11    1    4    4    0    0  0.68184496332E+01  0.49652087758E+01  0.46816159222E+01  0.96468689994E+01  0.51100000000E-03 0.  1.
         12    1    4    4    0    0 -0.69884726097E+00  0.20396539446E+02  0.16079289826E+02  0.25981739168E+02  0.00000000000E+00 0. -1.
</event>
<event>
 8    1  0.5834107E-011  0.9118800E+02  0.7816164E-02  0.1184000E+00
        -11   -1    0    0    0    0  0.00000000000E+00  0.00000000000E+00  0.45593999997E+02  0.45594000000E+02  0.51100000000E-03 0. -1.
         11   -1    0    0    0    0 -0.00000000000E+00 -0.00000000000E+00 -0.45593999997E+02  0.45594000000E+02  0.51100000000E-03 0.  1.
         23    2    1    2    0    0  0.44408920985E-15  0.00000000000E+00  0.00000000000E+00  0.91188000000E+02  0.91188000000E+02 0.  0.
    9900012    2    3    3    0    0  0.26596246472E+01 -0.43265972180E+02  0.21457938601E+01  0.47787281305E+02  0.20000046782E+02 0.  0.
        -12    1    3    3    0    0 -0.26596246472E+01  0.43265972180E+02 -0.21457938601E+01  0.43400718695E+02  0.00000000000E+00 0.  1.
         11    1    4    4    0    0 -0.26658889366E+01 -0.18344472551E+02  0.59558835841E+01  0.19470469603E+02  0.51100000000E-03 0. -1.
        -11    1    4    4    0    0  0.55291817853E+01 -0.52217484946E+01  0.18345611294E+01  0.78233064209E+01  0.51100000000E-03 0.  1.
         12    1    4    4    0    0 -0.20366820153E+00 -0.19699751134E+02 -0.56446508534E+01  0.20493505282E+02  0.00000000000E+00 0. -1.
</event>
<event>
 8    1  0.5834107E-011  0.9118800E+02  0.7816164E-02  0.1184000E+00
        -11   -1    0    0    0    0  0.00000000000E+00  0.00000000000E+00  0.45593999997E+02  0.45594000000E+02  0.51100000000E-03 0. -1.
         11   -1    0    0    0    0 -0.00000000000E+00 -0.00000000000E+00 -0.45593999997E+02  0.45594000000E+02  0.51100000000E-03 0.  1.
         23    2    1    2    0    0  0.00000000000E+00  0.00000000000E+00  0.00000000000E+00  0.91188000000E+02  0.91188000000E+02 0.  0.
    9900012    2    3    3    0    0  0.20263709222E+02  0.36688795299E+02  0.11266667954E+02  0.47787269376E+02  0.19999992394E+02 0.  0.
        -12    1    3    3    0    0 -0.20263709222E+02 -0.36688795299E+02 -0.11266667954E+02  0.43400730624E+02  0.00000000000E+00 0.  1.
         11    1    4    4    0    0  0.34751576709E+01  0.21290296541E+02  0.10901685060E+02  0.24170233450E+02  0.51100000000E-03 0. -1.
        -11    1    4    4    0    0  0.68730728935E+01  0.26330752205E+01 -0.84156363065E+00  0.74081337543E+01  0.51100000000E-03 0.  1.
         12    1    4    4    0    0  0.99154786574E+01  0.12765423537E+02  0.12065465249E+01  0.16208902171E+02  0.00000000000E+00 0. -1.
</event>
<event>
 8    1  0.5834107E-011  0.9118800E+02  0.7816164E-02  0.1184000E+00
        -11   -1    0    0    0    0  0.00000000000E+00  0.00000000000E+00  0.45593999997E+02  0.45594000000E+02  0.51100000000E-03 0. -1.
         11   -1    0    0    0    0 -0.00000000000E+00 -0.00000000000E+00 -0.45593999997E+02  0.45594000000E+02  0.51100000000E-03 0.  1.
         23    2    1    2    0    0  0.00000000000E+00  0.00000000000E+00  0.71054273576E-14  0.91188000000E+02  0.91188000000E+02 0.  0.
    9900012    2    3    3    0    0 -0.18833400009E+02 -0.16955073718E+02 -0.35234240151E+02  0.47787272360E+02  0.20000005999E+02 0.  0.
         12    1    3    3    0    0  0.18833400009E+02  0.16955073718E+02  0.35234240151E+02  0.43400727640E+02  0.00000000000E+00 0. -1.
         11    1    4    4    0    0 -0.29796820738E+01 -0.14441414144E+01 -0.15826098531E+01  0.36699732824E+01  0.51100000000E-03 0. -1.
        -11    1    4    4    0    0 -0.95543438541E+01 -0.32345207968E+01 -0.30329068376E+01  0.10533097143E+02  0.51100000000E-03 0.  1.
         12    1    4    4    0    0 -0.62993740808E+01 -0.12276411507E+02 -0.30618723460E+02  0.33584201935E+02  0.00000000000E+00 0. -1.
</event>
<event>
 8    1  0.5834107E-011  0.9118800E+02  0.7816164E-02  0.1184000E+00
        -11   -1    0    0    0    0  0.00000000000E+00  0.00000000000E+00  0.45593999997E+02  0.45594000000E+02  0.51100000000E-03 0. -1.
         11   -1    0    0    0    0 -0.00000000000E+00 -0.00000000000E+00 -0.45593999997E+02  0.45594000000E+02  0.51100000000E-03 0.  1.
         23    2    1    2    0    0  0.17763568394E-14  0.44408920985E-15  0.00000000000E+00  0.91188000000E+02  0.91188000000E+02 0.  0.
    9900012    2    3    3    0    0 -0.10270132392E+02  0.10819809819E+01  0.42154192889E+02  0.47787282491E+02  0.20000052189E+02 0.  0.
        -12    1    3    3    0    0  0.10270132392E+02 -0.10819809819E+01 -0.42154192889E+02  0.43400717509E+02  0.00000000000E+00 0.  1.
         11    1    4    4    0    0 -0.19996106734E+01 -0.22288235990E+00  0.20957665310E+00  0.20228796371E+01  0.51100000000E-03 0. -1.
        -11    1    4    4    0    0  0.93821959059E+00 -0.61566727013E+01  0.11211680855E+02  0.12825235382E+02  0.51100000000E-03 0.  1.
         12    1    4    4    0    0 -0.92087413089E+01  0.74615360431E+01  0.30732935381E+02  0.32939167472E+02  0.00000000000E+00 0. -1.
</event>
<event>
 8    1  0.5834107E-011  0.9118800E+02  0.7816164E-02  0.1184000E+00
        -11   -1    0    0    0    0  0.00000000000E+00  0.00000000000E+00  0.45593999997E+02  0.45594000000E+02  0.51100000000E-03 0. -1.
         11   -1    0    0    0    0 -0.00000000000E+00 -0.00000000000E+00 -0.45593999997E+02  0.45594000000E+02  0.51100000000E-03 0.  1.
         23    2    1    2    0    0  0.00000000000E+00  0.88817841970E-15  0.00000000000E+00  0.91188000000E+02  0.91188000000E+02 0.  0.
    9900012    2    3    3    0    0 -0.17200577702E+02  0.11985086081E+01 -0.39828719499E+02  0.47787271975E+02  0.20000004242E+02 0.  0.
         12    1    3    3    0    0  0.17200577702E+02 -0.11985086081E+01  0.39828719499E+02  0.43400728025E+02  0.00000000000E+00 0. -1.
         11    1    4    4    0    0 -0.80045494243E+01  0.53259076335E+01 -0.84585999008E+01  0.12805702486E+02  0.51100000000E-03 0. -1.
        -11    1    4    4    0    0 -0.10818734647E+02 -0.56247084545E+01 -0.20197158906E+02  0.23592532562E+02  0.51100000000E-03 0.  1.
         12    1    4    4    0    0  0.16227063692E+01  0.14973094291E+01 -0.11172960693E+02  0.11389036927E+02  0.00000000000E+00 0. -1.
</event>
<event>
 8    1  0.5834107E-011  0.9118800E+02  0.7816164E-02  0.1184000E+00
        -11   -1    0    0    0    0  0.00000000000E+00  0.00000000000E+00  0.45593999997E+02  0.45594000000E+02  0.51100000000E-03 0. -1.
         11   -1    0    0    0    0 -0.00000000000E+00 -0.00000000000E+00 -0.45593999997E+02  0.45594000000E+02  0.51100000000E-03 0.  1.
         23    2    1    2    0    0  0.17763568394E-14 -0.44408920985E-15  0.71054273576E-14  0.91188000000E+02  0.91188000000E+02 0.  0.
    9900012    2    3    3    0    0 -0.11104764563E+02 -0.16354366747E+01 -0.41924132398E+02  0.47787270439E+02  0.19999997240E+02 0.  0.
         12    1    3    3    0    0  0.11104764563E+02  0.16354366747E+01  0.41924132398E+02  0.43400729561E+02  0.00000000000E+00 0. -1.
         11    1    4    4    0    0 -0.90448835174E+01 -0.34109634125E+01 -0.81112667228E+01  0.12618923780E+02  0.51100000000E-03 0. -1.
        -11    1    4    4    0    0 -0.13150407401E+01 -0.29564288386E+01 -0.24330547835E+02  0.24544762411E+02  0.51100000000E-03 0.  1.
        -12    1    4    4    0    0 -0.74484030555E+00  0.47319555763E+01 -0.94823178401E+01  0.10623584248E+02  0.00000000000E+00 0.  1.
</event>
<event>
 8    1  0.5834107E-011  0.9118800E+02  0.7816164E-02  0.1184000E+00
        -11   -1    0    0    0    0  0.00000000000E+00  0.00000000000E+00  0.45593999997E+02  0.45594000000E+02  0.51100000000E-03 0. -1.
         11   -1    0    0    0    0 -0.00000000000E+00 -0.00000000000E+00 -0.45593999997E+02  0.45594000000E+02  0.51100000000E-03 0.  1.
         23    2    1    2    0    0 -0.88817841970E-15  0.00000000000E+00  0.00000000000E+00  0.91188000000E+02  0.91188000000E+02 0.  0.
    9900012    2    3    3    0    0  0.41489948117E+01  0.22922679077E+02  0.36619119935E+02  0.47787270527E+02  0.19999997640E+02 0.  0.
        -12    1    3    3    0    0 -0.41489948117E+01 -0.22922679077E+02 -0.36619119935E+02  0.43400729473E+02  0.00000000000E+00 0.  1.
         11    1    4    4    0    0 -0.37057685578E+01  0.11116683197E+02  0.13338202780E+02  0.17754464778E+02  0.51100000000E-03 0. -1.
        -11    1    4    4    0    0 -0.28307080422E+01  0.20551351453E+01  0.13266213444E+01  0.37411780148E+01  0.51100000000E-03 0.  1.
         12    1    4    4    0    0  0.10685471412E+02  0.97508607349E+01  0.21954295811E+02  0.26291627734E+02  0.00000000000E+00 0. -1.
</event>
<event>
 8    1  0.5834107E-011  0.9118800E+02  0.7816164E-02  0.1184000E+00
        -11   -1    0    0    0    0  0.00000000000E+00  0.00000000000E+00  0.45593999997E+02  0.45594000000E+02  0.51100000000E-03 0. -1.
         11   -1    0    0    0    0 -0.00000000000E+00 -0.00000000000E+00 -0.45593999997E+02  0.45594000000E+02  0.51100000000E-03 0.  1.
         23    2    1    2    0    0  0.00000000000E+00 -0.17763568394E-14  0.71054273576E-14  0.91188000000E+02  0.91188000000E+02 0.  0.
    9900012    2    3    3    0    0 -0.24126105925E+02 -0.84413108607E+01  0.35075618272E+02  0.47787265982E+02  0.19999976917E+02 0.  0.
        -12    1    3    3    0    0  0.24126105925E+02  0.84413108607E+01 -0.35075618272E+02  0.43400734018E+02  0.00000000000E+00 0.  1.
         11    1    4    4    0    0 -0.79291103720E+01  0.22441835595E+01  0.23846155272E+02  0.25229868661E+02  0.51100000000E-03 0.  1.
        -11    1    4    4    0    0 -0.97260539364E+01 -0.59655265437E+01  0.52365393856E+01  0.12554082090E+02  0.51100000000E-03 0. -1.
        -12    1    4    4    0    0 -0.64709416163E+01 -0.47199678765E+01  0.59929236146E+01  0.10003315231E+02  0.00000000000E+00 0.  1.
</event>
<event>
 8    1  0.5834107E-011  0.9118800E+02  0.7816164E-02  0.1184000E+00
        -11   -1    0    0    0    0  0.00000000000E+00  0.00000000000E+00  0.45593999997E+02  0.45594000000E+02  0.51100000000E-03 0. -1.
         11   -1    0    0    0    0 -0.00000000000E+00 -0.00000000000E+00 -0.45593999997E+02  0.45594000000E+02  0.51100000000E-03 0.  1.
         23    2    1    2    0    0 -0.88817841970E-15 -0.22204460493E-14  0.00000000000E+00  0.91188000000E+02  0.91188000000E+02 0.  0.
    9900012    2    3    3    0    0 -0.77136076953E+01  0.36692238670E+01  0.42551854632E+02  0.47787270973E+02  0.19999999676E+02 0.  0.
        -12    1    3    3    0    0  0.77136076953E+01 -0.36692238670E+01 -0.42551854632E+02  0.43400729027E+02  0.00000000000E+00 0.  1.
         11    1    4    4    0    0 -0.74395485239E+01  0.10868730066E+02  0.32421940432E+02  0.34995119619E+02  0.51100000000E-03 0. -1.
        -11    1    4    4    0    0 -0.15402295277E+01 -0.25038700495E+01  0.35255843639E+01  0.45903613791E+01  0.51100000000E-03 0.  1.
         12    1    4    4    0    0  0.12661703563E+01 -0.46956361499E+01  0.66043298356E+01  0.82017899755E+01  0.00000000000E+00 0. -1.
</event>
<event>
 8    1  0.5834107E-011  0.9118800E+02  0.7816164E-02  0.1184000E+00
        -11   -1    0    0    0    0  0.00000000000E+00  0.00000000000E+00  0.45593999997E+02  0.45594000000E+02  0.51100000000E-03 0. -1.
         11   -1    0    0    0    0 -0.00000000000E+00 -0.00000000000E+00 -0.45593999997E+02  0.45594000000E+02  0.51100000000E-03 0.  1.
         23    2    1    2    0    0  0.00000000000E+00  0.00000000000E+00  0.00000000000E+00  0.91188000000E+02  0.91188000000E+02 0.  0.
    9900012    2    3    3    0    0  0.21256716239E+02  0.61581750274E+01  0.37334329783E+02  0.47787270913E+02  0.19999999402E+02 0.  0.
        -12    1    3    3    0    0 -0.21256716239E+02 -0.61581750274E+01 -0.37334329783E+02  0.43400729087E+02  0.00000000000E+00 0.  1.
         11    1    4    4    0    0  0.14131491854E+02  0.47852392381E+01  0.23220477544E+02  0.27600510036E+02  0.51100000000E-03 0. -1.
        -11    1    4    4    0    0  0.35973606289E+01 -0.12874166423E+01  0.15170007026E+02  0.15643770598E+02  0.51100000000E-03 0.  1.
        -12    1    4    4    0    0  0.35278637560E+01  0.26603524316E+01 -0.10561547875E+01  0.45429902791E+01  0.00000000000E+00 0.  1.
</event>
<event>
 8    1  0.5834107E-011  0.9118800E+02  0.7816164E-02  0.1184000E+00
        -11   -1    0    0    0    0  0.00000000000E+00  0.00000000000E+00  0.45593999997E+02  0.45594000000E+02  0.51100000000E-03 0. -1.
         11   -1    0    0    0    0 -0.00000000000E+00 -0.00000000000E+00 -0.45593999997E+02  0.45594000000E+02  0.51100000000E-03 0.  1.
         23    2    1    2    0    0 -0.35527136788E-14  0.00000000000E+00  0.00000000000E+00  0.91188000000E+02  0.91188000000E+02 0.  0.
    9900012    2    3    3    0    0 -0.25315331770E+02 -0.20056900789E+02  0.28990991577E+02  0.47787275530E+02  0.20000020451E+02 0.  0.
        -12    1    3    3    0    0  0.25315331770E+02  0.20056900789E+02 -0.28990991577E+02  0.43400724470E+02  0.00000000000E+00 0.  1.
         11    1    4    4    0    0 -0.71628514673E+01 -0.11325098397E+02  0.15521971383E+02  0.20505996458E+02  0.51100000000E-03 0. -1.
        -11    1    4    4    0    0 -0.53780594811E+01 -0.93898656403E+01  0.48572300875E+01  0.11861103866E+02  0.51100000000E-03 0.  1.
        -12    1    4    4    0    0 -0.12774420822E+02  0.65806324788E+00  0.86117901062E+01  0.15420175207E+02  0.00000000000E+00 0.  1.
</event>
<event>
 8    1  0.5834107E-011  0.9118800E+02  0.7816164E-02  0.1184000E+00
        -11   -1    0    0    0    0  0.00000000000E+00  0.00000000000E+00  0.45593999997E+02  0.45594000000E+02  0.51100000000E-03 0. -1.
         11   -1    0    0    0    0 -0.00000000000E+00 -0.00000000000E+00 -0.45593999997E+02  0.45594000000E+02  0.51100000000E-03 0.  1.
         23    2    1    2    0    0 -0.35527136788E-14  0.00000000000E+00  0.00000000000E+00  0.91188000000E+02  0.91188000000E+02 0.  0.
    9900012    2    3    3    0    0 -0.24191586014E+02 -0.27298089515E+02 -0.23520254462E+02  0.47787298450E+02  0.20000124953E+02 0.  0.
         12    1    3    3    0    0  0.24191586014E+02  0.27298089515E+02  0.23520254462E+02  0.43400701550E+02  0.00000000000E+00 0. -1.
         11    1    4    4    0    0 -0.33856477127E+00 -0.40772139423E+01  0.21524495940E+01  0.46229145732E+01  0.51100000000E-03 0. -1.
        -11    1    4    4    0    0 -0.54466862260E+01 -0.77566663852E+01 -0.12701252414E+02  0.15847841412E+02  0.51100000000E-03 0.  1.
        -12    1    4    4    0    0 -0.18406335017E+02 -0.15464209188E+02 -0.12971451642E+02  0.27316542465E+02  0.00000000000E+00 0.  1.
</event>
<event>
 8    1  0.5834107E-011  0.9118800E+02  0.7816164E-02  0.1184000E+00
        -11   -1    0    0    0    0  0.00000000000E+00  0.00000000000E+00  0.45593999997E+02  0.45594000000E+02  0.51100000000E-03 0. -1.
         11   -1    0    0    0    0 -0.00000000000E+00 -0.00000000000E+00 -0.45593999997E+02  0.45594000000E+02  0.51100000000E-03 0.  1.
         23    2    1    2    0    0  0.00000000000E+00  0.00000000000E+00  0.71054273576E-14  0.91188000000E+02  0.91188000000E+02 0.  0.
    9900012    2    3    3    0    0  0.15050565843E+02 -0.14527498946E+02  0.38027035836E+02  0.47787271754E+02  0.20000003234E+02 0.  0.
        -12    1    3    3    0    0 -0.15050565843E+02  0.14527498946E+02 -0.38027035836E+02  0.43400728246E+02  0.00000000000E+00 0.  1.
         11    1    4    4    0    0  0.25780001235E+01 -0.56121417914E+01  0.10206925092E+02  0.11929943010E+02  0.51100000000E-03 0. -1.
        -11    1    4    4    0    0  0.38125574245E+01 -0.66246721899E+01  0.11580150418E+01  0.77306451760E+01  0.51100000000E-03 0.  1.
        -12    1    4    4    0    0  0.86600082949E+01 -0.22906849642E+01  0.26662095703E+02  0.28126683568E+02  0.00000000000E+00 0.  1.
</event>
<event>
 8    1  0.5834107E-011  0.9118800E+02  0.7816164E-02  0.1184000E+00
        -11   -1    0    0    0    0  0.00000000000E+00  0.00000000000E+00  0.45593999997E+02  0.45594000000E+02  0.51100000000E-03 0. -1.
         11   -1    0    0    0    0 -0.00000000000E+00 -0.00000000000E+00 -0.45593999997E+02  0.45594000000E+02  0.51100000000E-03 0.  1.
         23    2    1    2    0    0  0.00000000000E+00  0.00000000000E+00 -0.17763568394E-14  0.91188000000E+02  0.91188000000E+02 0.  0.
    9900012    2    3    3    0    0 -0.32714568852E+02  0.25373760163E+02 -0.13021226569E+02  0.47787273494E+02  0.20000011166E+02 0.  0.
         12    1    3    3    0    0  0.32714568852E+02 -0.25373760163E+02  0.13021226569E+02  0.43400726506E+02  0.00000000000E+00 0. -1.
         11    1    4    4    0    0 -0.32715600725E+01  0.26789744006E+01 -0.73329880139E+01  0.84647931233E+01  0.51100000000E-03 0. -1.
        -11    1    4    4    0    0 -0.15096659034E+02  0.10826498075E+02  0.29271520081E+01  0.18806658228E+02  0.51100000000E-03 0.  1.
        -12    1    4    4    0    0 -0.14346349745E+02  0.11868287687E+02 -0.86153905632E+01  0.20515822143E+02  0.00000000000E+00 0.  1.
</event>
<event>
 8    1  0.5834107E-011  0.9118800E+02  0.7816164E-02  0.1184000E+00
        -11   -1    0    0    0    0  0.00000000000E+00  0.00000000000E+00  0.45593999997E+02  0.45594000000E+02  0.51100000000E-03 0. -1.
         11   -1    0    0    0    0 -0.00000000000E+00 -0.00000000000E+00 -0.45593999997E+02  0.45594000000E+02  0.51100000000E-03 0.  1.
         23    2    1    2    0    0  0.00000000000E+00  0.00000000000E+00  0.00000000000E+00  0.91188000000E+02  0.91188000000E+02 0.  0.
    9900012    2    3    3    0    0  0.16776273318E+02 -0.15009910366E+02  0.37106366056E+02  0.47787272386E+02  0.20000006115E+02 0.  0.
        -12    1    3    3    0    0 -0.16776273318E+02  0.15009910366E+02 -0.37106366056E+02  0.43400727614E+02  0.00000000000E+00 0.  1.
         11    1    4    4    0    0  0.88622957082E+01 -0.16869083420E+02  0.20130611444E+02  0.27719086890E+02  0.51100000000E-03 0. -1.
        -11    1    4    4    0    0  0.49558026200E+01 -0.17627455852E-01  0.33076680693E+01  0.59582680918E+01  0.51100000000E-03 0.  1.
         12    1    4    4    0    0  0.29581749893E+01  0.18768005099E+01  0.13668086542E+02  0.14109917404E+02  0.00000000000E+00 0. -1.
</event>
<event>
 8    1  0.5834107E-011  0.9118800E+02  0.7816164E-02  0.1184000E+00
        -11   -1    0    0    0    0  0.00000000000E+00  0.00000000000E+00  0.45593999997E+02  0.45594000000E+02  0.51100000000E-03 0. -1.
         11   -1    0    0    0    0 -0.00000000000E+00 -0.00000000000E+00 -0.45593999997E+02  0.45594000000E+02  0.51100000000E-03 0.  1.
         23    2    1    2    0    0 -0.17763568394E-14 -0.71054273576E-14  0.00000000000E+00  0.91188000000E+02  0.91188000000E+02 0.  0.
    9900012    2    3    3    0    0  0.11862475190E+02  0.36620427543E+02  0.20046175024E+02  0.47787272309E+02  0.20000005764E+02 0.  0.
        -12    1    3    3    0    0 -0.11862475190E+02 -0.36620427543E+02 -0.20046175024E+02  0.43400727691E+02  0.00000000000E+00 0.  1.
         11    1    4    4    0    0  0.10021848092E+01 -0.11695416000E+01  0.13172411588E+01  0.20266540103E+01  0.51100000000E-03 0. -1.
        -11    1    4    4    0    0  0.54457883805E+01  0.19070020072E+02  0.17416001315E+01  0.19908677704E+02  0.51100000000E-03 0.  1.
         12    1    4    4    0    0  0.54145020002E+01  0.18719949070E+02  0.16987333734E+02  0.25851940594E+02  0.00000000000E+00 0. -1.
</event>
<event>
 8    1  0.5834107E-011  0.9118800E+02  0.7816164E-02  0.1184000E+00
        -11   -1    0    0    0    0  0.00000000000E+00  0.00000000000E+00  0.45593999997E+02  0.45594000000E+02  0.51100000000E-03 0. -1.
         11   -1    0    0    0    0 -0.00000000000E+00 -0.00000000000E+00 -0.45593999997E+02  0.45594000000E+02  0.51100000000E-03 0.  1.
         23    2    1    2    0    0  0.00000000000E+00  0.00000000000E+00  0.71054273576E-14  0.91188000000E+02  0.91188000000E+02 0.  0.
    9900012    2    3    3    0    0  0.90912305239E+01 -0.19683645550E+02 -0.37596899232E+02  0.47787271822E+02  0.20000003543E+02 0.  0.
         12    1    3    3    0    0 -0.90912305239E+01  0.19683645550E+02  0.37596899232E+02  0.43400728178E+02  0.00000000000E+00 0. -1.
         11    1    4    4    0    0  0.83039273381E+00  0.13092489596E+01  0.69959640629E+00  0.17009174946E+01  0.51100000000E-03 0. -1.
        -11    1    4    4    0    0  0.65640891596E+01 -0.65693188681E+01 -0.23882940914E+02  0.25624950417E+02  0.51100000000E-03 0.  1.
         12    1    4    4    0    0  0.16967486305E+01 -0.14423575642E+02 -0.14413554724E+02  0.20461403910E+02  0.00000000000E+00 0. -1.
</event>
<event>
 8    1  0.5834107E-011  0.9118800E+02  0.7816164E-02  0.1184000E+00
        -11   -1    0    0    0    0  0.00000000000E+00  0.00000000000E+00  0.45593999997E+02  0.45594000000E+02  0.51100000000E-03 0. -1.
         11   -1    0    0    0    0 -0.00000000000E+00 -0.00000000000E+00 -0.45593999997E+02  0.45594000000E+02  0.51100000000E-03 0.  1.
         23    2    1    2    0    0 -0.17763568394E-14 -0.71054273576E-14 -0.35527136788E-14  0.91188000000E+02  0.91188000000E+02 0.  0.
    9900012    2    3    3    0    0  0.10390004942E+02  0.34567124224E+02  0.24099485040E+02  0.47787268911E+02  0.19999990275E+02 0.  0.
        -12    1    3    3    0    0 -0.10390004942E+02 -0.34567124224E+02 -0.24099485040E+02  0.43400731089E+02  0.00000000000E+00 0.  1.
         11    1    4    4    0    0  0.86822534471E+01  0.10411559637E+02  0.46736323342E+01  0.14339628254E+02  0.51100000000E-03 0. -1.
        -11    1    4    4    0    0  0.52305355693E+01  0.21276142867E+02  0.18770725682E+02  0.28850873479E+02  0.51100000000E-03 0.  1.
        -12    1    4    4    0    0 -0.35227840741E+01  0.28794217208E+01  0.65512702353E+00  0.45967671788E+01  0.00000000000E+00 0.  1.
</event>
<event>
 8    1  0.5834107E-011  0.9118800E+02  0.7816164E-02  0.1184000E+00
        -11   -1    0    0    0    0  0.00000000000E+00  0.00000000000E+00  0.45593999997E+02  0.45594000000E+02  0.51100000000E-03 0. -1.
         11   -1    0    0    0    0 -0.00000000000E+00 -0.00000000000E+00 -0.45593999997E+02  0.45594000000E+02  0.51100000000E-03 0.  1.
         23    2    1    2    0    0  0.00000000000E+00  0.00000000000E+00 -0.35527136788E-14  0.91188000000E+02  0.91188000000E+02 0.  0.
    9900012    2    3    3    0    0 -0.31984510183E+02 -0.11374380318E+02 -0.27041412869E+02  0.47787269255E+02  0.19999991839E+02 0.  0.
         12    1    3    3    0    0  0.31984510183E+02  0.11374380318E+02  0.27041412869E+02  0.43400730745E+02  0.00000000000E+00 0. -1.
         11    1    4    4    0    0  0.21993030311E+01 -0.26011481911E+01 -0.31228716783E+01  0.46211723096E+01  0.51100000000E-03 0. -1.
        -11    1    4    4    0    0 -0.19640346363E+02 -0.15733738996E+01 -0.13350468500E+02  0.23800288236E+02  0.51100000000E-03 0.  1.
        -12    1    4    4    0    0 -0.14543466851E+02 -0.71998582276E+01 -0.10568072691E+02  0.19365808709E+02  0.00000000000E+00 0.  1.
</event>
<event>
 8    1  0.5834107E-011  0.9118800E+02  0.7816164E-02  0.1184000E+00
        -11   -1    0    0    0    0  0.00000000000E+00  0.00000000000E+00  0.45593999997E+02  0.45594000000E+02  0.51100000000E-03 0. -1.
         11   -1    0    0    0    0 -0.00000000000E+00 -0.00000000000E+00 -0.45593999997E+02  0.45594000000E+02  0.51100000000E-03 0.  1.
         23    2    1    2    0    0 -0.35527136788E-14  0.00000000000E+00 -0.71054273576E-14  0.91188000000E+02  0.91188000000E+02 0.  0.
    9900012    2    3    3    0    0 -0.24601012123E+02  0.13745405408E+02 -0.33007227280E+02  0.47787273969E+02  0.20000013336E+02 0.  0.
         12    1    3    3    0    0  0.24601012123E+02 -0.13745405408E+02  0.33007227280E+02  0.43400726031E+02  0.00000000000E+00 0. -1.
         11    1    4    4    0    0 -0.18221986546E+01  0.81329104521E+00 -0.75871771992E+01  0.78451965160E+01  0.51100000000E-03 0. -1.
        -11    1    4    4    0    0 -0.23932541142E+02  0.12099951721E+02 -0.17792578585E+02  0.32183088884E+02  0.51100000000E-03 0.  1.
        -12    1    4    4    0    0  0.11537276733E+01  0.83216264097E+00 -0.76274714957E+01  0.77589885696E+01  0.00000000000E+00 0.  1.
</event>
<event>
 8    1  0.5834107E-011  0.9118800E+02  0.7816164E-02  0.1184000E+00
        -11   -1    0    0    0    0  0.00000000000E+00  0.00000000000E+00  0.45593999997E+02  0.45594000000E+02  0.51100000000E-03 0. -1.
         11   -1    0    0    0    0 -0.00000000000E+00 -0.00000000000E+00 -0.45593999997E+02  0.45594000000E+02  0.51100000000E-03 0.  1.
         23    2    1    2    0    0 -0.35527136788E-14  0.00000000000E+00  0.53290705182E-14  0.91188000000E+02  0.91188000000E+02 0.  0.
    9900012    2    3    3    0    0  0.22513059651E+02 -0.33821980749E+02 -0.15259702931E+02  0.47787276847E+02  0.20000026456E+02 0.  0.
         12    1    3    3    0    0 -0.22513059651E+02  0.33821980749E+02  0.15259702931E+02  0.43400723153E+02  0.00000000000E+00 0. -1.
         11    1    4    4    0    0  0.23187308668E+01 -0.23597187772E+01 -0.54959142833E+01  0.64148156334E+01  0.51100000000E-03 0. -1.
        -11    1    4    4    0    0  0.15295778512E+02 -0.14690008572E+02 -0.10934289412E+02  0.23860341099E+02  0.51100000000E-03 0.  1.
        -12    1    4    4    0    0  0.48985502724E+01 -0.16772253400E+02  0.11705007640E+01  0.17512120115E+02  0.00000000000E+00 0.  1.
</event>
<event>
 8    1  0.5834107E-011  0.9118800E+02  0.7816164E-02  0.1184000E+00
        -11   -1    0    0    0    0  0.00000000000E+00  0.00000000000E+00  0.45593999997E+02  0.45594000000E+02  0.51100000000E-03 0. -1.
         11   -1    0    0    0    0 -0.00000000000E+00 -0.00000000000E+00 -0.45593999997E+02  0.45594000000E+02  0.51100000000E-03 0.  1.
         23    2    1    2    0    0  0.00000000000E+00  0.00000000000E+00  0.00000000000E+00  0.91188000000E+02  0.91188000000E+02 0.  0.
    9900012    2    3    3    0    0 -0.19405961129E+02  0.30616330329E+02 -0.23867814922E+02  0.47787267296E+02  0.19999982907E+02 0.  0.
         12    1    3    3    0    0  0.19405961129E+02 -0.30616330329E+02  0.23867814922E+02  0.43400732704E+02  0.00000000000E+00 0. -1.
         11    1    4    4    0    0 -0.83721463718E+01  0.63189348104E+01 -0.10524483952E+02  0.14858887399E+02  0.51100000000E-03 0. -1.
        -11    1    4    4    0    0  0.19247594174E+01  0.11241538286E+02 -0.74063314887E+01  0.13598920113E+02  0.51100000000E-03 0.  1.
        -12    1    4    4    0    0 -0.12958574175E+02  0.13055857233E+02 -0.59369994810E+01  0.19329459784E+02  0.00000000000E+00 0.  1.
</event>
<event>
 8    1  0.5834107E-011  0.9118800E+02  0.7816164E-02  0.1184000E+00
        -11   -1    0    0    0    0  0.00000000000E+00  0.00000000000E+00  0.45593999997E+02  0.45594000000E+02  0.51100000000E-03 0. -1.
         11   -1    0    0    0    0 -0.00000000000E+00 -0.00000000000E+00 -0.45593999997E+02  0.45594000000E+02  0.51100000000E-03 0.  1.
         23    2    1    2    0    0  0.88817841970E-15  0.00000000000E+00  0.00000000000E+00  0.91188000000E+02  0.91188000000E+02 0.  0.
    9900012    2    3    3    0    0  0.61233952388E+01  0.28244102961E+02 -0.32378973830E+02  0.47787271117E+02  0.20000000329E+02 0.  0.
         12    1    3    3    0    0 -0.61233952388E+01 -0.28244102961E+02  0.32378973830E+02  0.43400728883E+02  0.00000000000E+00 0. -1.
         11    1    4    4    0    0  0.53830874384E+01  0.16355769922E+02 -0.74108973220E+01  0.18745939280E+02  0.51100000000E-03 0. -1.
        -11    1    4    4    0    0  0.27789744141E+00  0.12380744613E+02 -0.16934735154E+02  0.20979640587E+02  0.51100000000E-03 0.  1.
         12    1    4    4    0    0  0.46241035897E+00 -0.49241157370E+00 -0.80333413542E+01  0.80616912500E+01  0.00000000000E+00 0. -1.
</event>
<event>
 8    1  0.5834107E-011  0.9118800E+02  0.7816164E-02  0.1184000E+00
        -11   -1    0    0    0    0  0.00000000000E+00  0.00000000000E+00  0.45593999997E+02  0.45594000000E+02  0.51100000000E-03 0. -1.
         11   -1    0    0    0    0 -0.00000000000E+00 -0.00000000000E+00 -0.45593999997E+02  0.45594000000E+02  0.51100000000E-03 0.  1.
         23    2    1    2    0    0 -0.35527136788E-14  0.00000000000E+00  0.35527136788E-14  0.91188000000E+02  0.91188000000E+02 0.  0.
    9900012    2    3    3    0    0 -0.23771450062E+02 -0.24145819076E+02  0.27120484447E+02  0.47787273122E+02  0.20000009472E+02 0.  0.
        -12    1    3    3    0    0  0.23771450062E+02  0.24145819076E+02 -0.27120484447E+02  0.43400726878E+02  0.00000000000E+00 0.  1.
         11    1    4    4    0    0 -0.19396121628E+02 -0.90019036475E+01  0.14633468641E+02  0.25911044136E+02  0.51100000000E-03 0. -1.
        -11    1    4    4    0    0  0.14840181815E+01 -0.19602985329E+01  0.51140216268E+01  0.56743543916E+01  0.51100000000E-03 0.  1.
        -12    1    4    4    0    0 -0.58593466155E+01 -0.13183616895E+02  0.73729941795E+01  0.16201874594E+02  0.00000000000E+00 0.  1.
</event>
<event>
 8    1  0.5834107E-011  0.9118800E+02  0.7816164E-02  0.1184000E+00
        -11   -1    0    0    0    0  0.00000000000E+00  0.00000000000E+00  0.45593999997E+02  0.45594000000E+02  0.51100000000E-03 0. -1.
         11   -1    0    0    0    0 -0.00000000000E+00 -0.00000000000E+00 -0.45593999997E+02  0.45594000000E+02  0.51100000000E-03 0.  1.
         23    2    1    2    0    0  0.35527136788E-14  0.44408920985E-15  0.00000000000E+00  0.91188000000E+02  0.91188000000E+02 0.  0.
    9900012    2    3    3    0    0  0.20414968864E+02 -0.26582572059E+01  0.38207168361E+02  0.47787251167E+02  0.19999909371E+02 0.  0.
        -12    1    3    3    0    0 -0.20414968864E+02  0.26582572059E+01 -0.38207168361E+02  0.43400748833E+02  0.00000000000E+00 0.  1.
         11    1    4    4    0    0  0.12976745614E+02 -0.12994801522E+01  0.23795254292E+02  0.27134824534E+02  0.51100000000E-03 0. -1.
        -11    1    4    4    0    0  0.47615783192E+01 -0.67814515358E+01  0.57395705107E+01  0.10079850343E+02  0.51100000000E-03 0.  1.
        -12    1    4    4    0    0  0.26766449303E+01  0.54226744821E+01  0.86723435585E+01  0.10572576291E+02  0.00000000000E+00 0.  1.
</event>
<event>
 8    1  0.5834107E-011  0.9118800E+02  0.7816164E-02  0.1184000E+00
        -11   -1    0    0    0    0  0.00000000000E+00  0.00000000000E+00  0.45593999997E+02  0.45594000000E+02  0.51100000000E-03 0.  1.
         11   -1    0    0    0    0 -0.00000000000E+00 -0.00000000000E+00 -0.45593999997E+02  0.45594000000E+02  0.51100000000E-03 0. -1.
         23    2    1    2    0    0 -0.71054273576E-14  0.00000000000E+00  0.33306690739E-15  0.91188000000E+02  0.91188000000E+02 0.  0.
    9900012    2    3    3    0    0  0.41472175199E+02 -0.12777465189E+02 -0.64680299318E+00  0.47787270899E+02  0.19999999337E+02 0.  0.
         12    1    3    3    0    0 -0.41472175199E+02  0.12777465189E+02  0.64680299318E+00  0.43400729101E+02  0.00000000000E+00 0. -1.
         11    1    4    4    0    0  0.12599069951E+02 -0.24716946554E+01  0.62552725215E+01  0.14281956193E+02  0.51100000000E-03 0. -1.
        -11    1    4    4    0    0  0.28158102831E+02 -0.10255482485E+02 -0.36661594249E+01  0.30190965557E+02  0.51100000000E-03 0.  1.
         12    1    4    4    0    0  0.71500241598E+00 -0.50288048619E-01 -0.32359160898E+01  0.33143491492E+01  0.00000000000E+00 0. -1.
</event>
<event>
 8    1  0.5834107E-011  0.9118800E+02  0.7816164E-02  0.1184000E+00
        -11   -1    0    0    0    0  0.00000000000E+00  0.00000000000E+00  0.45593999997E+02  0.45594000000E+02  0.51100000000E-03 0. -1.
         11   -1    0    0    0    0 -0.00000000000E+00 -0.00000000000E+00 -0.45593999997E+02  0.45594000000E+02  0.51100000000E-03 0.  1.
         23    2    1    2    0    0  0.17763568394E-14  0.00000000000E+00  0.00000000000E+00  0.91188000000E+02  0.91188000000E+02 0.  0.
    9900012    2    3    3    0    0 -0.12571511870E+02 -0.10256697566E+02  0.40253962961E+02  0.47787259341E+02  0.19999946638E+02 0.  0.
        -12    1    3    3    0    0  0.12571511870E+02  0.10256697566E+02 -0.40253962961E+02  0.43400740659E+02  0.00000000000E+00 0.  1.
         11    1    4    4    0    0 -0.18415171982E+01 -0.12190955749E+02  0.12066078885E+02  0.17251111488E+02  0.51100000000E-03 0. -1.
        -11    1    4    4    0    0 -0.13562032787E+01  0.18876634503E+01  0.45996214265E+01  0.51535500544E+01  0.51100000000E-03 0.  1.
         12    1    4    4    0    0 -0.93737913934E+01  0.46594732001E-01  0.23588262650E+02  0.25382597798E+02  0.00000000000E+00 0. -1.
</event>
<event>
 8    1  0.5834107E-011  0.9118800E+02  0.7816164E-02  0.1184000E+00
        -11   -1    0    0    0    0  0.00000000000E+00  0.00000000000E+00  0.45593999997E+02  0.45594000000E+02  0.51100000000E-03 0. -1.
         11   -1    0    0    0    0 -0.00000000000E+00 -0.00000000000E+00 -0.45593999997E+02  0.45594000000E+02  0.51100000000E-03 0.  1.
         23    2    1    2    0    0  0.44408920985E-15  0.35527136788E-14  0.00000000000E+00  0.91188000000E+02  0.91188000000E+02 0.  0.
    9900012    2    3    3    0    0  0.38774725758E+01 -0.16914873321E+02  0.39780341940E+02  0.47787270306E+02  0.19999996635E+02 0.  0.
        -12    1    3    3    0    0 -0.38774725758E+01  0.16914873321E+02 -0.39780341940E+02  0.43400729694E+02  0.00000000000E+00 0.  1.
         11    1    4    4    0    0  0.45389333840E+01 -0.12022849032E+01  0.14549504827E+02  0.15288410520E+02  0.51100000000E-03 0. -1.
        -11    1    4    4    0    0  0.25523632970E+01 -0.11302282364E+02  0.71567676476E+01  0.13618937861E+02  0.51100000000E-03 0.  1.
         12    1    4    4    0    0 -0.32138241053E+01 -0.44103060544E+01  0.18074069465E+02  0.18879921926E+02  0.00000000000E+00 0. -1.
</event>
<event>
 8    1  0.5834107E-011  0.9118800E+02  0.7816164E-02  0.1184000E+00
        -11   -1    0    0    0    0  0.00000000000E+00  0.00000000000E+00  0.45593999997E+02  0.45594000000E+02  0.51100000000E-03 0. -1.
         11   -1    0    0    0    0 -0.00000000000E+00 -0.00000000000E+00 -0.45593999997E+02  0.45594000000E+02  0.51100000000E-03 0.  1.
         23    2    1    2    0    0 -0.71054273576E-14  0.00000000000E+00 -0.17763568394E-14  0.91188000000E+02  0.91188000000E+02 0.  0.
    9900012    2    3    3    0    0 -0.37638981849E+02 -0.17804112209E+02 -0.12245162941E+02  0.47787269803E+02  0.19999994341E+02 0.  0.
         12    1    3    3    0    0  0.37638981849E+02  0.17804112209E+02  0.12245162941E+02  0.43400730197E+02  0.00000000000E+00 0. -1.
         11    1    4    4    0    0 -0.93641681219E+01 -0.94305101304E+01  0.21829322790E+01  0.13468012457E+02  0.51100000000E-03 0. -1.
        -11    1    4    4    0    0 -0.20497451696E+02 -0.61846576421E+01 -0.51586910682E+01  0.22022888320E+02  0.51100000000E-03 0.  1.
        -12    1    4    4    0    0 -0.77773620316E+01 -0.21889444363E+01 -0.92694041513E+01  0.12296369026E+02  0.00000000000E+00 0.  1.
</event>
<event>
 8    1  0.5834107E-011  0.9118800E+02  0.7816164E-02  0.1184000E+00
        -11   -1    0    0    0    0  0.00000000000E+00  0.00000000000E+00  0.45593999997E+02  0.45594000000E+02  0.51100000000E-03 0. -1.
         11   -1    0    0    0    0 -0.00000000000E+00 -0.00000000000E+00 -0.45593999997E+02  0.45594000000E+02  0.51100000000E-03 0.  1.
         23    2    1    2    0    0  0.35527136788E-14  0.88817841970E-15  0.71054273576E-14  0.91188000000E+02  0.91188000000E+02 0.  0.
    9900012    2    3    3    0    0 -0.18878246139E+02 -0.76767666849E+01 -0.38318429719E+02  0.47787274429E+02  0.20000015430E+02 0.  0.
         12    1    3    3    0    0  0.18878246139E+02  0.76767666849E+01  0.38318429719E+02  0.43400725571E+02  0.00000000000E+00 0. -1.
         11    1    4    4    0    0  0.14135436261E+01  0.14237908371E+01  0.29025115861E+00  0.20271980483E+01  0.51100000000E-03 0. -1.
        -11    1    4    4    0    0 -0.19034357526E+00  0.16123998321E+01 -0.41206580369E+01  0.44289825935E+01  0.51100000000E-03 0.  1.
        -12    1    4    4    0    0 -0.20101446189E+02 -0.10712957354E+02 -0.34488022841E+02  0.41331093787E+02  0.00000000000E+00 0.  1.
</event>
<event>
 8    1  0.1016037E-010  0.9118800E+02  0.7816164E-02  0.1184000E+00
        -11   -1    0    0    0    0  0.00000000000E+00  0.00000000000E+00  0.45593999997E+02  0.45594000000E+02  0.51100000000E-03 0. -1.
         11   -1    0    0    0    0 -0.00000000000E+00 -0.00000000000E+00 -0.45593999997E+02  0.45594000000E+02  0.51100000000E-03 0.  1.
         23    2    1    2    0    0  0.00000000000E+00 -0.88817841970E-15  0.00000000000E+00  0.91188000000E+02  0.91188000000E+02 0.  0.
    9900012    2    3    3    0    0 -0.19761090131E+01  0.43745033965E+01 -0.43134464733E+02  0.47787270345E+02  0.19999996812E+02 0.  0.
         12    1    3    3    0    0  0.19761090131E+01 -0.43745033965E+01  0.43134464733E+02  0.43400729655E+02  0.00000000000E+00 0. -1.
         11    1    4    4    0    0  0.49173732125E+01  0.39319561299E+01 -0.15115790772E+02  0.16374613560E+02  0.51100000000E-03 0.  1.
        -11    1    4    4    0    0 -0.56533284058E+01  0.48504595119E+00 -0.29171920062E+02  0.29718618945E+02  0.51100000000E-03 0. -1.
         12    1    4    4    0    0 -0.12401538198E+01 -0.42498684533E-01  0.11532461011E+01  0.16940378404E+01  0.00000000000E+00 0. -1.
</event>
<event>
 8    1  0.5834107E-011  0.9118800E+02  0.7816164E-02  0.1184000E+00
        -11   -1    0    0    0    0  0.00000000000E+00  0.00000000000E+00  0.45593999997E+02  0.45594000000E+02  0.51100000000E-03 0. -1.
         11   -1    0    0    0    0 -0.00000000000E+00 -0.00000000000E+00 -0.45593999997E+02  0.45594000000E+02  0.51100000000E-03 0.  1.
         23    2    1    2    0    0  0.00000000000E+00  0.00000000000E+00  0.17763568394E-14  0.91188000000E+02  0.91188000000E+02 0.  0.
    9900012    2    3    3    0    0  0.10354350145E+02 -0.40099196314E+02 -0.12979410648E+02  0.47787271749E+02  0.20000003212E+02 0.  0.
         12    1    3    3    0    0 -0.10354350145E+02  0.40099196314E+02  0.12979410648E+02  0.43400728251E+02  0.00000000000E+00 0. -1.
         11    1    4    4    0    0  0.89696020890E+01 -0.18649449555E+02 -0.15267761893E+02  0.25716926018E+02  0.51100000000E-03 0.  1.
        -11    1    4    4    0    0 -0.12376870350E+01 -0.29794890477E+01  0.96690637847E+00  0.33681051629E+01  0.51100000000E-03 0. -1.
        -12    1    4    4    0    0  0.26224350910E+01 -0.18470257712E+02  0.13214448666E+01  0.18702240568E+02  0.00000000000E+00 0.  1.
</event>
<event>
 8    1  0.5834107E-011  0.9118800E+02  0.7816164E-02  0.1184000E+00
        -11   -1    0    0    0    0  0.00000000000E+00  0.00000000000E+00  0.45593999997E+02  0.45594000000E+02  0.51100000000E-03 0. -1.
         11   -1    0    0    0    0 -0.00000000000E+00 -0.00000000000E+00 -0.45593999997E+02  0.45594000000E+02  0.51100000000E-03 0.  1.
         23    2    1    2    0    0  0.00000000000E+00  0.00000000000E+00  0.17763568394E-14  0.91188000000E+02  0.91188000000E+02 0.  0.
    9900012    2    3    3    0    0  0.21944494392E+02 -0.35508172266E+02  0.11884137808E+02  0.47787264255E+02  0.19999969043E+02 0.  0.
        -12    1    3    3    0    0 -0.21944494392E+02  0.35508172266E+02 -0.11884137808E+02  0.43400735745E+02  0.00000000000E+00 0.  1.
         11    1    4    4    0    0  0.84411413388E+01 -0.22239175527E+02  0.43148328463E+01  0.24175433356E+02  0.51100000000E-03 0. -1.
        -11    1    4    4    0    0  0.20823947970E+01 -0.61951598812E+01  0.77992282360E+01  0.10175673707E+02  0.51100000000E-03 0.  1.
        -12    1    4    4    0    0  0.11420958256E+02 -0.70738368583E+01 -0.22992327419E+00  0.13436157192E+02  0.00000000000E+00 0.  1.
</event>
<event>
 8    1  0.5834107E-011  0.9118800E+02  0.7816164E-02  0.1184000E+00
        -11   -1    0    0    0    0  0.00000000000E+00  0.00000000000E+00  0.45593999997E+02  0.45594000000E+02  0.51100000000E-03 0. -1.
         11   -1    0    0    0    0 -0.00000000000E+00 -0.00000000000E+00 -0.45593999997E+02  0.45594000000E+02  0.51100000000E-03 0.  1.
         23    2    1    2    0    0  0.00000000000E+00  0.00000000000E+00  0.00000000000E+00  0.91188000000E+02  0.91188000000E+02 0.  0.
    9900012    2    3    3    0    0 -0.27247383836E+02 -0.17357784154E+02 -0.28981220497E+02  0.47787265696E+02  0.19999975615E+02 0.  0.
         12    1    3    3    0    0  0.27247383836E+02  0.17357784154E+02  0.28981220497E+02  0.43400734304E+02  0.00000000000E+00 0. -1.
         11    1    4    4    0    0  0.98712112260E+00  0.39337639798E+00  0.37372827832E+00  0.11264218518E+01  0.51100000000E-03 0. -1.
        -11    1    4    4    0    0 -0.21615687816E+02 -0.77810169822E+01 -0.24931759074E+02  0.33902430530E+02  0.51100000000E-03 0.  1.
        -12    1    4    4    0    0 -0.66188171424E+01 -0.99701435697E+01 -0.44231897006E+01  0.12758413314E+02  0.00000000000E+00 0.  1.
</event>
<event>
 8    1  0.5834107E-011  0.9118800E+02  0.7816164E-02  0.1184000E+00
        -11   -1    0    0    0    0  0.00000000000E+00  0.00000000000E+00  0.45593999997E+02  0.45594000000E+02  0.51100000000E-03 0. -1.
         11   -1    0    0    0    0 -0.00000000000E+00 -0.00000000000E+00 -0.45593999997E+02  0.45594000000E+02  0.51100000000E-03 0.  1.
         23    2    1    2    0    0  0.10658141036E-13  0.00000000000E+00  0.00000000000E+00  0.91188000000E+02  0.91188000000E+02 0.  0.
    9900012    2    3    3    0    0 -0.31971982556E+02 -0.10854881008E+02 -0.27268790059E+02  0.47787273952E+02  0.20000013255E+02 0.  0.
         12    1    3    3    0    0  0.31971982556E+02  0.10854881008E+02  0.27268790059E+02  0.43400726048E+02  0.00000000000E+00 0. -1.
         11    1    4    4    0    0 -0.14366186151E+02  0.12301809476E+01 -0.14815453316E+02  0.20673613784E+02  0.51100000000E-03 0. -1.
        -11    1    4    4    0    0 -0.18910970801E+02 -0.10260539042E+02 -0.12475033447E+02  0.24870262118E+02  0.51100000000E-03 0.  1.
         12    1    4    4    0    0  0.13051743948E+01 -0.18245229127E+01  0.21696704501E-01  0.22433980491E+01  0.00000000000E+00 0. -1.
</event>
<event>
 8    1  0.5834107E-011  0.9118800E+02  0.7816164E-02  0.1184000E+00
        -11   -1    0    0    0    0  0.00000000000E+00  0.00000000000E+00  0.45593999997E+02  0.45594000000E+02  0.51100000000E-03 0. -1.
         11   -1    0    0    0    0 -0.00000000000E+00 -0.00000000000E+00 -0.45593999997E+02  0.45594000000E+02  0.51100000000E-03 0.  1.
         23    2    1    2    0    0  0.00000000000E+00  0.00000000000E+00  0.00000000000E+00  0.91188000000E+02  0.91188000000E+02 0.  0.
    9900012    2    3    3    0    0 -0.12457916385E+02 -0.17041743616E+02  0.37921001552E+02  0.47787273453E+02  0.20000010981E+02 0.  0.
        -12    1    3    3    0    0  0.12457916385E+02  0.17041743616E+02 -0.37921001552E+02  0.43400726547E+02  0.00000000000E+00 0.  1.
         11    1    4    4    0    0 -0.78607560144E+01 -0.75560213252E+01  0.18303456003E+02  0.21304962926E+02  0.51100000000E-03 0. -1.
        -11    1    4    4    0    0 -0.48942427568E+01 -0.12866617183E+02  0.18161820595E+02  0.22789365447E+02  0.51100000000E-03 0.  1.
        -12    1    4    4    0    0  0.29708238649E+00  0.33808948924E+01  0.14557249544E+01  0.36929450795E+01  0.00000000000E+00 0.  1.
</event>
<event>
 8    1  0.5834107E-011  0.9118800E+02  0.7816164E-02  0.1184000E+00
        -11   -1    0    0    0    0  0.00000000000E+00  0.00000000000E+00  0.45593999997E+02  0.45594000000E+02  0.51100000000E-03 0.  1.
         11   -1    0    0    0    0 -0.00000000000E+00 -0.00000000000E+00 -0.45593999997E+02  0.45594000000E+02  0.51100000000E-03 0. -1.
         23    2    1    2    0    0  0.00000000000E+00  0.00000000000E+00  0.17763568394E-14  0.91188000000E+02  0.91188000000E+02 0.  0.
    9900012    2    3    3    0    0  0.41183937671E+02  0.10378414339E+02 -0.89327678102E+01  0.47787279418E+02  0.20000038180E+02 0.  0.
         12    1    3    3    0    0 -0.41183937671E+02 -0.10378414339E+02  0.89327678102E+01  0.43400720582E+02  0.00000000000E+00 0. -1.
         11    1    4    4    0    0  0.22317236766E+02  0.86643198882E+01 -0.12775929028E+02  0.27135840853E+02  0.51100000000E-03 0. -1.
        -11    1    4    4    0    0  0.13832326697E+02  0.41389601281E+01  0.12534940931E+01  0.14492601578E+02  0.51100000000E-03 0.  1.
         12    1    4    4    0    0  0.50343742079E+01 -0.24248656775E+01  0.25896671251E+01  0.61588369874E+01  0.00000000000E+00 0. -1.
</event>
<event>
 8    1  0.5834107E-011  0.9118800E+02  0.7816164E-02  0.1184000E+00
        -11   -1    0    0    0    0  0.00000000000E+00  0.00000000000E+00  0.45593999997E+02  0.45594000000E+02  0.51100000000E-03 0.  1.
         11   -1    0    0    0    0 -0.00000000000E+00 -0.00000000000E+00 -0.45593999997E+02  0.45594000000E+02  0.51100000000E-03 0. -1.
         23    2    1    2    0    0 -0.35527136788E-14 -0.71054273576E-14  0.66613381478E-15  0.91188000000E+02  0.91188000000E+02 0.  0.
    9900012    2    3    3    0    0  0.25767199461E+02  0.34919691490E+02  0.53901640573E+00  0.47787263134E+02  0.19999963931E+02 0.  0.
        -12    1    3    3    0    0 -0.25767199461E+02 -0.34919691490E+02 -0.53901640573E+00  0.43400736866E+02  0.00000000000E+00 0.  1.
         11    1    4    4    0    0  0.14274584121E+02  0.22332914746E+02 -0.23571277671E+01  0.26609751680E+02  0.51100000000E-03 0. -1.
        -11    1    4    4    0    0  0.65486587985E+01  0.94283896209E+01 -0.39697433051E+01  0.12146535517E+02  0.51100000000E-03 0.  1.
         12    1    4    4    0    0  0.49439565417E+01  0.31583871237E+01  0.68658874779E+01  0.90309759367E+01  0.00000000000E+00 0. -1.
</event>
<event>
 8    1  0.5834107E-011  0.9118800E+02  0.7816164E-02  0.1184000E+00
        -11   -1    0    0    0    0  0.00000000000E+00  0.00000000000E+00  0.45593999997E+02  0.45594000000E+02  0.51100000000E-03 0. -1.
         11   -1    0    0    0    0 -0.00000000000E+00 -0.00000000000E+00 -0.45593999997E+02  0.45594000000E+02  0.51100000000E-03 0.  1.
         23    2    1    2    0    0  0.00000000000E+00  0.00000000000E+00  0.71054273576E-14  0.91188000000E+02  0.91188000000E+02 0.  0.
    9900012    2    3    3    0    0 -0.81436848365E+01  0.25551172818E+02 -0.34123908550E+02  0.47787272244E+02  0.20000005467E+02 0.  0.
         12    1    3    3    0    0  0.81436848365E+01 -0.25551172818E+02  0.34123908550E+02  0.43400727756E+02  0.00000000000E+00 0. -1.
         11    1    4    4    0    0  0.31850373492E+01  0.28677171186E+01 -0.16105096648E+02  0.16665605381E+02  0.51100000000E-03 0. -1.
        -11    1    4    4    0    0 -0.62483880344E+01  0.11400860461E+02 -0.91533081595E+01  0.15899843484E+02  0.51100000000E-03 0.  1.
         12    1    4    4    0    0 -0.50803341513E+01  0.11282595238E+02 -0.88655037418E+01  0.15221823379E+02  0.00000000000E+00 0. -1.
</event>
<event>
 8    1  0.5834107E-011  0.9118800E+02  0.7816164E-02  0.1184000E+00
        -11   -1    0    0    0    0  0.00000000000E+00  0.00000000000E+00  0.45593999997E+02  0.45594000000E+02  0.51100000000E-03 0. -1.
         11   -1    0    0    0    0 -0.00000000000E+00 -0.00000000000E+00 -0.45593999997E+02  0.45594000000E+02  0.51100000000E-03 0.  1.
         23    2    1    2    0    0  0.00000000000E+00  0.88817841970E-15  0.00000000000E+00  0.91188000000E+02  0.91188000000E+02 0.  0.
    9900012    2    3    3    0    0 -0.21019354324E+02 -0.40364315644E+01  0.37756017775E+02  0.47787275188E+02  0.20000018894E+02 0.  0.
        -12    1    3    3    0    0  0.21019354324E+02  0.40364315644E+01 -0.37756017775E+02  0.43400724812E+02  0.00000000000E+00 0.  1.
         11    1    4    4    0    0 -0.70604797986E+01  0.62089081603E-02  0.57769404705E+01  0.91226890223E+01  0.51100000000E-03 0. -1.
        -11    1    4    4    0    0 -0.85384566457E+01 -0.70606756025E+01  0.74217046577E+01  0.13335669542E+02  0.51100000000E-03 0.  1.
         12    1    4    4    0    0 -0.54204178796E+01  0.30180351300E+01  0.24557372647E+02  0.25328916624E+02  0.00000000000E+00 0. -1.
</event>
<event>
 8    1  0.5834107E-011  0.9118800E+02  0.7816164E-02  0.1184000E+00
        -11   -1    0    0    0    0  0.00000000000E+00  0.00000000000E+00  0.45593999997E+02  0.45594000000E+02  0.51100000000E-03 0. -1.
         11   -1    0    0    0    0 -0.00000000000E+00 -0.00000000000E+00 -0.45593999997E+02  0.45594000000E+02  0.51100000000E-03 0.  1.
         23    2    1    2    0    0  0.00000000000E+00  0.00000000000E+00  0.00000000000E+00  0.91188000000E+02  0.91188000000E+02 0.  0.
    9900012    2    3    3    0    0  0.25456307936E+01  0.15221154501E+02 -0.40564262289E+02  0.47787272408E+02  0.20000006215E+02 0.  0.
         12    1    3    3    0    0 -0.25456307936E+01 -0.15221154501E+02  0.40564262289E+02  0.43400727592E+02  0.00000000000E+00 0. -1.
         11    1    4    4    0    0  0.12415730036E+00  0.23346586474E+00 -0.11116601390E+02  0.11119745863E+02  0.51100000000E-03 0. -1.
        -11    1    4    4    0    0  0.45062132666E+01  0.17787932253E+02 -0.25080973638E+02  0.31076868097E+02  0.51100000000E-03 0.  1.
         12    1    4    4    0    0 -0.20847397733E+01 -0.28002436164E+01 -0.43666872612E+01  0.55906584470E+01  0.00000000000E+00 0. -1.
</event>
<event>
 8    1  0.5834107E-011  0.9118800E+02  0.7816164E-02  0.1184000E+00
        -11   -1    0    0    0    0  0.00000000000E+00  0.00000000000E+00  0.45593999997E+02  0.45594000000E+02  0.51100000000E-03 0. -1.
         11   -1    0    0    0    0 -0.00000000000E+00 -0.00000000000E+00 -0.45593999997E+02  0.45594000000E+02  0.51100000000E-03 0.  1.
         23    2    1    2    0    0  0.00000000000E+00 -0.17763568394E-14  0.00000000000E+00  0.91188000000E+02  0.91188000000E+02 0.  0.
    9900012    2    3    3    0    0 -0.18464834112E+02 -0.10814794715E+02 -0.37758620940E+02  0.47787270296E+02  0.19999996589E+02 0.  0.
         12    1    3    3    0    0  0.18464834112E+02  0.10814794715E+02  0.37758620940E+02  0.43400729704E+02  0.00000000000E+00 0. -1.
         11    1    4    4    0    0 -0.77031011416E+01 -0.40975476251E+01 -0.36700762714E+01  0.94655757266E+01  0.51100000000E-03 0. -1.
        -11    1    4    4    0    0 -0.13156728770E+02 -0.39719759076E+01 -0.24968501830E+02  0.28500915572E+02  0.51100000000E-03 0.  1.
        -12    1    4    4    0    0  0.23949957994E+01 -0.27452711818E+01 -0.91200428386E+01  0.98207789975E+01  0.00000000000E+00 0.  1.
</event>
<event>
 8    1  0.5834107E-011  0.9118800E+02  0.7816164E-02  0.1184000E+00
        -11   -1    0    0    0    0  0.00000000000E+00  0.00000000000E+00  0.45593999997E+02  0.45594000000E+02  0.51100000000E-03 0. -1.
         11   -1    0    0    0    0 -0.00000000000E+00 -0.00000000000E+00 -0.45593999997E+02  0.45594000000E+02  0.51100000000E-03 0.  1.
         23    2    1    2    0    0 -0.17763568394E-14  0.00000000000E+00  0.00000000000E+00  0.91188000000E+02  0.91188000000E+02 0.  0.
    9900012    2    3    3    0    0  0.13154364999E+02 -0.49182152883E+01  0.41065743089E+02  0.47787292453E+02  0.20000097609E+02 0.  0.
        -12    1    3    3    0    0 -0.13154364999E+02  0.49182152883E+01 -0.41065743089E+02  0.43400707547E+02  0.00000000000E+00 0.  1.
         11    1    4    4    0    0  0.99808951914E+01 -0.11004559722E+01  0.31994558583E+02  0.33533282741E+02  0.51100000000E-03 0. -1.
        -11    1    4    4    0    0  0.37729503858E+01  0.22237182443E+01  0.16839334112E+01  0.46920900927E+01  0.51100000000E-03 0.  1.
        -12    1    4    4    0    0 -0.59948057803E+00 -0.60414775604E+01  0.73872510944E+01  0.95619196194E+01  0.00000000000E+00 0.  1.
</event>
<event>
 8    1  0.8668852E-011  0.9118800E+02  0.7816164E-02  0.1184000E+00
        -11   -1    0    0    0    0  0.00000000000E+00  0.00000000000E+00  0.45593999997E+02  0.45594000000E+02  0.51100000000E-03 0. -1.
         11   -1    0    0    0    0 -0.00000000000E+00 -0.00000000000E+00 -0.45593999997E+02  0.45594000000E+02  0.51100000000E-03 0.  1.
         23    2    1    2    0    0 -0.71054273576E-14  0.88817841970E-15  0.00000000000E+00  0.91188000000E+02  0.91188000000E+02 0.  0.
    9900012    2    3    3    0    0  0.26292828876E+02 -0.51193755963E+01 -0.34148230491E+02  0.47787279931E+02  0.20000040519E+02 0.  0.
         12    1    3    3    0    0 -0.26292828876E+02  0.51193755963E+01  0.34148230491E+02  0.43400720069E+02  0.00000000000E+00 0. -1.
         11    1    4    4    0    0 -0.62361996833E+00  0.11221253247E+01 -0.91929345973E+01  0.92821395098E+01  0.51100000000E-03 0. -1.
        -11    1    4    4    0    0  0.13598861458E+02 -0.51012021682E+01 -0.18886963342E+02  0.23825798644E+02  0.51100000000E-03 0.  1.
         12    1    4    4    0    0  0.13317587387E+02 -0.11402987528E+01 -0.60683325520E+01  0.14679341777E+02  0.00000000000E+00 0. -1.
</event>
<event>
 8    1  0.5834107E-011  0.9118800E+02  0.7816164E-02  0.1184000E+00
        -11   -1    0    0    0    0  0.00000000000E+00  0.00000000000E+00  0.45593999997E+02  0.45594000000E+02  0.51100000000E-03 0. -1.
         11   -1    0    0    0    0 -0.00000000000E+00 -0.00000000000E+00 -0.45593999997E+02  0.45594000000E+02  0.51100000000E-03 0.  1.
         23    2    1    2    0    0 -0.44408920985E-15  0.22204460493E-15 -0.71054273576E-14  0.91188000000E+02  0.91188000000E+02 0.  0.
    9900012    2    3    3    0    0 -0.38322264319E+01  0.12120783686E+01 -0.43214212995E+02  0.47787270765E+02  0.19999998726E+02 0.  0.
         12    1    3    3    0    0  0.38322264319E+01 -0.12120783686E+01  0.43214212995E+02  0.43400729235E+02  0.00000000000E+00 0. -1.
         11    1    4    4    0    0  0.36980596167E+01 -0.17248501076E+01 -0.16092506638E+02  0.16601792764E+02  0.51100000000E-03 0.  1.
        -11    1    4    4    0    0 -0.38505699423E+01  0.65851195049E+01 -0.68183921437E+01  0.10231381112E+02  0.51100000000E-03 0. -1.
        -12    1    4    4    0    0 -0.36797161063E+01 -0.36481910286E+01 -0.20303314213E+02  0.20954096889E+02  0.00000000000E+00 0.  1.
</event>
<event>
 8    1  0.5834107E-011  0.9118800E+02  0.7816164E-02  0.1184000E+00
        -11   -1    0    0    0    0  0.00000000000E+00  0.00000000000E+00  0.45593999997E+02  0.45594000000E+02  0.51100000000E-03 0. -1.
         11   -1    0    0    0    0 -0.00000000000E+00 -0.00000000000E+00 -0.45593999997E+02  0.45594000000E+02  0.51100000000E-03 0.  1.
         23    2    1    2    0    0 -0.66613381478E-15  0.00000000000E+00 -0.35527136788E-14  0.91188000000E+02  0.91188000000E+02 0.  0.
    9900012    2    3    3    0    0  0.70539168625E+00  0.35136246505E+02  0.25467038232E+02  0.47787269220E+02  0.19999991683E+02 0.  0.
        -12    1    3    3    0    0 -0.70539168625E+00 -0.35136246505E+02 -0.25467038232E+02  0.43400730780E+02  0.00000000000E+00 0.  1.
         11    1    4    4    0    0 -0.59745951002E+01  0.18267347682E+02  0.11512439344E+02  0.22403750531E+02  0.51100000000E-03 0. -1.
        -11    1    4    4    0    0  0.66083055539E+00 -0.14739400919E+01  0.94316588667E-01  0.16180520070E+01  0.51100000000E-03 0.  1.
         12    1    4    4    0    0  0.60191562311E+01  0.18342838915E+02  0.13860282299E+02  0.23765466682E+02  0.00000000000E+00 0. -1.
</event>
<event>
 8    1  0.5834107E-011  0.9118800E+02  0.7816164E-02  0.1184000E+00
        -11   -1    0    0    0    0  0.00000000000E+00  0.00000000000E+00  0.45593999997E+02  0.45594000000E+02  0.51100000000E-03 0. -1.
         11   -1    0    0    0    0 -0.00000000000E+00 -0.00000000000E+00 -0.45593999997E+02  0.45594000000E+02  0.51100000000E-03 0.  1.
         23    2    1    2    0    0  0.35527136788E-14  0.00000000000E+00 -0.71054273576E-14  0.91188000000E+02  0.91188000000E+02 0.  0.
    9900012    2    3    3    0    0  0.20969356044E+02 -0.88088270440E+01  0.36963727908E+02  0.47787233790E+02  0.19999830140E+02 0.  0.
        -12    1    3    3    0    0 -0.20969356044E+02  0.88088270440E+01 -0.36963727908E+02  0.43400766210E+02  0.00000000000E+00 0.  1.
         11    1    4    4    0    0  0.15241385427E+02 -0.97725373012E+01  0.34259323078E+02  0.38749239129E+02  0.51100000000E-03 0. -1.
        -11    1    4    4    0    0  0.45113394640E+01 -0.23438085853E+01  0.13269606449E+01  0.52541837861E+01  0.51100000000E-03 0.  1.
        -12    1    4    4    0    0  0.12166311524E+01  0.33075188424E+01  0.13774441855E+01  0.37838108750E+01  0.00000000000E+00 0.  1.
</event>
<event>
 8    1  0.5834107E-011  0.9118800E+02  0.7816164E-02  0.1184000E+00
        -11   -1    0    0    0    0  0.00000000000E+00  0.00000000000E+00  0.45593999997E+02  0.45594000000E+02  0.51100000000E-03 0. -1.
         11   -1    0    0    0    0 -0.00000000000E+00 -0.00000000000E+00 -0.45593999997E+02  0.45594000000E+02  0.51100000000E-03 0.  1.
         23    2    1    2    0    0 -0.44408920985E-15  0.00000000000E+00 -0.71054273576E-14  0.91188000000E+02  0.91188000000E+02 0.  0.
    9900012    2    3    3    0    0 -0.34160565332E+01 -0.90984378063E+01  0.42298610103E+02  0.47787269253E+02  0.19999991833E+02 0.  0.
        -12    1    3    3    0    0  0.34160565332E+01  0.90984378063E+01 -0.42298610103E+02  0.43400730747E+02  0.00000000000E+00 0.  1.
         11    1    4    4    0    0 -0.53293777099E+01 -0.45976745044E+01  0.21627545844E+02  0.22744045751E+02  0.51100000000E-03 0. -1.
        -11    1    4    4    0    0 -0.97645666184E+00 -0.56889268813E+01  0.19943338573E+01  0.61069406800E+01  0.51100000000E-03 0.  1.
        -12    1    4    4    0    0  0.28897778386E+01  0.11881635794E+01  0.18676730401E+02  0.18936282823E+02  0.00000000000E+00 0.  1.
</event>
<event>
 8    1  0.6140658E-011  0.9118800E+02  0.7816164E-02  0.1184000E+00
        -11   -1    0    0    0    0  0.00000000000E+00  0.00000000000E+00  0.45593999997E+02  0.45594000000E+02  0.51100000000E-03 0. -1.
         11   -1    0    0    0    0 -0.00000000000E+00 -0.00000000000E+00 -0.45593999997E+02  0.45594000000E+02  0.51100000000E-03 0.  1.
         23    2    1    2    0    0 -0.88817841970E-15  0.35527136788E-14  0.00000000000E+00  0.91188000000E+02  0.91188000000E+02 0.  0.
    9900012    2    3    3    0    0 -0.47031850702E+01 -0.23319698885E+02  0.36300068033E+02  0.47787271376E+02  0.20000001510E+02 0.  0.
        -12    1    3    3    0    0  0.47031850702E+01  0.23319698885E+02 -0.36300068033E+02  0.43400728624E+02  0.00000000000E+00 0.  1.
         11    1    4    4    0    0 -0.18682086543E+01 -0.11435232476E+02  0.17012272454E+02  0.20583298076E+02  0.51100000000E-03 0. -1.
        -11    1    4    4    0    0  0.31983343836E+01 -0.48424862366E+01  0.60246321421E-03  0.58033625085E+01  0.51100000000E-03 0.  1.
         12    1    4    4    0    0 -0.60333107995E+01 -0.70419801729E+01  0.19287193116E+02  0.21400610792E+02  0.00000000000E+00 0. -1.
</event>
<event>
 8    1  0.5834107E-011  0.9118800E+02  0.7816164E-02  0.1184000E+00
        -11   -1    0    0    0    0  0.00000000000E+00  0.00000000000E+00  0.45593999997E+02  0.45594000000E+02  0.51100000000E-03 0. -1.
         11   -1    0    0    0    0 -0.00000000000E+00 -0.00000000000E+00 -0.45593999997E+02  0.45594000000E+02  0.51100000000E-03 0.  1.
         23    2    1    2    0    0 -0.22204460493E-15  0.00000000000E+00 -0.71054273576E-14  0.91188000000E+02  0.91188000000E+02 0.  0.
    9900012    2    3    3    0    0  0.78685543161E+00 -0.85772210279E+01  0.42537452854E+02  0.47787276995E+02  0.20000027131E+02 0.  0.
        -12    1    3    3    0    0 -0.78685543161E+00  0.85772210279E+01 -0.42537452854E+02  0.43400723005E+02  0.00000000000E+00 0.  1.
         11    1    4    4    0    0  0.23409999750E+01 -0.30774406601E+01  0.24976245837E+01  0.46031566040E+01  0.51100000000E-03 0. -1.
        -11    1    4    4    0    0  0.34407293584E+01 -0.10908783502E+01  0.34001449213E+02  0.34192501853E+02  0.51100000000E-03 0.  1.
        -12    1    4    4    0    0 -0.49948739018E+01 -0.44089020177E+01  0.60383790574E+01  0.89916185382E+01  0.00000000000E+00 0.  1.
</event>
<event>
 8    1  0.5834107E-011  0.9118800E+02  0.7816164E-02  0.1184000E+00
        -11   -1    0    0    0    0  0.00000000000E+00  0.00000000000E+00  0.45593999997E+02  0.45594000000E+02  0.51100000000E-03 0. -1.
         11   -1    0    0    0    0 -0.00000000000E+00 -0.00000000000E+00 -0.45593999997E+02  0.45594000000E+02  0.51100000000E-03 0.  1.
         23    2    1    2    0    0  0.71054273576E-14  0.00000000000E+00  0.00000000000E+00  0.91188000000E+02  0.91188000000E+02 0.  0.
    9900012    2    3    3    0    0 -0.42184438905E+02  0.44639039280E+01  0.91744189249E+01  0.47787270897E+02  0.19999999329E+02 0.  0.
        -12    1    3    3    0    0  0.42184438905E+02 -0.44639039280E+01 -0.91744189249E+01  0.43400729103E+02  0.00000000000E+00 0.  1.
         11    1    4    4    0    0 -0.90245862350E+01 -0.12846637310E+01  0.10285668224E+02  0.13743670859E+02  0.51100000000E-03 0. -1.
        -11    1    4    4    0    0 -0.54021866800E+01  0.10352491065E+01 -0.20575242241E+01  0.58727138387E+01  0.51100000000E-03 0.  1.
         12    1    4    4    0    0 -0.27757665990E+02  0.47133185524E+01  0.94627492495E+00  0.28170886199E+02  0.00000000000E+00 0. -1.
</event>
<event>
 8    1  0.5834107E-011  0.9118800E+02  0.7816164E-02  0.1184000E+00
        -11   -1    0    0    0    0  0.00000000000E+00  0.00000000000E+00  0.45593999997E+02  0.45594000000E+02  0.51100000000E-03 0. -1.
         11   -1    0    0    0    0 -0.00000000000E+00 -0.00000000000E+00 -0.45593999997E+02  0.45594000000E+02  0.51100000000E-03 0.  1.
         23    2    1    2    0    0  0.00000000000E+00  0.00000000000E+00  0.35527136788E-14  0.91188000000E+02  0.91188000000E+02 0.  0.
    9900012    2    3    3    0    0  0.35848165216E+02  0.11118679289E+02  0.21792365014E+02  0.47787272456E+02  0.20000006436E+02 0.  0.
        -12    1    3    3    0    0 -0.35848165216E+02 -0.11118679289E+02 -0.21792365014E+02  0.43400727544E+02  0.00000000000E+00 0.  1.
         11    1    4    4    0    0 -0.34325838584E+00  0.23806752914E+01  0.42603990450E+00  0.24427344154E+01  0.51100000000E-03 0.  1.
        -11    1    4    4    0    0  0.33449808074E+02  0.61225070848E+01  0.23169244317E+02  0.41148373427E+02  0.51100000000E-03 0. -1.
         12    1    4    4    0    0  0.27416155272E+01  0.26154969126E+01 -0.18029192073E+01  0.41961646139E+01  0.00000000000E+00 0. -1.
</event>
<event>
 8    1  0.5834107E-011  0.9118800E+02  0.7816164E-02  0.1184000E+00
        -11   -1    0    0    0    0  0.00000000000E+00  0.00000000000E+00  0.45593999997E+02  0.45594000000E+02  0.51100000000E-03 0. -1.
         11   -1    0    0    0    0 -0.00000000000E+00 -0.00000000000E+00 -0.45593999997E+02  0.45594000000E+02  0.51100000000E-03 0.  1.
         23    2    1    2    0    0  0.00000000000E+00  0.00000000000E+00  0.00000000000E+00  0.91188000000E+02  0.91188000000E+02 0.  0.
    9900012    2    3    3    0    0  0.22928419448E+02  0.10917197642E+02 -0.35195526219E+02  0.47787277788E+02  0.20000030746E+02 0.  0.
         12    1    3    3    0    0 -0.22928419448E+02 -0.10917197642E+02  0.35195526219E+02  0.43400722212E+02  0.00000000000E+00 0. -1.
         11    1    4    4    0    0  0.90984674759E+01  0.31724704078E+01 -0.12990816045E+02  0.16174300006E+02  0.51100000000E-03 0.  1.
        -11    1    4    4    0    0  0.11391459962E+02 -0.25367817227E+01 -0.92266781478E+01  0.14877238032E+02  0.51100000000E-03 0. -1.
         12    1    4    4    0    0  0.24384920102E+01  0.10281508957E+02 -0.12978032025E+02  0.16735739750E+02  0.00000000000E+00 0. -1.
</event>
<event>
 8    1  0.5834107E-011  0.9118800E+02  0.7816164E-02  0.1184000E+00
        -11   -1    0    0    0    0  0.00000000000E+00  0.00000000000E+00  0.45593999997E+02  0.45594000000E+02  0.51100000000E-03 0. -1.
         11   -1    0    0    0    0 -0.00000000000E+00 -0.00000000000E+00 -0.45593999997E+02  0.45594000000E+02  0.51100000000E-03 0.  1.
         23    2    1    2    0    0  0.00000000000E+00  0.71054273576E-14 -0.17763568394E-14  0.91188000000E+02  0.91188000000E+02 0.  0.
    9900012    2    3    3    0    0 -0.29549485684E+02  0.29152693513E+02 -0.12671676893E+02  0.47787273756E+02  0.20000012361E+02 0.  0.
         12    1    3    3    0    0  0.29549485684E+02 -0.29152693513E+02  0.12671676893E+02  0.43400726244E+02  0.00000000000E+00 0. -1.
         11    1    4    4    0    0 -0.13038552873E+02  0.13055082763E+02 -0.45800273542E+01  0.19010936268E+02  0.51100000000E-03 0. -1.
        -11    1    4    4    0    0 -0.14734769220E+02  0.48399038879E+01 -0.78361405602E+01  0.17376512675E+02  0.51100000000E-03 0.  1.
         12    1    4    4    0    0 -0.17761635903E+01  0.11257706863E+02 -0.25550897894E+00  0.11399824812E+02  0.00000000000E+00 0. -1.
</event>
<event>
 8    1  0.5834107E-011  0.9118800E+02  0.7816164E-02  0.1184000E+00
        -11   -1    0    0    0    0  0.00000000000E+00  0.00000000000E+00  0.45593999997E+02  0.45594000000E+02  0.51100000000E-03 0. -1.
         11   -1    0    0    0    0 -0.00000000000E+00 -0.00000000000E+00 -0.45593999997E+02  0.45594000000E+02  0.51100000000E-03 0.  1.
         23    2    1    2    0    0 -0.17763568394E-14 -0.17763568394E-14  0.71054273576E-14  0.91188000000E+02  0.91188000000E+02 0.  0.
    9900012    2    3    3    0    0  0.15570783568E+02  0.12653273506E+02 -0.38484656645E+02  0.47787269264E+02  0.19999991881E+02 0.  0.
         12    1    3    3    0    0 -0.15570783568E+02 -0.12653273506E+02  0.38484656645E+02  0.43400730736E+02  0.00000000000E+00 0. -1.
         11    1    4    4    0    0  0.70375931989E+01  0.22328407798E+01 -0.30403958546E+01  0.79848170420E+01  0.51100000000E-03 0. -1.
        -11    1    4    4    0    0 -0.12578803503E+01 -0.67798419593E+00 -0.11950466542E+02  0.12035596220E+02  0.51100000000E-03 0.  1.
         12    1    4    4    0    0  0.97910707194E+01  0.11098416923E+02 -0.23493794249E+02  0.27766856002E+02  0.00000000000E+00 0. -1.
</event>
<event>
 8    1  0.5834107E-011  0.9118800E+02  0.7816164E-02  0.1184000E+00
        -11   -1    0    0    0    0  0.00000000000E+00  0.00000000000E+00  0.45593999997E+02  0.45594000000E+02  0.51100000000E-03 0. -1.
         11   -1    0    0    0    0 -0.00000000000E+00 -0.00000000000E+00 -0.45593999997E+02  0.45594000000E+02  0.51100000000E-03 0.  1.
         23    2    1    2    0    0 -0.35527136788E-14 -0.35527136788E-14 -0.35527136788E-14  0.91188000000E+02  0.91188000000E+02 0.  0.
    9900012    2    3    3    0    0 -0.21836411673E+02  0.28475619228E+02  0.24411754698E+02  0.47787268063E+02  0.19999986409E+02 0.  0.
        -12    1    3    3    0    0  0.21836411673E+02 -0.28475619228E+02 -0.24411754698E+02  0.43400731937E+02  0.00000000000E+00 0.  1.
         11    1    4    4    0    0 -0.29202037383E+01  0.77202532975E+01  0.15038190635E+01  0.83899566678E+01  0.51100000000E-03 0. -1.
        -11    1    4    4    0    0 -0.18719709747E+02  0.98656023802E+01  0.14986343755E+02  0.25929676873E+02  0.51100000000E-03 0.  1.
        -12    1    4    4    0    0 -0.19649818742E+00  0.10889763550E+02  0.79215918797E+01  0.13467634522E+02  0.00000000000E+00 0.  1.
</event>
<event>
 8    1  0.5834107E-011  0.9118800E+02  0.7816164E-02  0.1184000E+00
        -11   -1    0    0    0    0  0.00000000000E+00  0.00000000000E+00  0.45593999997E+02  0.45594000000E+02  0.51100000000E-03 0. -1.
         11   -1    0    0    0    0 -0.00000000000E+00 -0.00000000000E+00 -0.45593999997E+02  0.45594000000E+02  0.51100000000E-03 0.  1.
         23    2    1    2    0    0  0.71054273576E-14 -0.25673907444E-15  0.71054273576E-14  0.91188000000E+02  0.91188000000E+02 0.  0.
    9900012    2    3    3    0    0 -0.19481039361E+02 -0.11351183391E-01 -0.38782886927E+02  0.47787270261E+02  0.19999996429E+02 0.  0.
         12    1    3    3    0    0  0.19481039361E+02  0.11351183391E-01  0.38782886927E+02  0.43400729739E+02  0.00000000000E+00 0. -1.
         11    1    4    4    0    0  0.74165975213E+00 -0.37069208816E+00 -0.75145360483E+01  0.75601404811E+01  0.51100000000E-03 0. -1.
        -11    1    4    4    0    0 -0.18696114096E+02 -0.53021764524E+01 -0.23508035446E+02  0.30500581769E+02  0.51100000000E-03 0.  1.
        -12    1    4    4    0    0 -0.15265850167E+01  0.56615173572E+01 -0.77603154331E+01  0.97265480115E+01  0.00000000000E+00 0.  1.
</event>
<event>
 8    1  0.5834107E-011  0.9118800E+02  0.7816164E-02  0.1184000E+00
        -11   -1    0    0    0    0  0.00000000000E+00  0.00000000000E+00  0.45593999997E+02  0.45594000000E+02  0.51100000000E-03 0. -1.
         11   -1    0    0    0    0 -0.00000000000E+00 -0.00000000000E+00 -0.45593999997E+02  0.45594000000E+02  0.51100000000E-03 0.  1.
         23    2    1    2    0    0 -0.17763568394E-14  0.00000000000E+00  0.00000000000E+00  0.91188000000E+02  0.91188000000E+02 0.  0.
    9900012    2    3    3    0    0  0.11456326890E+02 -0.76504096860E+01 -0.41156378904E+02  0.47787265920E+02  0.19999976635E+02 0.  0.
         12    1    3    3    0    0 -0.11456326890E+02  0.76504096860E+01  0.41156378904E+02  0.43400734080E+02  0.00000000000E+00 0. -1.
         11    1    4    4    0    0  0.10248738325E+02  0.99989681306E+00 -0.16967296544E+02  0.19847558620E+02  0.51100000000E-03 0. -1.
        -11    1    4    4    0    0  0.32282515023E+01 -0.92349842262E+00 -0.16552516148E+02  0.16889649143E+02  0.51100000000E-03 0.  1.
        -12    1    4    4    0    0 -0.20206629365E+01 -0.77268080765E+01 -0.76365662121E+01  0.11050058157E+02  0.00000000000E+00 0.  1.
</event>
<event>
 8    1  0.5834108E-011  0.9118800E+02  0.7816164E-02  0.1184000E+00
        -11   -1    0    0    0    0  0.00000000000E+00  0.00000000000E+00  0.45593999997E+02  0.45594000000E+02  0.51100000000E-03 0. -1.
         11   -1    0    0    0    0 -0.00000000000E+00 -0.00000000000E+00 -0.45593999997E+02  0.45594000000E+02  0.51100000000E-03 0.  1.
         23    2    1    2    0    0  0.00000000000E+00  0.00000000000E+00  0.00000000000E+00  0.91188000000E+02  0.91188000000E+02 0.  0.
    9900012    2    3    3    0    0  0.18589211759E+02 -0.16340209189E+02 -0.35651986078E+02  0.47787247225E+02  0.19999891396E+02 0.  0.
         12    1    3    3    0    0 -0.18589211759E+02  0.16340209189E+02  0.35651986078E+02  0.43400752775E+02  0.00000000000E+00 0. -1.
         11    1    4    4    0    0  0.22045977324E+01 -0.13590775821E+02 -0.13137359241E+02  0.19030492549E+02  0.51100000000E-03 0. -1.
        -11    1    4    4    0    0  0.91908220833E+01 -0.48543686862E+01 -0.13158555268E+02  0.16768532521E+02  0.51100000000E-03 0.  1.
         12    1    4    4    0    0  0.71937919429E+01  0.21049353183E+01 -0.93560715701E+01  0.11988222155E+02  0.00000000000E+00 0. -1.
</event>
<event>
 8    1  0.5834107E-011  0.9118800E+02  0.7816164E-02  0.1184000E+00
        -11   -1    0    0    0    0  0.00000000000E+00  0.00000000000E+00  0.45593999997E+02  0.45594000000E+02  0.51100000000E-03 0. -1.
         11   -1    0    0    0    0 -0.00000000000E+00 -0.00000000000E+00 -0.45593999997E+02  0.45594000000E+02  0.51100000000E-03 0.  1.
         23    2    1    2    0    0  0.00000000000E+00  0.00000000000E+00  0.00000000000E+00  0.91188000000E+02  0.91188000000E+02 0.  0.
    9900012    2    3    3    0    0  0.11617007057E+02  0.22659107015E+01  0.41755644657E+02  0.47787273451E+02  0.20000010972E+02 0.  0.
        -12    1    3    3    0    0 -0.11617007057E+02 -0.22659107015E+01 -0.41755644657E+02  0.43400726549E+02  0.00000000000E+00 0.  1.
         11    1    4    4    0    0 -0.33632270539E-01  0.43963329410E+01  0.25081899227E+02  0.25464299393E+02  0.51100000000E-03 0. -1.
        -11    1    4    4    0    0 -0.48793050238E-01 -0.29426921818E+01  0.20947368724E+01  0.36124425067E+01  0.51100000000E-03 0.  1.
        -12    1    4    4    0    0  0.11699432378E+02  0.81226994227E+00  0.14579008557E+02  0.18710531552E+02  0.00000000000E+00 0.  1.
</event>
<event>
 8    1  0.5834107E-011  0.9118800E+02  0.7816164E-02  0.1184000E+00
        -11   -1    0    0    0    0  0.00000000000E+00  0.00000000000E+00  0.45593999997E+02  0.45594000000E+02  0.51100000000E-03 0. -1.
         11   -1    0    0    0    0 -0.00000000000E+00 -0.00000000000E+00 -0.45593999997E+02  0.45594000000E+02  0.51100000000E-03 0.  1.
         23    2    1    2    0    0  0.71054273576E-14  0.00000000000E+00 -0.17763568394E-14  0.91188000000E+02  0.91188000000E+02 0.  0.
    9900012    2    3    3    0    0  0.26274974309E+02 -0.32545823559E+02 -0.11576627169E+02  0.47787271865E+02  0.20000003740E+02 0.  0.
         12    1    3    3    0    0 -0.26274974309E+02  0.32545823559E+02  0.11576627169E+02  0.43400728135E+02  0.00000000000E+00 0. -1.
         11    1    4    4    0    0  0.18033898175E+02 -0.18922082789E+02 -0.38164624521E+01  0.26416511623E+02  0.51100000000E-03 0. -1.
        -11    1    4    4    0    0  0.49470452711E+01 -0.15333341723E+02 -0.70758870999E+01  0.17596954391E+02  0.51100000000E-03 0.  1.
         12    1    4    4    0    0  0.32940308627E+01  0.17096009527E+01 -0.68427761667E+00  0.37738058507E+01  0.00000000000E+00 0. -1.
</event>
<event>
 8    1  0.5834107E-011  0.9118800E+02  0.7816164E-02  0.1184000E+00
        -11   -1    0    0    0    0  0.00000000000E+00  0.00000000000E+00  0.45593999997E+02  0.45594000000E+02  0.51100000000E-03 0.  1.
         11   -1    0    0    0    0 -0.00000000000E+00 -0.00000000000E+00 -0.45593999997E+02  0.45594000000E+02  0.51100000000E-03 0. -1.
         23    2    1    2    0    0  0.00000000000E+00  0.71054273576E-14  0.44408920985E-15  0.91188000000E+02  0.91188000000E+02 0.  0.
    9900012    2    3    3    0    0  0.14799195692E+02 -0.40720410336E+02 -0.25407486581E+01  0.47787269421E+02  0.19999992596E+02 0.  0.
        -12    1    3    3    0    0 -0.14799195692E+02  0.40720410336E+02  0.25407486581E+01  0.43400730579E+02  0.00000000000E+00 0.  1.
         11    1    4    4    0    0  0.33501851369E+01 -0.17655523337E+02 -0.89381325408E+01  0.20070661632E+02  0.51100000000E-03 0. -1.
        -11    1    4    4    0    0  0.27971081470E+01 -0.14573524302E+02  0.32293774523E+01  0.15186846400E+02  0.51100000000E-03 0.  1.
         12    1    4    4    0    0  0.86519024078E+01 -0.84913626972E+01  0.31680064304E+01  0.12529761389E+02  0.00000000000E+00 0. -1.
</event>
<event>
 8    1  0.5834107E-011  0.9118800E+02  0.7816164E-02  0.1184000E+00
        -11   -1    0    0    0    0  0.00000000000E+00  0.00000000000E+00  0.45593999997E+02  0.45594000000E+02  0.51100000000E-03 0.  1.
         11   -1    0    0    0    0 -0.00000000000E+00 -0.00000000000E+00 -0.45593999997E+02  0.45594000000E+02  0.51100000000E-03 0. -1.
         23    2    1    2    0    0 -0.71054273576E-14 -0.35527136788E-14  0.88817841970E-15  0.91188000000E+02  0.91188000000E+02 0.  0.
    9900012    2    3    3    0    0  0.36328961162E+02  0.23580381224E+02 -0.27919661479E+01  0.47787275665E+02  0.20000021068E+02 0.  0.
        -12    1    3    3    0    0 -0.36328961162E+02 -0.23580381224E+02  0.27919661479E+01  0.43400724335E+02  0.00000000000E+00 0.  1.
         11    1    4    4    0    0  0.13661581276E+02  0.16896873272E+02 -0.37913213919E+00  0.21732162128E+02  0.51100000000E-03 0. -1.
        -11    1    4    4    0    0  0.71126526172E+01  0.55816346692E+01 -0.48693058672E+01  0.10269109636E+02  0.51100000000E-03 0.  1.
        -12    1    4    4    0    0  0.15554727269E+02  0.11018732829E+01  0.24564718585E+01  0.15786003901E+02  0.00000000000E+00 0.  1.
</event>
<event>
 8    1  0.5834107E-011  0.9118800E+02  0.7816164E-02  0.1184000E+00
        -11   -1    0    0    0    0  0.00000000000E+00  0.00000000000E+00  0.45593999997E+02  0.45594000000E+02  0.51100000000E-03 0.  1.
         11   -1    0    0    0    0 -0.00000000000E+00 -0.00000000000E+00 -0.45593999997E+02  0.45594000000E+02  0.51100000000E-03 0. -1.
         23    2    1    2    0    0  0.00000000000E+00 -0.88817841970E-15 -0.88817841970E-15  0.91188000000E+02  0.91188000000E+02 0.  0.
    9900012    2    3    3    0    0  0.43050805224E+02  0.30947670214E+01  0.45468430382E+01  0.47787271954E+02  0.20000004147E+02 0.  0.
         12    1    3    3    0    0 -0.43050805224E+02 -0.30947670214E+01 -0.45468430382E+01  0.43400728046E+02  0.00000000000E+00 0. -1.
         11    1    4    4    0    0  0.68035680967E+01 -0.78231468552E-01 -0.47420255839E+01  0.82934592245E+01  0.51100000000E-03 0. -1.
        -11    1    4    4    0    0  0.26817269803E+02  0.73933986477E+01  0.86968190706E+01  0.29145547953E+02  0.51100000000E-03 0.  1.
         12    1    4    4    0    0  0.94299673234E+01 -0.42204001577E+01  0.59204955139E+00  0.10348264776E+02  0.00000000000E+00 0. -1.
</event>
<event>
 8    1  0.5834107E-011  0.9118800E+02  0.7816164E-02  0.1184000E+00
        -11   -1    0    0    0    0  0.00000000000E+00  0.00000000000E+00  0.45593999997E+02  0.45594000000E+02  0.51100000000E-03 0. -1.
         11   -1    0    0    0    0 -0.00000000000E+00 -0.00000000000E+00 -0.45593999997E+02  0.45594000000E+02  0.51100000000E-03 0.  1.
         23    2    1    2    0    0 -0.71054273576E-14  0.88817841970E-15  0.00000000000E+00  0.91188000000E+02  0.91188000000E+02 0.  0.
    9900012    2    3    3    0    0  0.18358426484E+02 -0.43420310742E+01 -0.39086296464E+02  0.47787266964E+02  0.19999981396E+02 0.  0.
         12    1    3    3    0    0 -0.18358426484E+02  0.43420310742E+01  0.39086296464E+02  0.43400733036E+02  0.00000000000E+00 0. -1.
         11    1    4    4    0    0  0.40478294411E+01 -0.50451337449E+01 -0.13869361921E+02  0.15303512605E+02  0.51100000000E-03 0. -1.
        -11    1    4    4    0    0  0.12008912867E+02 -0.56952376154E+01 -0.19507358051E+02  0.23604803285E+02  0.51100000000E-03 0.  1.
         12    1    4    4    0    0  0.23016841759E+01  0.63983402861E+01 -0.57095764909E+01  0.88789510737E+01  0.00000000000E+00 0. -1.
</event>
<event>
 8    1  0.5834107E-011  0.9118800E+02  0.7816164E-02  0.1184000E+00
        -11   -1    0    0    0    0  0.00000000000E+00  0.00000000000E+00  0.45593999997E+02  0.45594000000E+02  0.51100000000E-03 0. -1.
         11   -1    0    0    0    0 -0.00000000000E+00 -0.00000000000E+00 -0.45593999997E+02  0.45594000000E+02  0.51100000000E-03 0.  1.
         23    2    1    2    0    0  0.00000000000E+00  0.00000000000E+00  0.35527136788E-14  0.91188000000E+02  0.91188000000E+02 0.  0.
    9900012    2    3    3    0    0  0.85456730903E+00  0.37104127724E+02  0.22498372031E+02  0.47787270472E+02  0.19999997392E+02 0.  0.
        -12    1    3    3    0    0 -0.85456730903E+00 -0.37104127724E+02 -0.22498372031E+02  0.43400729528E+02  0.00000000000E+00 0.  1.
         11    1    4    4    0    0 -0.18996990512E+01  0.21546665404E+02  0.69527371239E+01  0.22720215675E+02  0.51100000000E-03 0. -1.
        -11    1    4    4    0    0 -0.35448156430E+01  0.92596338851E+01  0.11777834876E+02  0.15395581582E+02  0.51100000000E-03 0.  1.
        -12    1    4    4    0    0  0.62990820033E+01  0.62978284349E+01  0.37678000315E+01  0.96714732155E+01  0.00000000000E+00 0.  1.
</event>
<event>
 8    1  0.5834107E-011  0.9118800E+02  0.7816164E-02  0.1184000E+00
        -11   -1    0    0    0    0  0.00000000000E+00  0.00000000000E+00  0.45593999997E+02  0.45594000000E+02  0.51100000000E-03 0.  1.
         11   -1    0    0    0    0 -0.00000000000E+00 -0.00000000000E+00 -0.45593999997E+02  0.45594000000E+02  0.51100000000E-03 0. -1.
         23    2    1    2    0    0  0.00000000000E+00 -0.71054273576E-14  0.00000000000E+00  0.91188000000E+02  0.91188000000E+02 0.  0.
    9900012    2    3    3    0    0  0.19780406982E+02 -0.38011857084E+02 -0.68889306184E+01  0.47787272536E+02  0.20000006800E+02 0.  0.
         12    1    3    3    0    0 -0.19780406982E+02  0.38011857084E+02  0.68889306184E+01  0.43400727464E+02  0.00000000000E+00 0. -1.
         11    1    4    4    0    0  0.10928294691E+00  0.77474433083E+00 -0.15612737489E+01  0.17463526336E+01  0.51100000000E-03 0. -1.
        -11    1    4    4    0    0  0.44380681480E+01 -0.23834054685E+02 -0.10196685366E+01  0.24265167129E+02  0.51100000000E-03 0.  1.
         12    1    4    4    0    0  0.15233055887E+02 -0.14952546730E+02 -0.43079883329E+01  0.21775752773E+02  0.00000000000E+00 0. -1.
</event>
<event>
 8    1  0.5834107E-011  0.9118800E+02  0.7816164E-02  0.1184000E+00
        -11   -1    0    0    0    0  0.00000000000E+00  0.00000000000E+00  0.45593999997E+02  0.45594000000E+02  0.51100000000E-03 0. -1.
         11   -1    0    0    0    0 -0.00000000000E+00 -0.00000000000E+00 -0.45593999997E+02  0.45594000000E+02  0.51100000000E-03 0.  1.
         23    2    1    2    0    0  0.35527136788E-14  0.00000000000E+00 -0.15265566589E-15  0.91188000000E+02  0.91188000000E+02 0.  0.
    9900012    2    3    3    0    0  0.25800814465E+02 -0.34898830963E+02 -0.11236606050E+00  0.47787273557E+02  0.20000011457E+02 0.  0.
         12    1    3    3    0    0 -0.25800814465E+02  0.34898830963E+02  0.11236606050E+00  0.43400726443E+02  0.00000000000E+00 0. -1.
         11    1    4    4    0    0  0.11876567694E+02 -0.18240821748E+02  0.59961680734E+01  0.22577299884E+02  0.51100000000E-03 0.  1.
        -11    1    4    4    0    0  0.23930462688E+00 -0.77784993272E+01 -0.40331715993E+01  0.87652034716E+01  0.51100000000E-03 0. -1.
         12    1    4    4    0    0  0.13684942144E+02 -0.88795098878E+01 -0.20753625346E+01  0.16444770201E+02  0.00000000000E+00 0. -1.
</event>
<event>
 8    1  0.5834107E-011  0.9118800E+02  0.7816164E-02  0.1184000E+00
        -11   -1    0    0    0    0  0.00000000000E+00  0.00000000000E+00  0.45593999997E+02  0.45594000000E+02  0.51100000000E-03 0. -1.
         11   -1    0    0    0    0 -0.00000000000E+00 -0.00000000000E+00 -0.45593999997E+02  0.45594000000E+02  0.51100000000E-03 0.  1.
         23    2    1    2    0    0  0.71054273576E-14  0.17763568394E-14  0.35527136788E-14  0.91188000000E+02  0.91188000000E+02 0.  0.
    9900012    2    3    3    0    0 -0.39666457198E+02 -0.12675919065E+02  0.12227700673E+02  0.47787269424E+02  0.19999992613E+02 0.  0.
        -12    1    3    3    0    0  0.39666457198E+02  0.12675919065E+02 -0.12227700673E+02  0.43400730576E+02  0.00000000000E+00 0.  1.
         11    1    4    4    0    0 -0.99778224667E+01 -0.12634140795E+01  0.54191379658E+01  0.11424544318E+02  0.51100000000E-03 0. -1.
        -11    1    4    4    0    0 -0.22820892963E+02 -0.28815811340E+01  0.98106153260E+01  0.25006895825E+02  0.51100000000E-03 0.  1.
        -12    1    4    4    0    0 -0.68677417681E+01 -0.85309238513E+01 -0.30020526189E+01  0.11355829282E+02  0.00000000000E+00 0.  1.
</event>
<event>
 8    1  0.5834107E-011  0.9118800E+02  0.7816164E-02  0.1184000E+00
        -11   -1    0    0    0    0  0.00000000000E+00  0.00000000000E+00  0.45593999997E+02  0.45594000000E+02  0.51100000000E-03 0. -1.
         11   -1    0    0    0    0 -0.00000000000E+00 -0.00000000000E+00 -0.45593999997E+02  0.45594000000E+02  0.51100000000E-03 0.  1.
         23    2    1    2    0    0  0.35527136788E-14  0.00000000000E+00  0.00000000000E+00  0.91188000000E+02  0.91188000000E+02 0.  0.
    9900012    2    3    3    0    0  0.19544268815E+02  0.24711159903E+02 -0.29849662207E+02  0.47787283403E+02  0.20000056349E+02 0.  0.
         12    1    3    3    0    0 -0.19544268815E+02 -0.24711159903E+02  0.29849662207E+02  0.43400716597E+02  0.00000000000E+00 0. -1.
         11    1    4    4    0    0  0.44610558671E+01  0.11369909296E+02 -0.64296580834E+01  0.13802766396E+02  0.51100000000E-03 0. -1.
        -11    1    4    4    0    0  0.15331232815E+02  0.72637432127E+01 -0.11182981407E+02  0.20319147091E+02  0.51100000000E-03 0.  1.
        -12    1    4    4    0    0 -0.24801986806E+00  0.60775073940E+01 -0.12237022717E+02  0.13665369916E+02  0.00000000000E+00 0.  1.
</event>
<event>
 8    1  0.5834107E-011  0.9118800E+02  0.7816164E-02  0.1184000E+00
        -11   -1    0    0    0    0  0.00000000000E+00  0.00000000000E+00  0.45593999997E+02  0.45594000000E+02  0.51100000000E-03 0. -1.
         11   -1    0    0    0    0 -0.00000000000E+00 -0.00000000000E+00 -0.45593999997E+02  0.45594000000E+02  0.51100000000E-03 0.  1.
         23    2    1    2    0    0 -0.88817841970E-15  0.00000000000E+00  0.00000000000E+00  0.91188000000E+02  0.91188000000E+02 0.  0.
    9900012    2    3    3    0    0  0.51688839641E+01 -0.40630280295E+02 -0.14355721601E+02  0.47787265202E+02  0.19999973361E+02 0.  0.
         12    1    3    3    0    0 -0.51688839641E+01  0.40630280295E+02  0.14355721601E+02  0.43400734798E+02  0.00000000000E+00 0. -1.
         11    1    4    4    0    0  0.54047011878E+00 -0.70565286300E+01 -0.85730505198E+01  0.11116829572E+02  0.51100000000E-03 0. -1.
        -11    1    4    4    0    0 -0.36509613297E+01 -0.10525138352E+02  0.11975843573E+01  0.11204564450E+02  0.51100000000E-03 0.  1.
        -12    1    4    4    0    0  0.82793751750E+01 -0.23048613313E+02 -0.69802554389E+01  0.25465871180E+02  0.00000000000E+00 0.  1.
</event>
<event>
 8    1  0.5834107E-011  0.9118800E+02  0.7816164E-02  0.1184000E+00
        -11   -1    0    0    0    0  0.00000000000E+00  0.00000000000E+00  0.45593999997E+02  0.45594000000E+02  0.51100000000E-03 0. -1.
         11   -1    0    0    0    0 -0.00000000000E+00 -0.00000000000E+00 -0.45593999997E+02  0.45594000000E+02  0.51100000000E-03 0.  1.
         23    2    1    2    0    0  0.00000000000E+00  0.11102230246E-15  0.00000000000E+00  0.91188000000E+02  0.91188000000E+02 0.  0.
    9900012    2    3    3    0    0  0.34010919107E+01  0.69764464018E+00 -0.43261637797E+02  0.47787269141E+02  0.19999991323E+02 0.  0.
         12    1    3    3    0    0 -0.34010919107E+01 -0.69764464018E+00  0.43261637797E+02  0.43400730859E+02  0.00000000000E+00 0. -1.
         11    1    4    4    0    0  0.15496820728E+01  0.37013683351E+01 -0.26791170670E+01  0.48248637907E+01  0.51100000000E-03 0. -1.
        -11    1    4    4    0    0 -0.29550549518E+01 -0.36286774391E+01 -0.42927449102E+01  0.63503786384E+01  0.51100000000E-03 0.  1.
        -12    1    4    4    0    0  0.48064647898E+01  0.62495374417E+00 -0.36289775819E+02  0.36612026712E+02  0.00000000000E+00 0.  1.
</event>
<event>
 8    1  0.5834107E-011  0.9118800E+02  0.7816164E-02  0.1184000E+00
        -11   -1    0    0    0    0  0.00000000000E+00  0.00000000000E+00  0.45593999997E+02  0.45594000000E+02  0.51100000000E-03 0.  1.
         11   -1    0    0    0    0 -0.00000000000E+00 -0.00000000000E+00 -0.45593999997E+02  0.45594000000E+02  0.51100000000E-03 0. -1.
         23    2    1    2    0    0  0.00000000000E+00  0.00000000000E+00  0.00000000000E+00  0.91188000000E+02  0.91188000000E+02 0.  0.
    9900012    2    3    3    0    0  0.30147945042E+02 -0.12854863814E+02 -0.28451308176E+02  0.47787273614E+02  0.20000011714E+02 0.  0.
         12    1    3    3    0    0 -0.30147945042E+02  0.12854863814E+02  0.28451308176E+02  0.43400726386E+02  0.00000000000E+00 0. -1.
         11    1    4    4    0    0  0.53196103838E+01  0.31785134943E+01 -0.89299638062E+01  0.10869473608E+02  0.51100000000E-03 0. -1.
        -11    1    4    4    0    0  0.54345768088E+01  0.31387788768E+00 -0.62602094015E+01  0.82959849584E+01  0.51100000000E-03 0.  1.
        -12    1    4    4    0    0  0.19393757850E+02 -0.16347255196E+02 -0.13261134968E+02  0.28621815047E+02  0.00000000000E+00 0.  1.
</event>
<event>
 8    1  0.5834107E-011  0.9118800E+02  0.7816164E-02  0.1184000E+00
        -11   -1    0    0    0    0  0.00000000000E+00  0.00000000000E+00  0.45593999997E+02  0.45594000000E+02  0.51100000000E-03 0. -1.
         11   -1    0    0    0    0 -0.00000000000E+00 -0.00000000000E+00 -0.45593999997E+02  0.45594000000E+02  0.51100000000E-03 0.  1.
         23    2    1    2    0    0  0.17763568394E-14 -0.35527136788E-14  0.71054273576E-14  0.91188000000E+02  0.91188000000E+02 0.  0.
    9900012    2    3    3    0    0  0.54738124213E+01 -0.25801833470E+02  0.34466304172E+02  0.47787270097E+02  0.19999995681E+02 0.  0.
        -12    1    3    3    0    0 -0.54738124213E+01  0.25801833470E+02 -0.34466304172E+02  0.43400729903E+02  0.00000000000E+00 0.  1.
         11    1    4    4    0    0  0.42527069716E+01 -0.10698257330E+02  0.88031340864E+01  0.14492528989E+02  0.51100000000E-03 0. -1.
        -11    1    4    4    0    0  0.28580284752E+01 -0.97642868960E+01  0.25773685090E+02  0.27709068348E+02  0.51100000000E-03 0.  1.
        -12    1    4    4    0    0 -0.16369230255E+01 -0.53392892442E+01 -0.11051500418E+00  0.55856727608E+01  0.00000000000E+00 0.  1.
</event>
<event>
 8    1  0.5834107E-011  0.9118800E+02  0.7816164E-02  0.1184000E+00
        -11   -1    0    0    0    0  0.00000000000E+00  0.00000000000E+00  0.45593999997E+02  0.45594000000E+02  0.51100000000E-03 0. -1.
         11   -1    0    0    0    0 -0.00000000000E+00 -0.00000000000E+00 -0.45593999997E+02  0.45594000000E+02  0.51100000000E-03 0.  1.
         23    2    1    2    0    0  0.71054273576E-14  0.00000000000E+00  0.17763568394E-14  0.91188000000E+02  0.91188000000E+02 0.  0.
    9900012    2    3    3    0    0  0.36162474115E+02  0.21033252524E+02  0.11554248454E+02  0.47787275315E+02  0.20000019473E+02 0.  0.
        -12    1    3    3    0    0 -0.36162474115E+02 -0.21033252524E+02 -0.11554248454E+02  0.43400724685E+02  0.00000000000E+00 0.  1.
         11    1    4    4    0    0 -0.69442758075E+00 -0.90812783084E+00  0.65355684453E+00  0.13168381192E+01  0.51100000000E-03 0. -1.
        -11    1    4    4    0    0  0.25924456146E+02  0.77617981153E+01  0.43708989478E+01  0.27412181495E+02  0.51100000000E-03 0.  1.
         12    1    4    4    0    0  0.10932445549E+02  0.14179582239E+02  0.65297926613E+01  0.19058255701E+02  0.00000000000E+00 0. -1.
</event>
<event>
 8    1  0.5861992E-011  0.9118800E+02  0.7816164E-02  0.1184000E+00
        -11   -1    0    0    0    0  0.00000000000E+00  0.00000000000E+00  0.45593999997E+02  0.45594000000E+02  0.51100000000E-03 0. -1.
         11   -1    0    0    0    0 -0.00000000000E+00 -0.00000000000E+00 -0.45593999997E+02  0.45594000000E+02  0.51100000000E-03 0.  1.
         23    2    1    2    0    0  0.00000000000E+00 -0.17763568394E-14  0.00000000000E+00  0.91188000000E+02  0.91188000000E+02 0.  0.
    9900012    2    3    3    0    0  0.16983221077E+02  0.52042927907E+01  0.39599355018E+02  0.47787269828E+02  0.19999994455E+02 0.  0.
        -12    1    3    3    0    0 -0.16983221077E+02 -0.52042927907E+01 -0.39599355018E+02  0.43400730172E+02  0.00000000000E+00 0.  1.
         11    1    4    4    0    0  0.16330439229E+02  0.88485917198E+01  0.20577505309E+02  0.27720291230E+02  0.51100000000E-03 0. -1.
        -11    1    4    4    0    0 -0.17616626711E+01 -0.48316054139E+00  0.26484033458E+01  0.32172876804E+01  0.51100000000E-03 0.  1.
         12    1    4    4    0    0  0.24144445189E+01 -0.31611383877E+01  0.16373446363E+02  0.16849690918E+02  0.00000000000E+00 0. -1.
</event>
<event>
 8    1  0.5834107E-011  0.9118800E+02  0.7816164E-02  0.1184000E+00
        -11   -1    0    0    0    0  0.00000000000E+00  0.00000000000E+00  0.45593999997E+02  0.45594000000E+02  0.51100000000E-03 0. -1.
         11   -1    0    0    0    0 -0.00000000000E+00 -0.00000000000E+00 -0.45593999997E+02  0.45594000000E+02  0.51100000000E-03 0.  1.
         23    2    1    2    0    0  0.00000000000E+00  0.35527136788E-14  0.00000000000E+00  0.91188000000E+02  0.91188000000E+02 0.  0.
    9900012    2    3    3    0    0  0.35427067035E+02 -0.20482086179E+02  0.14457870210E+02  0.47787274845E+02  0.20000017330E+02 0.  0.
        -12    1    3    3    0    0 -0.35427067035E+02  0.20482086179E+02 -0.14457870210E+02  0.43400725155E+02  0.00000000000E+00 0.  1.
         11    1    4    4    0    0  0.31620111721E+01 -0.84855060828E+01  0.55840366337E+00  0.90727031830E+01  0.51100000000E-03 0. -1.
        -11    1    4    4    0    0  0.11698767007E+02 -0.55538032344E+01  0.10955541627E+02  0.16962599225E+02  0.51100000000E-03 0.  1.
         12    1    4    4    0    0  0.20566288856E+02 -0.64427768613E+01  0.29439249193E+01  0.21751972438E+02  0.00000000000E+00 0. -1.
</event>
<event>
 8    1  0.5834107E-011  0.9118800E+02  0.7816164E-02  0.1184000E+00
        -11   -1    0    0    0    0  0.00000000000E+00  0.00000000000E+00  0.45593999997E+02  0.45594000000E+02  0.51100000000E-03 0. -1.
         11   -1    0    0    0    0 -0.00000000000E+00 -0.00000000000E+00 -0.45593999997E+02  0.45594000000E+02  0.51100000000E-03 0.  1.
         23    2    1    2    0    0  0.88817841970E-15  0.00000000000E+00  0.00000000000E+00  0.91188000000E+02  0.91188000000E+02 0.  0.
    9900012    2    3    3    0    0 -0.29922857078E+01  0.14430400974E+02 -0.40821970767E+02  0.47787267940E+02  0.19999985847E+02 0.  0.
         12    1    3    3    0    0  0.29922857078E+01 -0.14430400974E+02  0.40821970767E+02  0.43400732060E+02  0.00000000000E+00 0. -1.
         11    1    4    4    0    0 -0.57679198252E+01  0.55537396208E+01 -0.59456664290E+01  0.99731575958E+01  0.51100000000E-03 0. -1.
        -11    1    4    4    0    0 -0.28362903518E+00  0.76757007863E+01 -0.94571477040E+01  0.12183368621E+02  0.51100000000E-03 0.  1.
        -12    1    4    4    0    0  0.30592631526E+01  0.12009605664E+01 -0.25419156634E+02  0.25630741724E+02  0.00000000000E+00 0.  1.
</event>
<event>
 8    1  0.5834107E-011  0.9118800E+02  0.7816164E-02  0.1184000E+00
        -11   -1    0    0    0    0  0.00000000000E+00  0.00000000000E+00  0.45593999997E+02  0.45594000000E+02  0.51100000000E-03 0. -1.
         11   -1    0    0    0    0 -0.00000000000E+00 -0.00000000000E+00 -0.45593999997E+02  0.45594000000E+02  0.51100000000E-03 0.  1.
         23    2    1    2    0    0  0.00000000000E+00  0.00000000000E+00  0.00000000000E+00  0.91188000000E+02  0.91188000000E+02 0.  0.
    9900012    2    3    3    0    0  0.81528795658E+01  0.40998056840E+02 -0.11675328495E+02  0.47787269530E+02  0.19999993095E+02 0.  0.
         12    1    3    3    0    0 -0.81528795658E+01 -0.40998056840E+02  0.11675328495E+02  0.43400730470E+02  0.00000000000E+00 0. -1.
         11    1    4    4    0    0  0.24846343956E+01  0.44731952990E+01 -0.83416611476E+01  0.97860203978E+01  0.51100000000E-03 0. -1.
        -11    1    4    4    0    0 -0.23436300829E+00 -0.36875281846E+00 -0.26869818640E+00  0.51293628968E+00  0.51100000000E-03 0.  1.
        -12    1    4    4    0    0  0.59026081785E+01  0.36893614359E+02 -0.30649691610E+01  0.37488312842E+02  0.00000000000E+00 0.  1.
</event>
<event>
 8    1  0.5834107E-011  0.9118800E+02  0.7816164E-02  0.1184000E+00
        -11   -1    0    0    0    0  0.00000000000E+00  0.00000000000E+00  0.45593999997E+02  0.45594000000E+02  0.51100000000E-03 0. -1.
         11   -1    0    0    0    0 -0.00000000000E+00 -0.00000000000E+00 -0.45593999997E+02  0.45594000000E+02  0.51100000000E-03 0.  1.
         23    2    1    2    0    0  0.00000000000E+00  0.00000000000E+00  0.00000000000E+00  0.91188000000E+02  0.91188000000E+02 0.  0.
    9900012    2    3    3    0    0  0.75629628386E+01 -0.35225749009E+02 -0.24198590308E+02  0.47787267597E+02  0.19999984284E+02 0.  0.
         12    1    3    3    0    0 -0.75629628386E+01  0.35225749009E+02  0.24198590308E+02  0.43400732403E+02  0.00000000000E+00 0. -1.
         11    1    4    4    0    0  0.38475369248E+01 -0.84469829142E+01  0.87633233485E+00  0.93232515445E+01  0.51100000000E-03 0. -1.
        -11    1    4    4    0    0 -0.28448542979E+01 -0.65488291186E+01 -0.10439543216E+02  0.12647704203E+02  0.51100000000E-03 0.  1.
         12    1    4    4    0    0  0.65602802118E+01 -0.20229936977E+02 -0.14635379427E+02  0.25816311850E+02  0.00000000000E+00 0. -1.
</event>
<event>
 8    1  0.5834107E-011  0.9118800E+02  0.7816164E-02  0.1184000E+00
        -11   -1    0    0    0    0  0.00000000000E+00  0.00000000000E+00  0.45593999997E+02  0.45594000000E+02  0.51100000000E-03 0. -1.
         11   -1    0    0    0    0 -0.00000000000E+00 -0.00000000000E+00 -0.45593999997E+02  0.45594000000E+02  0.51100000000E-03 0.  1.
         23    2    1    2    0    0 -0.88817841970E-15 -0.17763568394E-14  0.00000000000E+00  0.91188000000E+02  0.91188000000E+02 0.  0.
    9900012    2    3    3    0    0  0.65503225228E+01 -0.13365806861E+02 -0.40768516678E+02  0.47787268781E+02  0.19999989682E+02 0.  0.
         12    1    3    3    0    0 -0.65503225228E+01  0.13365806861E+02  0.40768516678E+02  0.43400731219E+02  0.00000000000E+00 0. -1.
         11    1    4    4    0    0  0.18734233023E+01 -0.30385049275E+00 -0.15579299131E+01  0.24554400556E+01  0.51100000000E-03 0.  1.
        -11    1    4    4    0    0  0.11638822311E+02 -0.87301398730E+01 -0.25055476008E+02  0.28973339560E+02  0.51100000000E-03 0. -1.
         12    1    4    4    0    0 -0.69619230903E+01 -0.43318164948E+01 -0.14155110757E+02  0.16358489166E+02  0.00000000000E+00 0. -1.
</event>
<event>
 8    1  0.5834107E-011  0.9118800E+02  0.7816164E-02  0.1184000E+00
        -11   -1    0    0    0    0  0.00000000000E+00  0.00000000000E+00  0.45593999997E+02  0.45594000000E+02  0.51100000000E-03 0. -1.
         11   -1    0    0    0    0 -0.00000000000E+00 -0.00000000000E+00 -0.45593999997E+02  0.45594000000E+02  0.51100000000E-03 0.  1.
         23    2    1    2    0    0 -0.17763568394E-14  0.88817841970E-15 -0.71054273576E-14  0.91188000000E+02  0.91188000000E+02 0.  0.
    9900012    2    3    3    0    0  0.10617745305E+02 -0.47656119702E+01  0.41811190403E+02  0.47787271714E+02  0.20000003054E+02 0.  0.
        -12    1    3    3    0    0 -0.10617745305E+02  0.47656119702E+01 -0.41811190403E+02  0.43400728286E+02  0.00000000000E+00 0.  1.
         11    1    4    4    0    0  0.41697254671E+00  0.60130290038E+01  0.14528743838E+02  0.15729424073E+02  0.51100000000E-03 0. -1.
        -11    1    4    4    0    0  0.46812945897E+01 -0.39431924982E+01  0.43754450652E+01  0.75238159130E+01  0.51100000000E-03 0.  1.
        -12    1    4    4    0    0  0.55194781683E+01 -0.68354484758E+01  0.22907001500E+02  0.24534031728E+02  0.00000000000E+00 0.  1.
</event>
<event>
 8    1  0.5834107E-011  0.9118800E+02  0.7816164E-02  0.1184000E+00
        -11   -1    0    0    0    0  0.00000000000E+00  0.00000000000E+00  0.45593999997E+02  0.45594000000E+02  0.51100000000E-03 0. -1.
         11   -1    0    0    0    0 -0.00000000000E+00 -0.00000000000E+00 -0.45593999997E+02  0.45594000000E+02  0.51100000000E-03 0.  1.
         23    2    1    2    0    0  0.00000000000E+00  0.00000000000E+00  0.35527136788E-14  0.91188000000E+02  0.91188000000E+02 0.  0.
    9900012    2    3    3    0    0 -0.15149165286E+02 -0.32894450627E+02 -0.23918219159E+02  0.47787270759E+02  0.19999998698E+02 0.  0.
         12    1    3    3    0    0  0.15149165286E+02  0.32894450627E+02  0.23918219159E+02  0.43400729241E+02  0.00000000000E+00 0. -1.
         11    1    4    4    0    0 -0.77630017534E+01 -0.94517208896E+01 -0.11465005115E+02  0.16764413695E+02  0.51100000000E-03 0. -1.
        -11    1    4    4    0    0  0.84692139329E+00 -0.18638338358E+02 -0.10050310253E+02  0.21192302117E+02  0.51100000000E-03 0.  1.
         12    1    4    4    0    0 -0.82330849257E+01 -0.48043913794E+01 -0.24029037914E+01  0.98305549463E+01  0.00000000000E+00 0. -1.
</event>
<event>
 8    1  0.5834107E-011  0.9118800E+02  0.7816164E-02  0.1184000E+00
        -11   -1    0    0    0    0  0.00000000000E+00  0.00000000000E+00  0.45593999997E+02  0.45594000000E+02  0.51100000000E-03 0. -1.
         11   -1    0    0    0    0 -0.00000000000E+00 -0.00000000000E+00 -0.45593999997E+02  0.45594000000E+02  0.51100000000E-03 0.  1.
         23    2    1    2    0    0  0.17763568394E-14 -0.35527136788E-14 -0.71054273576E-14  0.91188000000E+02  0.91188000000E+02 0.  0.
    9900012    2    3    3    0    0 -0.15089430547E+02  0.20914410294E+02  0.34907302186E+02  0.47787271687E+02  0.20000002931E+02 0.  0.
        -12    1    3    3    0    0  0.15089430547E+02 -0.20914410294E+02 -0.34907302186E+02  0.43400728313E+02  0.00000000000E+00 0.  1.
         11    1    4    4    0    0 -0.10220566884E+02  0.76722607786E+01  0.76779374784E+01  0.14908866391E+02  0.51100000000E-03 0. -1.
        -11    1    4    4    0    0  0.84170893432E+00  0.94559593619E+01  0.78338731645E+01  0.12308257813E+02  0.51100000000E-03 0.  1.
         12    1    4    4    0    0 -0.57105725974E+01  0.37861901533E+01  0.19395491543E+02  0.20570147483E+02  0.00000000000E+00 0. -1.
</event>
<event>
 8    1  0.5834107E-011  0.9118800E+02  0.7816164E-02  0.1184000E+00
        -11   -1    0    0    0    0  0.00000000000E+00  0.00000000000E+00  0.45593999997E+02  0.45594000000E+02  0.51100000000E-03 0. -1.
         11   -1    0    0    0    0 -0.00000000000E+00 -0.00000000000E+00 -0.45593999997E+02  0.45594000000E+02  0.51100000000E-03 0.  1.
         23    2    1    2    0    0  0.00000000000E+00  0.71054273576E-14  0.00000000000E+00  0.91188000000E+02  0.91188000000E+02 0.  0.
    9900012    2    3    3    0    0 -0.20076693023E+02  0.33870715158E+02  0.18257179349E+02  0.47787267911E+02  0.19999985715E+02 0.  0.
        -12    1    3    3    0    0  0.20076693023E+02 -0.33870715158E+02 -0.18257179349E+02  0.43400732089E+02  0.00000000000E+00 0.  1.
         11    1    4    4    0    0  0.41664435012E+00  0.92333707792E+01  0.29156036765E+01  0.96917219069E+01  0.51100000000E-03 0. -1.
        -11    1    4    4    0    0 -0.98666711915E+01  0.18492558004E+02  0.39101643943E+01  0.21321709307E+02  0.51100000000E-03 0.  1.
         12    1    4    4    0    0 -0.10626666182E+02  0.61447863743E+01  0.11431411279E+02  0.16773836697E+02  0.00000000000E+00 0. -1.
</event>
<event>
 8    1  0.5834107E-011  0.9118800E+02  0.7816164E-02  0.1184000E+00
        -11   -1    0    0    0    0  0.00000000000E+00  0.00000000000E+00  0.45593999997E+02  0.45594000000E+02  0.51100000000E-03 0. -1.
         11   -1    0    0    0    0 -0.00000000000E+00 -0.00000000000E+00 -0.45593999997E+02  0.45594000000E+02  0.51100000000E-03 0.  1.
         23    2    1    2    0    0  0.00000000000E+00  0.00000000000E+00  0.00000000000E+00  0.91188000000E+02  0.91188000000E+02 0.  0.
    9900012    2    3    3    0    0 -0.31562820435E+02  0.13337939737E+02  0.26636642097E+02  0.47787274517E+02  0.20000015832E+02 0.  0.
        -12    1    3    3    0    0  0.31562820435E+02 -0.13337939737E+02 -0.26636642097E+02  0.43400725483E+02  0.00000000000E+00 0.  1.
         11    1    4    4    0    0 -0.51082484241E+01 -0.14634262574E+01  0.81505679565E+01  0.97297264426E+01  0.51100000000E-03 0. -1.
        -11    1    4    4    0    0 -0.64577107767E+01 -0.10291603983E+01  0.83663920445E+01  0.10618743603E+02  0.51100000000E-03 0.  1.
        -12    1    4    4    0    0 -0.19996861234E+02  0.15830526393E+02  0.10119682096E+02  0.27438804471E+02  0.00000000000E+00 0.  1.
</event>
<event>
 8    1  0.5834107E-011  0.9118800E+02  0.7816164E-02  0.1184000E+00
        -11   -1    0    0    0    0  0.00000000000E+00  0.00000000000E+00  0.45593999997E+02  0.45594000000E+02  0.51100000000E-03 0. -1.
         11   -1    0    0    0    0 -0.00000000000E+00 -0.00000000000E+00 -0.45593999997E+02  0.45594000000E+02  0.51100000000E-03 0.  1.
         23    2    1    2    0    0  0.00000000000E+00  0.66613381478E-15  0.00000000000E+00  0.91188000000E+02  0.91188000000E+02 0.  0.
    9900012    2    3    3    0    0 -0.77166582700E+01 -0.18557771587E+01 -0.42668872433E+02  0.47787269609E+02  0.19999993456E+02 0.  0.
         12    1    3    3    0    0  0.77166582700E+01  0.18557771587E+01  0.42668872433E+02  0.43400730391E+02  0.00000000000E+00 0. -1.
         11    1    4    4    0    0 -0.38154730512E+00 -0.80445329107E+01 -0.83708557277E+01  0.11615993887E+02  0.51100000000E-03 0. -1.
        -11    1    4    4    0    0 -0.73614177540E+00  0.74977756448E+00 -0.15314986154E+02  0.15350989293E+02  0.51100000000E-03 0.  1.
        -12    1    4    4    0    0 -0.65989691895E+01  0.54389781875E+01 -0.18983030552E+02  0.20820286430E+02  0.00000000000E+00 0.  1.
</event>
<event>
 8    1  0.5834107E-011  0.9118800E+02  0.7816164E-02  0.1184000E+00
        -11   -1    0    0    0    0  0.00000000000E+00  0.00000000000E+00  0.45593999997E+02  0.45594000000E+02  0.51100000000E-03 0.  1.
         11   -1    0    0    0    0 -0.00000000000E+00 -0.00000000000E+00 -0.45593999997E+02  0.45594000000E+02  0.51100000000E-03 0. -1.
         23    2    1    2    0    0  0.00000000000E+00  0.00000000000E+00  0.00000000000E+00  0.91188000000E+02  0.91188000000E+02 0.  0.
    9900012    2    3    3    0    0  0.29732722596E+02  0.25128429915E+02  0.19187239817E+02  0.47787274720E+02  0.20000016761E+02 0.  0.
         12    1    3    3    0    0 -0.29732722596E+02 -0.25128429915E+02 -0.19187239817E+02  0.43400725280E+02  0.00000000000E+00 0. -1.
         11    1    4    4    0    0  0.39182497618E+01  0.20252039671E+01 -0.20678149616E+01  0.48713438886E+01  0.51100000000E-03 0. -1.
        -11    1    4    4    0    0  0.89102377465E+01  0.13869203263E+02  0.37896076859E+01  0.16914735071E+02  0.51100000000E-03 0.  1.
         12    1    4    4    0    0  0.16904235088E+02  0.92340226857E+01  0.17465447092E+02  0.26001195761E+02  0.00000000000E+00 0. -1.
</event>
<event>
 8    1  0.5834107E-011  0.9118800E+02  0.7816164E-02  0.1184000E+00
        -11   -1    0    0    0    0  0.00000000000E+00  0.00000000000E+00  0.45593999997E+02  0.45594000000E+02  0.51100000000E-03 0. -1.
         11   -1    0    0    0    0 -0.00000000000E+00 -0.00000000000E+00 -0.45593999997E+02  0.45594000000E+02  0.51100000000E-03 0.  1.
         23    2    1    2    0    0  0.00000000000E+00  0.00000000000E+00  0.71054273576E-14  0.91188000000E+02  0.91188000000E+02 0.  0.
    9900012    2    3    3    0    0  0.16882160227E+02  0.22985752816E+02 -0.32714994530E+02  0.47787273813E+02  0.20000012622E+02 0.  0.
         12    1    3    3    0    0 -0.16882160227E+02 -0.22985752816E+02  0.32714994530E+02  0.43400726187E+02  0.00000000000E+00 0. -1.
         11    1    4    4    0    0 -0.27911888527E+00 -0.12368432175E+01 -0.38357686150E+00  0.13246961790E+01  0.51100000000E-03 0. -1.
        -11    1    4    4    0    0  0.11134741992E+02  0.19547651666E+02 -0.31614612640E+02  0.38801764103E+02  0.51100000000E-03 0.  1.
        -12    1    4    4    0    0  0.60265371200E+01  0.46749443680E+01 -0.71680502901E+00  0.76608135307E+01  0.00000000000E+00 0.  1.
</event>
<event>
 8    1  0.5834107E-011  0.9118800E+02  0.7816164E-02  0.1184000E+00
        -11   -1    0    0    0    0  0.00000000000E+00  0.00000000000E+00  0.45593999997E+02  0.45594000000E+02  0.51100000000E-03 0. -1.
         11   -1    0    0    0    0 -0.00000000000E+00 -0.00000000000E+00 -0.45593999997E+02  0.45594000000E+02  0.51100000000E-03 0.  1.
         23    2    1    2    0    0  0.00000000000E+00  0.00000000000E+00 -0.71054273576E-14  0.91188000000E+02  0.91188000000E+02 0.  0.
    9900012    2    3    3    0    0 -0.40456042399E+01 -0.19398356046E+01  0.43168198469E+02  0.47787271494E+02  0.20000002049E+02 0.  0.
        -12    1    3    3    0    0  0.40456042399E+01  0.19398356046E+01 -0.43168198469E+02  0.43400728506E+02  0.00000000000E+00 0.  1.
         11    1    4    4    0    0 -0.38156292700E-01  0.84886278303E+00  0.26955460722E+02  0.26968850308E+02  0.51100000000E-03 0. -1.
        -11    1    4    4    0    0 -0.24561147356E+01 -0.74375589435E+01  0.12133469042E+02  0.14441982339E+02  0.51100000000E-03 0.  1.
         12    1    4    4    0    0 -0.15513332116E+01  0.46488605559E+01  0.40792687046E+01  0.63764388467E+01  0.00000000000E+00 0. -1.
</event>
<event>
 8    1  0.5834107E-011  0.9118800E+02  0.7816164E-02  0.1184000E+00
        -11   -1    0    0    0    0  0.00000000000E+00  0.00000000000E+00  0.45593999997E+02  0.45594000000E+02  0.51100000000E-03 0. -1.
         11   -1    0    0    0    0 -0.00000000000E+00 -0.00000000000E+00 -0.45593999997E+02  0.45594000000E+02  0.51100000000E-03 0.  1.
         23    2    1    2    0    0 -0.35527136788E-14  0.00000000000E+00  0.00000000000E+00  0.91188000000E+02  0.91188000000E+02 0.  0.
    9900012    2    3    3    0    0 -0.31488972779E+02 -0.18651492048E+02 -0.23327872077E+02  0.47787272150E+02  0.20000005039E+02 0.  0.
         12    1    3    3    0    0  0.31488972779E+02  0.18651492048E+02  0.23327872077E+02  0.43400727850E+02  0.00000000000E+00 0. -1.
         11    1    4    4    0    0 -0.47988852685E+01  0.81346021118E-01 -0.55774109383E+01  0.73582219341E+01  0.51100000000E-03 0. -1.
        -11    1    4    4    0    0 -0.20326938309E+02 -0.21159701921E+02 -0.15896883175E+02  0.33371069826E+02  0.51100000000E-03 0.  1.
        -12    1    4    4    0    0 -0.63631492010E+01  0.24268638513E+01 -0.18535779637E+01  0.70579803892E+01  0.00000000000E+00 0.  1.
</event>
<event>
 8    1  0.6680063E-011  0.9118800E+02  0.7816164E-02  0.1184000E+00
        -11   -1    0    0    0    0  0.00000000000E+00  0.00000000000E+00  0.45593999997E+02  0.45594000000E+02  0.51100000000E-03 0. -1.
         11   -1    0    0    0    0 -0.00000000000E+00 -0.00000000000E+00 -0.45593999997E+02  0.45594000000E+02  0.51100000000E-03 0.  1.
         23    2    1    2    0    0  0.44408920985E-15  0.00000000000E+00  0.00000000000E+00  0.91188000000E+02  0.91188000000E+02 0.  0.
    9900012    2    3    3    0    0  0.21760436817E+01 -0.23280515005E+02  0.36563759221E+02  0.47787239253E+02  0.19999855051E+02 0.  0.
        -12    1    3    3    0    0 -0.21760436817E+01  0.23280515005E+02 -0.36563759221E+02  0.43400760747E+02  0.00000000000E+00 0.  1.
         11    1    4    4    0    0 -0.16680337852E+01 -0.16116367338E+02  0.15619239199E+02  0.22505116447E+02  0.51100000000E-03 0. -1.
        -11    1    4    4    0    0  0.39682910966E+01 -0.18552934858E+01  0.80457022637E+00  0.44538502058E+01  0.51100000000E-03 0.  1.
         12    1    4    4    0    0 -0.12421362976E+00 -0.53088541816E+01  0.20139949796E+02  0.20828272600E+02  0.00000000000E+00 0. -1.
</event>
<event>
 8    1  0.5834107E-011  0.9118800E+02  0.7816164E-02  0.1184000E+00
        -11   -1    0    0    0    0  0.00000000000E+00  0.00000000000E+00  0.45593999997E+02  0.45594000000E+02  0.51100000000E-03 0. -1.
         11   -1    0    0    0    0 -0.00000000000E+00 -0.00000000000E+00 -0.45593999997E+02  0.45594000000E+02  0.51100000000E-03 0.  1.
         23    2    1    2    0    0 -0.44408920985E-15  0.00000000000E+00  0.00000000000E+00  0.91188000000E+02  0.91188000000E+02 0.  0.
    9900012    2    3    3    0    0  0.18838655157E+01 -0.42280455206E+02 -0.96144317133E+01  0.47787272600E+02  0.20000007092E+02 0.  0.
         12    1    3    3    0    0 -0.18838655157E+01  0.42280455206E+02  0.96144317133E+01  0.43400727400E+02  0.00000000000E+00 0. -1.
         11    1    4    4    0    0 -0.19941705061E+01 -0.40218524800E+01  0.22954610483E+01  0.50419396132E+01  0.51100000000E-03 0. -1.
        -11    1    4    4    0    0 -0.36063456435E+01 -0.27160721872E+02 -0.10265066281E+02  0.29258881173E+02  0.51100000000E-03 0.  1.
         12    1    4    4    0    0  0.74843816654E+01 -0.11097880854E+02 -0.16448264806E+01  0.13486451813E+02  0.00000000000E+00 0. -1.
</event>
<event>
 8    1  0.5834107E-011  0.9118800E+02  0.7816164E-02  0.1184000E+00
        -11   -1    0    0    0    0  0.00000000000E+00  0.00000000000E+00  0.45593999997E+02  0.45594000000E+02  0.51100000000E-03 0. -1.
         11   -1    0    0    0    0 -0.00000000000E+00 -0.00000000000E+00 -0.45593999997E+02  0.45594000000E+02  0.51100000000E-03 0.  1.
         23    2    1    2    0    0  0.22204460493E-15  0.00000000000E+00  0.00000000000E+00  0.91188000000E+02  0.91188000000E+02 0.  0.
    9900012    2    3    3    0    0  0.19837876647E+01 -0.65820204939E+01  0.42852830209E+02  0.47787268851E+02  0.19999990001E+02 0.  0.
        -12    1    3    3    0    0 -0.19837876647E+01  0.65820204939E+01 -0.42852830209E+02  0.43400731149E+02  0.00000000000E+00 0.  1.
         11    1    4    4    0    0 -0.11398851087E+01 -0.75387112350E+01  0.41444437032E+02  0.42139920103E+02  0.51100000000E-03 0. -1.
        -11    1    4    4    0    0  0.48387424017E+00  0.22085522946E+01  0.15187383929E+01  0.27236747393E+01  0.51100000000E-03 0.  1.
         12    1    4    4    0    0  0.26397985333E+01 -0.12518615534E+01 -0.11034521510E+00  0.29236740092E+01  0.00000000000E+00 0. -1.
</event>
<event>
 8    1  0.5834107E-011  0.9118800E+02  0.7816164E-02  0.1184000E+00
        -11   -1    0    0    0    0  0.00000000000E+00  0.00000000000E+00  0.45593999997E+02  0.45594000000E+02  0.51100000000E-03 0. -1.
         11   -1    0    0    0    0 -0.00000000000E+00 -0.00000000000E+00 -0.45593999997E+02  0.45594000000E+02  0.51100000000E-03 0.  1.
         23    2    1    2    0    0  0.00000000000E+00  0.00000000000E+00  0.00000000000E+00  0.91188000000E+02  0.91188000000E+02 0.  0.
    9900012    2    3    3    0    0  0.14680266618E+02  0.38604617101E+02 -0.13334044463E+02  0.47787269232E+02  0.19999991736E+02 0.  0.
         12    1    3    3    0    0 -0.14680266618E+02 -0.38604617101E+02  0.13334044463E+02  0.43400730768E+02  0.00000000000E+00 0. -1.
         11    1    4    4    0    0  0.56965668823E+00 -0.16626638133E+01 -0.27960719445E+00  0.17796460723E+01  0.51100000000E-03 0. -1.
        -11    1    4    4    0    0  0.12308170184E+01  0.84550769901E+01  0.15940648070E+01  0.86916212706E+01  0.51100000000E-03 0.  1.
        -12    1    4    4    0    0  0.12879792911E+02  0.31812203924E+02 -0.14648502076E+02  0.37316001889E+02  0.00000000000E+00 0.  1.
</event>
<event>
 8    1  0.5834107E-011  0.9118800E+02  0.7816164E-02  0.1184000E+00
        -11   -1    0    0    0    0  0.00000000000E+00  0.00000000000E+00  0.45593999997E+02  0.45594000000E+02  0.51100000000E-03 0. -1.
         11   -1    0    0    0    0 -0.00000000000E+00 -0.00000000000E+00 -0.45593999997E+02  0.45594000000E+02  0.51100000000E-03 0.  1.
         23    2    1    2    0    0  0.00000000000E+00  0.44408920985E-15  0.00000000000E+00  0.91188000000E+02  0.91188000000E+02 0.  0.
    9900012    2    3    3    0    0  0.21604368196E+02  0.24103662080E+01  0.37564139112E+02  0.47787272614E+02  0.20000007158E+02 0.  0.
        -12    1    3    3    0    0 -0.21604368196E+02 -0.24103662080E+01 -0.37564139112E+02  0.43400727386E+02  0.00000000000E+00 0.  1.
         11    1    4    4    0    0  0.12610263191E+02  0.59159072788E+01  0.25503134786E+02  0.29059018924E+02  0.51100000000E-03 0. -1.
        -11    1    4    4    0    0  0.43189704125E+01  0.18549766040E+01 -0.29652458196E-01  0.47005662590E+01  0.51100000000E-03 0.  1.
        -12    1    4    4    0    0  0.46751345927E+01 -0.53605176748E+01  0.12090656784E+02  0.14027687431E+02  0.00000000000E+00 0.  1.
</event>
<event>
 8    1  0.5834107E-011  0.9118800E+02  0.7816164E-02  0.1184000E+00
        -11   -1    0    0    0    0  0.00000000000E+00  0.00000000000E+00  0.45593999997E+02  0.45594000000E+02  0.51100000000E-03 0. -1.
         11   -1    0    0    0    0 -0.00000000000E+00 -0.00000000000E+00 -0.45593999997E+02  0.45594000000E+02  0.51100000000E-03 0.  1.
         23    2    1    2    0    0  0.00000000000E+00  0.00000000000E+00  0.00000000000E+00  0.91188000000E+02  0.91188000000E+02 0.  0.
    9900012    2    3    3    0    0 -0.22805535002E+02 -0.11452317985E+02 -0.35105201633E+02  0.47787271945E+02  0.20000004106E+02 0.  0.
         12    1    3    3    0    0  0.22805535002E+02  0.11452317985E+02  0.35105201633E+02  0.43400728055E+02  0.00000000000E+00 0. -1.
         11    1    4    4    0    0 -0.79519884080E+01 -0.83831642347E+00 -0.56088743681E+01  0.97671063271E+01  0.51100000000E-03 0. -1.
        -11    1    4    4    0    0 -0.15636086669E+02 -0.30020185029E+01 -0.23052032779E+02  0.28015987166E+02  0.51100000000E-03 0.  1.
         12    1    4    4    0    0  0.78254007463E+00 -0.76119830589E+01 -0.64442944866E+01  0.10004178451E+02  0.00000000000E+00 0. -1.
</event>
<event>
 8    1  0.5834107E-011  0.9118800E+02  0.7816164E-02  0.1184000E+00
        -11   -1    0    0    0    0  0.00000000000E+00  0.00000000000E+00  0.45593999997E+02  0.45594000000E+02  0.51100000000E-03 0. -1.
         11   -1    0    0    0    0 -0.00000000000E+00 -0.00000000000E+00 -0.45593999997E+02  0.45594000000E+02  0.51100000000E-03 0.  1.
         23    2    1    2    0    0  0.00000000000E+00  0.35527136788E-14  0.00000000000E+00  0.91188000000E+02  0.91188000000E+02 0.  0.
    9900012    2    3    3    0    0 -0.41612650283E+01  0.11884878545E+02  0.41533832950E+02  0.47787242585E+02  0.19999870242E+02 0.  0.
        -12    1    3    3    0    0  0.41612650283E+01 -0.11884878545E+02 -0.41533832950E+02  0.43400757415E+02  0.00000000000E+00 0.  1.
         11    1    4    4    0    0 -0.68218163693E+00  0.12894263853E+02  0.18040226376E+02  0.22185066600E+02  0.51100000000E-03 0. -1.
        -11    1    4    4    0    0  0.28082188696E+01 -0.13502121733E+01  0.37324904141E+01  0.48621652671E+01  0.51100000000E-03 0.  1.
        -12    1    4    4    0    0 -0.62873022610E+01  0.34082686499E+00  0.19761116161E+02  0.20740010718E+02  0.00000000000E+00 0.  1.
</event>
<event>
 8    1  0.5834107E-011  0.9118800E+02  0.7816164E-02  0.1184000E+00
        -11   -1    0    0    0    0  0.00000000000E+00  0.00000000000E+00  0.45593999997E+02  0.45594000000E+02  0.51100000000E-03 0. -1.
         11   -1    0    0    0    0 -0.00000000000E+00 -0.00000000000E+00 -0.45593999997E+02  0.45594000000E+02  0.51100000000E-03 0.  1.
         23    2    1    2    0    0  0.00000000000E+00  0.35527136788E-14 -0.44408920985E-15  0.91188000000E+02  0.91188000000E+02 0.  0.
    9900012    2    3    3    0    0 -0.35959968685E+02 -0.24146441390E+02  0.27298903750E+01  0.47787282482E+02  0.20000052149E+02 0.  0.
        -12    1    3    3    0    0  0.35959968685E+02  0.24146441390E+02 -0.27298903750E+01  0.43400717518E+02  0.00000000000E+00 0.  1.
         11    1    4    4    0    0 -0.61207167016E+01 -0.63303597200E+01 -0.50121814148E+01  0.10132057536E+02  0.51100000000E-03 0.  1.
        -11    1    4    4    0    0 -0.26114881719E+02 -0.14554659389E+02  0.18423336890E+01  0.29953619995E+02  0.51100000000E-03 0. -1.
         12    1    4    4    0    0 -0.37243702648E+01 -0.32614222802E+01  0.58997381008E+01  0.77016049508E+01  0.00000000000E+00 0. -1.
</event>
<event>
 8    1  0.5834107E-011  0.9118800E+02  0.7816164E-02  0.1184000E+00
        -11   -1    0    0    0    0  0.00000000000E+00  0.00000000000E+00  0.45593999997E+02  0.45594000000E+02  0.51100000000E-03 0.  1.
         11   -1    0    0    0    0 -0.00000000000E+00 -0.00000000000E+00 -0.45593999997E+02  0.45594000000E+02  0.51100000000E-03 0. -1.
         23    2    1    2    0    0  0.00000000000E+00  0.00000000000E+00 -0.35527136788E-14  0.91188000000E+02  0.91188000000E+02 0.  0.
    9900012    2    3    3    0    0 -0.37243625114E+02  0.12305544176E+02 -0.18577106150E+02  0.47787275329E+02  0.20000019533E+02 0.  0.
         12    1    3    3    0    0  0.37243625114E+02 -0.12305544176E+02  0.18577106150E+02  0.43400724671E+02  0.00000000000E+00 0. -1.
         11    1    4    4    0    0 -0.17259277900E+01  0.69350229452E+01 -0.58021563963E+01  0.92053456803E+01  0.51100000000E-03 0. -1.
        -11    1    4    4    0    0 -0.17383658421E+02  0.28038480137E+01 -0.31355270731E+01  0.17885320072E+02  0.51100000000E-03 0.  1.
        -12    1    4    4    0    0 -0.18134038903E+02  0.25666732170E+01 -0.96394226806E+01  0.20696609576E+02  0.00000000000E+00 0.  1.
</event>
<event>
 8    1  0.5834107E-011  0.9118800E+02  0.7816164E-02  0.1184000E+00
        -11   -1    0    0    0    0  0.00000000000E+00  0.00000000000E+00  0.45593999997E+02  0.45594000000E+02  0.51100000000E-03 0. -1.
         11   -1    0    0    0    0 -0.00000000000E+00 -0.00000000000E+00 -0.45593999997E+02  0.45594000000E+02  0.51100000000E-03 0.  1.
         23    2    1    2    0    0  0.00000000000E+00  0.35527136788E-14  0.00000000000E+00  0.91188000000E+02  0.91188000000E+02 0.  0.
    9900012    2    3    3    0    0  0.33951957198E+02  0.26300793928E+02 -0.62574981081E+01  0.47787269115E+02  0.19999991202E+02 0.  0.
         12    1    3    3    0    0 -0.33951957198E+02 -0.26300793928E+02  0.62574981081E+01  0.43400730885E+02  0.00000000000E+00 0. -1.
         11    1    4    4    0    0  0.13989544510E+01  0.92947066079E+01 -0.21347781664E+01  0.96387718390E+01  0.51100000000E-03 0. -1.
        -11    1    4    4    0    0  0.15052578052E+02  0.10453504544E+02  0.21149309502E+01  0.18448002505E+02  0.51100000000E-03 0.  1.
        -12    1    4    4    0    0  0.17500424696E+02  0.65525827758E+01 -0.62376508919E+01  0.19700494771E+02  0.00000000000E+00 0.  1.
</event>
<event>
 8    1  0.5834107E-011  0.9118800E+02  0.7816164E-02  0.1184000E+00
        -11   -1    0    0    0    0  0.00000000000E+00  0.00000000000E+00  0.45593999997E+02  0.45594000000E+02  0.51100000000E-03 0. -1.
         11   -1    0    0    0    0 -0.00000000000E+00 -0.00000000000E+00 -0.45593999997E+02  0.45594000000E+02  0.51100000000E-03 0.  1.
         23    2    1    2    0    0  0.17763568394E-14 -0.17763568394E-14  0.00000000000E+00  0.91188000000E+02  0.91188000000E+02 0.  0.
    9900012    2    3    3    0    0  0.68265808178E+01 -0.14076398225E+02  0.40483020259E+02  0.47787284315E+02  0.20000060507E+02 0.  0.
        -12    1    3    3    0    0 -0.68265808178E+01  0.14076398225E+02 -0.40483020259E+02  0.43400715685E+02  0.00000000000E+00 0.  1.
         11    1    4    4    0    0 -0.21637265147E+01  0.19308821721E+01  0.19071627511E+02  0.19290852614E+02  0.51100000000E-03 0. -1.
        -11    1    4    4    0    0  0.27439423613E+01 -0.53367012481E+01  0.42870699852E+01  0.73748606233E+01  0.51100000000E-03 0.  1.
         12    1    4    4    0    0  0.62463649712E+01 -0.10670579149E+02  0.17124322763E+02  0.21121571078E+02  0.00000000000E+00 0. -1.
</event>
<event>
 8    1  0.5834107E-011  0.9118800E+02  0.7816164E-02  0.1184000E+00
        -11   -1    0    0    0    0  0.00000000000E+00  0.00000000000E+00  0.45593999997E+02  0.45594000000E+02  0.51100000000E-03 0. -1.
         11   -1    0    0    0    0 -0.00000000000E+00 -0.00000000000E+00 -0.45593999997E+02  0.45594000000E+02  0.51100000000E-03 0.  1.
         23    2    1    2    0    0  0.00000000000E+00  0.00000000000E+00  0.00000000000E+00  0.91188000000E+02  0.91188000000E+02 0.  0.
    9900012    2    3    3    0    0  0.29537547920E+02 -0.24310229360E+02  0.20498009480E+02  0.47787281327E+02  0.20000046883E+02 0.  0.
        -12    1    3    3    0    0 -0.29537547920E+02  0.24310229360E+02 -0.20498009480E+02  0.43400718673E+02  0.00000000000E+00 0.  1.
         11    1    4    4    0    0  0.47093259573E+01 -0.10454046302E+02  0.23857247868E+01  0.11711384123E+02  0.51100000000E-03 0. -1.
        -11    1    4    4    0    0  0.92288681715E+01  0.10655085142E+01  0.31463651756E+01  0.98085131493E+01  0.51100000000E-03 0.  1.
         12    1    4    4    0    0  0.15599353791E+02 -0.14921691572E+02  0.14965919518E+02  0.26267384055E+02  0.00000000000E+00 0. -1.
</event>
<event>
 8    1  0.5834107E-011  0.9118800E+02  0.7816164E-02  0.1184000E+00
        -11   -1    0    0    0    0  0.00000000000E+00  0.00000000000E+00  0.45593999997E+02  0.45594000000E+02  0.51100000000E-03 0.  1.
         11   -1    0    0    0    0 -0.00000000000E+00 -0.00000000000E+00 -0.45593999997E+02  0.45594000000E+02  0.51100000000E-03 0. -1.
         23    2    1    2    0    0  0.00000000000E+00 -0.35527136788E-14  0.00000000000E+00  0.91188000000E+02  0.91188000000E+02 0.  0.
    9900012    2    3    3    0    0  0.26784422552E+02  0.26932707422E+02 -0.20996345282E+02  0.47787279549E+02  0.20000038775E+02 0.  0.
         12    1    3    3    0    0 -0.26784422552E+02 -0.26932707422E+02  0.20996345282E+02  0.43400720451E+02  0.00000000000E+00 0. -1.
         11    1    4    4    0    0  0.16870472444E+01  0.57723578426E+01  0.57064527772E+00  0.60408509137E+01  0.51100000000E-03 0. -1.
        -11    1    4    4    0    0  0.23154454265E+02  0.21902446069E+02 -0.15715320172E+02  0.35536139133E+02  0.51100000000E-03 0.  1.
        -12    1    4    4    0    0  0.19429210419E+01 -0.74209648977E+00 -0.58516703872E+01  0.62102895018E+01  0.00000000000E+00 0.  1.
</event>
<event>
 8    1  0.5834107E-011  0.9118800E+02  0.7816164E-02  0.1184000E+00
        -11   -1    0    0    0    0  0.00000000000E+00  0.00000000000E+00  0.45593999997E+02  0.45594000000E+02  0.51100000000E-03 0. -1.
         11   -1    0    0    0    0 -0.00000000000E+00 -0.00000000000E+00 -0.45593999997E+02  0.45594000000E+02  0.51100000000E-03 0.  1.
         23    2    1    2    0    0 -0.35527136788E-14  0.22204460493E-14 -0.71054273576E-14  0.91188000000E+02  0.91188000000E+02 0.  0.
    9900012    2    3    3    0    0 -0.21116486642E+02  0.29897762028E+01 -0.37799187161E+02  0.47787270514E+02  0.19999997582E+02 0.  0.
         12    1    3    3    0    0  0.21116486642E+02 -0.29897762028E+01  0.37799187161E+02  0.43400729486E+02  0.00000000000E+00 0. -1.
         11    1    4    4    0    0 -0.32697251101E+01  0.21052813596E+01 -0.15353092111E+01  0.41809671768E+01  0.51100000000E-03 0. -1.
        -11    1    4    4    0    0 -0.16943478510E+02  0.65752693825E+01 -0.24479976421E+02  0.30489094399E+02  0.51100000000E-03 0.  1.
         12    1    4    4    0    0 -0.90328302279E+00 -0.56907745394E+01 -0.11783901529E+02  0.13117208938E+02  0.00000000000E+00 0. -1.
</event>
<event>
 8    1  0.5834107E-011  0.9118800E+02  0.7816164E-02  0.1184000E+00
        -11   -1    0    0    0    0  0.00000000000E+00  0.00000000000E+00  0.45593999997E+02  0.45594000000E+02  0.51100000000E-03 0. -1.
         11   -1    0    0    0    0 -0.00000000000E+00 -0.00000000000E+00 -0.45593999997E+02  0.45594000000E+02  0.51100000000E-03 0.  1.
         23    2    1    2    0    0 -0.35527136788E-14  0.00000000000E+00 -0.35527136788E-14  0.91188000000E+02  0.91188000000E+02 0.  0.
    9900012    2    3    3    0    0  0.30075261703E+02  0.13535961557E+02  0.28211341686E+02  0.47787269343E+02  0.19999992244E+02 0.  0.
        -12    1    3    3    0    0 -0.30075261703E+02 -0.13535961557E+02 -0.28211341686E+02  0.43400730657E+02  0.00000000000E+00 0.  1.
         11    1    4    4    0    0  0.14575730901E+02  0.45373246578E+01  0.14005305523E+02  0.20716848925E+02  0.51100000000E-03 0. -1.
        -11    1    4    4    0    0  0.98978130060E+01  0.10514386953E+02  0.34466705395E+01  0.14845826800E+02  0.51100000000E-03 0.  1.
         12    1    4    4    0    0  0.56017177966E+01 -0.15157500542E+01  0.10759365624E+02  0.12224593618E+02  0.00000000000E+00 0. -1.
</event>
<event>
 8    1  0.5834107E-011  0.9118800E+02  0.7816164E-02  0.1184000E+00
        -11   -1    0    0    0    0  0.00000000000E+00  0.00000000000E+00  0.45593999997E+02  0.45594000000E+02  0.51100000000E-03 0. -1.
         11   -1    0    0    0    0 -0.00000000000E+00 -0.00000000000E+00 -0.45593999997E+02  0.45594000000E+02  0.51100000000E-03 0.  1.
         23    2    1    2    0    0  0.71054273576E-14  0.35527136788E-14  0.00000000000E+00  0.91188000000E+02  0.91188000000E+02 0.  0.
    9900012    2    3    3    0    0 -0.38556007263E+02  0.19865592758E+02  0.15543943226E+01  0.47787267133E+02  0.19999982165E+02 0.  0.
        -12    1    3    3    0    0  0.38556007263E+02 -0.19865592758E+02 -0.15543943226E+01  0.43400732867E+02  0.00000000000E+00 0.  1.
         11    1    4    4    0    0 -0.82050806539E+01  0.78418571125E+01  0.47671580120E+01  0.12310315483E+02  0.51100000000E-03 0. -1.
        -11    1    4    4    0    0 -0.29572753525E+02  0.14350796483E+02 -0.28146607353E+01  0.32991141630E+02  0.51100000000E-03 0.  1.
        -12    1    4    4    0    0 -0.77817308447E+00 -0.23270608378E+01 -0.39810295411E+00  0.24858100197E+01  0.00000000000E+00 0.  1.
</event>
<event>
 8    1  0.5834107E-011  0.9118800E+02  0.7816164E-02  0.1184000E+00
        -11   -1    0    0    0    0  0.00000000000E+00  0.00000000000E+00  0.45593999997E+02  0.45594000000E+02  0.51100000000E-03 0. -1.
         11   -1    0    0    0    0 -0.00000000000E+00 -0.00000000000E+00 -0.45593999997E+02  0.45594000000E+02  0.51100000000E-03 0.  1.
         23    2    1    2    0    0  0.00000000000E+00  0.00000000000E+00  0.00000000000E+00  0.91188000000E+02  0.91188000000E+02 0.  0.
    9900012    2    3    3    0    0  0.20083674922E+02 -0.21723775328E+02 -0.31754484862E+02  0.47787265885E+02  0.19999976478E+02 0.  0.
         12    1    3    3    0    0 -0.20083674922E+02  0.21723775328E+02  0.31754484862E+02  0.43400734115E+02  0.00000000000E+00 0. -1.
         11    1    4    4    0    0 -0.77129859062E+00 -0.54916336739E+01 -0.11012354310E+01  0.56538183256E+01  0.51100000000E-03 0. -1.
        -11    1    4    4    0    0  0.49419780887E+01 -0.37503949995E+00 -0.11825489372E+02  0.12822090360E+02  0.51100000000E-03 0.  1.
        -12    1    4    4    0    0  0.15912995423E+02 -0.15857102154E+02 -0.18827760059E+02  0.29311357200E+02  0.00000000000E+00 0.  1.
</event>
<event>
 8    1  0.5834107E-011  0.9118800E+02  0.7816164E-02  0.1184000E+00
        -11   -1    0    0    0    0  0.00000000000E+00  0.00000000000E+00  0.45593999997E+02  0.45594000000E+02  0.51100000000E-03 0. -1.
         11   -1    0    0    0    0 -0.00000000000E+00 -0.00000000000E+00 -0.45593999997E+02  0.45594000000E+02  0.51100000000E-03 0.  1.
         23    2    1    2    0    0  0.00000000000E+00  0.00000000000E+00  0.00000000000E+00  0.91188000000E+02  0.91188000000E+02 0.  0.
    9900012    2    3    3    0    0 -0.37376974043E+01 -0.24427801355E+02 -0.35678232754E+02  0.47787260912E+02  0.19999953801E+02 0.  0.
         12    1    3    3    0    0  0.37376974043E+01  0.24427801355E+02  0.35678232754E+02  0.43400739088E+02  0.00000000000E+00 0. -1.
         11    1    4    4    0    0  0.23382997736E+01  0.72709301599E+00 -0.65492191487E+00  0.25348043437E+01  0.51100000000E-03 0.  1.
        -11    1    4    4    0    0 -0.68501103986E+01 -0.11695009222E+02 -0.10052676837E+02  0.16874642664E+02  0.51100000000E-03 0. -1.
        -12    1    4    4    0    0  0.77411322070E+00 -0.13459885149E+02 -0.24970634002E+02  0.28377813904E+02  0.00000000000E+00 0.  1.
</event>
<event>
 8    1  0.5834107E-011  0.9118800E+02  0.7816164E-02  0.1184000E+00
        -11   -1    0    0    0    0  0.00000000000E+00  0.00000000000E+00  0.45593999997E+02  0.45594000000E+02  0.51100000000E-03 0. -1.
         11   -1    0    0    0    0 -0.00000000000E+00 -0.00000000000E+00 -0.45593999997E+02  0.45594000000E+02  0.51100000000E-03 0.  1.
         23    2    1    2    0    0  0.71054273576E-14  0.00000000000E+00  0.00000000000E+00  0.91188000000E+02  0.91188000000E+02 0.  0.
    9900012    2    3    3    0    0 -0.34648465982E+02 -0.17817726189E+02  0.19121605233E+02  0.47787270189E+02  0.19999996099E+02 0.  0.
        -12    1    3    3    0    0  0.34648465982E+02  0.17817726189E+02 -0.19121605233E+02  0.43400729811E+02  0.00000000000E+00 0.  1.
         11    1    4    4    0    0 -0.23516669225E+02 -0.90778564060E+01  0.86669897129E+01  0.26656292302E+02  0.51100000000E-03 0.  1.
        -11    1    4    4    0    0 -0.12805665481E+02 -0.80787696657E+01  0.59287747360E+01  0.16260441502E+02  0.51100000000E-03 0. -1.
         12    1    4    4    0    0  0.16738687236E+01 -0.66110011719E+00  0.45258407837E+01  0.48705363840E+01  0.00000000000E+00 0. -1.
</event>
<event>
 8    1  0.5834107E-011  0.9118800E+02  0.7816164E-02  0.1184000E+00
        -11   -1    0    0    0    0  0.00000000000E+00  0.00000000000E+00  0.45593999997E+02  0.45594000000E+02  0.51100000000E-03 0. -1.
         11   -1    0    0    0    0 -0.00000000000E+00 -0.00000000000E+00 -0.45593999997E+02  0.45594000000E+02  0.51100000000E-03 0.  1.
         23    2    1    2    0    0 -0.35527136788E-14  0.88817841970E-15  0.00000000000E+00  0.91188000000E+02  0.91188000000E+02 0.  0.
    9900012    2    3    3    0    0  0.25194007496E+02 -0.73902257770E+01  0.34558206239E+02  0.47787273403E+02  0.20000010752E+02 0.  0.
        -12    1    3    3    0    0 -0.25194007496E+02  0.73902257770E+01 -0.34558206239E+02  0.43400726597E+02  0.00000000000E+00 0.  1.
         11    1    4    4    0    0  0.22899475379E+02 -0.18073162036E+00  0.28469198191E+02  0.36536473317E+02  0.51100000000E-03 0. -1.
        -11    1    4    4    0    0  0.30008537858E+01 -0.10636141950E+01  0.13511066180E+01  0.34585962404E+01  0.51100000000E-03 0.  1.
        -12    1    4    4    0    0 -0.70632166914E+00 -0.61458799617E+01  0.47379014294E+01  0.77922038447E+01  0.00000000000E+00 0.  1.
</event>
<event>
 8    1  0.5834107E-011  0.9118800E+02  0.7816164E-02  0.1184000E+00
        -11   -1    0    0    0    0  0.00000000000E+00  0.00000000000E+00  0.45593999997E+02  0.45594000000E+02  0.51100000000E-03 0. -1.
         11   -1    0    0    0    0 -0.00000000000E+00 -0.00000000000E+00 -0.45593999997E+02  0.45594000000E+02  0.51100000000E-03 0.  1.
         23    2    1    2    0    0  0.00000000000E+00  0.00000000000E+00  0.00000000000E+00  0.91188000000E+02  0.91188000000E+02 0.  0.
    9900012    2    3    3    0    0 -0.19761707235E+02 -0.92419283595E+01 -0.37519161132E+02  0.47787242349E+02  0.19999869166E+02 0.  0.
         12    1    3    3    0    0  0.19761707235E+02  0.92419283595E+01  0.37519161132E+02  0.43400757651E+02  0.00000000000E+00 0. -1.
         11    1    4    4    0    0 -0.14183706284E+02 -0.87025815613E+01 -0.15439201337E+02  0.22699810307E+02  0.51100000000E-03 0. -1.
        -11    1    4    4    0    0 -0.74634568941E+01  0.26274557553E+01 -0.12187599754E+02  0.14530805229E+02  0.51100000000E-03 0.  1.
        -12    1    4    4    0    0  0.18854559426E+01 -0.31668025535E+01 -0.98923600399E+01  0.10556626814E+02  0.00000000000E+00 0.  1.
</event>
<event>
 8    1  0.5834107E-011  0.9118800E+02  0.7816164E-02  0.1184000E+00
        -11   -1    0    0    0    0  0.00000000000E+00  0.00000000000E+00  0.45593999997E+02  0.45594000000E+02  0.51100000000E-03 0. -1.
         11   -1    0    0    0    0 -0.00000000000E+00 -0.00000000000E+00 -0.45593999997E+02  0.45594000000E+02  0.51100000000E-03 0.  1.
         23    2    1    2    0    0  0.00000000000E+00  0.35527136788E-14  0.00000000000E+00  0.91188000000E+02  0.91188000000E+02 0.  0.
    9900012    2    3    3    0    0  0.17101173992E+02  0.23485359767E+02 -0.32243002737E+02  0.47787268430E+02  0.19999988082E+02 0.  0.
         12    1    3    3    0    0 -0.17101173992E+02 -0.23485359767E+02  0.32243002737E+02  0.43400731570E+02  0.00000000000E+00 0. -1.
         11    1    4    4    0    0  0.65157956132E+00  0.39036998843E+01 -0.14681536995E+02  0.15205622562E+02  0.51100000000E-03 0.  1.
        -11    1    4    4    0    0  0.14489862266E+01  0.53610621734E+01 -0.14962955745E+00  0.55554421946E+01  0.51100000000E-03 0. -1.
        -12    1    4    4    0    0  0.15000608204E+02  0.14220597709E+02 -0.17411836185E+02  0.27026203674E+02  0.00000000000E+00 0.  1.
</event>
<event>
 8    1  0.5834107E-011  0.9118800E+02  0.7816164E-02  0.1184000E+00
        -11   -1    0    0    0    0  0.00000000000E+00  0.00000000000E+00  0.45593999997E+02  0.45594000000E+02  0.51100000000E-03 0. -1.
         11   -1    0    0    0    0 -0.00000000000E+00 -0.00000000000E+00 -0.45593999997E+02  0.45594000000E+02  0.51100000000E-03 0.  1.
         23    2    1    2    0    0  0.00000000000E+00  0.00000000000E+00 -0.71054273576E-14  0.91188000000E+02  0.91188000000E+02 0.  0.
    9900012    2    3    3    0    0 -0.85581427246E+01 -0.21112276475E+02  0.36941191735E+02  0.47787289503E+02  0.20000084160E+02 0.  0.
        -12    1    3    3    0    0  0.85581427246E+01  0.21112276475E+02 -0.36941191735E+02  0.43400710497E+02  0.00000000000E+00 0.  1.
         11    1    4    4    0    0  0.42390874936E+00  0.11243139591E+01  0.85881020741E+00  0.14769345754E+01  0.51100000000E-03 0. -1.
        -11    1    4    4    0    0 -0.51924247304E+01 -0.21887442172E+02  0.36064145002E+02  0.42504634505E+02  0.51100000000E-03 0.  1.
        -12    1    4    4    0    0 -0.37896267436E+01 -0.34914826234E+00  0.18236525057E-01  0.38057204227E+01  0.00000000000E+00 0.  1.
</event>
<event>
 8    1  0.5834107E-011  0.9118800E+02  0.7816164E-02  0.1184000E+00
        -11   -1    0    0    0    0  0.00000000000E+00  0.00000000000E+00  0.45593999997E+02  0.45594000000E+02  0.51100000000E-03 0. -1.
         11   -1    0    0    0    0 -0.00000000000E+00 -0.00000000000E+00 -0.45593999997E+02  0.45594000000E+02  0.51100000000E-03 0.  1.
         23    2    1    2    0    0  0.00000000000E+00  0.00000000000E+00  0.35527136788E-14  0.91188000000E+02  0.91188000000E+02 0.  0.
    9900012    2    3    3    0    0  0.28131327202E+02  0.94507319915E+01  0.31669156710E+02  0.47787269683E+02  0.19999993793E+02 0.  0.
        -12    1    3    3    0    0 -0.28131327202E+02 -0.94507319915E+01 -0.31669156710E+02  0.43400730317E+02  0.00000000000E+00 0.  1.
         11    1    4    4    0    0  0.20536177579E+01  0.44442793435E+01  0.16350853081E+01  0.51616343347E+01  0.51100000000E-03 0. -1.
        -11    1    4    4    0    0  0.12198082143E+02  0.48281334816E+01  0.50747696846E+01  0.14066178176E+02  0.51100000000E-03 0.  1.
         12    1    4    4    0    0  0.13879627301E+02  0.17831916639E+00  0.24959301717E+02  0.28559457172E+02  0.00000000000E+00 0. -1.
</event>
<event>
 8    1  0.5834107E-011  0.9118800E+02  0.7816164E-02  0.1184000E+00
        -11   -1    0    0    0    0  0.00000000000E+00  0.00000000000E+00  0.45593999997E+02  0.45594000000E+02  0.51100000000E-03 0.  1.
         11   -1    0    0    0    0 -0.00000000000E+00 -0.00000000000E+00 -0.45593999997E+02  0.45594000000E+02  0.51100000000E-03 0. -1.
         23    2    1    2    0    0 -0.17763568394E-14  0.00000000000E+00  0.00000000000E+00  0.91188000000E+02  0.91188000000E+02 0.  0.
    9900012    2    3    3    0    0 -0.14457549166E+02  0.35169335477E+02 -0.20921767289E+02  0.47787271524E+02  0.20000002185E+02 0.  0.
         12    1    3    3    0    0  0.14457549166E+02 -0.35169335477E+02  0.20921767289E+02  0.43400728476E+02  0.00000000000E+00 0. -1.
         11    1    4    4    0    0 -0.52800543788E+01  0.10557659096E+02 -0.13306780461E+02  0.17788016931E+02  0.51100000000E-03 0. -1.
        -11    1    4    4    0    0 -0.48587597665E+00 -0.94462341767E-01  0.20298992154E+01  0.20893754293E+01  0.51100000000E-03 0.  1.
        -12    1    4    4    0    0 -0.86916188108E+01  0.24706138723E+02 -0.96448860431E+01  0.27909879164E+02  0.00000000000E+00 0.  1.
</event>
<event>
 8    1  0.5834107E-011  0.9118800E+02  0.7816164E-02  0.1184000E+00
        -11   -1    0    0    0    0  0.00000000000E+00  0.00000000000E+00  0.45593999997E+02  0.45594000000E+02  0.51100000000E-03 0. -1.
         11   -1    0    0    0    0 -0.00000000000E+00 -0.00000000000E+00 -0.45593999997E+02  0.45594000000E+02  0.51100000000E-03 0.  1.
         23    2    1    2    0    0  0.00000000000E+00  0.00000000000E+00  0.00000000000E+00  0.91188000000E+02  0.91188000000E+02 0.  0.
    9900012    2    3    3    0    0  0.36607689383E+02 -0.10361820244E+02 -0.20883807201E+02  0.47787266781E+02  0.19999980564E+02 0.  0.
         12    1    3    3    0    0 -0.36607689383E+02  0.10361820244E+02  0.20883807201E+02  0.43400733219E+02  0.00000000000E+00 0. -1.
         11    1    4    4    0    0  0.68079315712E+01 -0.30316001526E+01 -0.11718209337E+01  0.75439841148E+01  0.51100000000E-03 0. -1.
        -11    1    4    4    0    0  0.18039743415E+02 -0.12381124877E+02 -0.94275984703E+01  0.23824445615E+02  0.51100000000E-03 0.  1.
         12    1    4    4    0    0  0.11760014396E+02  0.50509047859E+01 -0.10284387797E+02  0.16418837051E+02  0.00000000000E+00 0. -1.
</event>
<event>
 8    1  0.5834107E-011  0.9118800E+02  0.7816164E-02  0.1184000E+00
        -11   -1    0    0    0    0  0.00000000000E+00  0.00000000000E+00  0.45593999997E+02  0.45594000000E+02  0.51100000000E-03 0.  1.
         11   -1    0    0    0    0 -0.00000000000E+00 -0.00000000000E+00 -0.45593999997E+02  0.45594000000E+02  0.51100000000E-03 0. -1.
         23    2    1    2    0    0 -0.35527136788E-14  0.71054273576E-14  0.44408920985E-15  0.91188000000E+02  0.91188000000E+02 0.  0.
    9900012    2    3    3    0    0  0.24432944593E+02 -0.35691994052E+02  0.35685528539E+01  0.47787288136E+02  0.20000077925E+02 0.  0.
         12    1    3    3    0    0 -0.24432944593E+02  0.35691994052E+02 -0.35685528539E+01  0.43400711864E+02  0.00000000000E+00 0. -1.
         11    1    4    4    0    0  0.68908264070E+01 -0.10530470711E+02 -0.49792431184E+01  0.13533926417E+02  0.51100000000E-03 0.  1.
        -11    1    4    4    0    0  0.62945760139E-01 -0.69965986557E+00 -0.22120811237E+01  0.23209457674E+01  0.51100000000E-03 0. -1.
        -12    1    4    4    0    0  0.17479172426E+02 -0.24461863475E+02  0.10759877096E+02  0.31932415951E+02  0.00000000000E+00 0.  1.
</event>
<event>
 8    1  0.5834107E-011  0.9118800E+02  0.7816164E-02  0.1184000E+00
        -11   -1    0    0    0    0  0.00000000000E+00  0.00000000000E+00  0.45593999997E+02  0.45594000000E+02  0.51100000000E-03 0. -1.
         11   -1    0    0    0    0 -0.00000000000E+00 -0.00000000000E+00 -0.45593999997E+02  0.45594000000E+02  0.51100000000E-03 0.  1.
         23    2    1    2    0    0  0.00000000000E+00  0.00000000000E+00  0.00000000000E+00  0.91188000000E+02  0.91188000000E+02 0.  0.
    9900012    2    3    3    0    0  0.14422697137E+02  0.19827310802E+02  0.35811822149E+02  0.47787273601E+02  0.20000011657E+02 0.  0.
        -12    1    3    3    0    0 -0.14422697137E+02 -0.19827310802E+02 -0.35811822149E+02  0.43400726399E+02  0.00000000000E+00 0.  1.
         11    1    4    4    0    0 -0.10034873969E+01  0.65561075996E+01  0.83860814467E+01  0.10691861209E+02  0.51100000000E-03 0.  1.
        -11    1    4    4    0    0  0.86517287942E+01  0.14136349540E+02  0.12757231604E+02  0.20914964688E+02  0.51100000000E-03 0. -1.
        -12    1    4    4    0    0  0.67744557393E+01 -0.86514633806E+00  0.14668509098E+02  0.16180447705E+02  0.00000000000E+00 0.  1.
</event>
<event>
 8    1  0.5834107E-011  0.9118800E+02  0.7816164E-02  0.1184000E+00
        -11   -1    0    0    0    0  0.00000000000E+00  0.00000000000E+00  0.45593999997E+02  0.45594000000E+02  0.51100000000E-03 0. -1.
         11   -1    0    0    0    0 -0.00000000000E+00 -0.00000000000E+00 -0.45593999997E+02  0.45594000000E+02  0.51100000000E-03 0.  1.
         23    2    1    2    0    0 -0.88817841970E-15  0.17763568394E-14  0.00000000000E+00  0.91188000000E+02  0.91188000000E+02 0.  0.
    9900012    2    3    3    0    0 -0.46596683604E+01  0.11158966572E+02  0.41681988418E+02  0.47787271865E+02  0.20000003742E+02 0.  0.
        -12    1    3    3    0    0  0.46596683604E+01 -0.11158966572E+02 -0.41681988418E+02  0.43400728135E+02  0.00000000000E+00 0.  1.
         11    1    4    4    0    0  0.16424966569E+01  0.62409684327E+00 -0.13908237677E+00  0.17625652630E+01  0.51100000000E-03 0. -1.
        -11    1    4    4    0    0 -0.12950979179E+01  0.50999844629E+01  0.21714162508E+01  0.56922903066E+01  0.51100000000E-03 0.  1.
         12    1    4    4    0    0 -0.50070670995E+01  0.54348852654E+01  0.39649654544E+02  0.40332416295E+02  0.00000000000E+00 0. -1.
</event>
<event>
 8    1  0.5834107E-011  0.9118800E+02  0.7816164E-02  0.1184000E+00
        -11   -1    0    0    0    0  0.00000000000E+00  0.00000000000E+00  0.45593999997E+02  0.45594000000E+02  0.51100000000E-03 0. -1.
         11   -1    0    0    0    0 -0.00000000000E+00 -0.00000000000E+00 -0.45593999997E+02  0.45594000000E+02  0.51100000000E-03 0.  1.
         23    2    1    2    0    0 -0.17763568394E-14  0.71054273576E-14  0.00000000000E+00  0.91188000000E+02  0.91188000000E+02 0.  0.
    9900012    2    3    3    0    0  0.10664491664E+02 -0.37454568889E+02 -0.19158459410E+02  0.47787277885E+02  0.20000031190E+02 0.  0.
         12    1    3    3    0    0 -0.10664491664E+02  0.37454568889E+02  0.19158459410E+02  0.43400722115E+02  0.00000000000E+00 0. -1.
         11    1    4    4    0    0  0.26866137987E+01 -0.11774699850E+02 -0.12707346435E+02  0.17531061118E+02  0.51100000000E-03 0. -1.
        -11    1    4    4    0    0  0.43364230033E+01 -0.16832774699E+02 -0.99981193958E+01  0.20052662174E+02  0.51100000000E-03 0.  1.
         12    1    4    4    0    0  0.36414548621E+01 -0.88470943405E+01  0.35470064213E+01  0.10203554593E+02  0.00000000000E+00 0. -1.
</event>
<event>
 8    1  0.5834107E-011  0.9118800E+02  0.7816164E-02  0.1184000E+00
        -11   -1    0    0    0    0  0.00000000000E+00  0.00000000000E+00  0.45593999997E+02  0.45594000000E+02  0.51100000000E-03 0. -1.
         11   -1    0    0    0    0 -0.00000000000E+00 -0.00000000000E+00 -0.45593999997E+02  0.45594000000E+02  0.51100000000E-03 0.  1.
         23    2    1    2    0    0  0.71054273576E-14  0.00000000000E+00  0.00000000000E+00  0.91188000000E+02  0.91188000000E+02 0.  0.
    9900012    2    3    3    0    0  0.34804733739E+02  0.57923990035E+00 -0.25921391302E+02  0.47787268018E+02  0.19999986203E+02 0.  0.
         12    1    3    3    0    0 -0.34804733739E+02 -0.57923990035E+00  0.25921391302E+02  0.43400731982E+02  0.00000000000E+00 0. -1.
         11    1    4    4    0    0  0.10451842422E+01  0.37985132143E+01 -0.41086633687E+01  0.56922954665E+01  0.51100000000E-03 0. -1.
        -11    1    4    4    0    0  0.96792350557E+01 -0.62899154222E+01 -0.50816483367E+01  0.12612445336E+02  0.51100000000E-03 0.  1.
         12    1    4    4    0    0  0.24080314441E+02  0.30706421082E+01 -0.16731079596E+02  0.29482527216E+02  0.00000000000E+00 0. -1.
</event>
<event>
 8    1  0.5834107E-011  0.9118800E+02  0.7816164E-02  0.1184000E+00
        -11   -1    0    0    0    0  0.00000000000E+00  0.00000000000E+00  0.45593999997E+02  0.45594000000E+02  0.51100000000E-03 0.  1.
         11   -1    0    0    0    0 -0.00000000000E+00 -0.00000000000E+00 -0.45593999997E+02  0.45594000000E+02  0.51100000000E-03 0. -1.
         23    2    1    2    0    0  0.71054273576E-14 -0.88817841970E-15  0.17763568394E-14  0.91188000000E+02  0.91188000000E+02 0.  0.
    9900012    2    3    3    0    0 -0.39923340778E+02  0.60568356119E+01 -0.15908025104E+02  0.47787266605E+02  0.19999979760E+02 0.  0.
         12    1    3    3    0    0  0.39923340778E+02 -0.60568356119E+01  0.15908025104E+02  0.43400733395E+02  0.00000000000E+00 0. -1.
         11    1    4    4    0    0 -0.73771867035E+01 -0.22779645202E+01  0.11835427638E+01  0.78110677727E+01  0.51100000000E-03 0. -1.
        -11    1    4    4    0    0 -0.30280606575E+02  0.36230347281E+01 -0.16608377026E+02  0.34725778651E+02  0.51100000000E-03 0.  1.
         12    1    4    4    0    0 -0.22655474991E+01  0.47117654041E+01 -0.48319084135E+00  0.52504201816E+01  0.00000000000E+00 0. -1.
</event>
<event>
 8    1  0.5834107E-011  0.9118800E+02  0.7816164E-02  0.1184000E+00
        -11   -1    0    0    0    0  0.00000000000E+00  0.00000000000E+00  0.45593999997E+02  0.45594000000E+02  0.51100000000E-03 0. -1.
         11   -1    0    0    0    0 -0.00000000000E+00 -0.00000000000E+00 -0.45593999997E+02  0.45594000000E+02  0.51100000000E-03 0.  1.
         23    2    1    2    0    0 -0.35527136788E-14 -0.17763568394E-14  0.71054273576E-14  0.91188000000E+02  0.91188000000E+02 0.  0.
    9900012    2    3    3    0    0 -0.28003276361E+02 -0.40431844495E+01  0.32910372516E+02  0.47787269055E+02  0.19999990928E+02 0.  0.
        -12    1    3    3    0    0  0.28003276361E+02  0.40431844495E+01 -0.32910372516E+02  0.43400730945E+02  0.00000000000E+00 0.  1.
         11    1    4    4    0    0 -0.95287582403E+01 -0.15494810895E+01  0.12581253393E+02  0.15858312094E+02  0.51100000000E-03 0. -1.
        -11    1    4    4    0    0 -0.89235960318E+01 -0.65833872415E+01  0.18216995006E+02  0.21326754582E+02  0.51100000000E-03 0.  1.
        -12    1    4    4    0    0 -0.95509220889E+01  0.40896838815E+01  0.21121241168E+01  0.10602202379E+02  0.00000000000E+00 0.  1.
</event>
<event>
 8    1  0.5834107E-011  0.9118800E+02  0.7816164E-02  0.1184000E+00
        -11   -1    0    0    0    0  0.00000000000E+00  0.00000000000E+00  0.45593999997E+02  0.45594000000E+02  0.51100000000E-03 0. -1.
         11   -1    0    0    0    0 -0.00000000000E+00 -0.00000000000E+00 -0.45593999997E+02  0.45594000000E+02  0.51100000000E-03 0.  1.
         23    2    1    2    0    0  0.00000000000E+00 -0.35527136788E-14 -0.71054273576E-14  0.91188000000E+02  0.91188000000E+02 0.  0.
    9900012    2    3    3    0    0 -0.20639299086E+01  0.18506776621E+02  0.39202811673E+02  0.47787296888E+02  0.20000117829E+02 0.  0.
        -12    1    3    3    0    0  0.20639299086E+01 -0.18506776621E+02 -0.39202811673E+02  0.43400703112E+02  0.00000000000E+00 0.  1.
         11    1    4    4    0    0  0.20208859015E+01 -0.78175446658E+00  0.10975821778E+02  0.11187662126E+02  0.51100000000E-03 0. -1.
        -11    1    4    4    0    0  0.27275404322E+01  0.84792796519E+01  0.53329942549E+01  0.10381641884E+02  0.51100000000E-03 0.  1.
         12    1    4    4    0    0 -0.68123562423E+01  0.10809251435E+02  0.22893995640E+02  0.26217992878E+02  0.00000000000E+00 0. -1.
</event>
<event>
 8    1  0.5834107E-011  0.9118800E+02  0.7816164E-02  0.1184000E+00
        -11   -1    0    0    0    0  0.00000000000E+00  0.00000000000E+00  0.45593999997E+02  0.45594000000E+02  0.51100000000E-03 0. -1.
         11   -1    0    0    0    0 -0.00000000000E+00 -0.00000000000E+00 -0.45593999997E+02  0.45594000000E+02  0.51100000000E-03 0.  1.
         23    2    1    2    0    0  0.00000000000E+00  0.00000000000E+00  0.35527136788E-14  0.91188000000E+02  0.91188000000E+02 0.  0.
    9900012    2    3    3    0    0  0.36620992410E+02  0.12595320025E+02  0.19592957966E+02  0.47787272201E+02  0.20000005272E+02 0.  0.
        -12    1    3    3    0    0 -0.36620992410E+02 -0.12595320025E+02 -0.19592957966E+02  0.43400727799E+02  0.00000000000E+00 0.  1.
         11    1    4    4    0    0  0.94342485952E+01  0.36896067403E+00  0.34260318937E+01  0.10043847536E+02  0.51100000000E-03 0. -1.
        -11    1    4    4    0    0  0.27298968223E+02  0.11232443963E+02  0.18751738307E+02  0.34971833712E+02  0.51100000000E-03 0.  1.
        -12    1    4    4    0    0 -0.11222440770E+00  0.99391538856E+00 -0.25848122346E+01  0.27715909520E+01  0.00000000000E+00 0.  1.
</event>
<event>
 8    1  0.5834107E-011  0.9118800E+02  0.7816164E-02  0.1184000E+00
        -11   -1    0    0    0    0  0.00000000000E+00  0.00000000000E+00  0.45593999997E+02  0.45594000000E+02  0.51100000000E-03 0. -1.
         11   -1    0    0    0    0 -0.00000000000E+00 -0.00000000000E+00 -0.45593999997E+02  0.45594000000E+02  0.51100000000E-03 0.  1.
         23    2    1    2    0    0  0.00000000000E+00  0.00000000000E+00  0.17763568394E-14  0.91188000000E+02  0.91188000000E+02 0.  0.
    9900012    2    3    3    0    0 -0.40543698827E+02 -0.68562410560E+01  0.13886075296E+02  0.47787278311E+02  0.20000033130E+02 0.  0.
        -12    1    3    3    0    0  0.40543698827E+02  0.68562410560E+01 -0.13886075296E+02  0.43400721689E+02  0.00000000000E+00 0.  1.
         11    1    4    4    0    0 -0.11701607340E+02 -0.26323935066E+01  0.15510364857E+01  0.12093916832E+02  0.51100000000E-03 0. -1.
        -11    1    4    4    0    0 -0.13776003510E+02 -0.19514761209E+01  0.14738525866E+02  0.20268465080E+02  0.51100000000E-03 0.  1.
        -12    1    4    4    0    0 -0.15066087978E+02 -0.22723714285E+01 -0.24034870555E+01  0.15424896398E+02  0.00000000000E+00 0.  1.
</event>
<event>
 8    1  0.5834107E-011  0.9118800E+02  0.7816164E-02  0.1184000E+00
        -11   -1    0    0    0    0  0.00000000000E+00  0.00000000000E+00  0.45593999997E+02  0.45594000000E+02  0.51100000000E-03 0.  1.
         11   -1    0    0    0    0 -0.00000000000E+00 -0.00000000000E+00 -0.45593999997E+02  0.45594000000E+02  0.51100000000E-03 0. -1.
         23    2    1    2    0    0  0.00000000000E+00 -0.17763568394E-14  0.00000000000E+00  0.91188000000E+02  0.91188000000E+02 0.  0.
    9900012    2    3    3    0    0  0.33667367741E+02 -0.15293014533E+02  0.22721252898E+02  0.47787271004E+02  0.19999999817E+02 0.  0.
        -12    1    3    3    0    0 -0.33667367741E+02  0.15293014533E+02 -0.22721252898E+02  0.43400728996E+02  0.00000000000E+00 0.  1.
         11    1    4    4    0    0  0.10570053368E+01  0.13056244794E+01 -0.13201469667E+01  0.21365167535E+01  0.51100000000E-03 0. -1.
        -11    1    4    4    0    0  0.91736871716E+01 -0.91321089548E+01  0.14044065664E+02  0.19099417031E+02  0.51100000000E-03 0.  1.
        -12    1    4    4    0    0  0.23436675233E+02 -0.74665300574E+01  0.99973342010E+01  0.26551337220E+02  0.00000000000E+00 0.  1.
</event>
<event>
 8    1  0.9710588E-011  0.9118800E+02  0.7816164E-02  0.1184000E+00
        -11   -1    0    0    0    0  0.00000000000E+00  0.00000000000E+00  0.45593999997E+02  0.45594000000E+02  0.51100000000E-03 0. -1.
         11   -1    0    0    0    0 -0.00000000000E+00 -0.00000000000E+00 -0.45593999997E+02  0.45594000000E+02  0.51100000000E-03 0.  1.
         23    2    1    2    0    0  0.00000000000E+00  0.00000000000E+00  0.00000000000E+00  0.91188000000E+02  0.91188000000E+02 0.  0.
    9900012    2    3    3    0    0 -0.59258683523E+01 -0.25979984454E+02  0.34257085795E+02  0.47787269187E+02  0.19999991529E+02 0.  0.
        -12    1    3    3    0    0  0.59258683523E+01  0.25979984454E+02 -0.34257085795E+02  0.43400730813E+02  0.00000000000E+00 0.  1.
         11    1    4    4    0    0  0.45392294007E+01 -0.77398997264E+01  0.14242251827E+02  0.16833074249E+02  0.51100000000E-03 0. -1.
        -11    1    4    4    0    0 -0.40690376114E+01 -0.72369093338E-02  0.19885526897E+01  0.45289581049E+01  0.51100000000E-03 0.  1.
         12    1    4    4    0    0 -0.63960601416E+01 -0.18232847819E+02  0.18026281279E+02  0.26425236832E+02  0.00000000000E+00 0. -1.
</event>
<event>
 8    1  0.5834107E-011  0.9118800E+02  0.7816164E-02  0.1184000E+00
        -11   -1    0    0    0    0  0.00000000000E+00  0.00000000000E+00  0.45593999997E+02  0.45594000000E+02  0.51100000000E-03 0.  1.
         11   -1    0    0    0    0 -0.00000000000E+00 -0.00000000000E+00 -0.45593999997E+02  0.45594000000E+02  0.51100000000E-03 0. -1.
         23    2    1    2    0    0  0.00000000000E+00  0.00000000000E+00  0.00000000000E+00  0.91188000000E+02  0.91188000000E+02 0.  0.
    9900012    2    3    3    0    0 -0.57235129404E+01 -0.41759792033E+02  0.10343300719E+02  0.47787277647E+02  0.20000030103E+02 0.  0.
        -12    1    3    3    0    0  0.57235129404E+01  0.41759792033E+02 -0.10343300719E+02  0.43400722353E+02  0.00000000000E+00 0.  1.
         11    1    4    4    0    0 -0.98231295016E+01 -0.34907962855E+02  0.30130631622E+01  0.36388711076E+02  0.51100000000E-03 0.  1.
        -11    1    4    4    0    0  0.35238688960E+01 -0.34359732117E+01  0.26929617264E+01  0.56103125607E+01  0.51100000000E-03 0. -1.
        -12    1    4    4    0    0  0.57574766518E+00 -0.34158559663E+01  0.46372758307E+01  0.57882540101E+01  0.00000000000E+00 0.  1.
</event>
<event>
 8    1  0.5834107E-011  0.9118800E+02  0.7816164E-02  0.1184000E+00
        -11   -1    0    0    0    0  0.00000000000E+00  0.00000000000E+00  0.45593999997E+02  0.45594000000E+02  0.51100000000E-03 0.  1.
         11   -1    0    0    0    0 -0.00000000000E+00 -0.00000000000E+00 -0.45593999997E+02  0.45594000000E+02  0.51100000000E-03 0. -1.
         23    2    1    2    0    0  0.17763568394E-14  0.00000000000E+00  0.88817841970E-15  0.91188000000E+02  0.91188000000E+02 0.  0.
    9900012    2    3    3    0    0 -0.14946741497E+02  0.40290356372E+02 -0.60749759360E+01  0.47787271543E+02  0.20000002275E+02 0.  0.
        -12    1    3    3    0    0  0.14946741497E+02 -0.40290356372E+02  0.60749759360E+01  0.43400728457E+02  0.00000000000E+00 0.  1.
         11    1    4    4    0    0 -0.60233346584E+00  0.11246973940E+02  0.13954476265E+01  0.11349207142E+02  0.51100000000E-03 0.  1.
        -11    1    4    4    0    0 -0.17077327197E+02  0.26760813657E+02 -0.50800819294E+01  0.32149393221E+02  0.51100000000E-03 0. -1.
        -12    1    4    4    0    0  0.27329191653E+01  0.22825687744E+01 -0.23903416331E+01  0.42886711808E+01  0.00000000000E+00 0.  1.
</event>
<event>
 8    1  0.5834107E-011  0.9118800E+02  0.7816164E-02  0.1184000E+00
        -11   -1    0    0    0    0  0.00000000000E+00  0.00000000000E+00  0.45593999997E+02  0.45594000000E+02  0.51100000000E-03 0.  1.
         11   -1    0    0    0    0 -0.00000000000E+00 -0.00000000000E+00 -0.45593999997E+02  0.45594000000E+02  0.51100000000E-03 0. -1.
         23    2    1    2    0    0  0.71054273576E-14  0.00000000000E+00  0.00000000000E+00  0.91188000000E+02  0.91188000000E+02 0.  0.
    9900012    2    3    3    0    0 -0.42548421379E+02 -0.82728883078E+01  0.21941775531E+01  0.47787271228E+02  0.20000000839E+02 0.  0.
         12    1    3    3    0    0  0.42548421379E+02  0.82728883078E+01 -0.21941775531E+01  0.43400728772E+02  0.00000000000E+00 0. -1.
         11    1    4    4    0    0 -0.17578344526E+02  0.39744790089E+01  0.94615001122E+00  0.18046880057E+02  0.51100000000E-03 0. -1.
        -11    1    4    4    0    0 -0.23446517143E+02 -0.73781793384E+01  0.50992696639E+00  0.24585294837E+02  0.51100000000E-03 0.  1.
         12    1    4    4    0    0 -0.15235597099E+01 -0.48691879783E+01  0.73810057550E+00  0.51550963345E+01  0.00000000000E+00 0. -1.
</event>
<event>
 8    1  0.5834107E-011  0.9118800E+02  0.7816164E-02  0.1184000E+00
        -11   -1    0    0    0    0  0.00000000000E+00  0.00000000000E+00  0.45593999997E+02  0.45594000000E+02  0.51100000000E-03 0.  1.
         11   -1    0    0    0    0 -0.00000000000E+00 -0.00000000000E+00 -0.45593999997E+02  0.45594000000E+02  0.51100000000E-03 0. -1.
         23    2    1    2    0    0  0.00000000000E+00  0.00000000000E+00 -0.35527136788E-14  0.91188000000E+02  0.91188000000E+02 0.  0.
    9900012    2    3    3    0    0  0.33220876463E+02  0.22524285144E+02 -0.16512214658E+02  0.47787270892E+02  0.19999999306E+02 0.  0.
        -12    1    3    3    0    0 -0.33220876463E+02 -0.22524285144E+02  0.16512214658E+02  0.43400729108E+02  0.00000000000E+00 0.  1.
         11    1    4    4    0    0  0.14093863150E+02  0.60343047321E+01 -0.36085269307E+01  0.15750278695E+02  0.51100000000E-03 0. -1.
        -11    1    4    4    0    0  0.11395230795E+02  0.57386380110E+01  0.10472917307E+01  0.12801565190E+02  0.51100000000E-03 0.  1.
        -12    1    4    4    0    0  0.77317825179E+01  0.10751342401E+02 -0.13950979458E+02  0.19235427007E+02  0.00000000000E+00 0.  1.
</event>
<event>
 8    1  0.5834107E-011  0.9118800E+02  0.7816164E-02  0.1184000E+00
        -11   -1    0    0    0    0  0.00000000000E+00  0.00000000000E+00  0.45593999997E+02  0.45594000000E+02  0.51100000000E-03 0. -1.
         11   -1    0    0    0    0 -0.00000000000E+00 -0.00000000000E+00 -0.45593999997E+02  0.45594000000E+02  0.51100000000E-03 0.  1.
         23    2    1    2    0    0  0.00000000000E+00  0.00000000000E+00  0.00000000000E+00  0.91188000000E+02  0.91188000000E+02 0.  0.
    9900012    2    3    3    0    0 -0.39928083661E+02 -0.86425509982E+01  0.14651905615E+02  0.47787263937E+02  0.19999967597E+02 0.  0.
        -12    1    3    3    0    0  0.39928083661E+02  0.86425509982E+01 -0.14651905615E+02  0.43400736063E+02  0.00000000000E+00 0.  1.
         11    1    4    4    0    0 -0.10612745993E+02  0.22521665256E+01  0.92349145090E+01  0.14247325287E+02  0.51100000000E-03 0. -1.
        -11    1    4    4    0    0  0.61570533896E+00 -0.10002047132E+01  0.12936925207E+01  0.17473245640E+01  0.51100000000E-03 0.  1.
        -12    1    4    4    0    0 -0.29931043007E+02 -0.98945128106E+01  0.41232985854E+01  0.31792614087E+02  0.00000000000E+00 0.  1.
</event>
<event>
 8    1  0.5834107E-011  0.9118800E+02  0.7816164E-02  0.1184000E+00
        -11   -1    0    0    0    0  0.00000000000E+00  0.00000000000E+00  0.45593999997E+02  0.45594000000E+02  0.51100000000E-03 0.  1.
         11   -1    0    0    0    0 -0.00000000000E+00 -0.00000000000E+00 -0.45593999997E+02  0.45594000000E+02  0.51100000000E-03 0. -1.
         23    2    1    2    0    0  0.00000000000E+00 -0.35527136788E-14  0.00000000000E+00  0.91188000000E+02  0.91188000000E+02 0.  0.
    9900012    2    3    3    0    0 -0.34615550926E+02 -0.17001496388E+02  0.19908189284E+02  0.47787271366E+02  0.20000001468E+02 0.  0.
        -12    1    3    3    0    0  0.34615550926E+02  0.17001496388E+02 -0.19908189284E+02  0.43400728634E+02  0.00000000000E+00 0.  1.
         11    1    4    4    0    0 -0.12320440336E+02 -0.63041560486E+01  0.52279550939E+01  0.14794159263E+02  0.51100000000E-03 0. -1.
        -11    1    4    4    0    0 -0.44951773483E+01  0.34440429062E+01  0.69856623805E+01  0.89926375490E+01  0.51100000000E-03 0.  1.
        -12    1    4    4    0    0 -0.17799933242E+02 -0.14141383246E+02  0.76945718092E+01  0.24000474554E+02  0.00000000000E+00 0.  1.
</event>
<event>
 8    1  0.5834107E-011  0.9118800E+02  0.7816164E-02  0.1184000E+00
        -11   -1    0    0    0    0  0.00000000000E+00  0.00000000000E+00  0.45593999997E+02  0.45594000000E+02  0.51100000000E-03 0. -1.
         11   -1    0    0    0    0 -0.00000000000E+00 -0.00000000000E+00 -0.45593999997E+02  0.45594000000E+02  0.51100000000E-03 0.  1.
         23    2    1    2    0    0  0.00000000000E+00 -0.88817841970E-15  0.00000000000E+00  0.91188000000E+02  0.91188000000E+02 0.  0.
    9900012    2    3    3    0    0 -0.16361864061E+02 -0.77573880793E+01 -0.39442813522E+02  0.47787271851E+02  0.20000003677E+02 0.  0.
         12    1    3    3    0    0  0.16361864061E+02  0.77573880793E+01  0.39442813522E+02  0.43400728149E+02  0.00000000000E+00 0. -1.
         11    1    4    4    0    0 -0.35356048125E+01 -0.47561509578E+01 -0.84791619265E+01  0.10344934053E+02  0.51100000000E-03 0. -1.
        -11    1    4    4    0    0 -0.83228535817E+01 -0.48316547735E+01 -0.46586829419E+01  0.10691964581E+02  0.51100000000E-03 0.  1.
         12    1    4    4    0    0 -0.45034056664E+01  0.18304176520E+01 -0.26304968653E+02  0.26750373217E+02  0.00000000000E+00 0. -1.
</event>
<event>
 8    1  0.5834107E-011  0.9118800E+02  0.7816164E-02  0.1184000E+00
        -11   -1    0    0    0    0  0.00000000000E+00  0.00000000000E+00  0.45593999997E+02  0.45594000000E+02  0.51100000000E-03 0. -1.
         11   -1    0    0    0    0 -0.00000000000E+00 -0.00000000000E+00 -0.45593999997E+02  0.45594000000E+02  0.51100000000E-03 0.  1.
         23    2    1    2    0    0  0.00000000000E+00  0.00000000000E+00  0.35527136788E-14  0.91188000000E+02  0.91188000000E+02 0.  0.
    9900012    2    3    3    0    0 -0.21268434119E+02 -0.21883976861E+02  0.30860467091E+02  0.47787272331E+02  0.20000005867E+02 0.  0.
        -12    1    3    3    0    0  0.21268434119E+02  0.21883976861E+02 -0.30860467091E+02  0.43400727669E+02  0.00000000000E+00 0.  1.
         11    1    4    4    0    0 -0.25824586484E+01 -0.65637026799E+01  0.10879411227E+02  0.12965834892E+02  0.51100000000E-03 0. -1.
        -11    1    4    4    0    0 -0.16345643205E+02 -0.66560722791E+01  0.68828707908E+01  0.18943528197E+02  0.51100000000E-03 0.  1.
        -12    1    4    4    0    0 -0.23403322660E+01 -0.86642019016E+01  0.13098185073E+02  0.15877909242E+02  0.00000000000E+00 0.  1.
</event>
<event>
 8    1  0.5834107E-011  0.9118800E+02  0.7816164E-02  0.1184000E+00
        -11   -1    0    0    0    0  0.00000000000E+00  0.00000000000E+00  0.45593999997E+02  0.45594000000E+02  0.51100000000E-03 0. -1.
         11   -1    0    0    0    0 -0.00000000000E+00 -0.00000000000E+00 -0.45593999997E+02  0.45594000000E+02  0.51100000000E-03 0.  1.
         23    2    1    2    0    0  0.35527136788E-14  0.00000000000E+00  0.00000000000E+00  0.91188000000E+02  0.91188000000E+02 0.  0.
    9900012    2    3    3    0    0  0.24651070679E+02  0.26059946913E+02 -0.24430048076E+02  0.47787269964E+02  0.19999995073E+02 0.  0.
         12    1    3    3    0    0 -0.24651070679E+02 -0.26059946913E+02  0.24430048076E+02  0.43400730036E+02  0.00000000000E+00 0. -1.
         11    1    4    4    0    0  0.88352767560E+01  0.53133780717E+01  0.71312782730E+00  0.10334536925E+02  0.51100000000E-03 0. -1.
        -11    1    4    4    0    0 -0.10594695139E+01  0.16441823559E+01 -0.54532194414E+00  0.20305633588E+01  0.51100000000E-03 0.  1.
        -12    1    4    4    0    0  0.16875263437E+02  0.19102386485E+02 -0.24597853959E+02  0.35422169680E+02  0.00000000000E+00 0.  1.
</event>
<event>
 8    1  0.5834107E-011  0.9118800E+02  0.7816164E-02  0.1184000E+00
        -11   -1    0    0    0    0  0.00000000000E+00  0.00000000000E+00  0.45593999997E+02  0.45594000000E+02  0.51100000000E-03 0.  1.
         11   -1    0    0    0    0 -0.00000000000E+00 -0.00000000000E+00 -0.45593999997E+02  0.45594000000E+02  0.51100000000E-03 0. -1.
         23    2    1    2    0    0 -0.35527136788E-14  0.00000000000E+00  0.00000000000E+00  0.91188000000E+02  0.91188000000E+02 0.  0.
    9900012    2    3    3    0    0  0.28153781797E+02 -0.32707811115E+02 -0.46030151918E+01  0.47787261685E+02  0.19999957327E+02 0.  0.
        -12    1    3    3    0    0 -0.28153781797E+02  0.32707811115E+02  0.46030151918E+01  0.43400738315E+02  0.00000000000E+00 0.  1.
         11    1    4    4    0    0  0.83019926908E+01 -0.13727728218E+02  0.37752180209E+01  0.16481076301E+02  0.51100000000E-03 0. -1.
        -11    1    4    4    0    0  0.91731369094E+01 -0.12613093919E+01 -0.87919678240E+00  0.93010929134E+01  0.51100000000E-03 0.  1.
         12    1    4    4    0    0  0.10678652197E+02 -0.17718773505E+02 -0.74990364303E+01  0.22005092471E+02  0.00000000000E+00 0. -1.
</event>
<event>
 8    1  0.5834107E-011  0.9118800E+02  0.7816164E-02  0.1184000E+00
        -11   -1    0    0    0    0  0.00000000000E+00  0.00000000000E+00  0.45593999997E+02  0.45594000000E+02  0.51100000000E-03 0. -1.
         11   -1    0    0    0    0 -0.00000000000E+00 -0.00000000000E+00 -0.45593999997E+02  0.45594000000E+02  0.51100000000E-03 0.  1.
         23    2    1    2    0    0 -0.44408920985E-15  0.35527136788E-14  0.00000000000E+00  0.91188000000E+02  0.91188000000E+02 0.  0.
    9900012    2    3    3    0    0 -0.39589543066E+01 -0.26223032962E+02  0.34355529305E+02  0.47787272233E+02  0.20000005418E+02 0.  0.
        -12    1    3    3    0    0  0.39589543066E+01  0.26223032962E+02 -0.34355529305E+02  0.43400727767E+02  0.00000000000E+00 0.  1.
         11    1    4    4    0    0  0.31426777838E+01 -0.85994047354E+01  0.17886164238E+02  0.20093308758E+02  0.51100000000E-03 0. -1.
        -11    1    4    4    0    0 -0.33560979765E+00 -0.12610182196E+02  0.14155798733E+02  0.18960906281E+02  0.51100000000E-03 0.  1.
        -12    1    4    4    0    0 -0.67660222927E+01 -0.50134460298E+01  0.23135663336E+01  0.87330571932E+01  0.00000000000E+00 0.  1.
</event>
<event>
 8    1  0.5834107E-011  0.9118800E+02  0.7816164E-02  0.1184000E+00
        -11   -1    0    0    0    0  0.00000000000E+00  0.00000000000E+00  0.45593999997E+02  0.45594000000E+02  0.51100000000E-03 0.  1.
         11   -1    0    0    0    0 -0.00000000000E+00 -0.00000000000E+00 -0.45593999997E+02  0.45594000000E+02  0.51100000000E-03 0. -1.
         23    2    1    2    0    0 -0.17763568394E-14 -0.71054273576E-14  0.00000000000E+00  0.91188000000E+02  0.91188000000E+02 0.  0.
    9900012    2    3    3    0    0  0.10371503346E+02  0.41944869325E+02 -0.40845085700E+01  0.47787270114E+02  0.19999995759E+02 0.  0.
        -12    1    3    3    0    0 -0.10371503346E+02 -0.41944869325E+02  0.40845085700E+01  0.43400729886E+02  0.00000000000E+00 0.  1.
         11    1    4    4    0    0  0.32971022224E+01  0.16106655890E+02 -0.24359821005E+01  0.16620146091E+02  0.51100000000E-03 0. -1.
        -11    1    4    4    0    0  0.67853091719E+01  0.28036307282E+02 -0.10242647445E+01  0.28863888599E+02  0.51100000000E-03 0.  1.
        -12    1    4    4    0    0  0.28909195209E+00 -0.21980938468E+01 -0.62426172499E+00  0.23032354238E+01  0.00000000000E+00 0.  1.
</event>
<event>
 8    1  0.5834107E-011  0.9118800E+02  0.7816164E-02  0.1184000E+00
        -11   -1    0    0    0    0  0.00000000000E+00  0.00000000000E+00  0.45593999997E+02  0.45594000000E+02  0.51100000000E-03 0. -1.
         11   -1    0    0    0    0 -0.00000000000E+00 -0.00000000000E+00 -0.45593999997E+02  0.45594000000E+02  0.51100000000E-03 0.  1.
         23    2    1    2    0    0  0.00000000000E+00  0.00000000000E+00  0.00000000000E+00  0.91188000000E+02  0.91188000000E+02 0.  0.
    9900012    2    3    3    0    0 -0.38586675764E+02 -0.19596558703E+02 -0.32660222366E+01  0.47787267739E+02  0.19999984929E+02 0.  0.
        -12    1    3    3    0    0  0.38586675764E+02  0.19596558703E+02  0.32660222366E+01  0.43400732261E+02  0.00000000000E+00 0.  1.
         11    1    4    4    0    0 -0.62570274536E+01 -0.39895424869E+01  0.54313365050E+01  0.91959914257E+01  0.51100000000E-03 0. -1.
        -11    1    4    4    0    0 -0.22933221319E+02 -0.57008046820E+01 -0.30956676444E+01  0.23833064690E+02  0.51100000000E-03 0.  1.
        -12    1    4    4    0    0 -0.93964269916E+01 -0.99062115344E+01 -0.56016910972E+01  0.14758211623E+02  0.00000000000E+00 0.  1.
</event>
<event>
 8    1  0.5834107E-011  0.9118800E+02  0.7816164E-02  0.1184000E+00
        -11   -1    0    0    0    0  0.00000000000E+00  0.00000000000E+00  0.45593999997E+02  0.45594000000E+02  0.51100000000E-03 0. -1.
         11   -1    0    0    0    0 -0.00000000000E+00 -0.00000000000E+00 -0.45593999997E+02  0.45594000000E+02  0.51100000000E-03 0.  1.
         23    2    1    2    0    0  0.00000000000E+00  0.00000000000E+00  0.00000000000E+00  0.91188000000E+02  0.91188000000E+02 0.  0.
    9900012    2    3    3    0    0 -0.43235333743E+02 -0.21337170654E+01 -0.31268158973E+01  0.47787264868E+02  0.19999971839E+02 0.  0.
        -12    1    3    3    0    0  0.43235333743E+02  0.21337170654E+01  0.31268158973E+01  0.43400735132E+02  0.00000000000E+00 0.  1.
         11    1    4    4    0    0 -0.16419356640E+02  0.70108575645E+01 -0.26669859125E+01  0.18051598555E+02  0.51100000000E-03 0. -1.
        -11    1    4    4    0    0 -0.21111742341E+02 -0.44409770383E+01 -0.32819284040E+01  0.21821984237E+02  0.51100000000E-03 0.  1.
        -12    1    4    4    0    0 -0.57042347619E+01 -0.47035975916E+01  0.28220984193E+01  0.79136820767E+01  0.00000000000E+00 0.  1.
</event>
<event>
 8    1  0.5834107E-011  0.9118800E+02  0.7816164E-02  0.1184000E+00
        -11   -1    0    0    0    0  0.00000000000E+00  0.00000000000E+00  0.45593999997E+02  0.45594000000E+02  0.51100000000E-03 0. -1.
         11   -1    0    0    0    0 -0.00000000000E+00 -0.00000000000E+00 -0.45593999997E+02  0.45594000000E+02  0.51100000000E-03 0.  1.
         23    2    1    2    0    0  0.00000000000E+00 -0.17763568394E-14  0.71054273576E-14  0.91188000000E+02  0.91188000000E+02 0.  0.
    9900012    2    3    3    0    0  0.98429337115E+01 -0.14957414680E+02  0.39534992982E+02  0.47787271111E+02  0.20000000306E+02 0.  0.
        -12    1    3    3    0    0 -0.98429337115E+01  0.14957414680E+02 -0.39534992982E+02  0.43400728889E+02  0.00000000000E+00 0.  1.
         11    1    4    4    0    0  0.25031466391E+01 -0.13447137932E+02  0.25401767044E+02  0.28850321157E+02  0.51100000000E-03 0.  1.
        -11    1    4    4    0    0  0.82375307472E+01 -0.36727794814E+01  0.13919061274E+02  0.16585731487E+02  0.51100000000E-03 0. -1.
         12    1    4    4    0    0 -0.89774367480E+00  0.21625027337E+01  0.21416466398E+00  0.23512184675E+01  0.00000000000E+00 0. -1.
</event>
<event>
 8    1  0.5834107E-011  0.9118800E+02  0.7816164E-02  0.1184000E+00
        -11   -1    0    0    0    0  0.00000000000E+00  0.00000000000E+00  0.45593999997E+02  0.45594000000E+02  0.51100000000E-03 0. -1.
         11   -1    0    0    0    0 -0.00000000000E+00 -0.00000000000E+00 -0.45593999997E+02  0.45594000000E+02  0.51100000000E-03 0.  1.
         23    2    1    2    0    0  0.35527136788E-14  0.71054273576E-14 -0.17763568394E-14  0.91188000000E+02  0.91188000000E+02 0.  0.
    9900012    2    3    3    0    0  0.23919283362E+02  0.33239779236E+02 -0.14373875047E+02  0.47787270466E+02  0.19999997363E+02 0.  0.
         12    1    3    3    0    0 -0.23919283362E+02 -0.33239779236E+02  0.14373875047E+02  0.43400729534E+02  0.00000000000E+00 0. -1.
         11    1    4    4    0    0  0.12939654463E+02  0.66838069501E+01  0.18577598504E+01  0.14681934644E+02  0.51100000000E-03 0. -1.
        -11    1    4    4    0    0  0.27175363582E+01  0.60921274427E+01 -0.50420407964E+01  0.83618895167E+01  0.51100000000E-03 0.  1.
         12    1    4    4    0    0  0.82620925408E+01  0.20463844843E+02 -0.11189594101E+02  0.24743446305E+02  0.00000000000E+00 0. -1.
</event>
<event>
 8    1  0.5834107E-011  0.9118800E+02  0.7816164E-02  0.1184000E+00
        -11   -1    0    0    0    0  0.00000000000E+00  0.00000000000E+00  0.45593999997E+02  0.45594000000E+02  0.51100000000E-03 0.  1.
         11   -1    0    0    0    0 -0.00000000000E+00 -0.00000000000E+00 -0.45593999997E+02  0.45594000000E+02  0.51100000000E-03 0. -1.
         23    2    1    2    0    0  0.71054273576E-14  0.00000000000E+00  0.35527136788E-14  0.91188000000E+02  0.91188000000E+02 0.  0.
    9900012    2    3    3    0    0  0.38404919552E+02  0.92334338381E+01  0.17984161348E+02  0.47787260310E+02  0.19999951059E+02 0.  0.
        -12    1    3    3    0    0 -0.38404919552E+02 -0.92334338381E+01 -0.17984161348E+02  0.43400739690E+02  0.00000000000E+00 0.  1.
         11    1    4    4    0    0  0.81561577140E+01 -0.96253082739E+00  0.68879841080E+01  0.10718847866E+02  0.51100000000E-03 0. -1.
        -11    1    4    4    0    0  0.93915462156E+01  0.36031925641E+01  0.11384939998E+02  0.15192135992E+02  0.51100000000E-03 0.  1.
         12    1    4    4    0    0  0.20857215622E+02  0.65927721014E+01 -0.28876275797E+00  0.21876276452E+02  0.00000000000E+00 0. -1.
</event>
<event>
 8    1  0.5834107E-011  0.9118800E+02  0.7816164E-02  0.1184000E+00
        -11   -1    0    0    0    0  0.00000000000E+00  0.00000000000E+00  0.45593999997E+02  0.45594000000E+02  0.51100000000E-03 0. -1.
         11   -1    0    0    0    0 -0.00000000000E+00 -0.00000000000E+00 -0.45593999997E+02  0.45594000000E+02  0.51100000000E-03 0.  1.
         23    2    1    2    0    0  0.00000000000E+00  0.00000000000E+00  0.00000000000E+00  0.91188000000E+02  0.91188000000E+02 0.  0.
    9900012    2    3    3    0    0 -0.84954821928E+01 -0.12770239892E+02  0.40600133504E+02  0.47787273219E+02  0.20000009914E+02 0.  0.
        -12    1    3    3    0    0  0.84954821928E+01  0.12770239892E+02 -0.40600133504E+02  0.43400726781E+02  0.00000000000E+00 0.  1.
         11    1    4    4    0    0 -0.22268463940E+01 -0.11541867595E+02  0.14082494807E+02  0.18343669554E+02  0.51100000000E-03 0. -1.
        -11    1    4    4    0    0 -0.39594587640E+01  0.13080998444E+01  0.18900580167E+01  0.45782920914E+01  0.51100000000E-03 0.  1.
        -12    1    4    4    0    0 -0.23091770348E+01 -0.25364721421E+01  0.24627580680E+02  0.24865311574E+02  0.00000000000E+00 0.  1.
</event>
<event>
 8    1  0.5834107E-011  0.9118800E+02  0.7816164E-02  0.1184000E+00
        -11   -1    0    0    0    0  0.00000000000E+00  0.00000000000E+00  0.45593999997E+02  0.45594000000E+02  0.51100000000E-03 0. -1.
         11   -1    0    0    0    0 -0.00000000000E+00 -0.00000000000E+00 -0.45593999997E+02  0.45594000000E+02  0.51100000000E-03 0.  1.
         23    2    1    2    0    0  0.00000000000E+00  0.00000000000E+00  0.71054273576E-14  0.91188000000E+02  0.91188000000E+02 0.  0.
    9900012    2    3    3    0    0  0.20144227716E+02 -0.74198828323E+01  0.37719726756E+02  0.47787281595E+02  0.20000048102E+02 0.  0.
        -12    1    3    3    0    0 -0.20144227716E+02  0.74198828323E+01 -0.37719726756E+02  0.43400718405E+02  0.00000000000E+00 0.  1.
         11    1    4    4    0    0  0.20440256105E+01  0.81676365956E+00  0.20639720981E+02  0.20756763379E+02  0.51100000000E-03 0. -1.
        -11    1    4    4    0    0  0.10190287290E+02 -0.33508898524E+01  0.13061993728E+02  0.16902251278E+02  0.51100000000E-03 0.  1.
         12    1    4    4    0    0  0.79099148156E+01 -0.48857566394E+01  0.40180120477E+01  0.10128266937E+02  0.00000000000E+00 0. -1.
</event>
<event>
 8    1  0.5834107E-011  0.9118800E+02  0.7816164E-02  0.1184000E+00
        -11   -1    0    0    0    0  0.00000000000E+00  0.00000000000E+00  0.45593999997E+02  0.45594000000E+02  0.51100000000E-03 0.  1.
         11   -1    0    0    0    0 -0.00000000000E+00 -0.00000000000E+00 -0.45593999997E+02  0.45594000000E+02  0.51100000000E-03 0. -1.
         23    2    1    2    0    0  0.35527136788E-14  0.00000000000E+00  0.00000000000E+00  0.91188000000E+02  0.91188000000E+02 0.  0.
    9900012    2    3    3    0    0  0.31691168201E+02  0.29582508389E+02  0.20417049233E+01  0.47787268399E+02  0.19999987938E+02 0.  0.
         12    1    3    3    0    0 -0.31691168201E+02 -0.29582508389E+02 -0.20417049233E+01  0.43400731601E+02  0.00000000000E+00 0. -1.
         11    1    4    4    0    0  0.72353825347E+01  0.27281984578E+01 -0.17520923254E+01  0.79286603551E+01  0.51100000000E-03 0. -1.
        -11    1    4    4    0    0  0.27626070211E+01  0.97427733819E+01  0.65985323167E+01  0.12086945839E+02  0.51100000000E-03 0.  1.
        -12    1    4    4    0    0  0.21693178645E+02  0.17111536550E+02 -0.28047350680E+01  0.27771662205E+02  0.00000000000E+00 0.  1.
</event>
<event>
 8    1  0.5834107E-011  0.9118800E+02  0.7816164E-02  0.1184000E+00
        -11   -1    0    0    0    0  0.00000000000E+00  0.00000000000E+00  0.45593999997E+02  0.45594000000E+02  0.51100000000E-03 0. -1.
         11   -1    0    0    0    0 -0.00000000000E+00 -0.00000000000E+00 -0.45593999997E+02  0.45594000000E+02  0.51100000000E-03 0.  1.
         23    2    1    2    0    0  0.00000000000E+00  0.00000000000E+00  0.00000000000E+00  0.91188000000E+02  0.91188000000E+02 0.  0.
    9900012    2    3    3    0    0 -0.16441380062E+02 -0.31892293524E+02  0.24416937707E+02  0.47787260242E+02  0.19999950745E+02 0.  0.
        -12    1    3    3    0    0  0.16441380062E+02  0.31892293524E+02 -0.24416937707E+02  0.43400739758E+02  0.00000000000E+00 0.  1.
         11    1    4    4    0    0 -0.69918541184E+01 -0.21257506615E+02  0.13510634373E+02  0.26140100477E+02  0.51100000000E-03 0. -1.
        -11    1    4    4    0    0 -0.60990420472E+00 -0.21047063440E+01 -0.25932223881E+01  0.33950809340E+01  0.51100000000E-03 0.  1.
         12    1    4    4    0    0 -0.88396217391E+01 -0.85300805656E+01  0.13499525721E+02  0.18252078831E+02  0.00000000000E+00 0. -1.
</event>
<event>
 8    1  0.5834107E-011  0.9118800E+02  0.7816164E-02  0.1184000E+00
        -11   -1    0    0    0    0  0.00000000000E+00  0.00000000000E+00  0.45593999997E+02  0.45594000000E+02  0.51100000000E-03 0.  1.
         11   -1    0    0    0    0 -0.00000000000E+00 -0.00000000000E+00 -0.45593999997E+02  0.45594000000E+02  0.51100000000E-03 0. -1.
         23    2    1    2    0    0  0.00000000000E+00  0.71054273576E-14  0.35527136788E-14  0.91188000000E+02  0.91188000000E+02 0.  0.
    9900012    2    3    3    0    0 -0.11036707491E+02  0.36550032549E+02  0.20637574697E+02  0.47787270963E+02  0.19999999627E+02 0.  0.
        -12    1    3    3    0    0  0.11036707491E+02 -0.36550032549E+02 -0.20637574697E+02  0.43400729037E+02  0.00000000000E+00 0.  1.
         11    1    4    4    0    0 -0.60813238953E+01  0.11554119909E+02  0.11944863635E+02  0.17696326023E+02  0.51100000000E-03 0. -1.
        -11    1    4    4    0    0 -0.34849611396E+01  0.26278916649E+02  0.67885773732E+01  0.27364414801E+02  0.51100000000E-03 0.  1.
        -12    1    4    4    0    0 -0.14704224559E+01 -0.12830040095E+01  0.19041336892E+01  0.27265301380E+01  0.00000000000E+00 0.  1.
</event>
<event>
 8    1  0.5834107E-011  0.9118800E+02  0.7816164E-02  0.1184000E+00
        -11   -1    0    0    0    0  0.00000000000E+00  0.00000000000E+00  0.45593999997E+02  0.45594000000E+02  0.51100000000E-03 0. -1.
         11   -1    0    0    0    0 -0.00000000000E+00 -0.00000000000E+00 -0.45593999997E+02  0.45594000000E+02  0.51100000000E-03 0.  1.
         23    2    1    2    0    0  0.00000000000E+00 -0.35527136788E-14  0.00000000000E+00  0.91188000000E+02  0.91188000000E+02 0.  0.
    9900012    2    3    3    0    0 -0.18943319331E+02 -0.25689315179E+02  0.29408051398E+02  0.47787265575E+02  0.19999975063E+02 0.  0.
        -12    1    3    3    0    0  0.18943319331E+02  0.25689315179E+02 -0.29408051398E+02  0.43400734425E+02  0.00000000000E+00 0.  1.
         11    1    4    4    0    0 -0.44586473621E+01 -0.83969362468E+01  0.10331419122E+02  0.14040167234E+02  0.51100000000E-03 0. -1.
        -11    1    4    4    0    0 -0.29326804865E+01 -0.41651735241E+01 -0.27426607274E+01  0.57854536079E+01  0.51100000000E-03 0.  1.
        -12    1    4    4    0    0 -0.11551991482E+02 -0.13127205408E+02  0.21819293003E+02  0.27961644733E+02  0.00000000000E+00 0.  1.
</event>
<event>
 8    1  0.5834107E-011  0.9118800E+02  0.7816164E-02  0.1184000E+00
        -11   -1    0    0    0    0  0.00000000000E+00  0.00000000000E+00  0.45593999997E+02  0.45594000000E+02  0.51100000000E-03 0. -1.
         11   -1    0    0    0    0 -0.00000000000E+00 -0.00000000000E+00 -0.45593999997E+02  0.45594000000E+02  0.51100000000E-03 0.  1.
         23    2    1    2    0    0  0.00000000000E+00  0.00000000000E+00  0.00000000000E+00  0.91188000000E+02  0.91188000000E+02 0.  0.
    9900012    2    3    3    0    0  0.17343223539E+02 -0.59847439279E+01 -0.39332158368E+02  0.47787271383E+02  0.20000001543E+02 0.  0.
         12    1    3    3    0    0 -0.17343223539E+02  0.59847439279E+01  0.39332158368E+02  0.43400728617E+02  0.00000000000E+00 0. -1.
         11    1    4    4    0    0  0.30097619580E+01  0.13933865605E+01 -0.22363453509E+02  0.22608057109E+02  0.51100000000E-03 0. -1.
        -11    1    4    4    0    0  0.10215398640E+02 -0.32243661005E+00 -0.11295241903E+02  0.15232886287E+02  0.51100000000E-03 0.  1.
        -12    1    4    4    0    0  0.41180629403E+01 -0.70556938783E+01 -0.56734629569E+01  0.99463279862E+01  0.00000000000E+00 0.  1.
</event>
<event>
 8    1  0.5834107E-011  0.9118800E+02  0.7816164E-02  0.1184000E+00
        -11   -1    0    0    0    0  0.00000000000E+00  0.00000000000E+00  0.45593999997E+02  0.45594000000E+02  0.51100000000E-03 0. -1.
         11   -1    0    0    0    0 -0.00000000000E+00 -0.00000000000E+00 -0.45593999997E+02  0.45594000000E+02  0.51100000000E-03 0.  1.
         23    2    1    2    0    0  0.00000000000E+00  0.00000000000E+00 -0.35527136788E-14  0.91188000000E+02  0.91188000000E+02 0.  0.
    9900012    2    3    3    0    0  0.29643400400E+02 -0.96288265829E+01  0.30202281956E+02  0.47787270467E+02  0.19999997365E+02 0.  0.
        -12    1    3    3    0    0 -0.29643400400E+02  0.96288265829E+01 -0.30202281956E+02  0.43400729533E+02  0.00000000000E+00 0.  1.
         11    1    4    4    0    0  0.32218884884E+01  0.25159960871E+00  0.35379750041E+00  0.32510061100E+01  0.51100000000E-03 0. -1.
        -11    1    4    4    0    0  0.25733311012E+01  0.37110809129E+01  0.82915881897E+00  0.45914767893E+01  0.51100000000E-03 0.  1.
         12    1    4    4    0    0  0.23848180811E+02 -0.13591507105E+02  0.29019325637E+02  0.39944787567E+02  0.00000000000E+00 0. -1.
</event>
<event>
 8    1  0.5834107E-011  0.9118800E+02  0.7816164E-02  0.1184000E+00
        -11   -1    0    0    0    0  0.00000000000E+00  0.00000000000E+00  0.45593999997E+02  0.45594000000E+02  0.51100000000E-03 0. -1.
         11   -1    0    0    0    0 -0.00000000000E+00 -0.00000000000E+00 -0.45593999997E+02  0.45594000000E+02  0.51100000000E-03 0.  1.
         23    2    1    2    0    0  0.35527136788E-14  0.00000000000E+00  0.35527136788E-14  0.91188000000E+02  0.91188000000E+02 0.  0.
    9900012    2    3    3    0    0 -0.27744272433E+02  0.22145830326E+02 -0.24968797342E+02  0.47787270808E+02  0.19999998923E+02 0.  0.
         12    1    3    3    0    0  0.27744272433E+02 -0.22145830326E+02  0.24968797342E+02  0.43400729192E+02  0.00000000000E+00 0. -1.
         11    1    4    4    0    0 -0.12286630365E+02  0.99989979082E+01 -0.11034287988E+02  0.19305355644E+02  0.51100000000E-03 0. -1.
        -11    1    4    4    0    0 -0.17792651989E+02  0.12967724959E+02 -0.10903809173E+02  0.24568952158E+02  0.51100000000E-03 0.  1.
         12    1    4    4    0    0  0.23350099206E+01 -0.82089254170E+00 -0.30307001816E+01  0.39129630059E+01  0.00000000000E+00 0. -1.
</event>
<event>
 8    1  0.5834107E-011  0.9118800E+02  0.7816164E-02  0.1184000E+00
        -11   -1    0    0    0    0  0.00000000000E+00  0.00000000000E+00  0.45593999997E+02  0.45594000000E+02  0.51100000000E-03 0. -1.
         11   -1    0    0    0    0 -0.00000000000E+00 -0.00000000000E+00 -0.45593999997E+02  0.45594000000E+02  0.51100000000E-03 0.  1.
         23    2    1    2    0    0 -0.35527136788E-14 -0.44408920985E-15  0.00000000000E+00  0.91188000000E+02  0.91188000000E+02 0.  0.
    9900012    2    3    3    0    0 -0.28714467793E+02 -0.39027692597E+01 -0.32308982805E+02  0.47787278366E+02  0.20000033380E+02 0.  0.
         12    1    3    3    0    0  0.28714467793E+02  0.39027692597E+01  0.32308982805E+02  0.43400721634E+02  0.00000000000E+00 0. -1.
         11    1    4    4    0    0  0.53404639880E+00 -0.39035800682E+01 -0.52925063779E+01  0.65980123466E+01  0.51100000000E-03 0. -1.
        -11    1    4    4    0    0 -0.93986546511E+01  0.25591499304E+01 -0.35991337314E+01  0.10384494282E+02  0.51100000000E-03 0.  1.
         12    1    4    4    0    0 -0.19849859541E+02 -0.25583391220E+01 -0.23417342695E+02  0.30804771737E+02  0.00000000000E+00 0. -1.
</event>
<event>
 8    1  0.5834107E-011  0.9118800E+02  0.7816164E-02  0.1184000E+00
        -11   -1    0    0    0    0  0.00000000000E+00  0.00000000000E+00  0.45593999997E+02  0.45594000000E+02  0.51100000000E-03 0.  1.
         11   -1    0    0    0    0 -0.00000000000E+00 -0.00000000000E+00 -0.45593999997E+02  0.45594000000E+02  0.51100000000E-03 0. -1.
         23    2    1    2    0    0  0.00000000000E+00 -0.71054273576E-14  0.35527136788E-14  0.91188000000E+02  0.91188000000E+02 0.  0.
    9900012    2    3    3    0    0 -0.10720967726E+02 -0.34842504280E+02  0.23551720922E+02  0.47787276367E+02  0.20000024267E+02 0.  0.
        -12    1    3    3    0    0  0.10720967726E+02  0.34842504280E+02 -0.23551720922E+02  0.43400723633E+02  0.00000000000E+00 0.  1.
         11    1    4    4    0    0 -0.24665737281E+01 -0.12355970700E+02  0.59905048029E+01  0.13951349252E+02  0.51100000000E-03 0. -1.
        -11    1    4    4    0    0  0.47027692609E+01 -0.85193252341E+01  0.43966163118E+01  0.10678257181E+02  0.51100000000E-03 0.  1.
         12    1    4    4    0    0 -0.12957163258E+02 -0.13967208346E+02  0.13164599807E+02  0.23157669934E+02  0.00000000000E+00 0. -1.
</event>
<event>
 8    1  0.5834107E-011  0.9118800E+02  0.7816164E-02  0.1184000E+00
        -11   -1    0    0    0    0  0.00000000000E+00  0.00000000000E+00  0.45593999997E+02  0.45594000000E+02  0.51100000000E-03 0. -1.
         11   -1    0    0    0    0 -0.00000000000E+00 -0.00000000000E+00 -0.45593999997E+02  0.45594000000E+02  0.51100000000E-03 0.  1.
         23    2    1    2    0    0  0.00000000000E+00  0.00000000000E+00  0.00000000000E+00  0.91188000000E+02  0.91188000000E+02 0.  0.
    9900012    2    3    3    0    0 -0.77515151802E+01  0.15729809460E+02  0.39700256106E+02  0.47787271571E+02  0.20000002402E+02 0.  0.
        -12    1    3    3    0    0  0.77515151802E+01 -0.15729809460E+02 -0.39700256106E+02  0.43400728429E+02  0.00000000000E+00 0.  1.
         11    1    4    4    0    0  0.18707339282E+01  0.45634754304E+01  0.11114877549E+00  0.49332856947E+01  0.51100000000E-03 0. -1.
        -11    1    4    4    0    0 -0.29453782719E+00  0.53674007008E+01  0.11517256336E+02  0.12709954233E+02  0.51100000000E-03 0.  1.
         12    1    4    4    0    0 -0.93277112813E+01  0.57989333289E+01  0.28071850994E+02  0.30144031644E+02  0.00000000000E+00 0. -1.
</event>
<event>
 8    1  0.5834107E-011  0.9118800E+02  0.7816164E-02  0.1184000E+00
        -11   -1    0    0    0    0  0.00000000000E+00  0.00000000000E+00  0.45593999997E+02  0.45594000000E+02  0.51100000000E-03 0. -1.
         11   -1    0    0    0    0 -0.00000000000E+00 -0.00000000000E+00 -0.45593999997E+02  0.45594000000E+02  0.51100000000E-03 0.  1.
         23    2    1    2    0    0  0.00000000000E+00  0.00000000000E+00 -0.22204460493E-15  0.91188000000E+02  0.91188000000E+02 0.  0.
    9900012    2    3    3    0    0  0.16180285776E+02  0.40265241903E+02  0.72948064972E+00  0.47787268493E+02  0.19999988369E+02 0.  0.
        -12    1    3    3    0    0 -0.16180285776E+02 -0.40265241903E+02 -0.72948064972E+00  0.43400731507E+02  0.00000000000E+00 0.  1.
         11    1    4    4    0    0  0.92611235951E+00  0.25344966912E+02 -0.39033285808E+01  0.25660495048E+02  0.51100000000E-03 0. -1.
        -11    1    4    4    0    0  0.31740958356E+01  0.18902977681E+01  0.18847291365E+01  0.41473261512E+01  0.51100000000E-03 0.  1.
        -12    1    4    4    0    0  0.12080077581E+02  0.13029977223E+02  0.27480800940E+01  0.17979447294E+02  0.00000000000E+00 0.  1.
</event>
<event>
 8    1  0.5834107E-011  0.9118800E+02  0.7816164E-02  0.1184000E+00
        -11   -1    0    0    0    0  0.00000000000E+00  0.00000000000E+00  0.45593999997E+02  0.45594000000E+02  0.51100000000E-03 0. -1.
         11   -1    0    0    0    0 -0.00000000000E+00 -0.00000000000E+00 -0.45593999997E+02  0.45594000000E+02  0.51100000000E-03 0.  1.
         23    2    1    2    0    0 -0.17763568394E-14  0.35527136788E-14  0.71054273576E-14  0.91188000000E+02  0.91188000000E+02 0.  0.
    9900012    2    3    3    0    0  0.95167435051E+01 -0.11843771851E+02 -0.40654394735E+02  0.47787272473E+02  0.20000006512E+02 0.  0.
         12    1    3    3    0    0 -0.95167435051E+01  0.11843771851E+02  0.40654394735E+02  0.43400727527E+02  0.00000000000E+00 0. -1.
         11    1    4    4    0    0 -0.45404789242E+00  0.10371433881E+01 -0.71930757715E+01  0.72816320432E+01  0.51100000000E-03 0. -1.
        -11    1    4    4    0    0  0.14100223410E+02 -0.12167826010E+02 -0.26809001553E+02  0.32643450408E+02  0.51100000000E-03 0.  1.
         12    1    4    4    0    0 -0.41294320125E+01 -0.71308922857E+00 -0.66523174109E+01  0.78621900212E+01  0.00000000000E+00 0. -1.
</event>
<event>
 8    1  0.5834107E-011  0.9118800E+02  0.7816164E-02  0.1184000E+00
        -11   -1    0    0    0    0  0.00000000000E+00  0.00000000000E+00  0.45593999997E+02  0.45594000000E+02  0.51100000000E-03 0. -1.
         11   -1    0    0    0    0 -0.00000000000E+00 -0.00000000000E+00 -0.45593999997E+02  0.45594000000E+02  0.51100000000E-03 0.  1.
         23    2    1    2    0    0  0.00000000000E+00  0.00000000000E+00  0.00000000000E+00  0.91188000000E+02  0.91188000000E+02 0.  0.
    9900012    2    3    3    0    0 -0.32865337328E+01  0.42274217463E+02 -0.92580475878E+01  0.47787283286E+02  0.20000055815E+02 0.  0.
         12    1    3    3    0    0  0.32865337328E+01 -0.42274217463E+02  0.92580475878E+01  0.43400716714E+02  0.00000000000E+00 0. -1.
         11    1    4    4    0    0  0.58834662847E+00  0.22041491570E+01 -0.51979948836E+01  0.56765813949E+01  0.51100000000E-03 0. -1.
        -11    1    4    4    0    0  0.28447414412E+01  0.24320674432E+02 -0.48802890083E+01  0.24968079216E+02  0.51100000000E-03 0.  1.
        -12    1    4    4    0    0 -0.67196218025E+01  0.15749393875E+02  0.82023630405E+00  0.17142622675E+02  0.00000000000E+00 0.  1.
</event>
<event>
 8    1  0.5834107E-011  0.9118800E+02  0.7816164E-02  0.1184000E+00
        -11   -1    0    0    0    0  0.00000000000E+00  0.00000000000E+00  0.45593999997E+02  0.45594000000E+02  0.51100000000E-03 0. -1.
         11   -1    0    0    0    0 -0.00000000000E+00 -0.00000000000E+00 -0.45593999997E+02  0.45594000000E+02  0.51100000000E-03 0.  1.
         23    2    1    2    0    0  0.35527136788E-14  0.17763568394E-14 -0.35527136788E-14  0.91188000000E+02  0.91188000000E+02 0.  0.
    9900012    2    3    3    0    0 -0.27832710645E+02 -0.11427410941E+02  0.31279030828E+02  0.47787271064E+02  0.20000000087E+02 0.  0.
        -12    1    3    3    0    0  0.27832710645E+02  0.11427410941E+02 -0.31279030828E+02  0.43400728936E+02  0.00000000000E+00 0.  1.
         11    1    4    4    0    0 -0.56112749511E+01 -0.63501711613E+01  0.12149190239E+02  0.14812626509E+02  0.51100000000E-03 0. -1.
        -11    1    4    4    0    0 -0.22569409016E+02 -0.43446074660E+01  0.12244925640E+02  0.26042120527E+02  0.51100000000E-03 0.  1.
         12    1    4    4    0    0  0.34797332218E+00 -0.73263231381E+00  0.68849149488E+01  0.69325240276E+01  0.00000000000E+00 0. -1.
</event>
<event>
 8    1  0.5834107E-011  0.9118800E+02  0.7816164E-02  0.1184000E+00
        -11   -1    0    0    0    0  0.00000000000E+00  0.00000000000E+00  0.45593999997E+02  0.45594000000E+02  0.51100000000E-03 0. -1.
         11   -1    0    0    0    0 -0.00000000000E+00 -0.00000000000E+00 -0.45593999997E+02  0.45594000000E+02  0.51100000000E-03 0.  1.
         23    2    1    2    0    0  0.00000000000E+00 -0.35527136788E-14  0.00000000000E+00  0.91188000000E+02  0.91188000000E+02 0.  0.
    9900012    2    3    3    0    0 -0.95795628021E+01  0.17130149900E+02 -0.38709343291E+02  0.47787270546E+02  0.19999997727E+02 0.  0.
         12    1    3    3    0    0  0.95795628021E+01 -0.17130149900E+02  0.38709343291E+02  0.43400729454E+02  0.00000000000E+00 0. -1.
         11    1    4    4    0    0 -0.76690894909E+01  0.12560502642E+02 -0.19234174217E+02  0.24218476796E+02  0.51100000000E-03 0. -1.
        -11    1    4    4    0    0 -0.57530519899E+01 -0.71984844739E+00 -0.13578526235E+02  0.14764557696E+02  0.51100000000E-03 0.  1.
         12    1    4    4    0    0  0.38425786786E+01  0.52894957057E+01 -0.58966428402E+01  0.88042360547E+01  0.00000000000E+00 0. -1.
</event>
<event>
 8    1  0.5834107E-011  0.9118800E+02  0.7816164E-02  0.1184000E+00
        -11   -1    0    0    0    0  0.00000000000E+00  0.00000000000E+00  0.45593999997E+02  0.45594000000E+02  0.51100000000E-03 0. -1.
         11   -1    0    0    0    0 -0.00000000000E+00 -0.00000000000E+00 -0.45593999997E+02  0.45594000000E+02  0.51100000000E-03 0.  1.
         23    2    1    2    0    0 -0.35527136788E-14  0.11102230246E-15  0.71054273576E-14  0.91188000000E+02  0.91188000000E+02 0.  0.
    9900012    2    3    3    0    0  0.23825775200E+02 -0.32799110930E+00 -0.36274620383E+02  0.47787271596E+02  0.20000002514E+02 0.  0.
         12    1    3    3    0    0 -0.23825775200E+02  0.32799110930E+00  0.36274620383E+02  0.43400728404E+02  0.00000000000E+00 0. -1.
         11    1    4    4    0    0  0.73498073194E+01 -0.35771481230E+00 -0.63878027948E+01  0.97443138458E+01  0.51100000000E-03 0. -1.
        -11    1    4    4    0    0  0.16115672738E+02 -0.25714541243E+01 -0.31121789692E+02  0.35141045488E+02  0.51100000000E-03 0.  1.
         12    1    4    4    0    0  0.36029514312E+00  0.26011778273E+01  0.12349721034E+01  0.29019122619E+01  0.00000000000E+00 0. -1.
</event>
<event>
 8    1  0.5834107E-011  0.9118800E+02  0.7816164E-02  0.1184000E+00
        -11   -1    0    0    0    0  0.00000000000E+00  0.00000000000E+00  0.45593999997E+02  0.45594000000E+02  0.51100000000E-03 0. -1.
         11   -1    0    0    0    0 -0.00000000000E+00 -0.00000000000E+00 -0.45593999997E+02  0.45594000000E+02  0.51100000000E-03 0.  1.
         23    2    1    2    0    0 -0.71054273576E-14 -0.35527136788E-14 -0.17763568394E-14  0.91188000000E+02  0.91188000000E+02 0.  0.
    9900012    2    3    3    0    0 -0.40417219513E+02 -0.12969808221E+02 -0.90474161849E+01  0.47787270766E+02  0.19999998729E+02 0.  0.
        -12    1    3    3    0    0  0.40417219513E+02  0.12969808221E+02  0.90474161849E+01  0.43400729234E+02  0.00000000000E+00 0.  1.
         11    1    4    4    0    0 -0.73518024438E+01 -0.10512216799E+02  0.98966924501E-01  0.12828308381E+02  0.51100000000E-03 0.  1.
        -11    1    4    4    0    0 -0.18685598660E+02 -0.14571485939E+01 -0.19373444650E+01  0.18842191569E+02  0.51100000000E-03 0. -1.
        -12    1    4    4    0    0 -0.14379818410E+02 -0.10004428277E+01 -0.72090386443E+01  0.16116770815E+02  0.00000000000E+00 0.  1.
</event>
<event>
 8    1  0.5834107E-011  0.9118800E+02  0.7816164E-02  0.1184000E+00
        -11   -1    0    0    0    0  0.00000000000E+00  0.00000000000E+00  0.45593999997E+02  0.45594000000E+02  0.51100000000E-03 0. -1.
         11   -1    0    0    0    0 -0.00000000000E+00 -0.00000000000E+00 -0.45593999997E+02  0.45594000000E+02  0.51100000000E-03 0.  1.
         23    2    1    2    0    0  0.00000000000E+00  0.00000000000E+00  0.00000000000E+00  0.91188000000E+02  0.91188000000E+02 0.  0.
    9900012    2    3    3    0    0  0.11363987763E+02  0.32783740231E+02 -0.26071216168E+02  0.47787283947E+02  0.20000058828E+02 0.  0.
         12    1    3    3    0    0 -0.11363987763E+02 -0.32783740231E+02  0.26071216168E+02  0.43400716053E+02  0.00000000000E+00 0. -1.
         11    1    4    4    0    0  0.16488774826E+01  0.56805422067E-01 -0.19961808439E+01  0.25897416920E+01  0.51100000000E-03 0. -1.
        -11    1    4    4    0    0  0.11635604043E+01  0.33597178876E+00 -0.79071671390E+01  0.79993776185E+01  0.51100000000E-03 0.  1.
        -12    1    4    4    0    0  0.85515498759E+01  0.32390963020E+02 -0.16167868185E+02  0.37198164637E+02  0.00000000000E+00 0.  1.
</event>
<event>
 8    1  0.5834107E-011  0.9118800E+02  0.7816164E-02  0.1184000E+00
        -11   -1    0    0    0    0  0.00000000000E+00  0.00000000000E+00  0.45593999997E+02  0.45594000000E+02  0.51100000000E-03 0.  1.
         11   -1    0    0    0    0 -0.00000000000E+00 -0.00000000000E+00 -0.45593999997E+02  0.45594000000E+02  0.51100000000E-03 0. -1.
         23    2    1    2    0    0  0.00000000000E+00  0.00000000000E+00  0.00000000000E+00  0.91188000000E+02  0.91188000000E+02 0.  0.
    9900012    2    3    3    0    0  0.14585716759E+02  0.33040935351E+02  0.24066093489E+02  0.47787269614E+02  0.19999993479E+02 0.  0.
        -12    1    3    3    0    0 -0.14585716759E+02 -0.33040935351E+02 -0.24066093489E+02  0.43400730386E+02  0.00000000000E+00 0.  1.
         11    1    4    4    0    0 -0.33469316503E+01  0.76456073300E+01  0.11747506113E+01  0.84283629595E+01  0.51100000000E-03 0. -1.
        -11    1    4    4    0    0  0.14649932842E+01 -0.18528203775E+00  0.18567390692E+01  0.23723437754E+01  0.51100000000E-03 0.  1.
         12    1    4    4    0    0  0.16467655125E+02  0.25580610058E+02  0.21034603808E+02  0.36986562879E+02  0.00000000000E+00 0. -1.
</event>
<event>
 8    1  0.5834107E-011  0.9118800E+02  0.7816164E-02  0.1184000E+00
        -11   -1    0    0    0    0  0.00000000000E+00  0.00000000000E+00  0.45593999997E+02  0.45594000000E+02  0.51100000000E-03 0. -1.
         11   -1    0    0    0    0 -0.00000000000E+00 -0.00000000000E+00 -0.45593999997E+02  0.45594000000E+02  0.51100000000E-03 0.  1.
         23    2    1    2    0    0  0.00000000000E+00  0.00000000000E+00  0.00000000000E+00  0.91188000000E+02  0.91188000000E+02 0.  0.
    9900012    2    3    3    0    0 -0.31359956401E+02  0.20811619508E+02 -0.21611400204E+02  0.47787274306E+02  0.20000014870E+02 0.  0.
         12    1    3    3    0    0  0.31359956401E+02 -0.20811619508E+02  0.21611400204E+02  0.43400725694E+02  0.00000000000E+00 0. -1.
         11    1    4    4    0    0 -0.58600646595E+01 -0.63465006148E+00 -0.35638082396E+01  0.68879509249E+01  0.51100000000E-03 0. -1.
        -11    1    4    4    0    0 -0.16595636428E+02  0.19234249393E+02 -0.18930870955E+02  0.31682003938E+02  0.51100000000E-03 0.  1.
        -12    1    4    4    0    0 -0.89042553129E+01  0.22120201764E+01  0.88327898987E+00  0.92173194429E+01  0.00000000000E+00 0.  1.
</event>
<event>
 8    1  0.5834107E-011  0.9118800E+02  0.7816164E-02  0.1184000E+00
        -11   -1    0    0    0    0  0.00000000000E+00  0.00000000000E+00  0.45593999997E+02  0.45594000000E+02  0.51100000000E-03 0. -1.
         11   -1    0    0    0    0 -0.00000000000E+00 -0.00000000000E+00 -0.45593999997E+02  0.45594000000E+02  0.51100000000E-03 0.  1.
         23    2    1    2    0    0  0.00000000000E+00  0.00000000000E+00  0.35527136788E-14  0.91188000000E+02  0.91188000000E+02 0.  0.
    9900012    2    3    3    0    0  0.28981270945E+02  0.67722691158E+01 -0.31588703384E+02  0.47787264107E+02  0.19999968371E+02 0.  0.
         12    1    3    3    0    0 -0.28981270945E+02 -0.67722691158E+01  0.31588703384E+02  0.43400735893E+02  0.00000000000E+00 0. -1.
         11    1    4    4    0    0  0.32157865405E+01 -0.16971695436E+01  0.11188882293E+01  0.38044156798E+01  0.51100000000E-03 0. -1.
        -11    1    4    4    0    0  0.12632855946E+02 -0.10218702327E+01 -0.18546187459E+02  0.22463177372E+02  0.51100000000E-03 0.  1.
         12    1    4    4    0    0  0.13132628459E+02  0.94913088922E+01 -0.14161404155E+02  0.21519671056E+02  0.00000000000E+00 0. -1.
</event>
<event>
 8    1  0.5834107E-011  0.9118800E+02  0.7816164E-02  0.1184000E+00
        -11   -1    0    0    0    0  0.00000000000E+00  0.00000000000E+00  0.45593999997E+02  0.45594000000E+02  0.51100000000E-03 0. -1.
         11   -1    0    0    0    0 -0.00000000000E+00 -0.00000000000E+00 -0.45593999997E+02  0.45594000000E+02  0.51100000000E-03 0.  1.
         23    2    1    2    0    0  0.00000000000E+00 -0.88817841970E-15  0.00000000000E+00  0.91188000000E+02  0.91188000000E+02 0.  0.
    9900012    2    3    3    0    0 -0.38550348011E+02 -0.58380082748E+01 -0.19063359995E+02  0.47787269976E+02  0.19999995127E+02 0.  0.
         12    1    3    3    0    0  0.38550348011E+02  0.58380082748E+01  0.19063359995E+02  0.43400730024E+02  0.00000000000E+00 0. -1.
         11    1    4    4    0    0 -0.13006413219E+02 -0.22317100279E+01  0.27111620915E+01  0.13472108767E+02  0.51100000000E-03 0. -1.
        -11    1    4    4    0    0 -0.45498364096E+01  0.47927971441E+00 -0.68403055407E+01  0.82292466575E+01  0.51100000000E-03 0.  1.
        -12    1    4    4    0    0 -0.20994098382E+02 -0.40855779614E+01 -0.14934216546E+02  0.26085914551E+02  0.00000000000E+00 0.  1.
</event>
<event>
 8    1  0.5834107E-011  0.9118800E+02  0.7816164E-02  0.1184000E+00
        -11   -1    0    0    0    0  0.00000000000E+00  0.00000000000E+00  0.45593999997E+02  0.45594000000E+02  0.51100000000E-03 0.  1.
         11   -1    0    0    0    0 -0.00000000000E+00 -0.00000000000E+00 -0.45593999997E+02  0.45594000000E+02  0.51100000000E-03 0. -1.
         23    2    1    2    0    0  0.00000000000E+00  0.00000000000E+00  0.00000000000E+00  0.91188000000E+02  0.91188000000E+02 0.  0.
    9900012    2    3    3    0    0 -0.25951338968E+02 -0.28078635280E+02 -0.20536344287E+02  0.47787272009E+02  0.20000004400E+02 0.  0.
        -12    1    3    3    0    0  0.25951338968E+02  0.28078635280E+02  0.20536344287E+02  0.43400727991E+02  0.00000000000E+00 0.  1.
         11    1    4    4    0    0 -0.77180257687E+01 -0.13497238603E+02 -0.46666141971E+01  0.16233319439E+02  0.51100000000E-03 0.  1.
        -11    1    4    4    0    0 -0.12132015354E+02 -0.11043060391E+02 -0.17834541785E+02  0.24232330888E+02  0.51100000000E-03 0. -1.
         12    1    4    4    0    0 -0.61012978450E+01 -0.35383362859E+01  0.19648116942E+01  0.73216216824E+01  0.00000000000E+00 0. -1.
</event>
<event>
 8    1  0.5834107E-011  0.9118800E+02  0.7816164E-02  0.1184000E+00
        -11   -1    0    0    0    0  0.00000000000E+00  0.00000000000E+00  0.45593999997E+02  0.45594000000E+02  0.51100000000E-03 0. -1.
         11   -1    0    0    0    0 -0.00000000000E+00 -0.00000000000E+00 -0.45593999997E+02  0.45594000000E+02  0.51100000000E-03 0.  1.
         23    2    1    2    0    0  0.00000000000E+00 -0.11102230246E-15 -0.71054273576E-14  0.91188000000E+02  0.91188000000E+02 0.  0.
    9900012    2    3    3    0    0  0.11921570380E+02 -0.95625258343E+00 -0.41720313934E+02  0.47787275881E+02  0.20000022051E+02 0.  0.
         12    1    3    3    0    0 -0.11921570380E+02  0.95625258343E+00  0.41720313934E+02  0.43400724119E+02  0.00000000000E+00 0. -1.
         11    1    4    4    0    0  0.75856216241E+01 -0.86484624277E+01 -0.23267151474E+02  0.25955691009E+02  0.51100000000E-03 0. -1.
        -11    1    4    4    0    0  0.61502103610E+01  0.41501791132E+01 -0.96660978639E+01  0.12185340468E+02  0.51100000000E-03 0.  1.
        -12    1    4    4    0    0 -0.18142616052E+01  0.35420307311E+01 -0.87870645958E+01  0.96462444030E+01  0.00000000000E+00 0.  1.
</event>
<event>
 8    1  0.5834107E-011  0.9118800E+02  0.7816164E-02  0.1184000E+00
        -11   -1    0    0    0    0  0.00000000000E+00  0.00000000000E+00  0.45593999997E+02  0.45594000000E+02  0.51100000000E-03 0. -1.
         11   -1    0    0    0    0 -0.00000000000E+00 -0.00000000000E+00 -0.45593999997E+02  0.45594000000E+02  0.51100000000E-03 0.  1.
         23    2    1    2    0    0  0.00000000000E+00  0.35527136788E-14  0.00000000000E+00  0.91188000000E+02  0.91188000000E+02 0.  0.
    9900012    2    3    3    0    0  0.27334620087E+02  0.26129727256E+02  0.21299741869E+02  0.47787272985E+02  0.20000008846E+02 0.  0.
        -12    1    3    3    0    0 -0.27334620087E+02 -0.26129727256E+02 -0.21299741869E+02  0.43400727015E+02  0.00000000000E+00 0.  1.
         11    1    4    4    0    0  0.12632263947E+02  0.17307668606E+02  0.16834665832E+01  0.21493337223E+02  0.51100000000E-03 0. -1.
        -11    1    4    4    0    0  0.23590028219E+01  0.19910528550E+01  0.56742791926E+01  0.64596153447E+01  0.51100000000E-03 0.  1.
         12    1    4    4    0    0  0.12343353319E+02  0.68310057949E+01  0.13941996093E+02  0.19834320416E+02  0.00000000000E+00 0. -1.
</event>
<event>
 8    1  0.5834107E-011  0.9118800E+02  0.7816164E-02  0.1184000E+00
        -11   -1    0    0    0    0  0.00000000000E+00  0.00000000000E+00  0.45593999997E+02  0.45594000000E+02  0.51100000000E-03 0. -1.
         11   -1    0    0    0    0 -0.00000000000E+00 -0.00000000000E+00 -0.45593999997E+02  0.45594000000E+02  0.51100000000E-03 0.  1.
         23    2    1    2    0    0  0.00000000000E+00  0.00000000000E+00  0.00000000000E+00  0.91188000000E+02  0.91188000000E+02 0.  0.
    9900012    2    3    3    0    0  0.19973680429E+02  0.19741295678E+02  0.33090129233E+02  0.47787270541E+02  0.19999997705E+02 0.  0.
        -12    1    3    3    0    0 -0.19973680429E+02 -0.19741295678E+02 -0.33090129233E+02  0.43400729459E+02  0.00000000000E+00 0.  1.
         11    1    4    4    0    0  0.17838450812E+00  0.21011750177E+01 -0.20432596695E+01  0.29362676693E+01  0.51100000000E-03 0.  1.
        -11    1    4    4    0    0  0.13153334902E+02  0.73325501352E+01  0.14851876363E+02  0.21150762215E+02  0.51100000000E-03 0. -1.
        -12    1    4    4    0    0  0.66419610196E+01  0.10307570525E+02  0.20281512539E+02  0.23700240657E+02  0.00000000000E+00 0.  1.
</event>
<event>
 8    1  0.5834107E-011  0.9118800E+02  0.7816164E-02  0.1184000E+00
        -11   -1    0    0    0    0  0.00000000000E+00  0.00000000000E+00  0.45593999997E+02  0.45594000000E+02  0.51100000000E-03 0. -1.
         11   -1    0    0    0    0 -0.00000000000E+00 -0.00000000000E+00 -0.45593999997E+02  0.45594000000E+02  0.51100000000E-03 0.  1.
         23    2    1    2    0    0 -0.38857805862E-15  0.00000000000E+00  0.71054273576E-14  0.91188000000E+02  0.91188000000E+02 0.  0.
    9900012    2    3    3    0    0 -0.19295714960E+00 -0.27871390152E+02 -0.33268196698E+02  0.47787256539E+02  0.19999933862E+02 0.  0.
         12    1    3    3    0    0  0.19295714960E+00  0.27871390152E+02  0.33268196698E+02  0.43400743461E+02  0.00000000000E+00 0. -1.
         11    1    4    4    0    0 -0.16724589686E+00 -0.76266772850E+01 -0.73947891817E+00  0.76642681928E+01  0.51100000000E-03 0. -1.
        -11    1    4    4    0    0 -0.41330255610E+01 -0.28260601651E+01 -0.11284395348E+02  0.12345286347E+02  0.51100000000E-03 0.  1.
         12    1    4    4    0    0  0.41073143083E+01 -0.17418652702E+02 -0.21244322431E+02  0.27777701999E+02  0.00000000000E+00 0. -1.
</event>
<event>
 8    1  0.5834107E-011  0.9118800E+02  0.7816164E-02  0.1184000E+00
        -11   -1    0    0    0    0  0.00000000000E+00  0.00000000000E+00  0.45593999997E+02  0.45594000000E+02  0.51100000000E-03 0. -1.
         11   -1    0    0    0    0 -0.00000000000E+00 -0.00000000000E+00 -0.45593999997E+02  0.45594000000E+02  0.51100000000E-03 0.  1.
         23    2    1    2    0    0  0.38857805862E-15 -0.17763568394E-14  0.00000000000E+00  0.91188000000E+02  0.91188000000E+02 0.  0.
    9900012    2    3    3    0    0  0.31005088548E+00 -0.12567992913E+02  0.41540014822E+02  0.47787269490E+02  0.19999992911E+02 0.  0.
        -12    1    3    3    0    0 -0.31005088548E+00  0.12567992913E+02 -0.41540014822E+02  0.43400730510E+02  0.00000000000E+00 0.  1.
         11    1    4    4    0    0 -0.48270821476E+01  0.10612715592E+01  0.50693104226E+01  0.70798960306E+01  0.51100000000E-03 0. -1.
        -11    1    4    4    0    0 -0.73430756452E+00 -0.30434709672E+01  0.10931751688E+01  0.33161657586E+01  0.51100000000E-03 0.  1.
         12    1    4    4    0    0  0.58714405976E+01 -0.10585793505E+02  0.35377529231E+02  0.37391207700E+02  0.00000000000E+00 0. -1.
</event>
<event>
 8    1  0.5834107E-011  0.9118800E+02  0.7816164E-02  0.1184000E+00
        -11   -1    0    0    0    0  0.00000000000E+00  0.00000000000E+00  0.45593999997E+02  0.45594000000E+02  0.51100000000E-03 0. -1.
         11   -1    0    0    0    0 -0.00000000000E+00 -0.00000000000E+00 -0.45593999997E+02  0.45594000000E+02  0.51100000000E-03 0.  1.
         23    2    1    2    0    0  0.00000000000E+00  0.00000000000E+00  0.00000000000E+00  0.91188000000E+02  0.91188000000E+02 0.  0.
    9900012    2    3    3    0    0 -0.13267355186E+02 -0.34192148795E+02 -0.23205549240E+02  0.47787271108E+02  0.20000000290E+02 0.  0.
         12    1    3    3    0    0  0.13267355186E+02  0.34192148795E+02  0.23205549240E+02  0.43400728892E+02  0.00000000000E+00 0. -1.
         11    1    4    4    0    0  0.99497952107E+00 -0.15597794430E+02 -0.97984926924E+01  0.18446995274E+02  0.51100000000E-03 0. -1.
        -11    1    4    4    0    0  0.11737008938E+01 -0.61371441697E+01 -0.28063627808E+01  0.68496558064E+01  0.51100000000E-03 0.  1.
         12    1    4    4    0    0 -0.15436035600E+02 -0.12457210195E+02 -0.10600693767E+02  0.22490620028E+02  0.00000000000E+00 0. -1.
</event>
<event>
 8    1  0.5834107E-011  0.9118800E+02  0.7816164E-02  0.1184000E+00
        -11   -1    0    0    0    0  0.00000000000E+00  0.00000000000E+00  0.45593999997E+02  0.45594000000E+02  0.51100000000E-03 0. -1.
         11   -1    0    0    0    0 -0.00000000000E+00 -0.00000000000E+00 -0.45593999997E+02  0.45594000000E+02  0.51100000000E-03 0.  1.
         23    2    1    2    0    0  0.00000000000E+00  0.00000000000E+00  0.00000000000E+00  0.91188000000E+02  0.91188000000E+02 0.  0.
    9900012    2    3    3    0    0  0.69284814724E+01  0.23140182647E+02 -0.36057610558E+02  0.47787272038E+02  0.20000004530E+02 0.  0.
         12    1    3    3    0    0 -0.69284814724E+01 -0.23140182647E+02  0.36057610558E+02  0.43400727962E+02  0.00000000000E+00 0. -1.
         11    1    4    4    0    0  0.45265397330E+01  0.11983815965E+02 -0.13272015932E+02  0.18445807497E+02  0.51100000000E-03 0. -1.
        -11    1    4    4    0    0 -0.28125905117E+01 -0.40158071712E+00  0.44492395249E+00  0.28757416510E+01  0.51100000000E-03 0.  1.
        -12    1    4    4    0    0  0.52145322512E+01  0.11557947400E+02 -0.23230518578E+02  0.26465722890E+02  0.00000000000E+00 0.  1.
</event>
<event>
 8    1  0.5834107E-011  0.9118800E+02  0.7816164E-02  0.1184000E+00
        -11   -1    0    0    0    0  0.00000000000E+00  0.00000000000E+00  0.45593999997E+02  0.45594000000E+02  0.51100000000E-03 0. -1.
         11   -1    0    0    0    0 -0.00000000000E+00 -0.00000000000E+00 -0.45593999997E+02  0.45594000000E+02  0.51100000000E-03 0.  1.
         23    2    1    2    0    0  0.00000000000E+00  0.00000000000E+00  0.00000000000E+00  0.91188000000E+02  0.91188000000E+02 0.  0.
    9900012    2    3    3    0    0  0.43075406784E+02  0.68314520868E+00 -0.52598361646E+01  0.47787271510E+02  0.20000002122E+02 0.  0.
         12    1    3    3    0    0 -0.43075406784E+02 -0.68314520868E+00  0.52598361646E+01  0.43400728490E+02  0.00000000000E+00 0. -1.
         11    1    4    4    0    0  0.23726766009E+02  0.68637296566E+01 -0.82005296031E+00  0.24713208961E+02  0.51100000000E-03 0. -1.
        -11    1    4    4    0    0  0.14354651954E+02 -0.18971593259E+01 -0.69131855239E+01  0.16045166892E+02  0.51100000000E-03 0.  1.
         12    1    4    4    0    0  0.49939888206E+01 -0.42834251220E+01  0.24734023196E+01  0.70288956565E+01  0.00000000000E+00 0. -1.
</event>
<event>
 8    1  0.5834107E-011  0.9118800E+02  0.7816164E-02  0.1184000E+00
        -11   -1    0    0    0    0  0.00000000000E+00  0.00000000000E+00  0.45593999997E+02  0.45594000000E+02  0.51100000000E-03 0. -1.
         11   -1    0    0    0    0 -0.00000000000E+00 -0.00000000000E+00 -0.45593999997E+02  0.45594000000E+02  0.51100000000E-03 0.  1.
         23    2    1    2    0    0  0.00000000000E+00  0.00000000000E+00  0.00000000000E+00  0.91188000000E+02  0.91188000000E+02 0.  0.
    9900012    2    3    3    0    0  0.20449978479E+02  0.18717284984E+02 -0.33392884655E+02  0.47787272788E+02  0.20000007948E+02 0.  0.
         12    1    3    3    0    0 -0.20449978479E+02 -0.18717284984E+02  0.33392884655E+02  0.43400727212E+02  0.00000000000E+00 0. -1.
         11    1    4    4    0    0  0.12579426538E+02  0.17296395254E+02 -0.14991059712E+02  0.26117793405E+02  0.51100000000E-03 0. -1.
        -11    1    4    4    0    0  0.99179716634E+00  0.28624762059E+01 -0.11216458173E+02  0.11618363304E+02  0.51100000000E-03 0.  1.
        -12    1    4    4    0    0  0.68787547742E+01 -0.14415864753E+01 -0.71853667699E+01  0.10051116079E+02  0.00000000000E+00 0.  1.
</event>
<event>
 8    1  0.5834107E-011  0.9118800E+02  0.7816164E-02  0.1184000E+00
        -11   -1    0    0    0    0  0.00000000000E+00  0.00000000000E+00  0.45593999997E+02  0.45594000000E+02  0.51100000000E-03 0. -1.
         11   -1    0    0    0    0 -0.00000000000E+00 -0.00000000000E+00 -0.45593999997E+02  0.45594000000E+02  0.51100000000E-03 0.  1.
         23    2    1    2    0    0  0.17763568394E-14 -0.35527136788E-14  0.35527136788E-14  0.91188000000E+02  0.91188000000E+02 0.  0.
    9900012    2    3    3    0    0  0.11281046614E+02 -0.31215896831E+02  0.27963000058E+02  0.47787267288E+02  0.19999982873E+02 0.  0.
        -12    1    3    3    0    0 -0.11281046614E+02  0.31215896831E+02 -0.27963000058E+02  0.43400732712E+02  0.00000000000E+00 0.  1.
         11    1    4    4    0    0  0.15322077512E+01 -0.10024010232E+02  0.12655577182E+02  0.16217030425E+02  0.51100000000E-03 0. -1.
        -11    1    4    4    0    0  0.15997454559E+01 -0.14962450060E+02  0.26514696529E+01  0.15279541515E+02  0.51100000000E-03 0.  1.
         12    1    4    4    0    0  0.81490934069E+01 -0.62294365395E+01  0.12655953223E+02  0.16290695349E+02  0.00000000000E+00 0. -1.
</event>
<event>
 8    1  0.5834107E-011  0.9118800E+02  0.7816164E-02  0.1184000E+00
        -11   -1    0    0    0    0  0.00000000000E+00  0.00000000000E+00  0.45593999997E+02  0.45594000000E+02  0.51100000000E-03 0. -1.
         11   -1    0    0    0    0 -0.00000000000E+00 -0.00000000000E+00 -0.45593999997E+02  0.45594000000E+02  0.51100000000E-03 0.  1.
         23    2    1    2    0    0  0.17763568394E-14  0.17763568394E-14  0.00000000000E+00  0.91188000000E+02  0.91188000000E+02 0.  0.
    9900012    2    3    3    0    0 -0.14401038602E+02  0.84077598076E+01 -0.40069223871E+02  0.47787273746E+02  0.20000012316E+02 0.  0.
         12    1    3    3    0    0  0.14401038602E+02 -0.84077598076E+01  0.40069223871E+02  0.43400726254E+02  0.00000000000E+00 0. -1.
         11    1    4    4    0    0 -0.79016913329E+01  0.19414059030E+00 -0.21727057530E+02  0.23120109119E+02  0.51100000000E-03 0.  1.
        -11    1    4    4    0    0 -0.87559069438E+01  0.93823667145E+01 -0.11016545834E+02  0.16913278628E+02  0.51100000000E-03 0. -1.
         12    1    4    4    0    0  0.22565596746E+01 -0.11687474972E+01 -0.73256205064E+01  0.77538859987E+01  0.00000000000E+00 0. -1.
</event>
<event>
 8    1  0.5834107E-011  0.9118800E+02  0.7816164E-02  0.1184000E+00
        -11   -1    0    0    0    0  0.00000000000E+00  0.00000000000E+00  0.45593999997E+02  0.45594000000E+02  0.51100000000E-03 0. -1.
         11   -1    0    0    0    0 -0.00000000000E+00 -0.00000000000E+00 -0.45593999997E+02  0.45594000000E+02  0.51100000000E-03 0.  1.
         23    2    1    2    0    0 -0.17763568394E-14  0.00000000000E+00  0.00000000000E+00  0.91188000000E+02  0.91188000000E+02 0.  0.
    9900012    2    3    3    0    0  0.14555896038E+02  0.29901420284E+02  0.27886453232E+02  0.47787270532E+02  0.19999997664E+02 0.  0.
        -12    1    3    3    0    0 -0.14555896038E+02 -0.29901420284E+02 -0.27886453232E+02  0.43400729468E+02  0.00000000000E+00 0.  1.
         11    1    4    4    0    0  0.50896406127E+01  0.13079715721E+02  0.69770427252E+01  0.15673625310E+02  0.51100000000E-03 0. -1.
        -11    1    4    4    0    0 -0.31718852408E+01 -0.69015576380E-01  0.17880263602E+01  0.36417931924E+01  0.51100000000E-03 0.  1.
        -12    1    4    4    0    0  0.12638140666E+02  0.16890720140E+02  0.19121384147E+02  0.28471852030E+02  0.00000000000E+00 0.  1.
</event>
<event>
 8    1  0.5834107E-011  0.9118800E+02  0.7816164E-02  0.1184000E+00
        -11   -1    0    0    0    0  0.00000000000E+00  0.00000000000E+00  0.45593999997E+02  0.45594000000E+02  0.51100000000E-03 0. -1.
         11   -1    0    0    0    0 -0.00000000000E+00 -0.00000000000E+00 -0.45593999997E+02  0.45594000000E+02  0.51100000000E-03 0.  1.
         23    2    1    2    0    0 -0.88817841970E-15 -0.71054273576E-14  0.00000000000E+00  0.91188000000E+02  0.91188000000E+02 0.  0.
    9900012    2    3    3    0    0 -0.61184760384E+01  0.37359834272E+02  0.21223330391E+02  0.47787277440E+02  0.20000029160E+02 0.  0.
        -12    1    3    3    0    0  0.61184760384E+01 -0.37359834272E+02 -0.21223330391E+02  0.43400722560E+02  0.00000000000E+00 0.  1.
         11    1    4    4    0    0 -0.13589919510E+01  0.11890958588E+02  0.19331702736E+01  0.12123485589E+02  0.51100000000E-03 0. -1.
        -11    1    4    4    0    0 -0.37989261497E+01  0.13045865085E+02  0.11227077417E+01  0.13634034936E+02  0.51100000000E-03 0.  1.
        -12    1    4    4    0    0 -0.96055793768E+00  0.12423010599E+02  0.18167452375E+02  0.22029756914E+02  0.00000000000E+00 0.  1.
</event>
<event>
 8    1  0.5834107E-011  0.9118800E+02  0.7816164E-02  0.1184000E+00
        -11   -1    0    0    0    0  0.00000000000E+00  0.00000000000E+00  0.45593999997E+02  0.45594000000E+02  0.51100000000E-03 0. -1.
         11   -1    0    0    0    0 -0.00000000000E+00 -0.00000000000E+00 -0.45593999997E+02  0.45594000000E+02  0.51100000000E-03 0.  1.
         23    2    1    2    0    0 -0.17763568394E-14 -0.35527136788E-14  0.00000000000E+00  0.91188000000E+02  0.91188000000E+02 0.  0.
    9900012    2    3    3    0    0 -0.10083925876E+02  0.25510884937E+02 -0.33632301212E+02  0.47787280004E+02  0.20000040850E+02 0.  0.
         12    1    3    3    0    0  0.10083925876E+02 -0.25510884937E+02  0.33632301212E+02  0.43400719996E+02  0.00000000000E+00 0. -1.
         11    1    4    4    0    0  0.13956624390E+00  0.37601178614E+01  0.55370226058E+00  0.38032290915E+01  0.51100000000E-03 0. -1.
        -11    1    4    4    0    0 -0.24971325461E+01  0.19413221910E+02 -0.23261261935E+02  0.30400578333E+02  0.51100000000E-03 0.  1.
        -12    1    4    4    0    0 -0.77263595735E+01  0.23375451659E+01 -0.10924741537E+02  0.13583472580E+02  0.00000000000E+00 0.  1.
</event>
<event>
 8    1  0.5834107E-011  0.9118800E+02  0.7816164E-02  0.1184000E+00
        -11   -1    0    0    0    0  0.00000000000E+00  0.00000000000E+00  0.45593999997E+02  0.45594000000E+02  0.51100000000E-03 0.  1.
         11   -1    0    0    0    0 -0.00000000000E+00 -0.00000000000E+00 -0.45593999997E+02  0.45594000000E+02  0.51100000000E-03 0. -1.
         23    2    1    2    0    0 -0.17763568394E-14  0.71054273576E-14  0.17763568394E-14  0.91188000000E+02  0.91188000000E+02 0.  0.
    9900012    2    3    3    0    0  0.14410314980E+02  0.40036664169E+02 -0.85457358699E+01  0.47787294278E+02  0.20000105932E+02 0.  0.
        -12    1    3    3    0    0 -0.14410314980E+02 -0.40036664169E+02  0.85457358699E+01  0.43400705722E+02  0.00000000000E+00 0.  1.
         11    1    4    4    0    0  0.22914225505E+01  0.20052160077E+02 -0.76944929994E+01  0.21599651938E+02  0.51100000000E-03 0. -1.
        -11    1    4    4    0    0  0.62210269642E+01  0.24382301755E+01 -0.34083618781E+01  0.75008715381E+01  0.51100000000E-03 0.  1.
         12    1    4    4    0    0  0.58978654654E+01  0.17546273916E+02  0.25571190075E+01  0.18686770802E+02  0.00000000000E+00 0. -1.
</event>
<event>
 8    1  0.5834107E-011  0.9118800E+02  0.7816164E-02  0.1184000E+00
        -11   -1    0    0    0    0  0.00000000000E+00  0.00000000000E+00  0.45593999997E+02  0.45594000000E+02  0.51100000000E-03 0.  1.
         11   -1    0    0    0    0 -0.00000000000E+00 -0.00000000000E+00 -0.45593999997E+02  0.45594000000E+02  0.51100000000E-03 0. -1.
         23    2    1    2    0    0  0.00000000000E+00  0.00000000000E+00  0.00000000000E+00  0.91188000000E+02  0.91188000000E+02 0.  0.
    9900012    2    3    3    0    0 -0.39180898975E+02  0.15246216071E+02 -0.10771825347E+02  0.47787283759E+02  0.20000057970E+02 0.  0.
        -12    1    3    3    0    0  0.39180898975E+02 -0.15246216071E+02  0.10771825347E+02  0.43400716241E+02  0.00000000000E+00 0.  1.
         11    1    4    4    0    0 -0.19983160360E+02  0.53928460397E+01 -0.23988964422E+01  0.20836606988E+02  0.51100000000E-03 0. -1.
        -11    1    4    4    0    0 -0.20666369147E+01  0.25431881059E+01  0.35535121229E+01  0.48338641425E+01  0.51100000000E-03 0.  1.
        -12    1    4    4    0    0 -0.17131101700E+02  0.73101819257E+01 -0.11926441028E+02  0.22116812628E+02  0.00000000000E+00 0.  1.
</event>
<event>
 8    1  0.5834107E-011  0.9118800E+02  0.7816164E-02  0.1184000E+00
        -11   -1    0    0    0    0  0.00000000000E+00  0.00000000000E+00  0.45593999997E+02  0.45594000000E+02  0.51100000000E-03 0. -1.
         11   -1    0    0    0    0 -0.00000000000E+00 -0.00000000000E+00 -0.45593999997E+02  0.45594000000E+02  0.51100000000E-03 0.  1.
         23    2    1    2    0    0  0.00000000000E+00 -0.35527136788E-14  0.00000000000E+00  0.91188000000E+02  0.91188000000E+02 0.  0.
    9900012    2    3    3    0    0 -0.35508281332E+02 -0.17146352762E+02 -0.18132521276E+02  0.47787265167E+02  0.19999973203E+02 0.  0.
         12    1    3    3    0    0  0.35508281332E+02  0.17146352762E+02  0.18132521276E+02  0.43400734833E+02  0.00000000000E+00 0. -1.
         11    1    4    4    0    0 -0.15169441285E+02 -0.15188093911E+02 -0.24401193878E+01  0.21604266441E+02  0.51100000000E-03 0. -1.
        -11    1    4    4    0    0 -0.10142624343E+02 -0.68154112996E+00 -0.49131346647E+01  0.11290536717E+02  0.51100000000E-03 0.  1.
         12    1    4    4    0    0 -0.10196215704E+02 -0.12767177215E+01 -0.10779267223E+02  0.14892462009E+02  0.00000000000E+00 0. -1.
</event>
<event>
 8    1  0.5834107E-011  0.9118800E+02  0.7816164E-02  0.1184000E+00
        -11   -1    0    0    0    0  0.00000000000E+00  0.00000000000E+00  0.45593999997E+02  0.45594000000E+02  0.51100000000E-03 0. -1.
         11   -1    0    0    0    0 -0.00000000000E+00 -0.00000000000E+00 -0.45593999997E+02  0.45594000000E+02  0.51100000000E-03 0.  1.
         23    2    1    2    0    0  0.35527136788E-14  0.22204460493E-15  0.00000000000E+00  0.91188000000E+02  0.91188000000E+02 0.  0.
    9900012    2    3    3    0    0  0.25796356656E+02 -0.13013075043E+01 -0.34878045796E+02  0.47787268480E+02  0.19999988307E+02 0.  0.
         12    1    3    3    0    0 -0.25796356656E+02  0.13013075043E+01  0.34878045796E+02  0.43400731520E+02  0.00000000000E+00 0. -1.
         11    1    4    4    0    0  0.16668367411E+02  0.71688068093E+01 -0.18399675607E+02  0.25841329802E+02  0.51100000000E-03 0. -1.
        -11    1    4    4    0    0  0.96192233551E+01 -0.52502192134E+01 -0.10719488073E+02  0.15329764660E+02  0.51100000000E-03 0.  1.
         12    1    4    4    0    0 -0.49123410989E+00 -0.32198951002E+01 -0.57588821162E+01  0.66161740179E+01  0.00000000000E+00 0. -1.
</event>
<event>
 8    1  0.5834107E-011  0.9118800E+02  0.7816164E-02  0.1184000E+00
        -11   -1    0    0    0    0  0.00000000000E+00  0.00000000000E+00  0.45593999997E+02  0.45594000000E+02  0.51100000000E-03 0. -1.
         11   -1    0    0    0    0 -0.00000000000E+00 -0.00000000000E+00 -0.45593999997E+02  0.45594000000E+02  0.51100000000E-03 0.  1.
         23    2    1    2    0    0  0.00000000000E+00  0.00000000000E+00 -0.35527136788E-14  0.91188000000E+02  0.91188000000E+02 0.  0.
    9900012    2    3    3    0    0 -0.30851858754E+02 -0.11566701206E+02 -0.28248865528E+02  0.47787260733E+02  0.19999952985E+02 0.  0.
         12    1    3    3    0    0  0.30851858754E+02  0.11566701206E+02  0.28248865528E+02  0.43400739267E+02  0.00000000000E+00 0. -1.
         11    1    4    4    0    0 -0.42659224197E+01  0.37585404897E+00 -0.77082956937E+01  0.88180033522E+01  0.51100000000E-03 0.  1.
        -11    1    4    4    0    0 -0.14147697844E+02 -0.14671822238E+02 -0.12719767005E+02  0.24025240789E+02  0.51100000000E-03 0. -1.
         12    1    4    4    0    0 -0.12438238490E+02  0.27292669826E+01 -0.78208028289E+01  0.14944016591E+02  0.00000000000E+00 0. -1.
</event>
<event>
 8    1  0.5834107E-011  0.9118800E+02  0.7816164E-02  0.1184000E+00
        -11   -1    0    0    0    0  0.00000000000E+00  0.00000000000E+00  0.45593999997E+02  0.45594000000E+02  0.51100000000E-03 0. -1.
         11   -1    0    0    0    0 -0.00000000000E+00 -0.00000000000E+00 -0.45593999997E+02  0.45594000000E+02  0.51100000000E-03 0.  1.
         23    2    1    2    0    0 -0.88817841970E-15 -0.35527136788E-14  0.71054273576E-14  0.91188000000E+02  0.91188000000E+02 0.  0.
    9900012    2    3    3    0    0  0.78208519594E+01  0.19159101743E+02 -0.38149524223E+02  0.47787273009E+02  0.20000008957E+02 0.  0.
         12    1    3    3    0    0 -0.78208519594E+01 -0.19159101743E+02  0.38149524223E+02  0.43400726991E+02  0.00000000000E+00 0. -1.
         11    1    4    4    0    0  0.36890608165E+01 -0.16597622722E+01 -0.31490666662E+01  0.51264609271E+01  0.51100000000E-03 0. -1.
        -11    1    4    4    0    0  0.71917063024E+01  0.12570370930E+02 -0.27581710524E+02  0.31152618197E+02  0.51100000000E-03 0.  1.
        -12    1    4    4    0    0 -0.30599151594E+01  0.82484930846E+01 -0.74187470325E+01  0.11508193884E+02  0.00000000000E+00 0.  1.
</event>
<event>
 8    1  0.5834107E-011  0.9118800E+02  0.7816164E-02  0.1184000E+00
        -11   -1    0    0    0    0  0.00000000000E+00  0.00000000000E+00  0.45593999997E+02  0.45594000000E+02  0.51100000000E-03 0. -1.
         11   -1    0    0    0    0 -0.00000000000E+00 -0.00000000000E+00 -0.45593999997E+02  0.45594000000E+02  0.51100000000E-03 0.  1.
         23    2    1    2    0    0  0.00000000000E+00  0.00000000000E+00  0.00000000000E+00  0.91188000000E+02  0.91188000000E+02 0.  0.
    9900012    2    3    3    0    0 -0.20902411348E+02  0.44407494012E+00 -0.38033074700E+02  0.47787276805E+02  0.20000026262E+02 0.  0.
         12    1    3    3    0    0  0.20902411348E+02 -0.44407494012E+00  0.38033074700E+02  0.43400723195E+02  0.00000000000E+00 0. -1.
         11    1    4    4    0    0 -0.21611747237E+02  0.34632271289E+00 -0.23099838281E+02  0.31635266506E+02  0.51100000000E-03 0.  1.
        -11    1    4    4    0    0 -0.14432257815E+01 -0.15205519413E+01 -0.11952233378E+02  0.12134696611E+02  0.51100000000E-03 0. -1.
        -12    1    4    4    0    0  0.21525616703E+01  0.16183041685E+01 -0.29810030413E+01  0.40173136868E+01  0.00000000000E+00 0.  1.
</event>
<event>
 8    1  0.5834107E-011  0.9118800E+02  0.7816164E-02  0.1184000E+00
        -11   -1    0    0    0    0  0.00000000000E+00  0.00000000000E+00  0.45593999997E+02  0.45594000000E+02  0.51100000000E-03 0. -1.
         11   -1    0    0    0    0 -0.00000000000E+00 -0.00000000000E+00 -0.45593999997E+02  0.45594000000E+02  0.51100000000E-03 0.  1.
         23    2    1    2    0    0  0.00000000000E+00  0.00000000000E+00  0.00000000000E+00  0.91188000000E+02  0.91188000000E+02 0.  0.
    9900012    2    3    3    0    0 -0.16779598349E+02 -0.13007059101E+02 -0.37853457491E+02  0.47787277065E+02  0.20000027452E+02 0.  0.
         12    1    3    3    0    0  0.16779598349E+02  0.13007059101E+02  0.37853457491E+02  0.43400722935E+02  0.00000000000E+00 0. -1.
         11    1    4    4    0    0 -0.14195067372E+02 -0.63153987069E+01 -0.94492136223E+01  0.18184384424E+02  0.51100000000E-03 0. -1.
        -11    1    4    4    0    0 -0.19185511908E+00 -0.41990135101E+01 -0.95420525397E+01  0.10426854261E+02  0.51100000000E-03 0.  1.
         12    1    4    4    0    0 -0.23926758575E+01 -0.24926468836E+01 -0.18862191329E+02  0.19176038381E+02  0.00000000000E+00 0. -1.
</event>
<event>
 8    1  0.5834107E-011  0.9118800E+02  0.7816164E-02  0.1184000E+00
        -11   -1    0    0    0    0  0.00000000000E+00  0.00000000000E+00  0.45593999997E+02  0.45594000000E+02  0.51100000000E-03 0.  1.
         11   -1    0    0    0    0 -0.00000000000E+00 -0.00000000000E+00 -0.45593999997E+02  0.45594000000E+02  0.51100000000E-03 0. -1.
         23    2    1    2    0    0  0.00000000000E+00  0.35527136788E-14  0.00000000000E+00  0.91188000000E+02  0.91188000000E+02 0.  0.
    9900012    2    3    3    0    0 -0.39039123068E+02  0.18711809821E+02 -0.30722208413E+01  0.47787268467E+02  0.19999988249E+02 0.  0.
        -12    1    3    3    0    0  0.39039123068E+02 -0.18711809821E+02  0.30722208413E+01  0.43400731533E+02  0.00000000000E+00 0.  1.
         11    1    4    4    0    0 -0.79170665210E+01  0.99198400106E+01  0.39991628804E+01  0.13307008384E+02  0.51100000000E-03 0. -1.
        -11    1    4    4    0    0 -0.19785803328E+02  0.97491314545E+01 -0.68682001934E+01  0.23101856020E+02  0.51100000000E-03 0.  1.
        -12    1    4    4    0    0 -0.11336253219E+02 -0.95716164380E+00 -0.20318352828E+00  0.11378404062E+02  0.00000000000E+00 0.  1.
</event>
<event>
 8    1  0.5834107E-011  0.9118800E+02  0.7816164E-02  0.1184000E+00
        -11   -1    0    0    0    0  0.00000000000E+00  0.00000000000E+00  0.45593999997E+02  0.45594000000E+02  0.51100000000E-03 0. -1.
         11   -1    0    0    0    0 -0.00000000000E+00 -0.00000000000E+00 -0.45593999997E+02  0.45594000000E+02  0.51100000000E-03 0.  1.
         23    2    1    2    0    0  0.00000000000E+00  0.00000000000E+00  0.35527136788E-14  0.91188000000E+02  0.91188000000E+02 0.  0.
    9900012    2    3    3    0    0 -0.19087403665E+02 -0.32745935183E+02  0.21142330323E+02  0.47787269808E+02  0.19999994362E+02 0.  0.
        -12    1    3    3    0    0  0.19087403665E+02  0.32745935183E+02 -0.21142330323E+02  0.43400730192E+02  0.00000000000E+00 0.  1.
         11    1    4    4    0    0 -0.83758937368E+01 -0.89607937705E+01  0.32940883458E+01  0.12700489722E+02  0.51100000000E-03 0. -1.
        -11    1    4    4    0    0 -0.30463119355E+01 -0.22152863731E+02  0.13601001598E+02  0.26172822405E+02  0.51100000000E-03 0.  1.
        -12    1    4    4    0    0 -0.76651979929E+01 -0.16322776814E+01  0.42472403792E+01  0.89139576810E+01  0.00000000000E+00 0.  1.
</event>
<event>
 8    1  0.5834107E-011  0.9118800E+02  0.7816164E-02  0.1184000E+00
        -11   -1    0    0    0    0  0.00000000000E+00  0.00000000000E+00  0.45593999997E+02  0.45594000000E+02  0.51100000000E-03 0. -1.
         11   -1    0    0    0    0 -0.00000000000E+00 -0.00000000000E+00 -0.45593999997E+02  0.45594000000E+02  0.51100000000E-03 0.  1.
         23    2    1    2    0    0  0.00000000000E+00 -0.35527136788E-14  0.00000000000E+00  0.91188000000E+02  0.91188000000E+02 0.  0.
    9900012    2    3    3    0    0 -0.68908297580E+01  0.20548876165E+02  0.37601665879E+02  0.47787249738E+02  0.19999902855E+02 0.  0.
        -12    1    3    3    0    0  0.68908297580E+01 -0.20548876165E+02 -0.37601665879E+02  0.43400750262E+02  0.00000000000E+00 0.  1.
         11    1    4    4    0    0  0.19364779515E+01  0.21652656240E+00  0.44684087475E+01  0.48747828264E+01  0.51100000000E-03 0.  1.
        -11    1    4    4    0    0  0.29242340778E+01  0.13068745621E+02  0.17769721136E+02  0.22250983047E+02  0.51100000000E-03 0. -1.
         12    1    4    4    0    0 -0.11751541787E+02  0.72636039818E+01  0.15363535996E+02  0.20661483864E+02  0.00000000000E+00 0. -1.
</event>
<event>
 8    1  0.5834107E-011  0.9118800E+02  0.7816164E-02  0.1184000E+00
        -11   -1    0    0    0    0  0.00000000000E+00  0.00000000000E+00  0.45593999997E+02  0.45594000000E+02  0.51100000000E-03 0. -1.
         11   -1    0    0    0    0 -0.00000000000E+00 -0.00000000000E+00 -0.45593999997E+02  0.45594000000E+02  0.51100000000E-03 0.  1.
         23    2    1    2    0    0  0.17763568394E-14  0.88817841970E-15  0.71054273576E-14  0.91188000000E+02  0.91188000000E+02 0.  0.
    9900012    2    3    3    0    0 -0.77691546549E+01 -0.66906872389E+01 -0.42172234346E+02  0.47787281002E+02  0.20000045400E+02 0.  0.
         12    1    3    3    0    0  0.77691546549E+01  0.66906872389E+01  0.42172234346E+02  0.43400718998E+02  0.00000000000E+00 0. -1.
         11    1    4    4    0    0 -0.61549406465E+01 -0.26999845814E+01 -0.54368413815E+01  0.86447935528E+01  0.51100000000E-03 0. -1.
        -11    1    4    4    0    0  0.56046944883E+01 -0.17305875997E+01 -0.13907002680E+02  0.15093450816E+02  0.51100000000E-03 0.  1.
        -12    1    4    4    0    0 -0.72189084967E+01 -0.22601150578E+01 -0.22828390285E+02  0.24049036633E+02  0.00000000000E+00 0.  1.
</event>
<event>
 8    1  0.5834107E-011  0.9118800E+02  0.7816164E-02  0.1184000E+00
        -11   -1    0    0    0    0  0.00000000000E+00  0.00000000000E+00  0.45593999997E+02  0.45594000000E+02  0.51100000000E-03 0. -1.
         11   -1    0    0    0    0 -0.00000000000E+00 -0.00000000000E+00 -0.45593999997E+02  0.45594000000E+02  0.51100000000E-03 0.  1.
         23    2    1    2    0    0  0.00000000000E+00 -0.22204460493E-14  0.00000000000E+00  0.91188000000E+02  0.91188000000E+02 0.  0.
    9900012    2    3    3    0    0 -0.15108938993E+02  0.30812519089E+01  0.40569065220E+02  0.47787271853E+02  0.20000003687E+02 0.  0.
        -12    1    3    3    0    0  0.15108938993E+02 -0.30812519089E+01 -0.40569065220E+02  0.43400728147E+02  0.00000000000E+00 0.  1.
         11    1    4    4    0    0 -0.87364602692E+01  0.44607661756E+01  0.26979630273E+02  0.28707570828E+02  0.51100000000E-03 0. -1.
        -11    1    4    4    0    0  0.15780861493E+00  0.41706677875E+01  0.19016106501E+01  0.45864470648E+01  0.51100000000E-03 0.  1.
         12    1    4    4    0    0 -0.65302873387E+01 -0.55501820542E+01  0.11687824297E+02  0.14493253961E+02  0.00000000000E+00 0. -1.
</event>
<event>
 8    1  0.5834107E-011  0.9118800E+02  0.7816164E-02  0.1184000E+00
        -11   -1    0    0    0    0  0.00000000000E+00  0.00000000000E+00  0.45593999997E+02  0.45594000000E+02  0.51100000000E-03 0. -1.
         11   -1    0    0    0    0 -0.00000000000E+00 -0.00000000000E+00 -0.45593999997E+02  0.45594000000E+02  0.51100000000E-03 0.  1.
         23    2    1    2    0    0 -0.35527136788E-14  0.00000000000E+00 -0.71054273576E-14  0.91188000000E+02  0.91188000000E+02 0.  0.
    9900012    2    3    3    0    0 -0.18091385863E+02 -0.23343981388E+02 -0.31802258341E+02  0.47787270224E+02  0.19999996261E+02 0.  0.
         12    1    3    3    0    0  0.18091385863E+02  0.23343981388E+02  0.31802258341E+02  0.43400729776E+02  0.00000000000E+00 0. -1.
         11    1    4    4    0    0 -0.12759289464E+02 -0.13283371787E+02 -0.17295633259E+02  0.25266308867E+02  0.51100000000E-03 0. -1.
        -11    1    4    4    0    0 -0.72548828261E+00 -0.44589225498E+01 -0.14584334506E+02  0.15267977495E+02  0.51100000000E-03 0.  1.
         12    1    4    4    0    0 -0.46066081156E+01 -0.56016870513E+01  0.77709424035E-01  0.72529838622E+01  0.00000000000E+00 0. -1.
</event>
<event>
 8    1  0.5834107E-011  0.9118800E+02  0.7816164E-02  0.1184000E+00
        -11   -1    0    0    0    0  0.00000000000E+00  0.00000000000E+00  0.45593999997E+02  0.45594000000E+02  0.51100000000E-03 0. -1.
         11   -1    0    0    0    0 -0.00000000000E+00 -0.00000000000E+00 -0.45593999997E+02  0.45594000000E+02  0.51100000000E-03 0.  1.
         23    2    1    2    0    0  0.00000000000E+00  0.00000000000E+00  0.00000000000E+00  0.91188000000E+02  0.91188000000E+02 0.  0.
    9900012    2    3    3    0    0  0.15581475876E+02 -0.81296692602E+01 -0.39683113344E+02  0.47787269621E+02  0.19999993509E+02 0.  0.
         12    1    3    3    0    0 -0.15581475876E+02  0.81296692602E+01  0.39683113344E+02  0.43400730379E+02  0.00000000000E+00 0. -1.
         11    1    4    4    0    0 -0.35336834037E+00  0.32302170969E+01 -0.91756322630E+01  0.97340330472E+01  0.51100000000E-03 0. -1.
        -11    1    4    4    0    0  0.54483155767E+01  0.68120247779E+00 -0.30248470392E+01  0.62688020635E+01  0.51100000000E-03 0.  1.
        -12    1    4    4    0    0  0.10486528640E+02 -0.12041088835E+02 -0.27482634042E+02  0.31784434510E+02  0.00000000000E+00 0.  1.
</event>
<event>
 8    1  0.5834107E-011  0.9118800E+02  0.7816164E-02  0.1184000E+00
        -11   -1    0    0    0    0  0.00000000000E+00  0.00000000000E+00  0.45593999997E+02  0.45594000000E+02  0.51100000000E-03 0. -1.
         11   -1    0    0    0    0 -0.00000000000E+00 -0.00000000000E+00 -0.45593999997E+02  0.45594000000E+02  0.51100000000E-03 0.  1.
         23    2    1    2    0    0  0.00000000000E+00  0.00000000000E+00  0.00000000000E+00  0.91188000000E+02  0.91188000000E+02 0.  0.
    9900012    2    3    3    0    0 -0.25211700896E+02  0.45267604462E+01  0.35035723155E+02  0.47787270522E+02  0.19999997620E+02 0.  0.
        -12    1    3    3    0    0  0.25211700896E+02 -0.45267604462E+01 -0.35035723155E+02  0.43400729478E+02  0.00000000000E+00 0.  1.
         11    1    4    4    0    0 -0.14040375153E+02 -0.50037193264E+01  0.19145799314E+02  0.24263779038E+02  0.51100000000E-03 0. -1.
        -11    1    4    4    0    0 -0.34071072957E+01  0.12103379462E+01 -0.41546072856E+00  0.36394925397E+01  0.51100000000E-03 0.  1.
        -12    1    4    4    0    0 -0.77642184471E+01  0.83201418265E+01  0.16305384569E+02  0.19883998945E+02  0.00000000000E+00 0.  1.
</event>
<event>
 8    1  0.5834107E-011  0.9118800E+02  0.7816164E-02  0.1184000E+00
        -11   -1    0    0    0    0  0.00000000000E+00  0.00000000000E+00  0.45593999997E+02  0.45594000000E+02  0.51100000000E-03 0. -1.
         11   -1    0    0    0    0 -0.00000000000E+00 -0.00000000000E+00 -0.45593999997E+02  0.45594000000E+02  0.51100000000E-03 0.  1.
         23    2    1    2    0    0  0.00000000000E+00  0.17763568394E-14  0.88817841970E-15  0.91188000000E+02  0.91188000000E+02 0.  0.
    9900012    2    3    3    0    0 -0.41330726835E+02  0.10768528626E+02 -0.77092855756E+01  0.47787271048E+02  0.20000000015E+02 0.  0.
         12    1    3    3    0    0  0.41330726835E+02 -0.10768528626E+02  0.77092855756E+01  0.43400728952E+02  0.00000000000E+00 0. -1.
         11    1    4    4    0    0 -0.76208142745E+01  0.32739296443E+01  0.50454811860E+01  0.97083626932E+01  0.51100000000E-03 0.  1.
        -11    1    4    4    0    0 -0.10868240996E+02 -0.11997279220E+01 -0.69582636165E+01  0.12960534027E+02  0.51100000000E-03 0. -1.
        -12    1    4    4    0    0 -0.22841671565E+02  0.86943269035E+01 -0.57965031451E+01  0.25118374328E+02  0.00000000000E+00 0.  1.
</event>
<event>
 8    1  0.5834107E-011  0.9118800E+02  0.7816164E-02  0.1184000E+00
        -11   -1    0    0    0    0  0.00000000000E+00  0.00000000000E+00  0.45593999997E+02  0.45594000000E+02  0.51100000000E-03 0. -1.
         11   -1    0    0    0    0 -0.00000000000E+00 -0.00000000000E+00 -0.45593999997E+02  0.45594000000E+02  0.51100000000E-03 0.  1.
         23    2    1    2    0    0  0.00000000000E+00  0.00000000000E+00  0.17763568394E-14  0.91188000000E+02  0.91188000000E+02 0.  0.
    9900012    2    3    3    0    0  0.87677370125E+01  0.40238602920E+02  0.13696886807E+02  0.47787273215E+02  0.20000009896E+02 0.  0.
        -12    1    3    3    0    0 -0.87677370125E+01 -0.40238602920E+02 -0.13696886807E+02  0.43400726785E+02  0.00000000000E+00 0.  1.
         11    1    4    4    0    0  0.24331253787E+01  0.86935374362E+01 -0.48259227402E+00  0.90404971006E+01  0.51100000000E-03 0. -1.
        -11    1    4    4    0    0  0.41121099519E+01  0.18332178381E+02  0.16672008495E+02  0.25118401222E+02  0.51100000000E-03 0.  1.
        -12    1    4    4    0    0  0.22225016819E+01  0.13212887103E+02 -0.24925294139E+01  0.13628374892E+02  0.00000000000E+00 0.  1.
</event>
<event>
 8    1  0.5834107E-011  0.9118800E+02  0.7816164E-02  0.1184000E+00
        -11   -1    0    0    0    0  0.00000000000E+00  0.00000000000E+00  0.45593999997E+02  0.45594000000E+02  0.51100000000E-03 0. -1.
         11   -1    0    0    0    0 -0.00000000000E+00 -0.00000000000E+00 -0.45593999997E+02  0.45594000000E+02  0.51100000000E-03 0.  1.
         23    2    1    2    0    0  0.44408920985E-15  0.00000000000E+00  0.71054273576E-14  0.91188000000E+02  0.91188000000E+02 0.  0.
    9900012    2    3    3    0    0  0.24170191205E+01  0.16494717729E+02  0.40071260207E+02  0.47787267414E+02  0.19999983447E+02 0.  0.
        -12    1    3    3    0    0 -0.24170191205E+01 -0.16494717729E+02 -0.40071260207E+02  0.43400732586E+02  0.00000000000E+00 0.  1.
         11    1    4    4    0    0 -0.11418548363E+01 -0.52270727100E+00  0.69560976464E+01  0.70685465328E+01  0.51100000000E-03 0. -1.
        -11    1    4    4    0    0  0.69812579944E+01  0.18356368719E+02  0.24851765821E+02  0.31674982248E+02  0.51100000000E-03 0.  1.
        -12    1    4    4    0    0 -0.34223840376E+01 -0.13389437187E+01  0.82633967398E+01  0.90437386330E+01  0.00000000000E+00 0.  1.
</event>
<event>
 8    1  0.5834107E-011  0.9118800E+02  0.7816164E-02  0.1184000E+00
        -11   -1    0    0    0    0  0.00000000000E+00  0.00000000000E+00  0.45593999997E+02  0.45594000000E+02  0.51100000000E-03 0. -1.
         11   -1    0    0    0    0 -0.00000000000E+00 -0.00000000000E+00 -0.45593999997E+02  0.45594000000E+02  0.51100000000E-03 0.  1.
         23    2    1    2    0    0 -0.88817841970E-15  0.22204460493E-15  0.71054273576E-14  0.91188000000E+02  0.91188000000E+02 0.  0.
    9900012    2    3    3    0    0  0.60388578674E+01 -0.15425294002E+01 -0.42950855881E+02  0.47787271640E+02  0.20000002715E+02 0.  0.
         12    1    3    3    0    0 -0.60388578674E+01  0.15425294002E+01  0.42950855881E+02  0.43400728360E+02  0.00000000000E+00 0. -1.
         11    1    4    4    0    0  0.77162204140E+01 -0.10800239645E+01 -0.14693779504E+02  0.16631706635E+02  0.51100000000E-03 0.  1.
        -11    1    4    4    0    0 -0.45596049851E+01  0.49479657937E+01 -0.11653929348E+02  0.13456835907E+02  0.51100000000E-03 0. -1.
         12    1    4    4    0    0  0.28822424385E+01 -0.54104712294E+01 -0.16603147029E+02  0.17698729097E+02  0.00000000000E+00 0. -1.
</event>
<event>
 8    1  0.8460090E-011  0.9118800E+02  0.7816164E-02  0.1184000E+00
        -11   -1    0    0    0    0  0.00000000000E+00  0.00000000000E+00  0.45593999997E+02  0.45594000000E+02  0.51100000000E-03 0. -1.
         11   -1    0    0    0    0 -0.00000000000E+00 -0.00000000000E+00 -0.45593999997E+02  0.45594000000E+02  0.51100000000E-03 0.  1.
         23    2    1    2    0    0  0.71054273576E-14  0.88817841970E-15 -0.71054273576E-14  0.91188000000E+02  0.91188000000E+02 0.  0.
    9900012    2    3    3    0    0  0.33647588362E+02  0.77157771274E+01 -0.26304529983E+02  0.47787288982E+02  0.20000081784E+02 0.  0.
         12    1    3    3    0    0 -0.33647588362E+02 -0.77157771274E+01  0.26304529983E+02  0.43400711018E+02  0.00000000000E+00 0. -1.
         11    1    4    4    0    0  0.53405749077E+01  0.60534001340E+01 -0.97355896489E+01  0.12647019396E+02  0.51100000000E-03 0.  1.
        -11    1    4    4    0    0  0.25179749377E+02  0.32590854221E+01 -0.18229312533E+02  0.31256187422E+02  0.51100000000E-03 0. -1.
         12    1    4    4    0    0  0.31272640775E+01 -0.15967084288E+01  0.16603721993E+01  0.38840821640E+01  0.00000000000E+00 0. -1.
</event>
<event>
 8    1  0.5834107E-011  0.9118800E+02  0.7816164E-02  0.1184000E+00
        -11   -1    0    0    0    0  0.00000000000E+00  0.00000000000E+00  0.45593999997E+02  0.45594000000E+02  0.51100000000E-03 0. -1.
         11   -1    0    0    0    0 -0.00000000000E+00 -0.00000000000E+00 -0.45593999997E+02  0.45594000000E+02  0.51100000000E-03 0.  1.
         23    2    1    2    0    0  0.00000000000E+00  0.00000000000E+00  0.00000000000E+00  0.91188000000E+02  0.91188000000E+02 0.  0.
    9900012    2    3    3    0    0 -0.25876166681E+02 -0.52712786631E+01  0.34442136226E+02  0.47787272718E+02  0.20000007628E+02 0.  0.
        -12    1    3    3    0    0  0.25876166681E+02  0.52712786631E+01 -0.34442136226E+02  0.43400727282E+02  0.00000000000E+00 0.  1.
         11    1    4    4    0    0 -0.23165816489E+02 -0.32244235165E+01  0.17109404460E+02  0.28979021410E+02  0.51100000000E-03 0. -1.
        -11    1    4    4    0    0 -0.39459523579E+01 -0.35680428990E+01  0.13301234798E+02  0.14325652430E+02  0.51100000000E-03 0.  1.
        -12    1    4    4    0    0  0.12356021666E+01  0.15211877524E+01  0.40314969686E+01  0.44825988779E+01  0.00000000000E+00 0.  1.
</event>
<event>
 8    1  0.5834107E-011  0.9118800E+02  0.7816164E-02  0.1184000E+00
        -11   -1    0    0    0    0  0.00000000000E+00  0.00000000000E+00  0.45593999997E+02  0.45594000000E+02  0.51100000000E-03 0. -1.
         11   -1    0    0    0    0 -0.00000000000E+00 -0.00000000000E+00 -0.45593999997E+02  0.45594000000E+02  0.51100000000E-03 0.  1.
         23    2    1    2    0    0  0.00000000000E+00  0.17763568394E-14  0.00000000000E+00  0.91188000000E+02  0.91188000000E+02 0.  0.
    9900012    2    3    3    0    0  0.35070236483E+02 -0.13916709488E+02  0.21448233778E+02  0.47787273944E+02  0.20000013222E+02 0.  0.
        -12    1    3    3    0    0 -0.35070236483E+02  0.13916709488E+02 -0.21448233778E+02  0.43400726056E+02  0.00000000000E+00 0.  1.
         11    1    4    4    0    0  0.25475566298E+02 -0.15561500915E+02  0.15399575950E+02  0.33590351720E+02  0.51100000000E-03 0.  1.
        -11    1    4    4    0    0 -0.70853693276E+00 -0.50263718178E-01  0.33329998338E+01  0.34078496416E+01  0.51100000000E-03 0. -1.
         12    1    4    4    0    0  0.10303207118E+02  0.16950551457E+01  0.27156579949E+01  0.10789072583E+02  0.00000000000E+00 0. -1.
</event>
<event>
 8    1  0.5834107E-011  0.9118800E+02  0.7816164E-02  0.1184000E+00
        -11   -1    0    0    0    0  0.00000000000E+00  0.00000000000E+00  0.45593999997E+02  0.45594000000E+02  0.51100000000E-03 0. -1.
         11   -1    0    0    0    0 -0.00000000000E+00 -0.00000000000E+00 -0.45593999997E+02  0.45594000000E+02  0.51100000000E-03 0.  1.
         23    2    1    2    0    0  0.88817841970E-15  0.00000000000E+00 -0.35527136788E-14  0.91188000000E+02  0.91188000000E+02 0.  0.
    9900012    2    3    3    0    0 -0.79057449255E+01  0.32952318750E+02  0.27115814074E+02  0.47787268593E+02  0.19999988822E+02 0.  0.
        -12    1    3    3    0    0  0.79057449255E+01 -0.32952318750E+02 -0.27115814074E+02  0.43400731407E+02  0.00000000000E+00 0.  1.
         11    1    4    4    0    0 -0.73260229652E+01  0.64810240317E+01  0.48986351495E+01  0.10939420075E+02  0.51100000000E-03 0. -1.
        -11    1    4    4    0    0 -0.17173769511E+01  0.14355410601E+02  0.19675232038E+02  0.24416018372E+02  0.51100000000E-03 0.  1.
        -12    1    4    4    0    0  0.11376549908E+01  0.12115884117E+02  0.25419468860E+01  0.12431830146E+02  0.00000000000E+00 0.  1.
</event>
<event>
 8    1  0.5834107E-011  0.9118800E+02  0.7816164E-02  0.1184000E+00
        -11   -1    0    0    0    0  0.00000000000E+00  0.00000000000E+00  0.45593999997E+02  0.45594000000E+02  0.51100000000E-03 0. -1.
         11   -1    0    0    0    0 -0.00000000000E+00 -0.00000000000E+00 -0.45593999997E+02  0.45594000000E+02  0.51100000000E-03 0.  1.
         23    2    1    2    0    0  0.00000000000E+00  0.00000000000E+00  0.00000000000E+00  0.91188000000E+02  0.91188000000E+02 0.  0.
    9900012    2    3    3    0    0 -0.30406870545E+02 -0.20492813765E+02  0.23218307716E+02  0.47787274136E+02  0.20000014094E+02 0.  0.
        -12    1    3    3    0    0  0.30406870545E+02  0.20492813765E+02 -0.23218307716E+02  0.43400725864E+02  0.00000000000E+00 0.  1.
         11    1    4    4    0    0 -0.11375748991E+02 -0.38339922747E+01  0.68610710867E+01  0.13826838344E+02  0.51100000000E-03 0. -1.
        -11    1    4    4    0    0  0.15395323604E+01 -0.27034695843E+01  0.65252652492E+01  0.72289691184E+01  0.51100000000E-03 0.  1.
        -12    1    4    4    0    0 -0.20570653914E+02 -0.13955351906E+02  0.98319713805E+01  0.26731466674E+02  0.00000000000E+00 0.  1.
</event>
<event>
 8    1  0.5834107E-011  0.9118800E+02  0.7816164E-02  0.1184000E+00
        -11   -1    0    0    0    0  0.00000000000E+00  0.00000000000E+00  0.45593999997E+02  0.45594000000E+02  0.51100000000E-03 0. -1.
         11   -1    0    0    0    0 -0.00000000000E+00 -0.00000000000E+00 -0.45593999997E+02  0.45594000000E+02  0.51100000000E-03 0.  1.
         23    2    1    2    0    0  0.35527136788E-14  0.00000000000E+00  0.00000000000E+00  0.91188000000E+02  0.91188000000E+02 0.  0.
    9900012    2    3    3    0    0  0.21806810326E+02  0.18765824940E+02  0.32495076907E+02  0.47787272063E+02  0.20000004644E+02 0.  0.
        -12    1    3    3    0    0 -0.21806810326E+02 -0.18765824940E+02 -0.32495076907E+02  0.43400727937E+02  0.00000000000E+00 0.  1.
         11    1    4    4    0    0  0.24934621718E+01  0.12056121415E+02  0.60424989748E+01  0.13714197435E+02  0.51100000000E-03 0. -1.
        -11    1    4    4    0    0  0.78038855814E+01  0.18731703259E+01  0.56607749857E+01  0.98210880730E+01  0.51100000000E-03 0.  1.
         12    1    4    4    0    0  0.11509462573E+02  0.48365331996E+01  0.20791802946E+02  0.24251986555E+02  0.00000000000E+00 0. -1.
</event>
<event>
 8    1  0.5834107E-011  0.9118800E+02  0.7816164E-02  0.1184000E+00
        -11   -1    0    0    0    0  0.00000000000E+00  0.00000000000E+00  0.45593999997E+02  0.45594000000E+02  0.51100000000E-03 0. -1.
         11   -1    0    0    0    0 -0.00000000000E+00 -0.00000000000E+00 -0.45593999997E+02  0.45594000000E+02  0.51100000000E-03 0.  1.
         23    2    1    2    0    0  0.00000000000E+00  0.00000000000E+00  0.00000000000E+00  0.91188000000E+02  0.91188000000E+02 0.  0.
    9900012    2    3    3    0    0 -0.33848614926E+02 -0.67795980033E+00 -0.27155752856E+02  0.47787271031E+02  0.19999999937E+02 0.  0.
         12    1    3    3    0    0  0.33848614926E+02  0.67795980033E+00  0.27155752856E+02  0.43400728969E+02  0.00000000000E+00 0. -1.
         11    1    4    4    0    0 -0.95379569071E+01 -0.14090750162E+01 -0.50547710412E+00  0.96547201786E+01  0.51100000000E-03 0. -1.
        -11    1    4    4    0    0 -0.38708306328E+00 -0.13756476820E-01 -0.74175748168E+01  0.74276805910E+01  0.51100000000E-03 0.  1.
        -12    1    4    4    0    0 -0.23923574956E+02  0.74487169267E+00 -0.19232700935E+02  0.30704870261E+02  0.00000000000E+00 0.  1.
</event>
<event>
 8    1  0.5834107E-011  0.9118800E+02  0.7816164E-02  0.1184000E+00
        -11   -1    0    0    0    0  0.00000000000E+00  0.00000000000E+00  0.45593999997E+02  0.45594000000E+02  0.51100000000E-03 0. -1.
         11   -1    0    0    0    0 -0.00000000000E+00 -0.00000000000E+00 -0.45593999997E+02  0.45594000000E+02  0.51100000000E-03 0.  1.
         23    2    1    2    0    0  0.00000000000E+00  0.17763568394E-14 -0.35527136788E-14  0.91188000000E+02  0.91188000000E+02 0.  0.
    9900012    2    3    3    0    0  0.26447146492E+02 -0.15630727159E+02  0.30656957467E+02  0.47787306109E+02  0.20000159874E+02 0.  0.
        -12    1    3    3    0    0 -0.26447146492E+02  0.15630727159E+02 -0.30656957467E+02  0.43400693891E+02  0.00000000000E+00 0.  1.
         11    1    4    4    0    0  0.21094080387E+02 -0.69339183686E+01  0.11439249577E+02  0.24977907888E+02  0.51100000000E-03 0.  1.
        -11    1    4    4    0    0  0.67916633107E+01 -0.83774680001E+01  0.16373807141E+02  0.19606382154E+02  0.51100000000E-03 0. -1.
        -12    1    4    4    0    0 -0.14385972055E+01 -0.31934079019E+00  0.28439007481E+01  0.32030160669E+01  0.00000000000E+00 0.  1.
</event>
<event>
 8    1  0.5834107E-011  0.9118800E+02  0.7816164E-02  0.1184000E+00
        -11   -1    0    0    0    0  0.00000000000E+00  0.00000000000E+00  0.45593999997E+02  0.45594000000E+02  0.51100000000E-03 0. -1.
         11   -1    0    0    0    0 -0.00000000000E+00 -0.00000000000E+00 -0.45593999997E+02  0.45594000000E+02  0.51100000000E-03 0.  1.
         23    2    1    2    0    0  0.00000000000E+00 -0.17763568394E-14  0.71054273576E-14  0.91188000000E+02  0.91188000000E+02 0.  0.
    9900012    2    3    3    0    0  0.12997985065E+02  0.65140594344E+01 -0.40893068136E+02  0.47787267199E+02  0.19999982467E+02 0.  0.
         12    1    3    3    0    0 -0.12997985065E+02 -0.65140594344E+01  0.40893068136E+02  0.43400732801E+02  0.00000000000E+00 0. -1.
         11    1    4    4    0    0  0.72026170302E+01  0.11423395076E+02 -0.15848637345E+02  0.20821886396E+02  0.51100000000E-03 0. -1.
        -11    1    4    4    0    0 -0.46447813355E+00 -0.20724738226E+01 -0.19977991315E+01  0.29158342397E+01  0.51100000000E-03 0.  1.
         12    1    4    4    0    0  0.62598461687E+01 -0.28368618191E+01 -0.23046631660E+02  0.24049546563E+02  0.00000000000E+00 0. -1.
</event>
<event>
 8    1  0.5834107E-011  0.9118800E+02  0.7816164E-02  0.1184000E+00
        -11   -1    0    0    0    0  0.00000000000E+00  0.00000000000E+00  0.45593999997E+02  0.45594000000E+02  0.51100000000E-03 0. -1.
         11   -1    0    0    0    0 -0.00000000000E+00 -0.00000000000E+00 -0.45593999997E+02  0.45594000000E+02  0.51100000000E-03 0.  1.
         23    2    1    2    0    0 -0.44408920985E-15  0.00000000000E+00  0.00000000000E+00  0.91188000000E+02  0.91188000000E+02 0.  0.
    9900012    2    3    3    0    0  0.37616341773E+01 -0.35964057021E+02  0.24001249937E+02  0.47787270886E+02  0.19999999278E+02 0.  0.
        -12    1    3    3    0    0 -0.37616341773E+01  0.35964057021E+02 -0.24001249937E+02  0.43400729114E+02  0.00000000000E+00 0.  1.
         11    1    4    4    0    0 -0.46172502624E+01 -0.13909908725E+02  0.41016940930E+01  0.15219344776E+02  0.51100000000E-03 0. -1.
        -11    1    4    4    0    0  0.65322643803E+01 -0.18524601257E+02  0.10310024368E+02  0.22183956644E+02  0.51100000000E-03 0.  1.
         12    1    4    4    0    0  0.18466200594E+01 -0.35295470394E+01  0.95895314758E+01  0.10383969466E+02  0.00000000000E+00 0. -1.
</event>
<event>
 8    1  0.5834107E-011  0.9118800E+02  0.7816164E-02  0.1184000E+00
        -11   -1    0    0    0    0  0.00000000000E+00  0.00000000000E+00  0.45593999997E+02  0.45594000000E+02  0.51100000000E-03 0. -1.
         11   -1    0    0    0    0 -0.00000000000E+00 -0.00000000000E+00 -0.45593999997E+02  0.45594000000E+02  0.51100000000E-03 0.  1.
         23    2    1    2    0    0  0.00000000000E+00  0.00000000000E+00  0.00000000000E+00  0.91188000000E+02  0.91188000000E+02 0.  0.
    9900012    2    3    3    0    0  0.13301675569E+01 -0.86095168247E+01 -0.42517404605E+02  0.47787276273E+02  0.20000023841E+02 0.  0.
         12    1    3    3    0    0 -0.13301675569E+01  0.86095168247E+01  0.42517404605E+02  0.43400723727E+02  0.00000000000E+00 0. -1.
         11    1    4    4    0    0 -0.38729832811E+01  0.15503985281E+01 -0.10400643845E+02  0.11206120102E+02  0.51100000000E-03 0. -1.
        -11    1    4    4    0    0 -0.21901417747E+01 -0.92273284691E+01 -0.13234611954E+02  0.16281746390E+02  0.51100000000E-03 0.  1.
        -12    1    4    4    0    0  0.73932926127E+01 -0.93258688372E+00 -0.18882148806E+02  0.20299409782E+02  0.00000000000E+00 0.  1.
</event>
<event>
 8    1  0.5834107E-011  0.9118800E+02  0.7816164E-02  0.1184000E+00
        -11   -1    0    0    0    0  0.00000000000E+00  0.00000000000E+00  0.45593999997E+02  0.45594000000E+02  0.51100000000E-03 0. -1.
         11   -1    0    0    0    0 -0.00000000000E+00 -0.00000000000E+00 -0.45593999997E+02  0.45594000000E+02  0.51100000000E-03 0.  1.
         23    2    1    2    0    0  0.00000000000E+00  0.00000000000E+00  0.35527136788E-14  0.91188000000E+02  0.91188000000E+02 0.  0.
    9900012    2    3    3    0    0  0.41155925890E+01  0.34243475993E+02  0.26345188542E+02  0.47787277543E+02  0.20000029630E+02 0.  0.
        -12    1    3    3    0    0 -0.41155925890E+01 -0.34243475993E+02 -0.26345188542E+02  0.43400722457E+02  0.00000000000E+00 0.  1.
         11    1    4    4    0    0 -0.63532599263E+00  0.13396547048E+00 -0.11443122386E+01  0.13156886504E+01  0.51100000000E-03 0.  1.
        -11    1    4    4    0    0 -0.28947274296E+01  0.25400841756E+01  0.72231943568E+01  0.81857199737E+01  0.51100000000E-03 0. -1.
         12    1    4    4    0    0  0.76456460111E+01  0.31569426347E+02  0.20266306424E+02  0.38285868919E+02  0.00000000000E+00 0. -1.
</event>
<event>
 8    1  0.5834107E-011  0.9118800E+02  0.7816164E-02  0.1184000E+00
        -11   -1    0    0    0    0  0.00000000000E+00  0.00000000000E+00  0.45593999997E+02  0.45594000000E+02  0.51100000000E-03 0. -1.
         11   -1    0    0    0    0 -0.00000000000E+00 -0.00000000000E+00 -0.45593999997E+02  0.45594000000E+02  0.51100000000E-03 0.  1.
         23    2    1    2    0    0 -0.17763568394E-14 -0.17763568394E-14  0.00000000000E+00  0.91188000000E+02  0.91188000000E+02 0.  0.
    9900012    2    3    3    0    0 -0.77523360306E+01 -0.11671599787E+02  0.41076738005E+02  0.47787270045E+02  0.19999995442E+02 0.  0.
        -12    1    3    3    0    0  0.77523360306E+01  0.11671599787E+02 -0.41076738005E+02  0.43400729955E+02  0.00000000000E+00 0.  1.
         11    1    4    4    0    0 -0.66613985133E+01  0.17991961389E+01  0.53386401343E+01  0.87242429840E+01  0.51100000000E-03 0. -1.
        -11    1    4    4    0    0  0.26434105567E+01 -0.34456765752E+01  0.16375406662E+02  0.16941494918E+02  0.51100000000E-03 0.  1.
        -12    1    4    4    0    0 -0.37343480740E+01 -0.10025119350E+02  0.19362691208E+02  0.22121532143E+02  0.00000000000E+00 0.  1.
</event>
<event>
 8    1  0.5834107E-011  0.9118800E+02  0.7816164E-02  0.1184000E+00
        -11   -1    0    0    0    0  0.00000000000E+00  0.00000000000E+00  0.45593999997E+02  0.45594000000E+02  0.51100000000E-03 0. -1.
         11   -1    0    0    0    0 -0.00000000000E+00 -0.00000000000E+00 -0.45593999997E+02  0.45594000000E+02  0.51100000000E-03 0.  1.
         23    2    1    2    0    0  0.00000000000E+00  0.00000000000E+00  0.00000000000E+00  0.91188000000E+02  0.91188000000E+02 0.  0.
    9900012    2    3    3    0    0  0.21379527278E+02 -0.21834132784E+02 -0.30818981460E+02  0.47787272365E+02  0.20000006020E+02 0.  0.
         12    1    3    3    0    0 -0.21379527278E+02  0.21834132784E+02  0.30818981460E+02  0.43400727635E+02  0.00000000000E+00 0. -1.
         11    1    4    4    0    0 -0.15673501048E+01 -0.10093770346E+01 -0.28606657996E+01  0.34145039796E+01  0.51100000000E-03 0. -1.
        -11    1    4    4    0    0  0.21139760701E+02 -0.15588761663E+02 -0.14922477166E+02  0.30208927450E+02  0.51100000000E-03 0.  1.
        -12    1    4    4    0    0  0.18071166816E+01 -0.52359940864E+01 -0.13035838494E+02  0.14163840935E+02  0.00000000000E+00 0.  1.
</event>
<event>
 8    1  0.5834107E-011  0.9118800E+02  0.7816164E-02  0.1184000E+00
        -11   -1    0    0    0    0  0.00000000000E+00  0.00000000000E+00  0.45593999997E+02  0.45594000000E+02  0.51100000000E-03 0. -1.
         11   -1    0    0    0    0 -0.00000000000E+00 -0.00000000000E+00 -0.45593999997E+02  0.45594000000E+02  0.51100000000E-03 0.  1.
         23    2    1    2    0    0  0.00000000000E+00  0.00000000000E+00  0.88817841970E-15  0.91188000000E+02  0.91188000000E+02 0.  0.
    9900012    2    3    3    0    0  0.10800332420E+02 -0.41824481002E+02 -0.42058196102E+01  0.47787270627E+02  0.19999998099E+02 0.  0.
         12    1    3    3    0    0 -0.10800332420E+02  0.41824481002E+02  0.42058196102E+01  0.43400729373E+02  0.00000000000E+00 0. -1.
         11    1    4    4    0    0 -0.27027340181E+01 -0.59180532002E+01  0.33135379520E+01  0.73012094116E+01  0.51100000000E-03 0. -1.
        -11    1    4    4    0    0  0.67384955975E+01 -0.28557627868E+02 -0.29107282206E+01  0.29485891057E+02  0.51100000000E-03 0.  1.
        -12    1    4    4    0    0  0.67645708403E+01 -0.73487999341E+01 -0.46086293415E+01  0.11000170159E+02  0.00000000000E+00 0.  1.
</event>
<event>
 8    1  0.5834107E-011  0.9118800E+02  0.7816164E-02  0.1184000E+00
        -11   -1    0    0    0    0  0.00000000000E+00  0.00000000000E+00  0.45593999997E+02  0.45594000000E+02  0.51100000000E-03 0. -1.
         11   -1    0    0    0    0 -0.00000000000E+00 -0.00000000000E+00 -0.45593999997E+02  0.45594000000E+02  0.51100000000E-03 0.  1.
         23    2    1    2    0    0  0.00000000000E+00  0.00000000000E+00  0.00000000000E+00  0.91188000000E+02  0.91188000000E+02 0.  0.
    9900012    2    3    3    0    0 -0.21737686390E+02  0.12725920649E+02  0.35343275497E+02  0.47787272024E+02  0.20000004468E+02 0.  0.
        -12    1    3    3    0    0  0.21737686390E+02 -0.12725920649E+02 -0.35343275497E+02  0.43400727976E+02  0.00000000000E+00 0.  1.
         11    1    4    4    0    0 -0.10694768766E+02  0.10063157828E+01  0.13993091673E+02  0.17640786979E+02  0.51100000000E-03 0. -1.
        -11    1    4    4    0    0  0.29697557709E+01  0.47929397219E+01  0.61443806388E+01  0.83393725311E+01  0.51100000000E-03 0.  1.
         12    1    4    4    0    0 -0.14012673395E+02  0.69266651445E+01  0.15205803185E+02  0.21807112514E+02  0.00000000000E+00 0. -1.
</event>
<event>
 8    1  0.5834107E-011  0.9118800E+02  0.7816164E-02  0.1184000E+00
        -11   -1    0    0    0    0  0.00000000000E+00  0.00000000000E+00  0.45593999997E+02  0.45594000000E+02  0.51100000000E-03 0. -1.
         11   -1    0    0    0    0 -0.00000000000E+00 -0.00000000000E+00 -0.45593999997E+02  0.45594000000E+02  0.51100000000E-03 0.  1.
         23    2    1    2    0    0  0.00000000000E+00  0.17763568394E-14  0.00000000000E+00  0.91188000000E+02  0.91188000000E+02 0.  0.
    9900012    2    3    3    0    0  0.10815898678E+02 -0.14996431657E+02  0.39265081167E+02  0.47787271600E+02  0.20000002531E+02 0.  0.
        -12    1    3    3    0    0 -0.10815898678E+02  0.14996431657E+02 -0.39265081167E+02  0.43400728400E+02  0.00000000000E+00 0.  1.
         11    1    4    4    0    0 -0.34561208324E+01 -0.26592827243E+01  0.18109328098E+02  0.18626978291E+02  0.51100000000E-03 0. -1.
        -11    1    4    4    0    0  0.42287506904E+01 -0.80407918011E+01  0.10735299140E+02  0.14063545537E+02  0.51100000000E-03 0.  1.
         12    1    4    4    0    0  0.10043268820E+02 -0.42963571319E+01  0.10420453928E+02  0.15096747772E+02  0.00000000000E+00 0. -1.
</event>
<event>
 8    1  0.5834107E-011  0.9118800E+02  0.7816164E-02  0.1184000E+00
        -11   -1    0    0    0    0  0.00000000000E+00  0.00000000000E+00  0.45593999997E+02  0.45594000000E+02  0.51100000000E-03 0. -1.
         11   -1    0    0    0    0 -0.00000000000E+00 -0.00000000000E+00 -0.45593999997E+02  0.45594000000E+02  0.51100000000E-03 0.  1.
         23    2    1    2    0    0  0.00000000000E+00  0.35527136788E-14 -0.35527136788E-14  0.91188000000E+02  0.91188000000E+02 0.  0.
    9900012    2    3    3    0    0  0.20856673155E+02  0.21627848500E+02  0.31318660923E+02  0.47787272266E+02  0.20000005568E+02 0.  0.
        -12    1    3    3    0    0 -0.20856673155E+02 -0.21627848500E+02 -0.31318660923E+02  0.43400727734E+02  0.00000000000E+00 0.  1.
         11    1    4    4    0    0  0.41684151369E+01  0.37814381937E+01 -0.63450869792E+00  0.56637055993E+01  0.51100000000E-03 0. -1.
        -11    1    4    4    0    0  0.20250100382E+01  0.16963823409E+01  0.12877695476E+02  0.13145851807E+02  0.51100000000E-03 0.  1.
         12    1    4    4    0    0  0.14663247980E+02  0.16150027965E+02  0.19075474146E+02  0.28977714860E+02  0.00000000000E+00 0. -1.
</event>
<event>
 8    1  0.5834107E-011  0.9118800E+02  0.7816164E-02  0.1184000E+00
        -11   -1    0    0    0    0  0.00000000000E+00  0.00000000000E+00  0.45593999997E+02  0.45594000000E+02  0.51100000000E-03 0. -1.
         11   -1    0    0    0    0 -0.00000000000E+00 -0.00000000000E+00 -0.45593999997E+02  0.45594000000E+02  0.51100000000E-03 0.  1.
         23    2    1    2    0    0  0.17763568394E-14  0.00000000000E+00  0.00000000000E+00  0.91188000000E+02  0.91188000000E+02 0.  0.
    9900012    2    3    3    0    0 -0.10197563441E+02  0.67656101916E+01  0.41639640387E+02  0.47787269212E+02  0.19999991644E+02 0.  0.
        -12    1    3    3    0    0  0.10197563441E+02 -0.67656101916E+01 -0.41639640387E+02  0.43400730788E+02  0.00000000000E+00 0.  1.
         11    1    4    4    0    0 -0.48136501728E+01 -0.31021723953E+01  0.75486245249E+01  0.94750426930E+01  0.51100000000E-03 0.  1.
        -11    1    4    4    0    0  0.10006050958E+01  0.20889138883E+01  0.23821773127E+02  0.23934110532E+02  0.51100000000E-03 0. -1.
         12    1    4    4    0    0 -0.63845183641E+01  0.77788686986E+01  0.10269242736E+02  0.14378115987E+02  0.00000000000E+00 0. -1.
</event>
<event>
 8    1  0.5834107E-011  0.9118800E+02  0.7816164E-02  0.1184000E+00
        -11   -1    0    0    0    0  0.00000000000E+00  0.00000000000E+00  0.45593999997E+02  0.45594000000E+02  0.51100000000E-03 0. -1.
         11   -1    0    0    0    0 -0.00000000000E+00 -0.00000000000E+00 -0.45593999997E+02  0.45594000000E+02  0.51100000000E-03 0.  1.
         23    2    1    2    0    0  0.44408920985E-15  0.00000000000E+00  0.71054273576E-14  0.91188000000E+02  0.91188000000E+02 0.  0.
    9900012    2    3    3    0    0 -0.34749416770E+01 -0.17922076038E+02  0.39374455968E+02  0.47787264845E+02  0.19999971736E+02 0.  0.
        -12    1    3    3    0    0  0.34749416770E+01  0.17922076038E+02 -0.39374455968E+02  0.43400735155E+02  0.00000000000E+00 0.  1.
         11    1    4    4    0    0 -0.39349516747E+01 -0.30165164722E+01  0.95995113992E+01  0.10804343371E+02  0.51100000000E-03 0. -1.
        -11    1    4    4    0    0  0.58168873571E+01 -0.14861737536E+02  0.18060226253E+02  0.24101435511E+02  0.51100000000E-03 0.  1.
        -12    1    4    4    0    0 -0.53568773595E+01 -0.43822029673E-01  0.11714718316E+02  0.12881485964E+02  0.00000000000E+00 0.  1.
</event>
<event>
 8    1  0.5834107E-011  0.9118800E+02  0.7816164E-02  0.1184000E+00
        -11   -1    0    0    0    0  0.00000000000E+00  0.00000000000E+00  0.45593999997E+02  0.45594000000E+02  0.51100000000E-03 0. -1.
         11   -1    0    0    0    0 -0.00000000000E+00 -0.00000000000E+00 -0.45593999997E+02  0.45594000000E+02  0.51100000000E-03 0.  1.
         23    2    1    2    0    0  0.00000000000E+00  0.22204460493E-15  0.00000000000E+00  0.91188000000E+02  0.91188000000E+02 0.  0.
    9900012    2    3    3    0    0  0.24504772720E+02 -0.10501153065E+01 -0.35805547926E+02  0.47787263940E+02  0.19999967610E+02 0.  0.
         12    1    3    3    0    0 -0.24504772720E+02  0.10501153065E+01  0.35805547926E+02  0.43400736060E+02  0.00000000000E+00 0. -1.
         11    1    4    4    0    0  0.74951314255E+01  0.63496489940E+01 -0.11788396201E+02  0.15344749026E+02  0.51100000000E-03 0. -1.
        -11    1    4    4    0    0  0.11029093929E+02 -0.56352719379E+01 -0.67962508423E+01  0.14127499017E+02  0.51100000000E-03 0.  1.
        -12    1    4    4    0    0  0.59805473660E+01 -0.17644923626E+01 -0.17220900883E+02  0.18315015897E+02  0.00000000000E+00 0.  1.
</event>
<event>
 8    1  0.5834107E-011  0.9118800E+02  0.7816164E-02  0.1184000E+00
        -11   -1    0    0    0    0  0.00000000000E+00  0.00000000000E+00  0.45593999997E+02  0.45594000000E+02  0.51100000000E-03 0. -1.
         11   -1    0    0    0    0 -0.00000000000E+00 -0.00000000000E+00 -0.45593999997E+02  0.45594000000E+02  0.51100000000E-03 0.  1.
         23    2    1    2    0    0 -0.22204460493E-15  0.00000000000E+00  0.35527136788E-14  0.91188000000E+02  0.91188000000E+02 0.  0.
    9900012    2    3    3    0    0 -0.11569719551E+01  0.30904658624E+02  0.30449745856E+02  0.47787268077E+02  0.19999986470E+02 0.  0.
        -12    1    3    3    0    0  0.11569719551E+01 -0.30904658624E+02 -0.30449745856E+02  0.43400731923E+02  0.00000000000E+00 0.  1.
         11    1    4    4    0    0 -0.50736728445E+01  0.87501839485E+01  0.28757266573E+01  0.10515592201E+02  0.51100000000E-03 0. -1.
        -11    1    4    4    0    0  0.17040803821E+00  0.32145145579E+01  0.12123700639E+02  0.12543773762E+02  0.51100000000E-03 0.  1.
         12    1    4    4    0    0  0.37462928512E+01  0.18939960117E+02  0.15450318560E+02  0.24727902114E+02  0.00000000000E+00 0. -1.
</event>
<event>
 8    1  0.5834107E-011  0.9118800E+02  0.7816164E-02  0.1184000E+00
        -11   -1    0    0    0    0  0.00000000000E+00  0.00000000000E+00  0.45593999997E+02  0.45594000000E+02  0.51100000000E-03 0. -1.
         11   -1    0    0    0    0 -0.00000000000E+00 -0.00000000000E+00 -0.45593999997E+02  0.45594000000E+02  0.51100000000E-03 0.  1.
         23    2    1    2    0    0 -0.88817841970E-15  0.00000000000E+00  0.00000000000E+00  0.91188000000E+02  0.91188000000E+02 0.  0.
    9900012    2    3    3    0    0  0.43047540460E+01  0.83780178764E+01  0.42366268208E+02  0.47787276817E+02  0.20000026319E+02 0.  0.
        -12    1    3    3    0    0 -0.43047540460E+01 -0.83780178764E+01 -0.42366268208E+02  0.43400723183E+02  0.00000000000E+00 0.  1.
         11    1    4    4    0    0  0.11726355243E+01  0.19560761291E+01  0.20211322791E+02  0.20339588912E+02  0.51100000000E-03 0. -1.
        -11    1    4    4    0    0  0.81993309339E+01  0.46692077502E+01  0.82096990888E+01  0.12507185462E+02  0.51100000000E-03 0.  1.
        -12    1    4    4    0    0 -0.50672124122E+01  0.17527339971E+01  0.13945246329E+02  0.14940502444E+02  0.00000000000E+00 0.  1.
</event>
<event>
 8    1  0.5834107E-011  0.9118800E+02  0.7816164E-02  0.1184000E+00
        -11   -1    0    0    0    0  0.00000000000E+00  0.00000000000E+00  0.45593999997E+02  0.45594000000E+02  0.51100000000E-03 0.  1.
         11   -1    0    0    0    0 -0.00000000000E+00 -0.00000000000E+00 -0.45593999997E+02  0.45594000000E+02  0.51100000000E-03 0. -1.
         23    2    1    2    0    0  0.17763568394E-14 -0.35527136788E-14  0.00000000000E+00  0.91188000000E+02  0.91188000000E+02 0.  0.
    9900012    2    3    3    0    0 -0.15467558982E+02  0.30247580453E+02 -0.27008564116E+02  0.47787262221E+02  0.19999959771E+02 0.  0.
         12    1    3    3    0    0  0.15467558982E+02 -0.30247580453E+02  0.27008564116E+02  0.43400737779E+02  0.00000000000E+00 0. -1.
         11    1    4    4    0    0  0.27114371658E+01  0.44559522749E+01 -0.41536255875E+01  0.66678338284E+01  0.51100000000E-03 0. -1.
        -11    1    4    4    0    0  0.14244036630E+01  0.63924701160E+01 -0.53199732640E+01  0.84376961174E+01  0.51100000000E-03 0.  1.
        -12    1    4    4    0    0 -0.19603399811E+02  0.19399158062E+02 -0.17534965265E+02  0.32681732275E+02  0.00000000000E+00 0.  1.
</event>
<event>
 8    1  0.5834107E-011  0.9118800E+02  0.7816164E-02  0.1184000E+00
        -11   -1    0    0    0    0  0.00000000000E+00  0.00000000000E+00  0.45593999997E+02  0.45594000000E+02  0.51100000000E-03 0. -1.
         11   -1    0    0    0    0 -0.00000000000E+00 -0.00000000000E+00 -0.45593999997E+02  0.45594000000E+02  0.51100000000E-03 0.  1.
         23    2    1    2    0    0  0.00000000000E+00  0.00000000000E+00  0.00000000000E+00  0.91188000000E+02  0.91188000000E+02 0.  0.
    9900012    2    3    3    0    0  0.10448538389E+02 -0.10457108190E+02  0.40805644083E+02  0.47787266652E+02  0.19999979972E+02 0.  0.
        -12    1    3    3    0    0 -0.10448538389E+02  0.10457108190E+02 -0.40805644083E+02  0.43400733348E+02  0.00000000000E+00 0.  1.
         11    1    4    4    0    0  0.12776078687E+02 -0.36036631449E+01  0.28439227163E+02  0.31384776829E+02  0.51100000000E-03 0. -1.
        -11    1    4    4    0    0  0.25494633444E+00 -0.62197053157E+00 -0.11296990606E+01  0.13145589391E+01  0.51100000000E-03 0.  1.
        -12    1    4    4    0    0 -0.25824866326E+01 -0.62314745135E+01  0.13496115980E+02  0.15087930884E+02  0.00000000000E+00 0.  1.
</event>
<event>
 8    1  0.5834107E-011  0.9118800E+02  0.7816164E-02  0.1184000E+00
        -11   -1    0    0    0    0  0.00000000000E+00  0.00000000000E+00  0.45593999997E+02  0.45594000000E+02  0.51100000000E-03 0.  1.
         11   -1    0    0    0    0 -0.00000000000E+00 -0.00000000000E+00 -0.45593999997E+02  0.45594000000E+02  0.51100000000E-03 0. -1.
         23    2    1    2    0    0  0.00000000000E+00  0.71054273576E-14 -0.35527136788E-14  0.91188000000E+02  0.91188000000E+02 0.  0.
    9900012    2    3    3    0    0  0.16722284232E+02  0.36163679161E+02 -0.17209789373E+02  0.47787270390E+02  0.19999997017E+02 0.  0.
         12    1    3    3    0    0 -0.16722284232E+02 -0.36163679161E+02  0.17209789373E+02  0.43400729610E+02  0.00000000000E+00 0. -1.
         11    1    4    4    0    0 -0.64689828745E+00  0.10224173045E+02 -0.14927730550E+01  0.10352804620E+02  0.51100000000E-03 0. -1.
        -11    1    4    4    0    0  0.83202462434E+01  0.32409993498E+01 -0.11938992612E+01  0.90086608352E+01  0.51100000000E-03 0.  1.
         12    1    4    4    0    0  0.90489362755E+01  0.22698506767E+02 -0.14523117057E+02  0.28425804935E+02  0.00000000000E+00 0. -1.
</event>
<event>
 8    1  0.5834107E-011  0.9118800E+02  0.7816164E-02  0.1184000E+00
        -11   -1    0    0    0    0  0.00000000000E+00  0.00000000000E+00  0.45593999997E+02  0.45594000000E+02  0.51100000000E-03 0. -1.
         11   -1    0    0    0    0 -0.00000000000E+00 -0.00000000000E+00 -0.45593999997E+02  0.45594000000E+02  0.51100000000E-03 0.  1.
         23    2    1    2    0    0 -0.88817841970E-15  0.17763568394E-14  0.00000000000E+00  0.91188000000E+02  0.91188000000E+02 0.  0.
    9900012    2    3    3    0    0 -0.61617243821E+01  0.10849251343E+02 -0.41568635214E+02  0.47787256509E+02  0.19999933726E+02 0.  0.
         12    1    3    3    0    0  0.61617243821E+01 -0.10849251343E+02  0.41568635214E+02  0.43400743491E+02  0.00000000000E+00 0. -1.
         11    1    4    4    0    0 -0.45403013399E+01  0.48088828629E+01 -0.25485074957E+02  0.26329237294E+02  0.51100000000E-03 0. -1.
        -11    1    4    4    0    0  0.54125156522E+01  0.43568303949E+01 -0.84995286880E+01  0.10978127571E+02  0.51100000000E-03 0.  1.
         12    1    4    4    0    0 -0.70339386944E+01  0.16835380855E+01 -0.75840315685E+01  0.10479891644E+02  0.00000000000E+00 0. -1.
</event>
<event>
 8    1  0.5834107E-011  0.9118800E+02  0.7816164E-02  0.1184000E+00
        -11   -1    0    0    0    0  0.00000000000E+00  0.00000000000E+00  0.45593999997E+02  0.45594000000E+02  0.51100000000E-03 0. -1.
         11   -1    0    0    0    0 -0.00000000000E+00 -0.00000000000E+00 -0.45593999997E+02  0.45594000000E+02  0.51100000000E-03 0.  1.
         23    2    1    2    0    0  0.00000000000E+00  0.00000000000E+00 -0.35527136788E-14  0.91188000000E+02  0.91188000000E+02 0.  0.
    9900012    2    3    3    0    0 -0.75965896386E+01  0.37162084990E+02 -0.21092522860E+02  0.47787271256E+02  0.20000000965E+02 0.  0.
         12    1    3    3    0    0  0.75965896386E+01 -0.37162084990E+02  0.21092522860E+02  0.43400728744E+02  0.00000000000E+00 0. -1.
         11    1    4    4    0    0 -0.62470085231E+01  0.41893695069E+01 -0.29456417259E+01  0.80779166740E+01  0.51100000000E-03 0. -1.
        -11    1    4    4    0    0 -0.47925456807E+01  0.76863537693E+01 -0.85165882238E+01  0.12433052867E+02  0.51100000000E-03 0.  1.
         12    1    4    4    0    0  0.34429645652E+01  0.25286361714E+02 -0.96302929098E+01  0.27276301715E+02  0.00000000000E+00 0. -1.
</event>
<event>
 8    1  0.5834107E-011  0.9118800E+02  0.7816164E-02  0.1184000E+00
        -11   -1    0    0    0    0  0.00000000000E+00  0.00000000000E+00  0.45593999997E+02  0.45594000000E+02  0.51100000000E-03 0. -1.
         11   -1    0    0    0    0 -0.00000000000E+00 -0.00000000000E+00 -0.45593999997E+02  0.45594000000E+02  0.51100000000E-03 0.  1.
         23    2    1    2    0    0  0.00000000000E+00 -0.17763568394E-14  0.00000000000E+00  0.91188000000E+02  0.91188000000E+02 0.  0.
    9900012    2    3    3    0    0  0.20734048821E+02  0.13220411145E+02  0.35762314780E+02  0.47787271783E+02  0.20000003367E+02 0.  0.
        -12    1    3    3    0    0 -0.20734048821E+02 -0.13220411145E+02 -0.35762314780E+02  0.43400728217E+02  0.00000000000E+00 0.  1.
         11    1    4    4    0    0  0.36209676961E+01  0.69015691005E+01  0.10384964964E+02  0.12984242784E+02  0.51100000000E-03 0. -1.
        -11    1    4    4    0    0  0.12202137912E+02 -0.31666177548E+01  0.17327195576E+02  0.21427817071E+02  0.51100000000E-03 0.  1.
        -12    1    4    4    0    0  0.49109432134E+01  0.94854597990E+01  0.80501542399E+01  0.13375211928E+02  0.00000000000E+00 0.  1.
</event>
<event>
 8    1  0.5834107E-011  0.9118800E+02  0.7816164E-02  0.1184000E+00
        -11   -1    0    0    0    0  0.00000000000E+00  0.00000000000E+00  0.45593999997E+02  0.45594000000E+02  0.51100000000E-03 0. -1.
         11   -1    0    0    0    0 -0.00000000000E+00 -0.00000000000E+00 -0.45593999997E+02  0.45594000000E+02  0.51100000000E-03 0.  1.
         23    2    1    2    0    0  0.00000000000E+00  0.00000000000E+00  0.00000000000E+00  0.91188000000E+02  0.91188000000E+02 0.  0.
    9900012    2    3    3    0    0 -0.23340285366E+02  0.16019521364E+02  0.32897249773E+02  0.47787273874E+02  0.20000012899E+02 0.  0.
        -12    1    3    3    0    0  0.23340285366E+02 -0.16019521364E+02 -0.32897249773E+02  0.43400726126E+02  0.00000000000E+00 0.  1.
         11    1    4    4    0    0 -0.14178363744E+02  0.23677658508E+01  0.13492631128E+02  0.19715055379E+02  0.51100000000E-03 0. -1.
        -11    1    4    4    0    0 -0.90820883031E+01  0.11378241196E+02  0.20810938438E+02  0.25397713668E+02  0.51100000000E-03 0.  1.
        -12    1    4    4    0    0 -0.79833318711E-01  0.22735143171E+01 -0.14063197925E+01  0.26745048266E+01  0.00000000000E+00 0.  1.
</event>
<event>
 8    1  0.5834107E-011  0.9118800E+02  0.7816164E-02  0.1184000E+00
        -11   -1    0    0    0    0  0.00000000000E+00  0.00000000000E+00  0.45593999997E+02  0.45594000000E+02  0.51100000000E-03 0. -1.
         11   -1    0    0    0    0 -0.00000000000E+00 -0.00000000000E+00 -0.45593999997E+02  0.45594000000E+02  0.51100000000E-03 0.  1.
         23    2    1    2    0    0  0.17763568394E-14  0.00000000000E+00  0.00000000000E+00  0.91188000000E+02  0.91188000000E+02 0.  0.
    9900012    2    3    3    0    0 -0.93782978073E+01 -0.14987544128E+02 -0.39636404181E+02  0.47787268610E+02  0.19999988901E+02 0.  0.
         12    1    3    3    0    0  0.93782978073E+01  0.14987544128E+02  0.39636404181E+02  0.43400731390E+02  0.00000000000E+00 0. -1.
         11    1    4    4    0    0 -0.11246057767E+02 -0.21734904209E+01 -0.20157326099E+02  0.23184384220E+02  0.51100000000E-03 0. -1.
        -11    1    4    4    0    0  0.11968165901E+01 -0.28147748874E+01 -0.44387841141E+00  0.30906885838E+01  0.51100000000E-03 0.  1.
        -12    1    4    4    0    0  0.67094336987E+00 -0.99992788194E+01 -0.19035199671E+02  0.21512195807E+02  0.00000000000E+00 0.  1.
</event>
<event>
 8    1  0.5834107E-011  0.9118800E+02  0.7816164E-02  0.1184000E+00
        -11   -1    0    0    0    0  0.00000000000E+00  0.00000000000E+00  0.45593999997E+02  0.45594000000E+02  0.51100000000E-03 0. -1.
         11   -1    0    0    0    0 -0.00000000000E+00 -0.00000000000E+00 -0.45593999997E+02  0.45594000000E+02  0.51100000000E-03 0.  1.
         23    2    1    2    0    0  0.00000000000E+00 -0.35527136788E-14  0.00000000000E+00  0.91188000000E+02  0.91188000000E+02 0.  0.
    9900012    2    3    3    0    0 -0.13779157717E+02 -0.27722077030E+02 -0.30417827280E+02  0.47787274675E+02  0.20000016555E+02 0.  0.
         12    1    3    3    0    0  0.13779157717E+02  0.27722077030E+02  0.30417827280E+02  0.43400725325E+02  0.00000000000E+00 0. -1.
         11    1    4    4    0    0 -0.90752661103E+01 -0.12732945556E+02 -0.99030961957E+01  0.18508367622E+02  0.51100000000E-03 0. -1.
        -11    1    4    4    0    0 -0.61698822587E-01 -0.10834897926E+02 -0.38680987724E+01  0.11504825431E+02  0.51100000000E-03 0.  1.
         12    1    4    4    0    0 -0.46421927838E+01 -0.41542335484E+01 -0.16646632312E+02  0.17774081623E+02  0.00000000000E+00 0. -1.
</event>
<event>
 8    1  0.5834107E-011  0.9118800E+02  0.7816164E-02  0.1184000E+00
        -11   -1    0    0    0    0  0.00000000000E+00  0.00000000000E+00  0.45593999997E+02  0.45594000000E+02  0.51100000000E-03 0. -1.
         11   -1    0    0    0    0 -0.00000000000E+00 -0.00000000000E+00 -0.45593999997E+02  0.45594000000E+02  0.51100000000E-03 0.  1.
         23    2    1    2    0    0  0.55511151231E-16  0.00000000000E+00  0.35527136788E-14  0.91188000000E+02  0.91188000000E+02 0.  0.
    9900012    2    3    3    0    0  0.38994670211E+00 -0.34070332655E+02  0.26882737119E+02  0.47787295160E+02  0.20000109950E+02 0.  0.
        -12    1    3    3    0    0 -0.38994670211E+00  0.34070332655E+02 -0.26882737119E+02  0.43400704840E+02  0.00000000000E+00 0.  1.
         11    1    4    4    0    0  0.27062132859E+01 -0.53964446365E+01  0.17996558590E+01  0.62995211354E+01  0.51100000000E-03 0. -1.
        -11    1    4    4    0    0  0.59696916648E+00 -0.68082559545E+00 -0.21449883005E+01  0.23282763469E+01  0.51100000000E-03 0.  1.
         12    1    4    4    0    0 -0.29132357503E+01 -0.27993062423E+02  0.27228069560E+02  0.39159497677E+02  0.00000000000E+00 0. -1.
</event>
<event>
 8    1  0.5834107E-011  0.9118800E+02  0.7816164E-02  0.1184000E+00
        -11   -1    0    0    0    0  0.00000000000E+00  0.00000000000E+00  0.45593999997E+02  0.45594000000E+02  0.51100000000E-03 0. -1.
         11   -1    0    0    0    0 -0.00000000000E+00 -0.00000000000E+00 -0.45593999997E+02  0.45594000000E+02  0.51100000000E-03 0.  1.
         23    2    1    2    0    0  0.00000000000E+00  0.00000000000E+00  0.44408920985E-15  0.91188000000E+02  0.91188000000E+02 0.  0.
    9900012    2    3    3    0    0 -0.20452444063E+02 -0.38275254800E+02 -0.57049699911E+00  0.47787273451E+02  0.20000010973E+02 0.  0.
        -12    1    3    3    0    0  0.20452444063E+02  0.38275254800E+02  0.57049699911E+00  0.43400726549E+02  0.00000000000E+00 0.  1.
         11    1    4    4    0    0 -0.16758255200E+01  0.30713606169E+00  0.36116467917E+01  0.39933340135E+01  0.51100000000E-03 0. -1.
        -11    1    4    4    0    0 -0.78073227351E+01 -0.12420182674E+02 -0.47483317499E+01  0.15419529196E+02  0.51100000000E-03 0.  1.
        -12    1    4    4    0    0 -0.10969295808E+02 -0.26162208187E+02  0.56618795911E+00  0.28374410242E+02  0.00000000000E+00 0.  1.
</event>
<event>
 8    1  0.5834107E-011  0.9118800E+02  0.7816164E-02  0.1184000E+00
        -11   -1    0    0    0    0  0.00000000000E+00  0.00000000000E+00  0.45593999997E+02  0.45594000000E+02  0.51100000000E-03 0.  1.
         11   -1    0    0    0    0 -0.00000000000E+00 -0.00000000000E+00 -0.45593999997E+02  0.45594000000E+02  0.51100000000E-03 0. -1.
         23    2    1    2    0    0  0.00000000000E+00  0.00000000000E+00  0.00000000000E+00  0.91188000000E+02  0.91188000000E+02 0.  0.
    9900012    2    3    3    0    0 -0.43209440597E+02 -0.23027951761E+01 -0.33562375623E+01  0.47787274742E+02  0.20000016860E+02 0.  0.
         12    1    3    3    0    0  0.43209440597E+02  0.23027951761E+01  0.33562375623E+01  0.43400725258E+02  0.00000000000E+00 0. -1.
         11    1    4    4    0    0 -0.12722760528E+02  0.16986185584E+01  0.60340108519E+01  0.14183202307E+02  0.51100000000E-03 0. -1.
        -11    1    4    4    0    0 -0.33417407611E+01 -0.21693995381E+01 -0.44137616790E+01  0.59459917667E+01  0.51100000000E-03 0.  1.
        -12    1    4    4    0    0 -0.27144939308E+02 -0.18320141964E+01 -0.49764867352E+01  0.27658080669E+02  0.00000000000E+00 0.  1.
</event>
<event>
 8    1  0.5834107E-011  0.9118800E+02  0.7816164E-02  0.1184000E+00
        -11   -1    0    0    0    0  0.00000000000E+00  0.00000000000E+00  0.45593999997E+02  0.45594000000E+02  0.51100000000E-03 0. -1.
         11   -1    0    0    0    0 -0.00000000000E+00 -0.00000000000E+00 -0.45593999997E+02  0.45594000000E+02  0.51100000000E-03 0.  1.
         23    2    1    2    0    0  0.00000000000E+00  0.00000000000E+00  0.00000000000E+00  0.91188000000E+02  0.91188000000E+02 0.  0.
    9900012    2    3    3    0    0  0.21331861275E+02 -0.96722706718E+01 -0.36537956243E+02  0.47787269916E+02  0.19999994857E+02 0.  0.
         12    1    3    3    0    0 -0.21331861275E+02  0.96722706718E+01  0.36537956243E+02  0.43400730084E+02  0.00000000000E+00 0. -1.
         11    1    4    4    0    0  0.42419614994E+01 -0.61454274324E+00  0.18103241791E+01  0.46528672924E+01  0.51100000000E-03 0. -1.
        -11    1    4    4    0    0  0.75031964389E+01 -0.20626402899E+01 -0.13115866309E+02  0.15250521010E+02  0.51100000000E-03 0.  1.
        -12    1    4    4    0    0  0.95867033365E+01 -0.69950876387E+01 -0.25232414113E+02  0.27883881615E+02  0.00000000000E+00 0.  1.
</event>
<event>
 8    1  0.5834107E-011  0.9118800E+02  0.7816164E-02  0.1184000E+00
        -11   -1    0    0    0    0  0.00000000000E+00  0.00000000000E+00  0.45593999997E+02  0.45594000000E+02  0.51100000000E-03 0. -1.
         11   -1    0    0    0    0 -0.00000000000E+00 -0.00000000000E+00 -0.45593999997E+02  0.45594000000E+02  0.51100000000E-03 0.  1.
         23    2    1    2    0    0 -0.35527136788E-14  0.00000000000E+00  0.35527136788E-14  0.91188000000E+02  0.91188000000E+02 0.  0.
    9900012    2    3    3    0    0  0.30335266182E+02  0.12513011098E+02 -0.28404575076E+02  0.47787266063E+02  0.19999977287E+02 0.  0.
         12    1    3    3    0    0 -0.30335266182E+02 -0.12513011098E+02  0.28404575076E+02  0.43400733937E+02  0.00000000000E+00 0. -1.
         11    1    4    4    0    0  0.29337506364E+01  0.23043996857E+01 -0.10485580081E+02  0.11129444757E+02  0.51100000000E-03 0. -1.
        -11    1    4    4    0    0  0.50571828717E+01  0.12576871894E+01  0.18292246334E+01  0.55229465582E+01  0.51100000000E-03 0.  1.
        -12    1    4    4    0    0  0.22344332673E+02  0.89509242225E+01 -0.19748219629E+02  0.31134874748E+02  0.00000000000E+00 0.  1.
</event>
<event>
 8    1  0.5834107E-011  0.9118800E+02  0.7816164E-02  0.1184000E+00
        -11   -1    0    0    0    0  0.00000000000E+00  0.00000000000E+00  0.45593999997E+02  0.45594000000E+02  0.51100000000E-03 0. -1.
         11   -1    0    0    0    0 -0.00000000000E+00 -0.00000000000E+00 -0.45593999997E+02  0.45594000000E+02  0.51100000000E-03 0.  1.
         23    2    1    2    0    0 -0.88817841970E-15  0.11102230246E-15  0.00000000000E+00  0.91188000000E+02  0.91188000000E+02 0.  0.
    9900012    2    3    3    0    0  0.76883525866E+01 -0.70525565491E+00 -0.42708488183E+02  0.47787272888E+02  0.20000008404E+02 0.  0.
         12    1    3    3    0    0 -0.76883525866E+01  0.70525565491E+00  0.42708488183E+02  0.43400727112E+02  0.00000000000E+00 0. -1.
         11    1    4    4    0    0  0.48770693872E+01 -0.57681976957E+00 -0.17095450533E+01  0.52001030187E+01  0.51100000000E-03 0. -1.
        -11    1    4    4    0    0 -0.28766593706E+01 -0.35057230806E+01 -0.11639474165E+02  0.12491702148E+02  0.51100000000E-03 0.  1.
        -12    1    4    4    0    0  0.56879425700E+01  0.33772871953E+01 -0.29359468964E+02  0.30095467721E+02  0.00000000000E+00 0.  1.
</event>
<event>
 8    1  0.5834107E-011  0.9118800E+02  0.7816164E-02  0.1184000E+00
        -11   -1    0    0    0    0  0.00000000000E+00  0.00000000000E+00  0.45593999997E+02  0.45594000000E+02  0.51100000000E-03 0. -1.
         11   -1    0    0    0    0 -0.00000000000E+00 -0.00000000000E+00 -0.45593999997E+02  0.45594000000E+02  0.51100000000E-03 0.  1.
         23    2    1    2    0    0  0.17763568394E-14  0.00000000000E+00  0.00000000000E+00  0.91188000000E+02  0.91188000000E+02 0.  0.
    9900012    2    3    3    0    0 -0.14902070486E+02 -0.33254210520E+02  0.23573476532E+02  0.47787273994E+02  0.20000013447E+02 0.  0.
        -12    1    3    3    0    0  0.14902070486E+02  0.33254210520E+02 -0.23573476532E+02  0.43400726006E+02  0.00000000000E+00 0.  1.
         11    1    4    4    0    0  0.13112634259E+01 -0.16696816339E+01  0.83469600950E+01  0.86127226600E+01  0.51100000000E-03 0.  1.
        -11    1    4    4    0    0 -0.86983225487E+01 -0.10545076480E+02  0.70797378013E+01  0.15394224265E+02  0.51100000000E-03 0. -1.
        -12    1    4    4    0    0 -0.75150113637E+01 -0.21039452406E+02  0.81467786353E+01  0.23780327068E+02  0.00000000000E+00 0.  1.
</event>
<event>
 8    1  0.5834107E-011  0.9118800E+02  0.7816164E-02  0.1184000E+00
        -11   -1    0    0    0    0  0.00000000000E+00  0.00000000000E+00  0.45593999997E+02  0.45594000000E+02  0.51100000000E-03 0.  1.
         11   -1    0    0    0    0 -0.00000000000E+00 -0.00000000000E+00 -0.45593999997E+02  0.45594000000E+02  0.51100000000E-03 0. -1.
         23    2    1    2    0    0  0.00000000000E+00 -0.71054273576E-14 -0.44408920985E-15  0.91188000000E+02  0.91188000000E+02 0.  0.
    9900012    2    3    3    0    0  0.17859359926E+02  0.39516060664E+02  0.17741067708E+01  0.47787271409E+02  0.20000001664E+02 0.  0.
        -12    1    3    3    0    0 -0.17859359926E+02 -0.39516060664E+02 -0.17741067708E+01  0.43400728591E+02  0.00000000000E+00 0.  1.
         11    1    4    4    0    0  0.50591606037E+01  0.24868322573E+02 -0.86806773292E+00  0.25392560239E+02  0.51100000000E-03 0. -1.
        -11    1    4    4    0    0 -0.40762104838E+00  0.15817298756E+01  0.34302887983E+01  0.37993296539E+01  0.51100000000E-03 0.  1.
         12    1    4    4    0    0  0.13207820371E+02  0.13066008215E+02 -0.78811429459E+00  0.18595381517E+02  0.00000000000E+00 0. -1.
</event>
<event>
 8    1  0.5834107E-011  0.9118800E+02  0.7816164E-02  0.1184000E+00
        -11   -1    0    0    0    0  0.00000000000E+00  0.00000000000E+00  0.45593999997E+02  0.45594000000E+02  0.51100000000E-03 0. -1.
         11   -1    0    0    0    0 -0.00000000000E+00 -0.00000000000E+00 -0.45593999997E+02  0.45594000000E+02  0.51100000000E-03 0.  1.
         23    2    1    2    0    0  0.17763568394E-14  0.00000000000E+00 -0.88817841970E-15  0.91188000000E+02  0.91188000000E+02 0.  0.
    9900012    2    3    3    0    0  0.15948980622E+02 -0.39923359830E+02 -0.59480973553E+01  0.47787256859E+02  0.19999935323E+02 0.  0.
         12    1    3    3    0    0 -0.15948980622E+02  0.39923359830E+02  0.59480973553E+01  0.43400743141E+02  0.00000000000E+00 0. -1.
         11    1    4    4    0    0  0.39087925911E+01 -0.22557984026E+02 -0.80323187723E-01  0.22894273408E+02  0.51100000000E-03 0. -1.
        -11    1    4    4    0    0  0.10343026554E+02 -0.17257680440E+02 -0.84327116276E+01  0.21815507286E+02  0.51100000000E-03 0.  1.
         12    1    4    4    0    0  0.16971614769E+01 -0.10769536439E+00  0.25649374601E+01  0.30774761647E+01  0.00000000000E+00 0. -1.
</event>
<event>
 8    1  0.5834107E-011  0.9118800E+02  0.7816164E-02  0.1184000E+00
        -11   -1    0    0    0    0  0.00000000000E+00  0.00000000000E+00  0.45593999997E+02  0.45594000000E+02  0.51100000000E-03 0. -1.
         11   -1    0    0    0    0 -0.00000000000E+00 -0.00000000000E+00 -0.45593999997E+02  0.45594000000E+02  0.51100000000E-03 0.  1.
         23    2    1    2    0    0  0.00000000000E+00  0.00000000000E+00  0.00000000000E+00  0.91188000000E+02  0.91188000000E+02 0.  0.
    9900012    2    3    3    0    0 -0.25776017753E+02 -0.10204586064E+02  0.33392908927E+02  0.47787273801E+02  0.20000012570E+02 0.  0.
        -12    1    3    3    0    0  0.25776017753E+02  0.10204586064E+02 -0.33392908927E+02  0.43400726199E+02  0.00000000000E+00 0.  1.
         11    1    4    4    0    0 -0.10220417293E+02  0.25339452451E+00  0.28918009214E+01  0.10624671819E+02  0.51100000000E-03 0.  1.
        -11    1    4    4    0    0 -0.11390624642E+02 -0.33269741107E+01  0.11874787213E+02  0.16787663866E+02  0.51100000000E-03 0. -1.
        -12    1    4    4    0    0 -0.41649758178E+01 -0.71310064782E+01  0.18626320793E+02  0.20374938116E+02  0.00000000000E+00 0.  1.
</event>
<event>
 8    1  0.5834107E-011  0.9118800E+02  0.7816164E-02  0.1184000E+00
        -11   -1    0    0    0    0  0.00000000000E+00  0.00000000000E+00  0.45593999997E+02  0.45594000000E+02  0.51100000000E-03 0. -1.
         11   -1    0    0    0    0 -0.00000000000E+00 -0.00000000000E+00 -0.45593999997E+02  0.45594000000E+02  0.51100000000E-03 0.  1.
         23    2    1    2    0    0  0.00000000000E+00  0.00000000000E+00  0.00000000000E+00  0.91188000000E+02  0.91188000000E+02 0.  0.
    9900012    2    3    3    0    0 -0.36243744529E+02 -0.14675799125E+02  0.18831721999E+02  0.47787287437E+02  0.20000074742E+02 0.  0.
        -12    1    3    3    0    0  0.36243744529E+02  0.14675799125E+02 -0.18831721999E+02  0.43400712563E+02  0.00000000000E+00 0.  1.
         11    1    4    4    0    0 -0.65375699553E+01  0.23907421936E+01  0.62628586116E+01  0.93636994509E+01  0.51100000000E-03 0.  1.
        -11    1    4    4    0    0 -0.24071867402E+02 -0.87847609758E+01  0.56232977441E+01  0.26234486909E+02  0.51100000000E-03 0. -1.
         12    1    4    4    0    0 -0.56343071723E+01 -0.82817803432E+01  0.69455656437E+01  0.12189101077E+02  0.00000000000E+00 0. -1.
</event>
<event>
 8    1  0.5834107E-011  0.9118800E+02  0.7816164E-02  0.1184000E+00
        -11   -1    0    0    0    0  0.00000000000E+00  0.00000000000E+00  0.45593999997E+02  0.45594000000E+02  0.51100000000E-03 0. -1.
         11   -1    0    0    0    0 -0.00000000000E+00 -0.00000000000E+00 -0.45593999997E+02  0.45594000000E+02  0.51100000000E-03 0.  1.
         23    2    1    2    0    0  0.00000000000E+00  0.00000000000E+00  0.00000000000E+00  0.91188000000E+02  0.91188000000E+02 0.  0.
    9900012    2    3    3    0    0  0.18917138155E+02 -0.17300839188E+01 -0.39022707408E+02  0.47787274202E+02  0.20000014396E+02 0.  0.
         12    1    3    3    0    0 -0.18917138155E+02  0.17300839188E+01  0.39022707408E+02  0.43400725798E+02  0.00000000000E+00 0. -1.
         11    1    4    4    0    0 -0.16787997121E+01 -0.38125567856E+01 -0.16407428950E+01  0.44772754244E+01  0.51100000000E-03 0.  1.
        -11    1    4    4    0    0  0.69616086789E+01  0.35259300959E+01 -0.99736452924E+01  0.12663719008E+02  0.51100000000E-03 0. -1.
        -12    1    4    4    0    0  0.13634329188E+02 -0.14434572291E+01 -0.27408319221E+02  0.30646279769E+02  0.00000000000E+00 0.  1.
</event>
<event>
 8    1  0.5834107E-011  0.9118800E+02  0.7816164E-02  0.1184000E+00
        -11   -1    0    0    0    0  0.00000000000E+00  0.00000000000E+00  0.45593999997E+02  0.45594000000E+02  0.51100000000E-03 0.  1.
         11   -1    0    0    0    0 -0.00000000000E+00 -0.00000000000E+00 -0.45593999997E+02  0.45594000000E+02  0.51100000000E-03 0. -1.
         23    2    1    2    0    0  0.00000000000E+00  0.35527136788E-14 -0.17763568394E-14  0.91188000000E+02  0.91188000000E+02 0.  0.
    9900012    2    3    3    0    0  0.40002112850E+02  0.14469489364E+02 -0.86074388759E+01  0.47787272369E+02  0.20000006039E+02 0.  0.
         12    1    3    3    0    0 -0.40002112850E+02 -0.14469489364E+02  0.86074388759E+01  0.43400727631E+02  0.00000000000E+00 0. -1.
         11    1    4    4    0    0  0.25293524727E+02  0.14298354966E+02 -0.80442502968E+01  0.30148222352E+02  0.51100000000E-03 0. -1.
        -11    1    4    4    0    0  0.11750082470E+02 -0.17655230457E+01 -0.41657765582E+01  0.12591076375E+02  0.51100000000E-03 0.  1.
         12    1    4    4    0    0  0.29585056529E+01  0.19366574431E+01  0.36025879791E+01  0.50479736426E+01  0.00000000000E+00 0. -1.
</event>
<event>
 8    1  0.5834107E-011  0.9118800E+02  0.7816164E-02  0.1184000E+00
        -11   -1    0    0    0    0  0.00000000000E+00  0.00000000000E+00  0.45593999997E+02  0.45594000000E+02  0.51100000000E-03 0.  1.
         11   -1    0    0    0    0 -0.00000000000E+00 -0.00000000000E+00 -0.45593999997E+02  0.45594000000E+02  0.51100000000E-03 0. -1.
         23    2    1    2    0    0  0.35527136788E-14  0.35527136788E-14  0.00000000000E+00  0.91188000000E+02  0.91188000000E+02 0.  0.
    9900012    2    3    3    0    0 -0.28133638299E+02 -0.26794485045E+02 -0.19343660283E+02  0.47787271597E+02  0.20000002520E+02 0.  0.
         12    1    3    3    0    0  0.28133638299E+02  0.26794485045E+02  0.19343660283E+02  0.43400728403E+02  0.00000000000E+00 0. -1.
         11    1    4    4    0    0 -0.34530910380E+01  0.51498553019E+00  0.13563486777E+01  0.37454946015E+01  0.51100000000E-03 0. -1.
        -11    1    4    4    0    0 -0.12481994089E+02 -0.85612968195E+01 -0.27976699074E+01  0.15392301220E+02  0.51100000000E-03 0.  1.
         12    1    4    4    0    0 -0.12198553172E+02 -0.18748173756E+02 -0.17902339053E+02  0.28649475776E+02  0.00000000000E+00 0. -1.
</event>
<event>
 8    1  0.5834107E-011  0.9118800E+02  0.7816164E-02  0.1184000E+00
        -11   -1    0    0    0    0  0.00000000000E+00  0.00000000000E+00  0.45593999997E+02  0.45594000000E+02  0.51100000000E-03 0. -1.
         11   -1    0    0    0    0 -0.00000000000E+00 -0.00000000000E+00 -0.45593999997E+02  0.45594000000E+02  0.51100000000E-03 0.  1.
         23    2    1    2    0    0 -0.17763568394E-14  0.00000000000E+00 -0.14210854715E-13  0.91188000000E+02  0.91188000000E+02 0.  0.
    9900012    2    3    3    0    0  0.12389029593E+02 -0.13771173756E+02  0.39249069702E+02  0.47787277042E+02  0.20000027344E+02 0.  0.
        -12    1    3    3    0    0 -0.12389029593E+02  0.13771173756E+02 -0.39249069702E+02  0.43400722958E+02  0.00000000000E+00 0.  1.
         11    1    4    4    0    0  0.93185638138E+01 -0.72761972654E+01  0.24952035947E+02  0.27611279875E+02  0.51100000000E-03 0. -1.
        -11    1    4    4    0    0 -0.40453254749E-01 -0.84921601824E+01  0.14117391535E+02  0.16474803945E+02  0.51100000000E-03 0.  1.
        -12    1    4    4    0    0  0.31109190335E+01  0.19971836919E+01  0.17964221999E+00  0.37011932210E+01  0.00000000000E+00 0.  1.
</event>
<event>
 8    1  0.5834107E-011  0.9118800E+02  0.7816164E-02  0.1184000E+00
        -11   -1    0    0    0    0  0.00000000000E+00  0.00000000000E+00  0.45593999997E+02  0.45594000000E+02  0.51100000000E-03 0. -1.
         11   -1    0    0    0    0 -0.00000000000E+00 -0.00000000000E+00 -0.45593999997E+02  0.45594000000E+02  0.51100000000E-03 0.  1.
         23    2    1    2    0    0  0.00000000000E+00  0.00000000000E+00  0.00000000000E+00  0.91188000000E+02  0.91188000000E+02 0.  0.
    9900012    2    3    3    0    0 -0.21488839784E+02 -0.53904619977E+01  0.37320178321E+02  0.47787273903E+02  0.20000013035E+02 0.  0.
        -12    1    3    3    0    0  0.21488839784E+02  0.53904619977E+01 -0.37320178321E+02  0.43400726097E+02  0.00000000000E+00 0.  1.
         11    1    4    4    0    0 -0.17434023893E+02 -0.12541696728E+01  0.25809694716E+02  0.31171436801E+02  0.51100000000E-03 0. -1.
        -11    1    4    4    0    0 -0.50468286267E+01 -0.71830974769E+01  0.84075024698E+01  0.12155388377E+02  0.51100000000E-03 0.  1.
        -12    1    4    4    0    0  0.99201273618E+00  0.30468051520E+01  0.31029811357E+01  0.44604487253E+01  0.00000000000E+00 0.  1.
</event>
<event>
 8    1  0.5834107E-011  0.9118800E+02  0.7816164E-02  0.1184000E+00
        -11   -1    0    0    0    0  0.00000000000E+00  0.00000000000E+00  0.45593999997E+02  0.45594000000E+02  0.51100000000E-03 0. -1.
         11   -1    0    0    0    0 -0.00000000000E+00 -0.00000000000E+00 -0.45593999997E+02  0.45594000000E+02  0.51100000000E-03 0.  1.
         23    2    1    2    0    0  0.71054273576E-14  0.00000000000E+00 -0.71054273576E-14  0.91188000000E+02  0.91188000000E+02 0.  0.
    9900012    2    3    3    0    0 -0.27237166331E+02 -0.16805647001E+02  0.29314333314E+02  0.47787272603E+02  0.20000007107E+02 0.  0.
        -12    1    3    3    0    0  0.27237166331E+02  0.16805647001E+02 -0.29314333314E+02  0.43400727397E+02  0.00000000000E+00 0.  1.
         11    1    4    4    0    0 -0.19990537060E+02 -0.12874320008E+02  0.21466073900E+02  0.32033763697E+02  0.51100000000E-03 0. -1.
        -11    1    4    4    0    0 -0.74463750854E+01  0.19479955531E+01  0.52842974132E+01  0.93363262582E+01  0.51100000000E-03 0.  1.
         12    1    4    4    0    0  0.19974581437E+00 -0.58793225466E+01  0.25639620011E+01  0.64171826482E+01  0.00000000000E+00 0. -1.
</event>
<event>
 8    1  0.5834107E-011  0.9118800E+02  0.7816164E-02  0.1184000E+00
        -11   -1    0    0    0    0  0.00000000000E+00  0.00000000000E+00  0.45593999997E+02  0.45594000000E+02  0.51100000000E-03 0. -1.
         11   -1    0    0    0    0 -0.00000000000E+00 -0.00000000000E+00 -0.45593999997E+02  0.45594000000E+02  0.51100000000E-03 0.  1.
         23    2    1    2    0    0 -0.35527136788E-14  0.00000000000E+00  0.00000000000E+00  0.91188000000E+02  0.91188000000E+02 0.  0.
    9900012    2    3    3    0    0  0.13881729650E+02 -0.12387227301E+02 -0.39210680036E+02  0.47787271352E+02  0.20000001404E+02 0.  0.
         12    1    3    3    0    0 -0.13881729650E+02  0.12387227301E+02  0.39210680036E+02  0.43400728648E+02  0.00000000000E+00 0. -1.
         11    1    4    4    0    0 -0.20609911932E+01 -0.19467224378E+01 -0.54890645826E+00  0.28876827231E+01  0.51100000000E-03 0. -1.
        -11    1    4    4    0    0  0.17296496962E+02 -0.71096675381E+01 -0.28199789171E+02  0.33837025419E+02  0.51100000000E-03 0.  1.
        -12    1    4    4    0    0 -0.13537761185E+01 -0.33308373254E+01 -0.10461984406E+02  0.11062563210E+02  0.00000000000E+00 0.  1.
</event>
<event>
 8    1  0.5834107E-011  0.9118800E+02  0.7816164E-02  0.1184000E+00
        -11   -1    0    0    0    0  0.00000000000E+00  0.00000000000E+00  0.45593999997E+02  0.45594000000E+02  0.51100000000E-03 0. -1.
         11   -1    0    0    0    0 -0.00000000000E+00 -0.00000000000E+00 -0.45593999997E+02  0.45594000000E+02  0.51100000000E-03 0.  1.
         23    2    1    2    0    0 -0.17763568394E-14 -0.33306690739E-15 -0.71054273576E-14  0.91188000000E+02  0.91188000000E+02 0.  0.
    9900012    2    3    3    0    0 -0.87004012420E+01  0.84272693323E+00 -0.42511363511E+02  0.47787271918E+02  0.20000003983E+02 0.  0.
         12    1    3    3    0    0  0.87004012420E+01 -0.84272693323E+00  0.42511363511E+02  0.43400728082E+02  0.00000000000E+00 0. -1.
         11    1    4    4    0    0 -0.37549745658E+01  0.29686816857E+01 -0.13371338537E+02  0.14202309653E+02  0.51100000000E-03 0. -1.
        -11    1    4    4    0    0 -0.93946658124E+01 -0.50714067005E+01 -0.23550867456E+02  0.25857731336E+02  0.51100000000E-03 0.  1.
         12    1    4    4    0    0  0.44492391362E+01  0.29454519481E+01 -0.55891575184E+01  0.77272309293E+01  0.00000000000E+00 0. -1.
</event>
<event>
 8    1  0.5834107E-011  0.9118800E+02  0.7816164E-02  0.1184000E+00
        -11   -1    0    0    0    0  0.00000000000E+00  0.00000000000E+00  0.45593999997E+02  0.45594000000E+02  0.51100000000E-03 0. -1.
         11   -1    0    0    0    0 -0.00000000000E+00 -0.00000000000E+00 -0.45593999997E+02  0.45594000000E+02  0.51100000000E-03 0.  1.
         23    2    1    2    0    0  0.00000000000E+00  0.00000000000E+00 -0.71054273576E-14  0.91188000000E+02  0.91188000000E+02 0.  0.
    9900012    2    3    3    0    0 -0.12905157326E+02 -0.30443485332E+02 -0.28111837212E+02  0.47787259497E+02  0.19999947349E+02 0.  0.
         12    1    3    3    0    0  0.12905157326E+02  0.30443485332E+02  0.28111837212E+02  0.43400740503E+02  0.00000000000E+00 0. -1.
         11    1    4    4    0    0 -0.54143961172E+01 -0.16274895472E+02 -0.16574303034E+02  0.23851528866E+02  0.51100000000E-03 0. -1.
        -11    1    4    4    0    0 -0.99196986574E+01 -0.14842237104E+02 -0.11803239967E+02  0.21401142439E+02  0.51100000000E-03 0.  1.
         12    1    4    4    0    0  0.24289374482E+01  0.67364724343E+00  0.26570578858E+00  0.25345881917E+01  0.00000000000E+00 0. -1.
</event>
<event>
 8    1  0.5834107E-011  0.9118800E+02  0.7816164E-02  0.1184000E+00
        -11   -1    0    0    0    0  0.00000000000E+00  0.00000000000E+00  0.45593999997E+02  0.45594000000E+02  0.51100000000E-03 0. -1.
         11   -1    0    0    0    0 -0.00000000000E+00 -0.00000000000E+00 -0.45593999997E+02  0.45594000000E+02  0.51100000000E-03 0.  1.
         23    2    1    2    0    0 -0.35527136788E-14  0.00000000000E+00  0.35527136788E-14  0.91188000000E+02  0.91188000000E+02 0.  0.
    9900012    2    3    3    0    0  0.29612614721E+02 -0.62012715368E+01 -0.31116888020E+02  0.47787269138E+02  0.19999991307E+02 0.  0.
         12    1    3    3    0    0 -0.29612614721E+02  0.62012715368E+01  0.31116888020E+02  0.43400730862E+02  0.00000000000E+00 0. -1.
         11    1    4    4    0    0  0.22672101534E+01  0.44298520200E+01 -0.23027039145E+01  0.54832724150E+01  0.51100000000E-03 0. -1.
        -11    1    4    4    0    0  0.18068045299E+01 -0.95893407369E+00  0.63470951883E+00  0.21417174420E+01  0.51100000000E-03 0.  1.
        -12    1    4    4    0    0  0.25538600038E+02 -0.96721894831E+01 -0.29448893625E+02  0.40162279281E+02  0.00000000000E+00 0.  1.
</event>
<event>
 8    1  0.5834107E-011  0.9118800E+02  0.7816164E-02  0.1184000E+00
        -11   -1    0    0    0    0  0.00000000000E+00  0.00000000000E+00  0.45593999997E+02  0.45594000000E+02  0.51100000000E-03 0. -1.
         11   -1    0    0    0    0 -0.00000000000E+00 -0.00000000000E+00 -0.45593999997E+02  0.45594000000E+02  0.51100000000E-03 0.  1.
         23    2    1    2    0    0  0.00000000000E+00  0.35527136788E-14  0.00000000000E+00  0.91188000000E+02  0.91188000000E+02 0.  0.
    9900012    2    3    3    0    0  0.12663543440E+02 -0.16445956320E+02  0.38115463226E+02  0.47787270183E+02  0.19999996072E+02 0.  0.
        -12    1    3    3    0    0 -0.12663543440E+02  0.16445956320E+02 -0.38115463226E+02  0.43400729817E+02  0.00000000000E+00 0.  1.
         11    1    4    4    0    0  0.14763821716E+01 -0.53192166970E+01  0.29264283767E+01  0.62480199977E+01  0.51100000000E-03 0. -1.
        -11    1    4    4    0    0 -0.25486195710E+01 -0.38005000680E+01  0.22336718614E+01  0.50920087127E+01  0.51100000000E-03 0.  1.
         12    1    4    4    0    0  0.13735780839E+02 -0.73262395547E+01  0.32955362988E+02  0.36447241472E+02  0.00000000000E+00 0. -1.
</event>
<event>
 8    1  0.5834107E-011  0.9118800E+02  0.7816164E-02  0.1184000E+00
        -11   -1    0    0    0    0  0.00000000000E+00  0.00000000000E+00  0.45593999997E+02  0.45594000000E+02  0.51100000000E-03 0. -1.
         11   -1    0    0    0    0 -0.00000000000E+00 -0.00000000000E+00 -0.45593999997E+02  0.45594000000E+02  0.51100000000E-03 0.  1.
         23    2    1    2    0    0  0.00000000000E+00  0.00000000000E+00  0.35527136788E-14  0.91188000000E+02  0.91188000000E+02 0.  0.
    9900012    2    3    3    0    0 -0.25407844653E+02  0.24695989639E+02  0.25063412455E+02  0.47787249799E+02  0.19999903131E+02 0.  0.
        -12    1    3    3    0    0  0.25407844653E+02 -0.24695989639E+02 -0.25063412455E+02  0.43400750201E+02  0.00000000000E+00 0.  1.
         11    1    4    4    0    0 -0.17382816614E+02  0.83171250529E+01  0.20640816800E+02  0.28237921330E+02  0.51100000000E-03 0. -1.
        -11    1    4    4    0    0 -0.47978140020E+01  0.63100058591E+01 -0.38078196418E+00  0.79360058156E+01  0.51100000000E-03 0.  1.
         12    1    4    4    0    0 -0.32272140374E+01  0.10068858727E+02  0.48033776190E+01  0.11613322653E+02  0.00000000000E+00 0. -1.
</event>
<event>
 8    1  0.5834107E-011  0.9118800E+02  0.7816164E-02  0.1184000E+00
        -11   -1    0    0    0    0  0.00000000000E+00  0.00000000000E+00  0.45593999997E+02  0.45594000000E+02  0.51100000000E-03 0. -1.
         11   -1    0    0    0    0 -0.00000000000E+00 -0.00000000000E+00 -0.45593999997E+02  0.45594000000E+02  0.51100000000E-03 0.  1.
         23    2    1    2    0    0  0.00000000000E+00  0.00000000000E+00  0.00000000000E+00  0.91188000000E+02  0.91188000000E+02 0.  0.
    9900012    2    3    3    0    0 -0.17872308931E+01  0.31150378004E+02 -0.30167582259E+02  0.47787271165E+02  0.20000000551E+02 0.  0.
         12    1    3    3    0    0  0.17872308931E+01 -0.31150378004E+02  0.30167582259E+02  0.43400728835E+02  0.00000000000E+00 0. -1.
         11    1    4    4    0    0 -0.67688826056E+01  0.55088999541E+01 -0.11962451839E+02  0.14807633325E+02  0.51100000000E-03 0. -1.
        -11    1    4    4    0    0  0.47856043202E+01  0.58537959998E+01 -0.66176058054E+01  0.10047967116E+02  0.51100000000E-03 0.  1.
        -12    1    4    4    0    0  0.19604739219E+00  0.19787682050E+02 -0.11587524614E+02  0.22931670724E+02  0.00000000000E+00 0.  1.
</event>
<event>
 8    1  0.5834107E-011  0.9118800E+02  0.7816164E-02  0.1184000E+00
        -11   -1    0    0    0    0  0.00000000000E+00  0.00000000000E+00  0.45593999997E+02  0.45594000000E+02  0.51100000000E-03 0. -1.
         11   -1    0    0    0    0 -0.00000000000E+00 -0.00000000000E+00 -0.45593999997E+02  0.45594000000E+02  0.51100000000E-03 0.  1.
         23    2    1    2    0    0  0.00000000000E+00  0.00000000000E+00  0.00000000000E+00  0.91188000000E+02  0.91188000000E+02 0.  0.
    9900012    2    3    3    0    0  0.22794410717E+02 -0.20538833719E+01  0.36875732877E+02  0.47787271065E+02  0.20000000096E+02 0.  0.
        -12    1    3    3    0    0 -0.22794410717E+02  0.20538833719E+01 -0.36875732877E+02  0.43400728935E+02  0.00000000000E+00 0.  1.
         11    1    4    4    0    0  0.10653033838E+02 -0.23110431994E+00  0.74310627458E+01  0.12990813406E+02  0.51100000000E-03 0. -1.
        -11    1    4    4    0    0  0.94184000329E+01 -0.69246239097E+01  0.24660666895E+02  0.27291118838E+02  0.51100000000E-03 0.  1.
        -12    1    4    4    0    0  0.27229768455E+01  0.51018448578E+01  0.47840032367E+01  0.75053388213E+01  0.00000000000E+00 0.  1.
</event>
<event>
 8    1  0.5834107E-011  0.9118800E+02  0.7816164E-02  0.1184000E+00
        -11   -1    0    0    0    0  0.00000000000E+00  0.00000000000E+00  0.45593999997E+02  0.45594000000E+02  0.51100000000E-03 0. -1.
         11   -1    0    0    0    0 -0.00000000000E+00 -0.00000000000E+00 -0.45593999997E+02  0.45594000000E+02  0.51100000000E-03 0.  1.
         23    2    1    2    0    0 -0.71054273576E-14  0.00000000000E+00  0.00000000000E+00  0.91188000000E+02  0.91188000000E+02 0.  0.
    9900012    2    3    3    0    0  0.42189876469E+02 -0.65267150991E+01  0.78127431614E+01  0.47787278322E+02  0.20000033182E+02 0.  0.
        -12    1    3    3    0    0 -0.42189876469E+02  0.65267150991E+01 -0.78127431614E+01  0.43400721678E+02  0.00000000000E+00 0.  1.
         11    1    4    4    0    0  0.23105300929E+02 -0.96512498877E+00  0.13630745443E+02  0.26843688622E+02  0.51100000000E-03 0. -1.
        -11    1    4    4    0    0  0.38849624672E+01 -0.24635906669E+01 -0.15622924291E+01  0.48582888182E+01  0.51100000000E-03 0.  1.
         12    1    4    4    0    0  0.15199613073E+02 -0.30979994434E+01 -0.42557098523E+01  0.16085300882E+02  0.00000000000E+00 0. -1.
</event>
<event>
 8    1  0.5834107E-011  0.9118800E+02  0.7816164E-02  0.1184000E+00
        -11   -1    0    0    0    0  0.00000000000E+00  0.00000000000E+00  0.45593999997E+02  0.45594000000E+02  0.51100000000E-03 0. -1.
         11   -1    0    0    0    0 -0.00000000000E+00 -0.00000000000E+00 -0.45593999997E+02  0.45594000000E+02  0.51100000000E-03 0.  1.
         23    2    1    2    0    0 -0.35527136788E-14  0.00000000000E+00  0.71054273576E-14  0.91188000000E+02  0.91188000000E+02 0.  0.
    9900012    2    3    3    0    0  0.26942248864E+02  0.37446721716E+01  0.33818868932E+02  0.47787271442E+02  0.20000001814E+02 0.  0.
        -12    1    3    3    0    0 -0.26942248864E+02 -0.37446721716E+01 -0.33818868932E+02  0.43400728558E+02  0.00000000000E+00 0.  1.
         11    1    4    4    0    0  0.24392103982E+02  0.10658859318E+01  0.28619615439E+02  0.37619054184E+02  0.51100000000E-03 0. -1.
        -11    1    4    4    0    0  0.33044100798E+01  0.49036951280E+01  0.51132947462E+01  0.78173611473E+01  0.51100000000E-03 0.  1.
        -12    1    4    4    0    0 -0.75426519817E+00 -0.22249088882E+01  0.85958746105E-01  0.23508561113E+01  0.00000000000E+00 0.  1.
</event>
<event>
 8    1  0.5834107E-011  0.9118800E+02  0.7816164E-02  0.1184000E+00
        -11   -1    0    0    0    0  0.00000000000E+00  0.00000000000E+00  0.45593999997E+02  0.45594000000E+02  0.51100000000E-03 0. -1.
         11   -1    0    0    0    0 -0.00000000000E+00 -0.00000000000E+00 -0.45593999997E+02  0.45594000000E+02  0.51100000000E-03 0.  1.
         23    2    1    2    0    0  0.17763568394E-14 -0.17763568394E-14  0.00000000000E+00  0.91188000000E+02  0.91188000000E+02 0.  0.
    9900012    2    3    3    0    0  0.87385327309E+01 -0.15877801695E+02  0.39435476700E+02  0.47787270012E+02  0.19999995292E+02 0.  0.
        -12    1    3    3    0    0 -0.87385327309E+01  0.15877801695E+02 -0.39435476700E+02  0.43400729988E+02  0.00000000000E+00 0.  1.
         11    1    4    4    0    0  0.37627384954E+01 -0.43159660297E+01  0.34037198806E+01  0.66611615384E+01  0.51100000000E-03 0. -1.
        -11    1    4    4    0    0  0.33569353224E+00  0.34638511855E+01  0.32233683621E+01  0.47435281217E+01  0.51100000000E-03 0.  1.
         12    1    4    4    0    0  0.46401007032E+01 -0.15025686850E+02  0.32808388458E+02  0.36382580352E+02  0.00000000000E+00 0. -1.
</event>
<event>
 8    1  0.5834107E-011  0.9118800E+02  0.7816164E-02  0.1184000E+00
        -11   -1    0    0    0    0  0.00000000000E+00  0.00000000000E+00  0.45593999997E+02  0.45594000000E+02  0.51100000000E-03 0. -1.
         11   -1    0    0    0    0 -0.00000000000E+00 -0.00000000000E+00 -0.45593999997E+02  0.45594000000E+02  0.51100000000E-03 0.  1.
         23    2    1    2    0    0 -0.17763568394E-14  0.00000000000E+00  0.00000000000E+00  0.91188000000E+02  0.91188000000E+02 0.  0.
    9900012    2    3    3    0    0 -0.11435755824E+02 -0.21260986933E+02 -0.36066837248E+02  0.47787276207E+02  0.20000023540E+02 0.  0.
         12    1    3    3    0    0  0.11435755824E+02  0.21260986933E+02  0.36066837248E+02  0.43400723793E+02  0.00000000000E+00 0. -1.
         11    1    4    4    0    0 -0.59135836262E+01 -0.56517770799E+00 -0.17536946958E+02  0.18515788020E+02  0.51100000000E-03 0. -1.
        -11    1    4    4    0    0  0.12061591917E+01 -0.95767316780E+01 -0.74470219683E+01  0.12191256953E+02  0.51100000000E-03 0.  1.
        -12    1    4    4    0    0 -0.67283313898E+01 -0.11119077547E+02 -0.11082868322E+02  0.17080231235E+02  0.00000000000E+00 0.  1.
</event>
<event>
 8    1  0.5834107E-011  0.9118800E+02  0.7816164E-02  0.1184000E+00
        -11   -1    0    0    0    0  0.00000000000E+00  0.00000000000E+00  0.45593999997E+02  0.45594000000E+02  0.51100000000E-03 0. -1.
         11   -1    0    0    0    0 -0.00000000000E+00 -0.00000000000E+00 -0.45593999997E+02  0.45594000000E+02  0.51100000000E-03 0.  1.
         23    2    1    2    0    0 -0.35527136788E-14  0.44408920985E-15 -0.71054273576E-14  0.91188000000E+02  0.91188000000E+02 0.  0.
    9900012    2    3    3    0    0 -0.24880609042E+02  0.28854425363E+01 -0.35443656349E+02  0.47787271201E+02  0.20000000712E+02 0.  0.
         12    1    3    3    0    0  0.24880609042E+02 -0.28854425363E+01  0.35443656349E+02  0.43400728799E+02  0.00000000000E+00 0. -1.
         11    1    4    4    0    0 -0.45438358973E+00  0.26771901399E+01 -0.13909371567E+02  0.14171959256E+02  0.51100000000E-03 0.  1.
        -11    1    4    4    0    0 -0.47816345515E+01 -0.23820316825E+01 -0.17672667931E+01  0.56268406855E+01  0.51100000000E-03 0. -1.
        -12    1    4    4    0    0 -0.19644590901E+02  0.25902840789E+01 -0.19767017988E+02  0.27988471259E+02  0.00000000000E+00 0.  1.
</event>
<event>
 8    1  0.5834107E-011  0.9118800E+02  0.7816164E-02  0.1184000E+00
        -11   -1    0    0    0    0  0.00000000000E+00  0.00000000000E+00  0.45593999997E+02  0.45594000000E+02  0.51100000000E-03 0. -1.
         11   -1    0    0    0    0 -0.00000000000E+00 -0.00000000000E+00 -0.45593999997E+02  0.45594000000E+02  0.51100000000E-03 0.  1.
         23    2    1    2    0    0  0.88817841970E-15  0.11102230246E-15  0.00000000000E+00  0.91188000000E+02  0.91188000000E+02 0.  0.
    9900012    2    3    3    0    0  0.78424016897E+01 -0.65378777488E+00 -0.42681285922E+02  0.47787275690E+02  0.20000021179E+02 0.  0.
         12    1    3    3    0    0 -0.78424016897E+01  0.65378777488E+00  0.42681285922E+02  0.43400724310E+02  0.00000000000E+00 0. -1.
         11    1    4    4    0    0  0.54935097452E+01 -0.85801461020E+01 -0.14116278120E+02  0.17408815717E+02  0.51100000000E-03 0. -1.
        -11    1    4    4    0    0  0.41215123300E+01  0.44754892098E+01 -0.13256283242E+02  0.14585812052E+02  0.51100000000E-03 0.  1.
        -12    1    4    4    0    0 -0.17726203855E+01  0.34508691174E+01 -0.15308724560E+02  0.15792647920E+02  0.00000000000E+00 0.  1.
</event>
<event>
 8    1  0.5834107E-011  0.9118800E+02  0.7816164E-02  0.1184000E+00
        -11   -1    0    0    0    0  0.00000000000E+00  0.00000000000E+00  0.45593999997E+02  0.45594000000E+02  0.51100000000E-03 0. -1.
         11   -1    0    0    0    0 -0.00000000000E+00 -0.00000000000E+00 -0.45593999997E+02  0.45594000000E+02  0.51100000000E-03 0.  1.
         23    2    1    2    0    0  0.00000000000E+00  0.88817841970E-15  0.00000000000E+00  0.91188000000E+02  0.91188000000E+02 0.  0.
    9900012    2    3    3    0    0  0.43003464603E+02 -0.40851572687E+01  0.41996464696E+01  0.47787268344E+02  0.19999987687E+02 0.  0.
        -12    1    3    3    0    0 -0.43003464603E+02  0.40851572687E+01 -0.41996464696E+01  0.43400731656E+02  0.00000000000E+00 0.  1.
         11    1    4    4    0    0  0.15219586604E+02  0.49497405885E+01 -0.32261252610E+01  0.16326164055E+02  0.51100000000E-03 0. -1.
        -11    1    4    4    0    0  0.71805726680E+01 -0.72467697963E+00  0.56658552692E+01  0.91753853738E+01  0.51100000000E-03 0.  1.
        -12    1    4    4    0    0  0.20603305331E+02 -0.83102208775E+01  0.17599164614E+01  0.22285718915E+02  0.00000000000E+00 0.  1.
</event>
<event>
 8    1  0.5834107E-011  0.9118800E+02  0.7816164E-02  0.1184000E+00
        -11   -1    0    0    0    0  0.00000000000E+00  0.00000000000E+00  0.45593999997E+02  0.45594000000E+02  0.51100000000E-03 0.  1.
         11   -1    0    0    0    0 -0.00000000000E+00 -0.00000000000E+00 -0.45593999997E+02  0.45594000000E+02  0.51100000000E-03 0. -1.
         23    2    1    2    0    0  0.71054273576E-14  0.00000000000E+00 -0.22204460493E-15  0.91188000000E+02  0.91188000000E+02 0.  0.
    9900012    2    3    3    0    0 -0.39705906811E+02  0.17498741044E+02 -0.92630670812E+00  0.47787273993E+02  0.20000013444E+02 0.  0.
         12    1    3    3    0    0  0.39705906811E+02 -0.17498741044E+02  0.92630670812E+00  0.43400726007E+02  0.00000000000E+00 0. -1.
         11    1    4    4    0    0 -0.12970861602E+02  0.45371736753E+01  0.33730983734E+01  0.14149451882E+02  0.51100000000E-03 0. -1.
        -11    1    4    4    0    0 -0.20539673383E+02  0.53647775522E+01  0.29677109515E+01  0.21435165719E+02  0.51100000000E-03 0.  1.
         12    1    4    4    0    0 -0.61953718260E+01  0.75967898165E+01 -0.72671160331E+01  0.12202656392E+02  0.00000000000E+00 0. -1.
</event>
<event>
 8    1  0.5834107E-011  0.9118800E+02  0.7816164E-02  0.1184000E+00
        -11   -1    0    0    0    0  0.00000000000E+00  0.00000000000E+00  0.45593999997E+02  0.45594000000E+02  0.51100000000E-03 0. -1.
         11   -1    0    0    0    0 -0.00000000000E+00 -0.00000000000E+00 -0.45593999997E+02  0.45594000000E+02  0.51100000000E-03 0.  1.
         23    2    1    2    0    0  0.44408920985E-15 -0.35527136788E-14 -0.71054273576E-14  0.91188000000E+02  0.91188000000E+02 0.  0.
    9900012    2    3    3    0    0  0.21464274360E+01  0.20040312091E+02  0.38437018976E+02  0.47787243242E+02  0.19999873235E+02 0.  0.
        -12    1    3    3    0    0 -0.21464274360E+01 -0.20040312091E+02 -0.38437018976E+02  0.43400756758E+02  0.00000000000E+00 0.  1.
         11    1    4    4    0    0 -0.49916980412E+01  0.83203832527E+01  0.12687307084E+02  0.15972275609E+02  0.51100000000E-03 0. -1.
        -11    1    4    4    0    0 -0.31490131172E+01  0.40557653524E+01  0.11770577144E+02  0.12841806834E+02  0.51100000000E-03 0.  1.
        -12    1    4    4    0    0  0.10287138594E+02  0.76641634859E+01  0.13979134748E+02  0.18973160799E+02  0.00000000000E+00 0.  1.
</event>
<event>
 8    1  0.5834107E-011  0.9118800E+02  0.7816164E-02  0.1184000E+00
        -11   -1    0    0    0    0  0.00000000000E+00  0.00000000000E+00  0.45593999997E+02  0.45594000000E+02  0.51100000000E-03 0. -1.
         11   -1    0    0    0    0 -0.00000000000E+00 -0.00000000000E+00 -0.45593999997E+02  0.45594000000E+02  0.51100000000E-03 0.  1.
         23    2    1    2    0    0  0.00000000000E+00 -0.35527136788E-14  0.00000000000E+00  0.91188000000E+02  0.91188000000E+02 0.  0.
    9900012    2    3    3    0    0  0.31519998475E+02 -0.13196742656E+02  0.26757401326E+02  0.47787275970E+02  0.20000022460E+02 0.  0.
        -12    1    3    3    0    0 -0.31519998475E+02  0.13196742656E+02 -0.26757401326E+02  0.43400724030E+02  0.00000000000E+00 0.  1.
         11    1    4    4    0    0  0.10323924097E+02 -0.55644564703E+01  0.34416951904E+01  0.12222595904E+02  0.51100000000E-03 0. -1.
        -11    1    4    4    0    0  0.21808939575E+02 -0.95877783174E+01  0.17973657373E+02  0.29843051085E+02  0.51100000000E-03 0.  1.
        -12    1    4    4    0    0 -0.61286519759E+00  0.19554921313E+01  0.53420487621E+01  0.57216289816E+01  0.00000000000E+00 0.  1.
</event>
<event>
 8    1  0.5834107E-011  0.9118800E+02  0.7816164E-02  0.1184000E+00
        -11   -1    0    0    0    0  0.00000000000E+00  0.00000000000E+00  0.45593999997E+02  0.45594000000E+02  0.51100000000E-03 0. -1.
         11   -1    0    0    0    0 -0.00000000000E+00 -0.00000000000E+00 -0.45593999997E+02  0.45594000000E+02  0.51100000000E-03 0.  1.
         23    2    1    2    0    0  0.35527136788E-14  0.17763568394E-14 -0.71054273576E-14  0.91188000000E+02  0.91188000000E+02 0.  0.
    9900012    2    3    3    0    0  0.23848205696E+02 -0.11387774360E+02  0.34426807026E+02  0.47787270031E+02  0.19999995380E+02 0.  0.
        -12    1    3    3    0    0 -0.23848205696E+02  0.11387774360E+02 -0.34426807026E+02  0.43400729969E+02  0.00000000000E+00 0.  1.
         11    1    4    4    0    0  0.72044399124E+01  0.23703686855E+01  0.14471139267E+02  0.16338190662E+02  0.51100000000E-03 0. -1.
        -11    1    4    4    0    0  0.22763526491E+00 -0.32810037823E+01 -0.35794787887E+00  0.33083123460E+01  0.51100000000E-03 0.  1.
         12    1    4    4    0    0  0.16416130519E+02 -0.10477139263E+02  0.20313615638E+02  0.28140767023E+02  0.00000000000E+00 0. -1.
</event>
<event>
 8    1  0.5834107E-011  0.9118800E+02  0.7816164E-02  0.1184000E+00
        -11   -1    0    0    0    0  0.00000000000E+00  0.00000000000E+00  0.45593999997E+02  0.45594000000E+02  0.51100000000E-03 0. -1.
         11   -1    0    0    0    0 -0.00000000000E+00 -0.00000000000E+00 -0.45593999997E+02  0.45594000000E+02  0.51100000000E-03 0.  1.
         23    2    1    2    0    0  0.00000000000E+00 -0.17763568394E-14  0.99920072216E-15  0.91188000000E+02  0.91188000000E+02 0.  0.
    9900012    2    3    3    0    0 -0.42363728626E+02  0.93942213153E+01  0.82866669393E+00  0.47787267452E+02  0.19999983619E+02 0.  0.
        -12    1    3    3    0    0  0.42363728626E+02 -0.93942213153E+01 -0.82866669393E+00  0.43400732548E+02  0.00000000000E+00 0.  1.
         11    1    4    4    0    0 -0.12490279978E+02 -0.25597463977E+01 -0.16864395311E+01  0.12860928197E+02  0.51100000000E-03 0. -1.
        -11    1    4    4    0    0 -0.83178596711E+01  0.25073645588E+01  0.67651884797E+01  0.11010969166E+02  0.51100000000E-03 0.  1.
         12    1    4    4    0    0 -0.21555588977E+02  0.94466031543E+01 -0.42500822547E+01  0.23915370089E+02  0.00000000000E+00 0. -1.
</event>
<event>
 8    1  0.5834107E-011  0.9118800E+02  0.7816164E-02  0.1184000E+00
        -11   -1    0    0    0    0  0.00000000000E+00  0.00000000000E+00  0.45593999997E+02  0.45594000000E+02  0.51100000000E-03 0. -1.
         11   -1    0    0    0    0 -0.00000000000E+00 -0.00000000000E+00 -0.45593999997E+02  0.45594000000E+02  0.51100000000E-03 0.  1.
         23    2    1    2    0    0  0.00000000000E+00  0.35527136788E-14  0.00000000000E+00  0.91188000000E+02  0.91188000000E+02 0.  0.
    9900012    2    3    3    0    0 -0.19604168670E+02  0.18180576280E+02  0.34187225931E+02  0.47787271895E+02  0.20000003879E+02 0.  0.
        -12    1    3    3    0    0  0.19604168670E+02 -0.18180576280E+02 -0.34187225931E+02  0.43400728105E+02  0.00000000000E+00 0.  1.
         11    1    4    4    0    0 -0.96630633682E+01  0.83718421792E+01  0.16198992868E+02  0.20636615646E+02  0.51100000000E-03 0. -1.
        -11    1    4    4    0    0 -0.26641481547E+01  0.83497429465E+01  0.12660196034E+01  0.88554332791E+01  0.51100000000E-03 0.  1.
         12    1    4    4    0    0 -0.72769571475E+01  0.14589911547E+01  0.16722213460E+02  0.18295222970E+02  0.00000000000E+00 0. -1.
</event>
<event>
 8    1  0.5834107E-011  0.9118800E+02  0.7816164E-02  0.1184000E+00
        -11   -1    0    0    0    0  0.00000000000E+00  0.00000000000E+00  0.45593999997E+02  0.45594000000E+02  0.51100000000E-03 0. -1.
         11   -1    0    0    0    0 -0.00000000000E+00 -0.00000000000E+00 -0.45593999997E+02  0.45594000000E+02  0.51100000000E-03 0.  1.
         23    2    1    2    0    0  0.00000000000E+00 -0.17763568394E-14  0.00000000000E+00  0.91188000000E+02  0.91188000000E+02 0.  0.
    9900012    2    3    3    0    0 -0.71480587150E+01  0.13700985245E+02  0.40556276083E+02  0.47787271092E+02  0.20000000215E+02 0.  0.
        -12    1    3    3    0    0  0.71480587150E+01 -0.13700985245E+02 -0.40556276083E+02  0.43400728908E+02  0.00000000000E+00 0.  1.
         11    1    4    4    0    0 -0.60655131447E+01  0.98488320290E+01  0.32324731220E+02  0.34331883006E+02  0.51100000000E-03 0. -1.
        -11    1    4    4    0    0  0.25674015511E+01 -0.20458127330E+01  0.45271634878E+01  0.55921471699E+01  0.51100000000E-03 0.  1.
        -12    1    4    4    0    0 -0.36499471214E+01  0.58979659494E+01  0.37043813749E+01  0.78632409158E+01  0.00000000000E+00 0.  1.
</event>
<event>
 8    1  0.5834107E-011  0.9118800E+02  0.7816164E-02  0.1184000E+00
        -11   -1    0    0    0    0  0.00000000000E+00  0.00000000000E+00  0.45593999997E+02  0.45594000000E+02  0.51100000000E-03 0. -1.
         11   -1    0    0    0    0 -0.00000000000E+00 -0.00000000000E+00 -0.45593999997E+02  0.45594000000E+02  0.51100000000E-03 0.  1.
         23    2    1    2    0    0  0.00000000000E+00  0.00000000000E+00  0.00000000000E+00  0.91188000000E+02  0.91188000000E+02 0.  0.
    9900012    2    3    3    0    0  0.85872564730E+01  0.24209794729E+02  0.34982401717E+02  0.47787267697E+02  0.19999984738E+02 0.  0.
        -12    1    3    3    0    0 -0.85872564730E+01 -0.24209794729E+02 -0.34982401717E+02  0.43400732303E+02  0.00000000000E+00 0.  1.
         11    1    4    4    0    0  0.19885627951E+01  0.20898687529E+02  0.27188641419E+02  0.34350134569E+02  0.51100000000E-03 0.  1.
        -11    1    4    4    0    0  0.23078225969E+00 -0.70299745310E+00  0.55261908557E+01  0.55755045965E+01  0.51100000000E-03 0. -1.
        -12    1    4    4    0    0  0.63679114182E+01  0.40141046531E+01  0.22675694423E+01  0.78616285318E+01  0.00000000000E+00 0.  1.
</event>
<event>
 8    1  0.5834107E-011  0.9118800E+02  0.7816164E-02  0.1184000E+00
        -11   -1    0    0    0    0  0.00000000000E+00  0.00000000000E+00  0.45593999997E+02  0.45594000000E+02  0.51100000000E-03 0. -1.
         11   -1    0    0    0    0 -0.00000000000E+00 -0.00000000000E+00 -0.45593999997E+02  0.45594000000E+02  0.51100000000E-03 0.  1.
         23    2    1    2    0    0  0.00000000000E+00  0.00000000000E+00  0.00000000000E+00  0.91188000000E+02  0.91188000000E+02 0.  0.
    9900012    2    3    3    0    0  0.36728860203E+02 -0.14177295643E+02 -0.18265227653E+02  0.47787269306E+02  0.19999992075E+02 0.  0.
         12    1    3    3    0    0 -0.36728860203E+02  0.14177295643E+02  0.18265227653E+02  0.43400730694E+02  0.00000000000E+00 0. -1.
         11    1    4    4    0    0  0.74411990646E+01 -0.10476495971E+02 -0.93398555448E+01  0.15885884086E+02  0.51100000000E-03 0. -1.
        -11    1    4    4    0    0  0.63487692243E+00  0.13110455259E+01 -0.95336069149E+00  0.17409210053E+01  0.51100000000E-03 0.  1.
        -12    1    4    4    0    0  0.28652784216E+02 -0.50118451974E+01 -0.79720114170E+01  0.30160464214E+02  0.00000000000E+00 0.  1.
</event>
<event>
 8    1  0.5834107E-011  0.9118800E+02  0.7816164E-02  0.1184000E+00
        -11   -1    0    0    0    0  0.00000000000E+00  0.00000000000E+00  0.45593999997E+02  0.45594000000E+02  0.51100000000E-03 0. -1.
         11   -1    0    0    0    0 -0.00000000000E+00 -0.00000000000E+00 -0.45593999997E+02  0.45594000000E+02  0.51100000000E-03 0.  1.
         23    2    1    2    0    0  0.00000000000E+00  0.00000000000E+00  0.00000000000E+00  0.91188000000E+02  0.91188000000E+02 0.  0.
    9900012    2    3    3    0    0  0.96578342273E+01 -0.16921360495E+02 -0.38781657594E+02  0.47787272256E+02  0.20000005524E+02 0.  0.
         12    1    3    3    0    0 -0.96578342273E+01  0.16921360495E+02  0.38781657594E+02  0.43400727744E+02  0.00000000000E+00 0. -1.
         11    1    4    4    0    0 -0.61575031575E+00  0.84301140547E+00 -0.90108744569E+01  0.90711452100E+01  0.51100000000E-03 0. -1.
        -11    1    4    4    0    0  0.41328397617E+01 -0.95582137369E+01 -0.43106251050E+01  0.11270372815E+02  0.51100000000E-03 0.  1.
        -12    1    4    4    0    0  0.61407447813E+01 -0.82061581636E+01 -0.25460158032E+02  0.27445754231E+02  0.00000000000E+00 0.  1.
</event>
<event>
 8    1  0.5834107E-011  0.9118800E+02  0.7816164E-02  0.1184000E+00
        -11   -1    0    0    0    0  0.00000000000E+00  0.00000000000E+00  0.45593999997E+02  0.45594000000E+02  0.51100000000E-03 0. -1.
         11   -1    0    0    0    0 -0.00000000000E+00 -0.00000000000E+00 -0.45593999997E+02  0.45594000000E+02  0.51100000000E-03 0.  1.
         23    2    1    2    0    0  0.44408920985E-15 -0.35527136788E-14  0.00000000000E+00  0.91188000000E+02  0.91188000000E+02 0.  0.
    9900012    2    3    3    0    0 -0.25367356103E+01 -0.25620318094E+02  0.34939769578E+02  0.47787271608E+02  0.20000002569E+02 0.  0.
        -12    1    3    3    0    0  0.25367356103E+01  0.25620318094E+02 -0.34939769578E+02  0.43400728392E+02  0.00000000000E+00 0.  1.
         11    1    4    4    0    0  0.32323273106E+01 -0.22084769543E+01  0.74379097177E+01  0.84052252517E+01  0.51100000000E-03 0. -1.
        -11    1    4    4    0    0 -0.82293169230E+00  0.28059921766E+00  0.86753772646E+01  0.87188372754E+01  0.51100000000E-03 0.  1.
         12    1    4    4    0    0 -0.49461312286E+01 -0.23692440357E+02  0.18826482596E+02  0.30663209081E+02  0.00000000000E+00 0. -1.
</event>
<event>
 8    1  0.5834107E-011  0.9118800E+02  0.7816164E-02  0.1184000E+00
        -11   -1    0    0    0    0  0.00000000000E+00  0.00000000000E+00  0.45593999997E+02  0.45594000000E+02  0.51100000000E-03 0. -1.
         11   -1    0    0    0    0 -0.00000000000E+00 -0.00000000000E+00 -0.45593999997E+02  0.45594000000E+02  0.51100000000E-03 0.  1.
         23    2    1    2    0    0  0.00000000000E+00  0.44408920985E-15  0.00000000000E+00  0.91188000000E+02  0.91188000000E+02 0.  0.
    9900012    2    3    3    0    0  0.29977978248E+02 -0.37048833534E+01 -0.31164368424E+02  0.47787271898E+02  0.20000003893E+02 0.  0.
         12    1    3    3    0    0 -0.29977978248E+02  0.37048833534E+01  0.31164368424E+02  0.43400728102E+02  0.00000000000E+00 0. -1.
         11    1    4    4    0    0  0.86850749584E+01  0.16135119206E+01 -0.10595196422E+01  0.88969955538E+01  0.51100000000E-03 0. -1.
        -11    1    4    4    0    0  0.15523693319E+02 -0.69554341702E+01 -0.15154710740E+02  0.22782194290E+02  0.51100000000E-03 0.  1.
        -12    1    4    4    0    0  0.57692099705E+01  0.16370388962E+01 -0.14950138041E+02  0.16108082055E+02  0.00000000000E+00 0.  1.
</event>
<event>
 8    1  0.5834107E-011  0.9118800E+02  0.7816164E-02  0.1184000E+00
        -11   -1    0    0    0    0  0.00000000000E+00  0.00000000000E+00  0.45593999997E+02  0.45594000000E+02  0.51100000000E-03 0.  1.
         11   -1    0    0    0    0 -0.00000000000E+00 -0.00000000000E+00 -0.45593999997E+02  0.45594000000E+02  0.51100000000E-03 0. -1.
         23    2    1    2    0    0  0.00000000000E+00 -0.35527136788E-14  0.88817841970E-15  0.91188000000E+02  0.91188000000E+02 0.  0.
    9900012    2    3    3    0    0 -0.36347836261E+02 -0.22927949735E+02  0.60635782914E+01  0.47787273490E+02  0.20000011148E+02 0.  0.
        -12    1    3    3    0    0  0.36347836261E+02  0.22927949735E+02 -0.60635782914E+01  0.43400726510E+02  0.00000000000E+00 0.  1.
         11    1    4    4    0    0 -0.99452514842E+01 -0.17156208377E+02  0.23182059995E+01  0.19965409895E+02  0.51100000000E-03 0. -1.
        -11    1    4    4    0    0 -0.16929040012E+02 -0.62542251110E+01  0.17834996411E+01  0.18135286011E+02  0.51100000000E-03 0.  1.
        -12    1    4    4    0    0 -0.94735447650E+01  0.48248375247E+00  0.19618726508E+01  0.96865775837E+01  0.00000000000E+00 0.  1.
</event>
<event>
 8    1  0.5834107E-011  0.9118800E+02  0.7816164E-02  0.1184000E+00
        -11   -1    0    0    0    0  0.00000000000E+00  0.00000000000E+00  0.45593999997E+02  0.45594000000E+02  0.51100000000E-03 0. -1.
         11   -1    0    0    0    0 -0.00000000000E+00 -0.00000000000E+00 -0.45593999997E+02  0.45594000000E+02  0.51100000000E-03 0.  1.
         23    2    1    2    0    0 -0.35527136788E-14  0.00000000000E+00  0.71054273576E-14  0.91188000000E+02  0.91188000000E+02 0.  0.
    9900012    2    3    3    0    0  0.17661351623E+02  0.18181714424E+02 -0.35229609949E+02  0.47787268466E+02  0.19999988243E+02 0.  0.
         12    1    3    3    0    0 -0.17661351623E+02 -0.18181714424E+02  0.35229609949E+02  0.43400731534E+02  0.00000000000E+00 0. -1.
         11    1    4    4    0    0  0.55926650004E+01  0.27108270354E+01 -0.11451703790E+02  0.13029505170E+02  0.51100000000E-03 0. -1.
        -11    1    4    4    0    0 -0.51725732000E+00  0.12270960373E+02 -0.10150232625E+02  0.15933337573E+02  0.51100000000E-03 0.  1.
        -12    1    4    4    0    0  0.12585943943E+02  0.31999270153E+01 -0.13627673534E+02  0.18824425723E+02  0.00000000000E+00 0.  1.
</event>
<event>
 8    1  0.5834107E-011  0.9118800E+02  0.7816164E-02  0.1184000E+00
        -11   -1    0    0    0    0  0.00000000000E+00  0.00000000000E+00  0.45593999997E+02  0.45594000000E+02  0.51100000000E-03 0. -1.
         11   -1    0    0    0    0 -0.00000000000E+00 -0.00000000000E+00 -0.45593999997E+02  0.45594000000E+02  0.51100000000E-03 0.  1.
         23    2    1    2    0    0  0.00000000000E+00  0.00000000000E+00  0.00000000000E+00  0.91188000000E+02  0.91188000000E+02 0.  0.
    9900012    2    3    3    0    0 -0.21209409690E+02 -0.12505749423E+02  0.35740590970E+02  0.47787277991E+02  0.20000031670E+02 0.  0.
        -12    1    3    3    0    0  0.21209409690E+02  0.12505749423E+02 -0.35740590970E+02  0.43400722009E+02  0.00000000000E+00 0.  1.
         11    1    4    4    0    0 -0.11337680373E+01 -0.79276714159E+01  0.65202420677E+01  0.10327001546E+02  0.51100000000E-03 0.  1.
        -11    1    4    4    0    0 -0.68898202360E+01  0.31931298931E+01  0.13692390553E+02  0.15657179207E+02  0.51100000000E-03 0. -1.
         12    1    4    4    0    0 -0.13185821417E+02 -0.77712079001E+01  0.15527958350E+02  0.21803097238E+02  0.00000000000E+00 0. -1.
</event>
<event>
 8    1  0.5834107E-011  0.9118800E+02  0.7816164E-02  0.1184000E+00
        -11   -1    0    0    0    0  0.00000000000E+00  0.00000000000E+00  0.45593999997E+02  0.45594000000E+02  0.51100000000E-03 0.  1.
         11   -1    0    0    0    0 -0.00000000000E+00 -0.00000000000E+00 -0.45593999997E+02  0.45594000000E+02  0.51100000000E-03 0. -1.
         23    2    1    2    0    0 -0.17763568394E-14  0.71054273576E-14  0.00000000000E+00  0.91188000000E+02  0.91188000000E+02 0.  0.
    9900012    2    3    3    0    0  0.89451381307E+01 -0.35799460768E+02  0.22847472108E+02  0.47787264186E+02  0.19999968731E+02 0.  0.
        -12    1    3    3    0    0 -0.89451381307E+01  0.35799460768E+02 -0.22847472108E+02  0.43400735814E+02  0.00000000000E+00 0.  1.
         11    1    4    4    0    0  0.96568886468E+01 -0.17217294052E+02  0.42999161172E+01  0.20203464843E+02  0.51100000000E-03 0.  1.
        -11    1    4    4    0    0  0.28229089397E+01 -0.15341839029E+02  0.13627061938E+02  0.20713224206E+02  0.51100000000E-03 0. -1.
        -12    1    4    4    0    0 -0.35346594559E+01 -0.32403276867E+01  0.49204940526E+01  0.68705751366E+01  0.00000000000E+00 0.  1.
</event>
<event>
 8    1  0.5834107E-011  0.9118800E+02  0.7816164E-02  0.1184000E+00
        -11   -1    0    0    0    0  0.00000000000E+00  0.00000000000E+00  0.45593999997E+02  0.45594000000E+02  0.51100000000E-03 0.  1.
         11   -1    0    0    0    0 -0.00000000000E+00 -0.00000000000E+00 -0.45593999997E+02  0.45594000000E+02  0.51100000000E-03 0. -1.
         23    2    1    2    0    0  0.00000000000E+00  0.00000000000E+00  0.17763568394E-14  0.91188000000E+02  0.91188000000E+02 0.  0.
    9900012    2    3    3    0    0 -0.21729589164E+02 -0.36373000793E+02 -0.94048509786E+01  0.47787292011E+02  0.20000095597E+02 0.  0.
        -12    1    3    3    0    0  0.21729589164E+02  0.36373000793E+02  0.94048509786E+01  0.43400707989E+02  0.00000000000E+00 0.  1.
         11    1    4    4    0    0 -0.93598134867E+01 -0.98198864762E+01 -0.10115821101E+02  0.16922355502E+02  0.51100000000E-03 0. -1.
        -11    1    4    4    0    0  0.12376219104E+01 -0.63350329961E+01  0.71447184272E+00  0.64942144505E+01  0.51100000000E-03 0.  1.
         12    1    4    4    0    0 -0.13607397588E+02 -0.20218081321E+02 -0.35017201758E-02  0.24370722059E+02  0.00000000000E+00 0. -1.
</event>
<event>
 8    1  0.5834107E-011  0.9118800E+02  0.7816164E-02  0.1184000E+00
        -11   -1    0    0    0    0  0.00000000000E+00  0.00000000000E+00  0.45593999997E+02  0.45594000000E+02  0.51100000000E-03 0. -1.
         11   -1    0    0    0    0 -0.00000000000E+00 -0.00000000000E+00 -0.45593999997E+02  0.45594000000E+02  0.51100000000E-03 0.  1.
         23    2    1    2    0    0  0.35527136788E-14  0.00000000000E+00  0.00000000000E+00  0.91188000000E+02  0.91188000000E+02 0.  0.
    9900012    2    3    3    0    0 -0.20836021295E+02  0.29992162347E+02 -0.23451083974E+02  0.47787275061E+02  0.20000018314E+02 0.  0.
         12    1    3    3    0    0  0.20836021295E+02 -0.29992162347E+02  0.23451083974E+02  0.43400724939E+02  0.00000000000E+00 0. -1.
         11    1    4    4    0    0 -0.50184124156E+00  0.98701611059E+00  0.99311343278E+00  0.14873869657E+01  0.51100000000E-03 0. -1.
        -11    1    4    4    0    0 -0.20640789550E+02  0.28908093159E+02 -0.17951445917E+02  0.39799176551E+02  0.51100000000E-03 0.  1.
        -12    1    4    4    0    0  0.30660949641E+00  0.97053077397E-01 -0.64927514894E+01  0.65007115447E+01  0.00000000000E+00 0.  1.
</event>
<event>
 8    1  0.5834107E-011  0.9118800E+02  0.7816164E-02  0.1184000E+00
        -11   -1    0    0    0    0  0.00000000000E+00  0.00000000000E+00  0.45593999997E+02  0.45594000000E+02  0.51100000000E-03 0. -1.
         11   -1    0    0    0    0 -0.00000000000E+00 -0.00000000000E+00 -0.45593999997E+02  0.45594000000E+02  0.51100000000E-03 0.  1.
         23    2    1    2    0    0 -0.35527136788E-14  0.00000000000E+00  0.00000000000E+00  0.91188000000E+02  0.91188000000E+02 0.  0.
    9900012    2    3    3    0    0  0.15473108378E+02  0.21479980390E+02 -0.34392123588E+02  0.47787253402E+02  0.19999919559E+02 0.  0.
         12    1    3    3    0    0 -0.15473108378E+02 -0.21479980390E+02  0.34392123588E+02  0.43400746598E+02  0.00000000000E+00 0. -1.
         11    1    4    4    0    0  0.85237245196E+01  0.37211100475E+01 -0.66496712614E+01  0.11433226483E+02  0.51100000000E-03 0. -1.
        -11    1    4    4    0    0  0.91207023390E+01  0.15263791936E+02 -0.27852756164E+02  0.33044615016E+02  0.51100000000E-03 0.  1.
         12    1    4    4    0    0 -0.21713184807E+01  0.24950784068E+01  0.11030383738E+00  0.33094119020E+01  0.00000000000E+00 0. -1.
</event>
<event>
 8    1  0.5834107E-011  0.9118800E+02  0.7816164E-02  0.1184000E+00
        -11   -1    0    0    0    0  0.00000000000E+00  0.00000000000E+00  0.45593999997E+02  0.45594000000E+02  0.51100000000E-03 0. -1.
         11   -1    0    0    0    0 -0.00000000000E+00 -0.00000000000E+00 -0.45593999997E+02  0.45594000000E+02  0.51100000000E-03 0.  1.
         23    2    1    2    0    0  0.00000000000E+00 -0.35527136788E-14 -0.71054273576E-14  0.91188000000E+02  0.91188000000E+02 0.  0.
    9900012    2    3    3    0    0 -0.14703476686E+02  0.13231085166E+02  0.38631196768E+02  0.47787271837E+02  0.20000003616E+02 0.  0.
        -12    1    3    3    0    0  0.14703476686E+02 -0.13231085166E+02 -0.38631196768E+02  0.43400728163E+02  0.00000000000E+00 0.  1.
         11    1    4    4    0    0 -0.85772765173E+01  0.15241403795E+02  0.22831525010E+02  0.28760191179E+02  0.51100000000E-03 0. -1.
        -11    1    4    4    0    0 -0.43296467687E+01  0.23724832860E+01  0.11928013209E+02  0.12909377114E+02  0.51100000000E-03 0.  1.
        -12    1    4    4    0    0 -0.17965534005E+01 -0.43828019151E+01  0.38716585482E+01  0.61177035447E+01  0.00000000000E+00 0.  1.
</event>
<event>
 8    1  0.5834107E-011  0.9118800E+02  0.7816164E-02  0.1184000E+00
        -11   -1    0    0    0    0  0.00000000000E+00  0.00000000000E+00  0.45593999997E+02  0.45594000000E+02  0.51100000000E-03 0. -1.
         11   -1    0    0    0    0 -0.00000000000E+00 -0.00000000000E+00 -0.45593999997E+02  0.45594000000E+02  0.51100000000E-03 0.  1.
         23    2    1    2    0    0  0.00000000000E+00  0.00000000000E+00  0.00000000000E+00  0.91188000000E+02  0.91188000000E+02 0.  0.
    9900012    2    3    3    0    0  0.12844760633E+01  0.23392196026E+02  0.36534626663E+02  0.47787266607E+02  0.19999979767E+02 0.  0.
        -12    1    3    3    0    0 -0.12844760633E+01 -0.23392196026E+02 -0.36534626663E+02  0.43400733393E+02  0.00000000000E+00 0.  1.
         11    1    4    4    0    0  0.41964021945E+01  0.12135527713E+02  0.16571422311E+02  0.20964085049E+02  0.51100000000E-03 0. -1.
        -11    1    4    4    0    0 -0.33007968419E+01  0.67794215980E+01  0.13312548388E+01  0.76568960226E+01  0.51100000000E-03 0.  1.
         12    1    4    4    0    0  0.38887071066E+00  0.44772467144E+01  0.18631949513E+02  0.19166285535E+02  0.00000000000E+00 0. -1.
</event>
<event>
 8    1  0.5834107E-011  0.9118800E+02  0.7816164E-02  0.1184000E+00
        -11   -1    0    0    0    0  0.00000000000E+00  0.00000000000E+00  0.45593999997E+02  0.45594000000E+02  0.51100000000E-03 0. -1.
         11   -1    0    0    0    0 -0.00000000000E+00 -0.00000000000E+00 -0.45593999997E+02  0.45594000000E+02  0.51100000000E-03 0.  1.
         23    2    1    2    0    0  0.00000000000E+00  0.35527136788E-14  0.00000000000E+00  0.91188000000E+02  0.91188000000E+02 0.  0.
    9900012    2    3    3    0    0  0.21766603080E+02 -0.20322236484E+02  0.31572856164E+02  0.47787267844E+02  0.19999985408E+02 0.  0.
        -12    1    3    3    0    0 -0.21766603080E+02  0.20322236484E+02 -0.31572856164E+02  0.43400732156E+02  0.00000000000E+00 0.  1.
         11    1    4    4    0    0  0.38260889372E+01 -0.27674064593E+00  0.13069889300E+02  0.13621216852E+02  0.51100000000E-03 0. -1.
        -11    1    4    4    0    0  0.14965940863E+02 -0.13161963728E+02  0.17644176018E+02  0.26618294887E+02  0.51100000000E-03 0.  1.
        -12    1    4    4    0    0  0.29745732795E+01 -0.68835321104E+01  0.85879084608E+00  0.75477561055E+01  0.00000000000E+00 0.  1.
</event>
<event>
 8    1  0.5834107E-011  0.9118800E+02  0.7816164E-02  0.1184000E+00
        -11   -1    0    0    0    0  0.00000000000E+00  0.00000000000E+00  0.45593999997E+02  0.45594000000E+02  0.51100000000E-03 0. -1.
         11   -1    0    0    0    0 -0.00000000000E+00 -0.00000000000E+00 -0.45593999997E+02  0.45594000000E+02  0.51100000000E-03 0.  1.
         23    2    1    2    0    0  0.00000000000E+00  0.00000000000E+00  0.00000000000E+00  0.91188000000E+02  0.91188000000E+02 0.  0.
    9900012    2    3    3    0    0 -0.41536453609E+01  0.27615985430E+02 -0.33222401153E+02  0.47787270059E+02  0.19999995506E+02 0.  0.
         12    1    3    3    0    0  0.41536453609E+01 -0.27615985430E+02  0.33222401153E+02  0.43400729941E+02  0.00000000000E+00 0. -1.
         11    1    4    4    0    0 -0.27383663874E+01  0.91628558139E-01 -0.59025982774E+00  0.28027581397E+01  0.51100000000E-03 0. -1.
        -11    1    4    4    0    0 -0.23632952621E+01  0.10998694520E+02 -0.40525414227E+01  0.11957405149E+02  0.51100000000E-03 0.  1.
        -12    1    4    4    0    0  0.94801628856E+00  0.16525662352E+02 -0.28579599902E+02  0.33027106770E+02  0.00000000000E+00 0.  1.
</event>
<event>
 8    1  0.5834107E-011  0.9118800E+02  0.7816164E-02  0.1184000E+00
        -11   -1    0    0    0    0  0.00000000000E+00  0.00000000000E+00  0.45593999997E+02  0.45594000000E+02  0.51100000000E-03 0. -1.
         11   -1    0    0    0    0 -0.00000000000E+00 -0.00000000000E+00 -0.45593999997E+02  0.45594000000E+02  0.51100000000E-03 0.  1.
         23    2    1    2    0    0  0.00000000000E+00 -0.17763568394E-14  0.00000000000E+00  0.91188000000E+02  0.91188000000E+02 0.  0.
    9900012    2    3    3    0    0  0.98239427060E+01 -0.13355075190E+02 -0.40109294943E+02  0.47787269310E+02  0.19999992090E+02 0.  0.
         12    1    3    3    0    0 -0.98239427060E+01  0.13355075190E+02  0.40109294943E+02  0.43400730690E+02  0.00000000000E+00 0. -1.
         11    1    4    4    0    0  0.19739763863E+01 -0.58113794507E+00 -0.15491034696E+02  0.15627106587E+02  0.51100000000E-03 0.  1.
        -11    1    4    4    0    0  0.35341596159E+01 -0.99182628284E+01 -0.24841012550E+02  0.26980328510E+02  0.51100000000E-03 0. -1.
         12    1    4    4    0    0  0.43158067038E+01 -0.28556744170E+01  0.22275230261E+00  0.51798342125E+01  0.00000000000E+00 0. -1.
</event>
<event>
 8    1  0.5834107E-011  0.9118800E+02  0.7816164E-02  0.1184000E+00
        -11   -1    0    0    0    0  0.00000000000E+00  0.00000000000E+00  0.45593999997E+02  0.45594000000E+02  0.51100000000E-03 0. -1.
         11   -1    0    0    0    0 -0.00000000000E+00 -0.00000000000E+00 -0.45593999997E+02  0.45594000000E+02  0.51100000000E-03 0.  1.
         23    2    1    2    0    0  0.00000000000E+00 -0.35527136788E-14  0.00000000000E+00  0.91188000000E+02  0.91188000000E+02 0.  0.
    9900012    2    3    3    0    0  0.30117497979E+02 -0.29726066723E+02 -0.96395410688E+01  0.47787268677E+02  0.19999989207E+02 0.  0.
         12    1    3    3    0    0 -0.30117497979E+02  0.29726066723E+02  0.96395410688E+01  0.43400731323E+02  0.00000000000E+00 0. -1.
         11    1    4    4    0    0  0.33371552588E+01 -0.51303829529E+01  0.25492491376E+00  0.61255547861E+01  0.51100000000E-03 0. -1.
        -11    1    4    4    0    0  0.19471256143E+02 -0.14815960629E+02 -0.14696891618E+02  0.28541918798E+02  0.51100000000E-03 0.  1.
        -12    1    4    4    0    0  0.73090865776E+01 -0.97797231406E+01  0.48024256359E+01  0.13119795093E+02  0.00000000000E+00 0.  1.
</event>
<event>
 8    1  0.5834107E-011  0.9118800E+02  0.7816164E-02  0.1184000E+00
        -11   -1    0    0    0    0  0.00000000000E+00  0.00000000000E+00  0.45593999997E+02  0.45594000000E+02  0.51100000000E-03 0. -1.
         11   -1    0    0    0    0 -0.00000000000E+00 -0.00000000000E+00 -0.45593999997E+02  0.45594000000E+02  0.51100000000E-03 0.  1.
         23    2    1    2    0    0  0.00000000000E+00  0.00000000000E+00 -0.71054273576E-14  0.91188000000E+02  0.91188000000E+02 0.  0.
    9900012    2    3    3    0    0  0.23817312658E+02  0.89185490352E+01  0.35168431214E+02  0.47787268978E+02  0.19999990579E+02 0.  0.
        -12    1    3    3    0    0 -0.23817312658E+02 -0.89185490352E+01 -0.35168431214E+02  0.43400731022E+02  0.00000000000E+00 0.  1.
         11    1    4    4    0    0  0.13186856864E+02  0.49479780110E+01  0.16643543661E+02  0.21803284757E+02  0.51100000000E-03 0. -1.
        -11    1    4    4    0    0  0.13216864455E+02  0.42901976392E+01  0.10136236029E+02  0.17199842525E+02  0.51100000000E-03 0.  1.
         12    1    4    4    0    0 -0.25864086605E+01 -0.31962661499E+00  0.83886515248E+01  0.87841416960E+01  0.00000000000E+00 0. -1.
</event>
<event>
 8    1  0.5834107E-011  0.9118800E+02  0.7816164E-02  0.1184000E+00
        -11   -1    0    0    0    0  0.00000000000E+00  0.00000000000E+00  0.45593999997E+02  0.45594000000E+02  0.51100000000E-03 0. -1.
         11   -1    0    0    0    0 -0.00000000000E+00 -0.00000000000E+00 -0.45593999997E+02  0.45594000000E+02  0.51100000000E-03 0.  1.
         23    2    1    2    0    0  0.35527136788E-14  0.35527136788E-14  0.00000000000E+00  0.91188000000E+02  0.91188000000E+02 0.  0.
    9900012    2    3    3    0    0 -0.29191071532E+02 -0.29895024570E+02 -0.11738497748E+02  0.47787268663E+02  0.19999989140E+02 0.  0.
         12    1    3    3    0    0  0.29191071532E+02  0.29895024570E+02  0.11738497748E+02  0.43400731337E+02  0.00000000000E+00 0. -1.
         11    1    4    4    0    0  0.49811271958E+00 -0.25742599886E+01  0.32007135170E+01  0.41375715160E+01  0.51100000000E-03 0. -1.
        -11    1    4    4    0    0 -0.13868231363E+02 -0.12494570376E+02 -0.30262878610E+01  0.18910329148E+02  0.51100000000E-03 0.  1.
         12    1    4    4    0    0 -0.15820952889E+02 -0.14826194206E+02 -0.11912923404E+02  0.24739367998E+02  0.00000000000E+00 0. -1.
</event>
<event>
 8    1  0.5834107E-011  0.9118800E+02  0.7816164E-02  0.1184000E+00
        -11   -1    0    0    0    0  0.00000000000E+00  0.00000000000E+00  0.45593999997E+02  0.45594000000E+02  0.51100000000E-03 0. -1.
         11   -1    0    0    0    0 -0.00000000000E+00 -0.00000000000E+00 -0.45593999997E+02  0.45594000000E+02  0.51100000000E-03 0.  1.
         23    2    1    2    0    0  0.00000000000E+00  0.00000000000E+00  0.00000000000E+00  0.91188000000E+02  0.91188000000E+02 0.  0.
    9900012    2    3    3    0    0  0.11317242185E+02 -0.52503384228E+01 -0.41568937102E+02  0.47787279315E+02  0.20000037708E+02 0.  0.
         12    1    3    3    0    0 -0.11317242185E+02  0.52503384228E+01  0.41568937102E+02  0.43400720685E+02  0.00000000000E+00 0. -1.
         11    1    4    4    0    0  0.29092699701E+01 -0.38619279892E+01 -0.47968564187E+01  0.68108862357E+01  0.51100000000E-03 0. -1.
        -11    1    4    4    0    0  0.62839196154E+01 -0.39412854129E+01 -0.48065058612E+01  0.88387711416E+01  0.51100000000E-03 0.  1.
        -12    1    4    4    0    0  0.21240525992E+01  0.25528749792E+01 -0.31965574822E+02  0.32137621938E+02  0.00000000000E+00 0.  1.
</event>
<event>
 8    1  0.5834107E-011  0.9118800E+02  0.7816164E-02  0.1184000E+00
        -11   -1    0    0    0    0  0.00000000000E+00  0.00000000000E+00  0.45593999997E+02  0.45594000000E+02  0.51100000000E-03 0. -1.
         11   -1    0    0    0    0 -0.00000000000E+00 -0.00000000000E+00 -0.45593999997E+02  0.45594000000E+02  0.51100000000E-03 0.  1.
         23    2    1    2    0    0  0.00000000000E+00 -0.11102230246E-15  0.14210854715E-13  0.91188000000E+02  0.91188000000E+02 0.  0.
    9900012    2    3    3    0    0 -0.28664041768E+01  0.75400635543E+00 -0.43299407097E+02  0.47787268976E+02  0.19999990567E+02 0.  0.
         12    1    3    3    0    0  0.28664041768E+01 -0.75400635543E+00  0.43299407097E+02  0.43400731024E+02  0.00000000000E+00 0. -1.
         11    1    4    4    0    0  0.31765505826E+00 -0.71602407902E+00 -0.11577298811E+01  0.13978318771E+01  0.51100000000E-03 0. -1.
        -11    1    4    4    0    0 -0.50246013984E+01  0.39844436321E+00 -0.43547048725E+02  0.43837778571E+02  0.51100000000E-03 0.  1.
         12    1    4    4    0    0  0.18405421634E+01  0.10715860712E+01  0.14053715089E+01  0.25516585275E+01  0.00000000000E+00 0. -1.
</event>
<event>
 8    1  0.5834107E-011  0.9118800E+02  0.7816164E-02  0.1184000E+00
        -11   -1    0    0    0    0  0.00000000000E+00  0.00000000000E+00  0.45593999997E+02  0.45594000000E+02  0.51100000000E-03 0. -1.
         11   -1    0    0    0    0 -0.00000000000E+00 -0.00000000000E+00 -0.45593999997E+02  0.45594000000E+02  0.51100000000E-03 0.  1.
         23    2    1    2    0    0  0.00000000000E+00  0.35527136788E-14  0.00000000000E+00  0.91188000000E+02  0.91188000000E+02 0.  0.
    9900012    2    3    3    0    0 -0.11472986843E+02  0.30948318382E+02  0.28181474222E+02  0.47787270431E+02  0.19999997205E+02 0.  0.
        -12    1    3    3    0    0  0.11472986843E+02 -0.30948318382E+02 -0.28181474222E+02  0.43400729569E+02  0.00000000000E+00 0.  1.
         11    1    4    4    0    0 -0.60747379461E+01  0.19071016394E+02  0.12210018660E+02  0.23445482792E+02  0.51100000000E-03 0.  1.
        -11    1    4    4    0    0 -0.87912239940E+01  0.47773108628E+01  0.11676591804E+02  0.15376967022E+02  0.51100000000E-03 0. -1.
         12    1    4    4    0    0  0.33929750974E+01  0.70999911256E+01  0.42948637574E+01  0.89648206167E+01  0.00000000000E+00 0. -1.
</event>
<event>
 8    1  0.5834107E-011  0.9118800E+02  0.7816164E-02  0.1184000E+00
        -11   -1    0    0    0    0  0.00000000000E+00  0.00000000000E+00  0.45593999997E+02  0.45594000000E+02  0.51100000000E-03 0.  1.
         11   -1    0    0    0    0 -0.00000000000E+00 -0.00000000000E+00 -0.45593999997E+02  0.45594000000E+02  0.51100000000E-03 0. -1.
         23    2    1    2    0    0  0.44408920985E-15  0.00000000000E+00  0.00000000000E+00  0.91188000000E+02  0.91188000000E+02 0.  0.
    9900012    2    3    3    0    0 -0.23183046320E+01  0.41745161588E+02  0.11644335086E+02  0.47787267380E+02  0.19999983292E+02 0.  0.
        -12    1    3    3    0    0  0.23183046320E+01 -0.41745161588E+02 -0.11644335086E+02  0.43400732620E+02  0.00000000000E+00 0.  1.
         11    1    4    4    0    0  0.24268181059E+01  0.29660931398E+02  0.74482478811E+00  0.29769364483E+02  0.51100000000E-03 0. -1.
        -11    1    4    4    0    0  0.14433750458E+00 -0.33012491716E+00  0.18766294642E+01  0.19109040225E+01  0.51100000000E-03 0.  1.
         12    1    4    4    0    0 -0.48894602425E+01  0.12414355107E+02  0.90228808339E+01  0.16106998874E+02  0.00000000000E+00 0. -1.
</event>
<event>
 8    1  0.5834107E-011  0.9118800E+02  0.7816164E-02  0.1184000E+00
        -11   -1    0    0    0    0  0.00000000000E+00  0.00000000000E+00  0.45593999997E+02  0.45594000000E+02  0.51100000000E-03 0. -1.
         11   -1    0    0    0    0 -0.00000000000E+00 -0.00000000000E+00 -0.45593999997E+02  0.45594000000E+02  0.51100000000E-03 0.  1.
         23    2    1    2    0    0  0.35527136788E-14  0.35527136788E-14 -0.71054273576E-14  0.91188000000E+02  0.91188000000E+02 0.  0.
    9900012    2    3    3    0    0  0.19856209526E+02 -0.19246871205E+02  0.33450144372E+02  0.47787271130E+02  0.20000000392E+02 0.  0.
        -12    1    3    3    0    0 -0.19856209526E+02  0.19246871205E+02 -0.33450144372E+02  0.43400728870E+02  0.00000000000E+00 0.  1.
         11    1    4    4    0    0  0.18807272378E+02 -0.11391744028E+02  0.17313736688E+02  0.27986618315E+02  0.51100000000E-03 0. -1.
        -11    1    4    4    0    0  0.23914778377E+01 -0.92035253885E+01  0.14164491953E+02  0.17060389162E+02  0.51100000000E-03 0.  1.
        -12    1    4    4    0    0 -0.13425406898E+01  0.13483982119E+01  0.19719157305E+01  0.27402636533E+01  0.00000000000E+00 0.  1.
</event>
<event>
 8    1  0.5834107E-011  0.9118800E+02  0.7816164E-02  0.1184000E+00
        -11   -1    0    0    0    0  0.00000000000E+00  0.00000000000E+00  0.45593999997E+02  0.45594000000E+02  0.51100000000E-03 0. -1.
         11   -1    0    0    0    0 -0.00000000000E+00 -0.00000000000E+00 -0.45593999997E+02  0.45594000000E+02  0.51100000000E-03 0.  1.
         23    2    1    2    0    0 -0.71054273576E-14  0.00000000000E+00  0.00000000000E+00  0.91188000000E+02  0.91188000000E+02 0.  0.
    9900012    2    3    3    0    0  0.37949803070E+02 -0.18446362907E+02  0.10157138870E+02  0.47787270425E+02  0.19999997177E+02 0.  0.
        -12    1    3    3    0    0 -0.37949803070E+02  0.18446362907E+02 -0.10157138870E+02  0.43400729575E+02  0.00000000000E+00 0.  1.
         11    1    4    4    0    0  0.13012080302E+01 -0.32306831716E+01  0.15276162930E+01  0.38031655095E+01  0.51100000000E-03 0. -1.
        -11    1    4    4    0    0 -0.64348276103E+00 -0.12367812825E+01 -0.22965052738E+01  0.26865656028E+01  0.51100000000E-03 0.  1.
         12    1    4    4    0    0  0.37292077801E+02 -0.13978898453E+02  0.10926027851E+02  0.41297539313E+02  0.00000000000E+00 0. -1.
</event>
<event>
 8    1  0.5834107E-011  0.9118800E+02  0.7816164E-02  0.1184000E+00
        -11   -1    0    0    0    0  0.00000000000E+00  0.00000000000E+00  0.45593999997E+02  0.45594000000E+02  0.51100000000E-03 0. -1.
         11   -1    0    0    0    0 -0.00000000000E+00 -0.00000000000E+00 -0.45593999997E+02  0.45594000000E+02  0.51100000000E-03 0.  1.
         23    2    1    2    0    0  0.00000000000E+00  0.00000000000E+00  0.00000000000E+00  0.91188000000E+02  0.91188000000E+02 0.  0.
    9900012    2    3    3    0    0 -0.91567144228E+01  0.35065774973E+02  0.23878216792E+02  0.47787271542E+02  0.20000002270E+02 0.  0.
        -12    1    3    3    0    0  0.91567144228E+01 -0.35065774973E+02 -0.23878216792E+02  0.43400728458E+02  0.00000000000E+00 0.  1.
         11    1    4    4    0    0 -0.37363809782E+01  0.22298365103E+02  0.54085306085E+01  0.23247146765E+02  0.51100000000E-03 0. -1.
        -11    1    4    4    0    0 -0.15294233019E+01  0.43404529837E+01  0.92877655199E+00  0.46948156391E+01  0.51100000000E-03 0.  1.
        -12    1    4    4    0    0 -0.38909101426E+01  0.84269568861E+01  0.17540909632E+02  0.19845309139E+02  0.00000000000E+00 0.  1.
</event>
<event>
 8    1  0.5834107E-011  0.9118800E+02  0.7816164E-02  0.1184000E+00
        -11   -1    0    0    0    0  0.00000000000E+00  0.00000000000E+00  0.45593999997E+02  0.45594000000E+02  0.51100000000E-03 0. -1.
         11   -1    0    0    0    0 -0.00000000000E+00 -0.00000000000E+00 -0.45593999997E+02  0.45594000000E+02  0.51100000000E-03 0.  1.
         23    2    1    2    0    0  0.00000000000E+00  0.00000000000E+00  0.00000000000E+00  0.91188000000E+02  0.91188000000E+02 0.  0.
    9900012    2    3    3    0    0 -0.15968307029E+02 -0.12413780395E+02 -0.38399665852E+02  0.47787272925E+02  0.20000008574E+02 0.  0.
         12    1    3    3    0    0  0.15968307029E+02  0.12413780395E+02  0.38399665852E+02  0.43400727075E+02  0.00000000000E+00 0. -1.
         11    1    4    4    0    0 -0.58526853891E+01 -0.50651758013E+01 -0.17103669875E+02  0.18773530718E+02  0.51100000000E-03 0. -1.
        -11    1    4    4    0    0  0.27664839069E+01 -0.55866107103E+01 -0.41240048611E+01  0.74746952306E+01  0.51100000000E-03 0.  1.
         12    1    4    4    0    0 -0.12882105547E+02 -0.17619938834E+01 -0.17171991116E+02  0.21539046976E+02  0.00000000000E+00 0. -1.
</event>
<event>
 8    1  0.5834107E-011  0.9118800E+02  0.7816164E-02  0.1184000E+00
        -11   -1    0    0    0    0  0.00000000000E+00  0.00000000000E+00  0.45593999997E+02  0.45594000000E+02  0.51100000000E-03 0. -1.
         11   -1    0    0    0    0 -0.00000000000E+00 -0.00000000000E+00 -0.45593999997E+02  0.45594000000E+02  0.51100000000E-03 0.  1.
         23    2    1    2    0    0 -0.17763568394E-14  0.00000000000E+00  0.00000000000E+00  0.91188000000E+02  0.91188000000E+02 0.  0.
    9900012    2    3    3    0    0  0.11483981917E+02 -0.32324903644E+02 -0.26586503002E+02  0.47787269844E+02  0.19999994525E+02 0.  0.
         12    1    3    3    0    0 -0.11483981917E+02  0.32324903644E+02  0.26586503002E+02  0.43400730156E+02  0.00000000000E+00 0. -1.
         11    1    4    4    0    0  0.75706864184E+01 -0.22681925292E+02 -0.10929788847E+02  0.26291544502E+02  0.51100000000E-03 0.  1.
        -11    1    4    4    0    0  0.53365507340E+01 -0.13156520611E+01 -0.29528583737E+01  0.62393178248E+01  0.51100000000E-03 0. -1.
        -12    1    4    4    0    0 -0.14232552353E+01 -0.83273262906E+01 -0.12703855781E+02  0.15256407516E+02  0.00000000000E+00 0.  1.
</event>
<event>
 8    1  0.5834107E-011  0.9118800E+02  0.7816164E-02  0.1184000E+00
        -11   -1    0    0    0    0  0.00000000000E+00  0.00000000000E+00  0.45593999997E+02  0.45594000000E+02  0.51100000000E-03 0. -1.
         11   -1    0    0    0    0 -0.00000000000E+00 -0.00000000000E+00 -0.45593999997E+02  0.45594000000E+02  0.51100000000E-03 0.  1.
         23    2    1    2    0    0 -0.17763568394E-14  0.00000000000E+00  0.35527136788E-14  0.91188000000E+02  0.91188000000E+02 0.  0.
    9900012    2    3    3    0    0  0.15114021428E+02  0.25569887092E+02 -0.31644429410E+02  0.47787277860E+02  0.20000031074E+02 0.  0.
         12    1    3    3    0    0 -0.15114021428E+02 -0.25569887092E+02  0.31644429410E+02  0.43400722140E+02  0.00000000000E+00 0. -1.
         11    1    4    4    0    0 -0.19691279236E+00  0.17446510099E+02 -0.15191351636E+02  0.23134317671E+02  0.51100000000E-03 0. -1.
        -11    1    4    4    0    0  0.27475061024E+00  0.19814829571E+01 -0.27611026545E+01  0.34096115229E+01  0.51100000000E-03 0.  1.
        -12    1    4    4    0    0  0.15036183610E+02  0.61418940351E+01 -0.13691975119E+02  0.21243348666E+02  0.00000000000E+00 0.  1.
</event>
<event>
 8    1  0.5834107E-011  0.9118800E+02  0.7816164E-02  0.1184000E+00
        -11   -1    0    0    0    0  0.00000000000E+00  0.00000000000E+00  0.45593999997E+02  0.45594000000E+02  0.51100000000E-03 0. -1.
         11   -1    0    0    0    0 -0.00000000000E+00 -0.00000000000E+00 -0.45593999997E+02  0.45594000000E+02  0.51100000000E-03 0.  1.
         23    2    1    2    0    0  0.17763568394E-14  0.00000000000E+00  0.00000000000E+00  0.91188000000E+02  0.91188000000E+02 0.  0.
    9900012    2    3    3    0    0 -0.11746798314E+02 -0.14407862221E+02  0.39217976365E+02  0.47787269193E+02  0.19999991561E+02 0.  0.
        -12    1    3    3    0    0  0.11746798314E+02  0.14407862221E+02 -0.39217976365E+02  0.43400730807E+02  0.00000000000E+00 0.  1.
         11    1    4    4    0    0 -0.52353039795E+01 -0.83133998499E+01  0.32304407456E+02  0.33765304177E+02  0.51100000000E-03 0. -1.
        -11    1    4    4    0    0 -0.25731834143E+01 -0.67079061531E+00  0.68183693893E+01  0.73185650454E+01  0.51100000000E-03 0.  1.
        -12    1    4    4    0    0 -0.39383109200E+01 -0.54236717560E+01  0.95199518854E-01  0.67033999707E+01  0.00000000000E+00 0.  1.
</event>
<event>
 8    1  0.5834107E-011  0.9118800E+02  0.7816164E-02  0.1184000E+00
        -11   -1    0    0    0    0  0.00000000000E+00  0.00000000000E+00  0.45593999997E+02  0.45594000000E+02  0.51100000000E-03 0.  1.
         11   -1    0    0    0    0 -0.00000000000E+00 -0.00000000000E+00 -0.45593999997E+02  0.45594000000E+02  0.51100000000E-03 0. -1.
         23    2    1    2    0    0  0.00000000000E+00  0.00000000000E+00  0.00000000000E+00  0.91188000000E+02  0.91188000000E+02 0.  0.
    9900012    2    3    3    0    0 -0.15699529746E+02 -0.40138696722E+02  0.51022689500E+01  0.47787270085E+02  0.19999995623E+02 0.  0.
        -12    1    3    3    0    0  0.15699529746E+02  0.40138696722E+02 -0.51022689500E+01  0.43400729915E+02  0.00000000000E+00 0.  1.
         11    1    4    4    0    0 -0.27181953682E+01  0.12315525400E+00  0.20667658958E+01  0.34169101254E+01  0.51100000000E-03 0. -1.
        -11    1    4    4    0    0  0.13551938477E+01 -0.41508435113E-01  0.88106043791E+00  0.16169542577E+01  0.51100000000E-03 0.  1.
         12    1    4    4    0    0 -0.14336528225E+02 -0.40220343541E+02  0.21544426163E+01  0.42753405701E+02  0.00000000000E+00 0. -1.
</event>
<event>
 8    1  0.5834107E-011  0.9118800E+02  0.7816164E-02  0.1184000E+00
        -11   -1    0    0    0    0  0.00000000000E+00  0.00000000000E+00  0.45593999997E+02  0.45594000000E+02  0.51100000000E-03 0. -1.
         11   -1    0    0    0    0 -0.00000000000E+00 -0.00000000000E+00 -0.45593999997E+02  0.45594000000E+02  0.51100000000E-03 0.  1.
         23    2    1    2    0    0  0.00000000000E+00 -0.88817841970E-15  0.00000000000E+00  0.91188000000E+02  0.91188000000E+02 0.  0.
    9900012    2    3    3    0    0  0.18817512158E+02 -0.62860633526E+01 -0.38600644860E+02  0.47787272588E+02  0.20000007037E+02 0.  0.
         12    1    3    3    0    0 -0.18817512158E+02  0.62860633526E+01  0.38600644860E+02  0.43400727412E+02  0.00000000000E+00 0. -1.
         11    1    4    4    0    0  0.10396798326E+02 -0.13547085458E+01 -0.13290415277E+02  0.16928195095E+02  0.51100000000E-03 0. -1.
        -11    1    4    4    0    0  0.78412852083E+01 -0.97634199579E+01 -0.15659448453E+02  0.20050647099E+02  0.51100000000E-03 0.  1.
         12    1    4    4    0    0  0.57942862371E+00  0.48320651510E+01 -0.96507811301E+01  0.10808430394E+02  0.00000000000E+00 0. -1.
</event>
<event>
 8    1  0.5834107E-011  0.9118800E+02  0.7816164E-02  0.1184000E+00
        -11   -1    0    0    0    0  0.00000000000E+00  0.00000000000E+00  0.45593999997E+02  0.45594000000E+02  0.51100000000E-03 0. -1.
         11   -1    0    0    0    0 -0.00000000000E+00 -0.00000000000E+00 -0.45593999997E+02  0.45594000000E+02  0.51100000000E-03 0.  1.
         23    2    1    2    0    0 -0.11102230246E-15 -0.35527136788E-14 -0.71054273576E-14  0.91188000000E+02  0.91188000000E+02 0.  0.
    9900012    2    3    3    0    0 -0.20737925680E+00  0.28428691196E+02  0.32793134720E+02  0.47787272194E+02  0.20000005243E+02 0.  0.
        -12    1    3    3    0    0  0.20737925680E+00 -0.28428691196E+02 -0.32793134720E+02  0.43400727806E+02  0.00000000000E+00 0.  1.
         11    1    4    4    0    0 -0.37416311648E+01  0.63728679029E+01  0.13835100615E+01  0.75184672263E+01  0.51100000000E-03 0. -1.
        -11    1    4    4    0    0  0.29844349130E+01  0.22177287581E+01  0.11788906815E+02  0.12361371151E+02  0.51100000000E-03 0.  1.
        -12    1    4    4    0    0  0.54981699496E+00  0.19838094535E+02  0.19620717844E+02  0.27907433817E+02  0.00000000000E+00 0.  1.
</event>
<event>
 8    1  0.5834107E-011  0.9118800E+02  0.7816164E-02  0.1184000E+00
        -11   -1    0    0    0    0  0.00000000000E+00  0.00000000000E+00  0.45593999997E+02  0.45594000000E+02  0.51100000000E-03 0. -1.
         11   -1    0    0    0    0 -0.00000000000E+00 -0.00000000000E+00 -0.45593999997E+02  0.45594000000E+02  0.51100000000E-03 0.  1.
         23    2    1    2    0    0  0.00000000000E+00  0.00000000000E+00  0.00000000000E+00  0.91188000000E+02  0.91188000000E+02 0.  0.
    9900012    2    3    3    0    0 -0.34196838788E+02 -0.21285464437E+01  0.26639612793E+02  0.47787268867E+02  0.19999990073E+02 0.  0.
        -12    1    3    3    0    0  0.34196838788E+02  0.21285464437E+01 -0.26639612793E+02  0.43400731133E+02  0.00000000000E+00 0.  1.
         11    1    4    4    0    0 -0.16655544732E+02  0.53612703396E+01  0.19766502150E+02  0.26398200648E+02  0.51100000000E-03 0. -1.
        -11    1    4    4    0    0 -0.18738568394E+01 -0.35923204334E+01  0.20398051377E+01  0.45361779961E+01  0.51100000000E-03 0.  1.
         12    1    4    4    0    0 -0.15667437217E+02 -0.38974963499E+01  0.48333055062E+01  0.16852890223E+02  0.00000000000E+00 0. -1.
</event>
<event>
 8    1  0.5834107E-011  0.9118800E+02  0.7816164E-02  0.1184000E+00
        -11   -1    0    0    0    0  0.00000000000E+00  0.00000000000E+00  0.45593999997E+02  0.45594000000E+02  0.51100000000E-03 0. -1.
         11   -1    0    0    0    0 -0.00000000000E+00 -0.00000000000E+00 -0.45593999997E+02  0.45594000000E+02  0.51100000000E-03 0.  1.
         23    2    1    2    0    0 -0.88817841970E-15  0.00000000000E+00 -0.71054273576E-14  0.91188000000E+02  0.91188000000E+02 0.  0.
    9900012    2    3    3    0    0  0.64478231841E+01 -0.18368047169E+02  0.38789995980E+02  0.47787269951E+02  0.19999995015E+02 0.  0.
        -12    1    3    3    0    0 -0.64478231841E+01  0.18368047169E+02 -0.38789995980E+02  0.43400730049E+02  0.00000000000E+00 0.  1.
         11    1    4    4    0    0 -0.43147439100E+01 -0.33139657441E+01  0.16017952694E+02  0.16916683857E+02  0.51100000000E-03 0.  1.
        -11    1    4    4    0    0  0.14119779106E+01 -0.55834915547E+01  0.13422516409E+02  0.14605923681E+02  0.51100000000E-03 0. -1.
        -12    1    4    4    0    0  0.93505891835E+01 -0.94705898706E+01  0.93495268778E+01  0.16264662413E+02  0.00000000000E+00 0.  1.
</event>
<event>
 8    1  0.5834107E-011  0.9118800E+02  0.7816164E-02  0.1184000E+00
        -11   -1    0    0    0    0  0.00000000000E+00  0.00000000000E+00  0.45593999997E+02  0.45594000000E+02  0.51100000000E-03 0. -1.
         11   -1    0    0    0    0 -0.00000000000E+00 -0.00000000000E+00 -0.45593999997E+02  0.45594000000E+02  0.51100000000E-03 0.  1.
         23    2    1    2    0    0  0.00000000000E+00  0.00000000000E+00  0.00000000000E+00  0.91188000000E+02  0.91188000000E+02 0.  0.
    9900012    2    3    3    0    0  0.12668705817E+02 -0.40789205704E+02 -0.77050534730E+01  0.47787271227E+02  0.20000000831E+02 0.  0.
         12    1    3    3    0    0 -0.12668705817E+02  0.40789205704E+02  0.77050534730E+01  0.43400728773E+02  0.00000000000E+00 0. -1.
         11    1    4    4    0    0  0.80910895997E+01 -0.78612663579E+01 -0.57545888608E+00  0.11295857331E+02  0.51100000000E-03 0. -1.
        -11    1    4    4    0    0  0.35330357770E+01 -0.14750993774E+02  0.32799723200E+01  0.15518775010E+02  0.51100000000E-03 0.  1.
        -12    1    4    4    0    0  0.10445804401E+01 -0.18176945572E+02 -0.10409566907E+02  0.20972638885E+02  0.00000000000E+00 0.  1.
</event>
<event>
 8    1  0.5834107E-011  0.9118800E+02  0.7816164E-02  0.1184000E+00
        -11   -1    0    0    0    0  0.00000000000E+00  0.00000000000E+00  0.45593999997E+02  0.45594000000E+02  0.51100000000E-03 0. -1.
         11   -1    0    0    0    0 -0.00000000000E+00 -0.00000000000E+00 -0.45593999997E+02  0.45594000000E+02  0.51100000000E-03 0.  1.
         23    2    1    2    0    0  0.00000000000E+00  0.00000000000E+00  0.00000000000E+00  0.91188000000E+02  0.91188000000E+02 0.  0.
    9900012    2    3    3    0    0  0.23319322102E+02  0.17831908568E+02 -0.31966470520E+02  0.47787274384E+02  0.20000015226E+02 0.  0.
         12    1    3    3    0    0 -0.23319322102E+02 -0.17831908568E+02  0.31966470520E+02  0.43400725616E+02  0.00000000000E+00 0. -1.
         11    1    4    4    0    0  0.16215270318E+02  0.31716393113E+01 -0.75160019969E+01  0.18151709938E+02  0.51100000000E-03 0. -1.
        -11    1    4    4    0    0  0.34480283116E+01  0.59359085879E+01 -0.71121833327E+01  0.98846882611E+01  0.51100000000E-03 0.  1.
         12    1    4    4    0    0  0.36560234727E+01  0.87243606690E+01 -0.17338285190E+02  0.19750876185E+02  0.00000000000E+00 0. -1.
</event>
<event>
 8    1  0.5834107E-011  0.9118800E+02  0.7816164E-02  0.1184000E+00
        -11   -1    0    0    0    0  0.00000000000E+00  0.00000000000E+00  0.45593999997E+02  0.45594000000E+02  0.51100000000E-03 0.  1.
         11   -1    0    0    0    0 -0.00000000000E+00 -0.00000000000E+00 -0.45593999997E+02  0.45594000000E+02  0.51100000000E-03 0. -1.
         23    2    1    2    0    0  0.00000000000E+00  0.17763568394E-14 -0.88817841970E-15  0.91188000000E+02  0.91188000000E+02 0.  0.
    9900012    2    3    3    0    0 -0.41390021204E+02  0.10893712545E+02 -0.71983648048E+01  0.47787270926E+02  0.19999999461E+02 0.  0.
         12    1    3    3    0    0  0.41390021204E+02 -0.10893712545E+02  0.71983648048E+01  0.43400729074E+02  0.00000000000E+00 0. -1.
         11    1    4    4    0    0  0.69485511257E+00 -0.26801182184E+01 -0.96809134889E+00  0.29330970684E+01  0.51100000000E-03 0. -1.
        -11    1    4    4    0    0 -0.22354231052E+02  0.90607362365E+01 -0.45326249870E+01  0.24542886477E+02  0.51100000000E-03 0.  1.
        -12    1    4    4    0    0 -0.19730645264E+02  0.45130945267E+01 -0.16976484690E+01  0.20311287381E+02  0.00000000000E+00 0.  1.
</event>
<event>
 8    1  0.5834107E-011  0.9118800E+02  0.7816164E-02  0.1184000E+00
        -11   -1    0    0    0    0  0.00000000000E+00  0.00000000000E+00  0.45593999997E+02  0.45594000000E+02  0.51100000000E-03 0. -1.
         11   -1    0    0    0    0 -0.00000000000E+00 -0.00000000000E+00 -0.45593999997E+02  0.45594000000E+02  0.51100000000E-03 0.  1.
         23    2    1    2    0    0  0.00000000000E+00  0.35527136788E-14  0.00000000000E+00  0.91188000000E+02  0.91188000000E+02 0.  0.
    9900012    2    3    3    0    0 -0.30954736739E+02  0.23541333298E+02  0.19267419907E+02  0.47787267634E+02  0.19999984449E+02 0.  0.
        -12    1    3    3    0    0  0.30954736739E+02 -0.23541333298E+02 -0.19267419907E+02  0.43400732366E+02  0.00000000000E+00 0.  1.
         11    1    4    4    0    0 -0.31250984578E+01  0.61355145451E+01 -0.23976613063E+01  0.72910602181E+01  0.51100000000E-03 0. -1.
        -11    1    4    4    0    0 -0.10369233946E+02  0.11070453514E+02  0.13100742666E+02  0.20042589960E+02  0.51100000000E-03 0.  1.
        -12    1    4    4    0    0 -0.17460404335E+02  0.63353652384E+01  0.85643385473E+01  0.20453617455E+02  0.00000000000E+00 0.  1.
</event>
<event>
 8    1  0.5834107E-011  0.9118800E+02  0.7816164E-02  0.1184000E+00
        -11   -1    0    0    0    0  0.00000000000E+00  0.00000000000E+00  0.45593999997E+02  0.45594000000E+02  0.51100000000E-03 0. -1.
         11   -1    0    0    0    0 -0.00000000000E+00 -0.00000000000E+00 -0.45593999997E+02  0.45594000000E+02  0.51100000000E-03 0.  1.
         23    2    1    2    0    0 -0.35527136788E-14  0.00000000000E+00  0.00000000000E+00  0.91188000000E+02  0.91188000000E+02 0.  0.
    9900012    2    3    3    0    0 -0.15589723015E+02  0.32286749511E+02 -0.24457087670E+02  0.47787276562E+02  0.20000025155E+02 0.  0.
         12    1    3    3    0    0  0.15589723015E+02 -0.32286749511E+02  0.24457087670E+02  0.43400723438E+02  0.00000000000E+00 0. -1.
         11    1    4    4    0    0  0.19203929049E+01  0.65618797066E+00 -0.92143621947E-01  0.20314975437E+01  0.51100000000E-03 0. -1.
        -11    1    4    4    0    0  0.41503306061E+00 -0.47604925745E+00 -0.33372600724E+01  0.33964953097E+01  0.51100000000E-03 0.  1.
        -12    1    4    4    0    0 -0.17925148980E+02  0.32106610798E+02 -0.21027683975E+02  0.42359283708E+02  0.00000000000E+00 0.  1.
</event>
<event>
 8    1  0.5834107E-011  0.9118800E+02  0.7816164E-02  0.1184000E+00
        -11   -1    0    0    0    0  0.00000000000E+00  0.00000000000E+00  0.45593999997E+02  0.45594000000E+02  0.51100000000E-03 0. -1.
         11   -1    0    0    0    0 -0.00000000000E+00 -0.00000000000E+00 -0.45593999997E+02  0.45594000000E+02  0.51100000000E-03 0.  1.
         23    2    1    2    0    0 -0.71054273576E-14  0.00000000000E+00 -0.35527136788E-14  0.91188000000E+02  0.91188000000E+02 0.  0.
    9900012    2    3    3    0    0  0.34628410276E+02  0.12421977312E+02  0.23025873683E+02  0.47787272156E+02  0.20000005066E+02 0.  0.
        -12    1    3    3    0    0 -0.34628410276E+02 -0.12421977312E+02 -0.23025873683E+02  0.43400727844E+02  0.00000000000E+00 0.  1.
         11    1    4    4    0    0  0.14635059061E+02  0.69131980512E+01  0.91312152449E+01  0.18583765849E+02  0.51100000000E-03 0.  1.
        -11    1    4    4    0    0  0.21983137747E+02  0.62980628807E+01  0.10436690653E+02  0.25136595897E+02  0.51100000000E-03 0. -1.
        -12    1    4    4    0    0 -0.19897865319E+01 -0.78928362038E+00  0.34579677856E+01  0.40669104099E+01  0.00000000000E+00 0.  1.
</event>
<event>
 8    1  0.5834107E-011  0.9118800E+02  0.7816164E-02  0.1184000E+00
        -11   -1    0    0    0    0  0.00000000000E+00  0.00000000000E+00  0.45593999997E+02  0.45594000000E+02  0.51100000000E-03 0. -1.
         11   -1    0    0    0    0 -0.00000000000E+00 -0.00000000000E+00 -0.45593999997E+02  0.45594000000E+02  0.51100000000E-03 0.  1.
         23    2    1    2    0    0  0.00000000000E+00  0.00000000000E+00  0.71054273576E-14  0.91188000000E+02  0.91188000000E+02 0.  0.
    9900012    2    3    3    0    0 -0.41600807596E+01 -0.10426608599E+02  0.41923777094E+02  0.47787268155E+02  0.19999986826E+02 0.  0.
        -12    1    3    3    0    0  0.41600807596E+01  0.10426608599E+02 -0.41923777094E+02  0.43400731845E+02  0.00000000000E+00 0.  1.
         11    1    4    4    0    0 -0.19231113569E+00 -0.52138658786E+01  0.20395367193E+01  0.56018828320E+01  0.51100000000E-03 0. -1.
        -11    1    4    4    0    0  0.18075021458E+01 -0.68484772310E+01  0.15011357863E+02  0.16598480941E+02  0.51100000000E-03 0.  1.
        -12    1    4    4    0    0 -0.57752717698E+01  0.16357345106E+01  0.24872882512E+02  0.25586904382E+02  0.00000000000E+00 0.  1.
</event>
<event>
 8    1  0.5834107E-011  0.9118800E+02  0.7816164E-02  0.1184000E+00
        -11   -1    0    0    0    0  0.00000000000E+00  0.00000000000E+00  0.45593999997E+02  0.45594000000E+02  0.51100000000E-03 0. -1.
         11   -1    0    0    0    0 -0.00000000000E+00 -0.00000000000E+00 -0.45593999997E+02  0.45594000000E+02  0.51100000000E-03 0.  1.
         23    2    1    2    0    0  0.14210854715E-13 -0.88817841970E-15 -0.35527136788E-14  0.91188000000E+02  0.91188000000E+02 0.  0.
    9900012    2    3    3    0    0 -0.35272914889E+02 -0.60849575412E+01  0.24544208462E+02  0.47787269568E+02  0.19999993266E+02 0.  0.
        -12    1    3    3    0    0  0.35272914889E+02  0.60849575412E+01 -0.24544208462E+02  0.43400730432E+02  0.00000000000E+00 0.  1.
         11    1    4    4    0    0 -0.26475350185E+02 -0.10587449641E+02  0.20255102683E+02  0.34975812246E+02  0.51100000000E-03 0.  1.
        -11    1    4    4    0    0 -0.81758380684E+01  0.36018869146E+01  0.60132915083E+01  0.10769289322E+02  0.51100000000E-03 0. -1.
        -12    1    4    4    0    0 -0.62172663540E+00  0.90060518546E+00 -0.17241857294E+01  0.20421679996E+01  0.00000000000E+00 0.  1.
</event>
<event>
 8    1  0.5834107E-011  0.9118800E+02  0.7816164E-02  0.1184000E+00
        -11   -1    0    0    0    0  0.00000000000E+00  0.00000000000E+00  0.45593999997E+02  0.45594000000E+02  0.51100000000E-03 0. -1.
         11   -1    0    0    0    0 -0.00000000000E+00 -0.00000000000E+00 -0.45593999997E+02  0.45594000000E+02  0.51100000000E-03 0.  1.
         23    2    1    2    0    0 -0.44408920985E-15 -0.35527136788E-14  0.71054273576E-14  0.91188000000E+02  0.91188000000E+02 0.  0.
    9900012    2    3    3    0    0 -0.38401621411E+01  0.25960660316E+02  0.34567615573E+02  0.47787276783E+02  0.20000026166E+02 0.  0.
        -12    1    3    3    0    0  0.38401621411E+01 -0.25960660316E+02 -0.34567615573E+02  0.43400723217E+02  0.00000000000E+00 0.  1.
         11    1    4    4    0    0 -0.18850214531E+01  0.22142028014E+02  0.25621686906E+02  0.33915977807E+02  0.51100000000E-03 0. -1.
        -11    1    4    4    0    0  0.17617868597E+01  0.46922913976E+01  0.87058166718E+01  0.10045533121E+02  0.51100000000E-03 0.  1.
        -12    1    4    4    0    0 -0.37169275477E+01 -0.87365909546E+00  0.24011199556E+00  0.38257658554E+01  0.00000000000E+00 0.  1.
</event>
<event>
 8    1  0.5834107E-011  0.9118800E+02  0.7816164E-02  0.1184000E+00
        -11   -1    0    0    0    0  0.00000000000E+00  0.00000000000E+00  0.45593999997E+02  0.45594000000E+02  0.51100000000E-03 0. -1.
         11   -1    0    0    0    0 -0.00000000000E+00 -0.00000000000E+00 -0.45593999997E+02  0.45594000000E+02  0.51100000000E-03 0.  1.
         23    2    1    2    0    0  0.00000000000E+00 -0.88817841970E-15 -0.71054273576E-14  0.91188000000E+02  0.91188000000E+02 0.  0.
    9900012    2    3    3    0    0  0.70494256106E+01 -0.67475485966E+01  0.42289456079E+02  0.47787286769E+02  0.20000071692E+02 0.  0.
        -12    1    3    3    0    0 -0.70494256106E+01  0.67475485966E+01 -0.42289456079E+02  0.43400713231E+02  0.00000000000E+00 0.  1.
         11    1    4    4    0    0 -0.99676780030E-01 -0.10140863249E+02  0.24287613563E+02  0.26319863520E+02  0.51100000000E-03 0. -1.
        -11    1    4    4    0    0  0.26837012952E+01 -0.24196478345E+01  0.27341425609E+01  0.45312784166E+01  0.51100000000E-03 0.  1.
        -12    1    4    4    0    0  0.44654010954E+01  0.58129624867E+01  0.15267699956E+02  0.16936144832E+02  0.00000000000E+00 0.  1.
</event>
<event>
 8    1  0.5834107E-011  0.9118800E+02  0.7816164E-02  0.1184000E+00
        -11   -1    0    0    0    0  0.00000000000E+00  0.00000000000E+00  0.45593999997E+02  0.45594000000E+02  0.51100000000E-03 0. -1.
         11   -1    0    0    0    0 -0.00000000000E+00 -0.00000000000E+00 -0.45593999997E+02  0.45594000000E+02  0.51100000000E-03 0.  1.
         23    2    1    2    0    0  0.00000000000E+00  0.00000000000E+00  0.00000000000E+00  0.91188000000E+02  0.91188000000E+02 0.  0.
    9900012    2    3    3    0    0 -0.27805454248E+02  0.29788051144E+02  0.14938277761E+02  0.47787269368E+02  0.19999992358E+02 0.  0.
        -12    1    3    3    0    0  0.27805454248E+02 -0.29788051144E+02 -0.14938277761E+02  0.43400730632E+02  0.00000000000E+00 0.  1.
         11    1    4    4    0    0 -0.96653520373E+01  0.10651111680E+02  0.11325640583E+02  0.18306702185E+02  0.51100000000E-03 0. -1.
        -11    1    4    4    0    0  0.37942812597E+00  0.50605003392E+00  0.31439636538E+01  0.32069549509E+01  0.51100000000E-03 0.  1.
        -12    1    4    4    0    0 -0.18519530337E+02  0.18630889431E+02  0.46867352449E+00  0.26273612232E+02  0.00000000000E+00 0.  1.
</event>
<event>
 8    1  0.5834107E-011  0.9118800E+02  0.7816164E-02  0.1184000E+00
        -11   -1    0    0    0    0  0.00000000000E+00  0.00000000000E+00  0.45593999997E+02  0.45594000000E+02  0.51100000000E-03 0. -1.
         11   -1    0    0    0    0 -0.00000000000E+00 -0.00000000000E+00 -0.45593999997E+02  0.45594000000E+02  0.51100000000E-03 0.  1.
         23    2    1    2    0    0  0.88817841970E-15  0.00000000000E+00  0.00000000000E+00  0.91188000000E+02  0.91188000000E+02 0.  0.
    9900012    2    3    3    0    0  0.59563037230E+01  0.81035874235E+01  0.42219399103E+02  0.47787270239E+02  0.19999996329E+02 0.  0.
        -12    1    3    3    0    0 -0.59563037230E+01 -0.81035874235E+01 -0.42219399103E+02  0.43400729761E+02  0.00000000000E+00 0.  1.
         11    1    4    4    0    0  0.32188218727E+01  0.64550380880E+01  0.24783530044E+01  0.76269630155E+01  0.51100000000E-03 0.  1.
        -11    1    4    4    0    0  0.20422676500E+01 -0.15070369943E+01  0.19091295063E+02  0.19259272185E+02  0.51100000000E-03 0. -1.
        -12    1    4    4    0    0  0.69521420038E+00  0.31555863298E+01  0.20649751036E+02  0.20901035039E+02  0.00000000000E+00 0.  1.
</event>
<event>
 8    1  0.5834107E-011  0.9118800E+02  0.7816164E-02  0.1184000E+00
        -11   -1    0    0    0    0  0.00000000000E+00  0.00000000000E+00  0.45593999997E+02  0.45594000000E+02  0.51100000000E-03 0. -1.
         11   -1    0    0    0    0 -0.00000000000E+00 -0.00000000000E+00 -0.45593999997E+02  0.45594000000E+02  0.51100000000E-03 0.  1.
         23    2    1    2    0    0  0.00000000000E+00  0.35527136788E-14  0.00000000000E+00  0.91188000000E+02  0.91188000000E+02 0.  0.
    9900012    2    3    3    0    0  0.21545845302E+02  0.23820143581E+02  0.29189043322E+02  0.47787274890E+02  0.20000017535E+02 0.  0.
        -12    1    3    3    0    0 -0.21545845302E+02 -0.23820143581E+02 -0.29189043322E+02  0.43400725110E+02  0.00000000000E+00 0.  1.
         11    1    4    4    0    0  0.12757577426E+02  0.32759183706E+01  0.78238222762E+01  0.15319909210E+02  0.51100000000E-03 0. -1.
        -11    1    4    4    0    0  0.57481028954E+01  0.13452424241E+02  0.71268423148E+01  0.16272685288E+02  0.51100000000E-03 0.  1.
         12    1    4    4    0    0  0.30401649806E+01  0.70918009694E+01  0.14238378731E+02  0.16194680392E+02  0.00000000000E+00 0. -1.
</event>
<event>
 8    1  0.5834107E-011  0.9118800E+02  0.7816164E-02  0.1184000E+00
        -11   -1    0    0    0    0  0.00000000000E+00  0.00000000000E+00  0.45593999997E+02  0.45594000000E+02  0.51100000000E-03 0. -1.
         11   -1    0    0    0    0 -0.00000000000E+00 -0.00000000000E+00 -0.45593999997E+02  0.45594000000E+02  0.51100000000E-03 0.  1.
         23    2    1    2    0    0  0.00000000000E+00  0.00000000000E+00  0.00000000000E+00  0.91188000000E+02  0.91188000000E+02 0.  0.
    9900012    2    3    3    0    0 -0.13808850343E+02 -0.21548156311E+02 -0.35051619311E+02  0.47787269539E+02  0.19999993136E+02 0.  0.
         12    1    3    3    0    0  0.13808850343E+02  0.21548156311E+02  0.35051619311E+02  0.43400730461E+02  0.00000000000E+00 0. -1.
         11    1    4    4    0    0  0.54299530180E+00  0.22750710504E+01 -0.67419490566E+01  0.71361522913E+01  0.51100000000E-03 0.  1.
        -11    1    4    4    0    0 -0.89650938324E+01 -0.67841589401E+01 -0.96742725598E+01  0.14832035254E+02  0.51100000000E-03 0. -1.
        -12    1    4    4    0    0 -0.53867518129E+01 -0.17039068422E+02 -0.18635397695E+02  0.25819081994E+02  0.00000000000E+00 0.  1.
</event>
<event>
 8    1  0.5834107E-011  0.9118800E+02  0.7816164E-02  0.1184000E+00
        -11   -1    0    0    0    0  0.00000000000E+00  0.00000000000E+00  0.45593999997E+02  0.45594000000E+02  0.51100000000E-03 0.  1.
         11   -1    0    0    0    0 -0.00000000000E+00 -0.00000000000E+00 -0.45593999997E+02  0.45594000000E+02  0.51100000000E-03 0. -1.
         23    2    1    2    0    0  0.88817841970E-15  0.00000000000E+00  0.17763568394E-14  0.91188000000E+02  0.91188000000E+02 0.  0.
    9900012    2    3    3    0    0  0.57341580507E+01  0.42465130442E+02 -0.68888133223E+01  0.47787267045E+02  0.19999981765E+02 0.  0.
         12    1    3    3    0    0 -0.57341580507E+01 -0.42465130442E+02  0.68888133223E+01  0.43400732955E+02  0.00000000000E+00 0. -1.
         11    1    4    4    0    0  0.31805015747E+01  0.64239649741E+01  0.19183683499E+01  0.74204483451E+01  0.51100000000E-03 0.  1.
        -11    1    4    4    0    0 -0.39241352064E+01  0.26404089866E+02 -0.10395519300E+02  0.28646843117E+02  0.51100000000E-03 0. -1.
         12    1    4    4    0    0  0.64777916825E+01  0.96370756020E+01  0.15883376282E+01  0.11719975583E+02  0.00000000000E+00 0. -1.
</event>
<event>
 8    1  0.5834107E-011  0.9118800E+02  0.7816164E-02  0.1184000E+00
        -11   -1    0    0    0    0  0.00000000000E+00  0.00000000000E+00  0.45593999997E+02  0.45594000000E+02  0.51100000000E-03 0. -1.
         11   -1    0    0    0    0 -0.00000000000E+00 -0.00000000000E+00 -0.45593999997E+02  0.45594000000E+02  0.51100000000E-03 0.  1.
         23    2    1    2    0    0  0.00000000000E+00  0.00000000000E+00  0.00000000000E+00  0.91188000000E+02  0.91188000000E+02 0.  0.
    9900012    2    3    3    0    0  0.10132482736E+02  0.25366282396E+02 -0.33726895924E+02  0.47787320309E+02  0.20000224614E+02 0.  0.
         12    1    3    3    0    0 -0.10132482736E+02 -0.25366282396E+02  0.33726895924E+02  0.43400679691E+02  0.00000000000E+00 0. -1.
         11    1    4    4    0    0  0.30341215070E+01  0.16335844221E+01  0.17043478410E+01  0.38443846332E+01  0.51100000000E-03 0. -1.
        -11    1    4    4    0    0 -0.10569157374E+01  0.46206102516E+01 -0.10266739812E+02  0.11308096948E+02  0.51100000000E-03 0.  1.
        -12    1    4    4    0    0  0.81552769668E+01  0.19112087722E+02 -0.25164503954E+02  0.32634838727E+02  0.00000000000E+00 0.  1.
</event>
<event>
 8    1  0.5834107E-011  0.9118800E+02  0.7816164E-02  0.1184000E+00
        -11   -1    0    0    0    0  0.00000000000E+00  0.00000000000E+00  0.45593999997E+02  0.45594000000E+02  0.51100000000E-03 0. -1.
         11   -1    0    0    0    0 -0.00000000000E+00 -0.00000000000E+00 -0.45593999997E+02  0.45594000000E+02  0.51100000000E-03 0.  1.
         23    2    1    2    0    0  0.00000000000E+00 -0.88817841970E-15 -0.71054273576E-14  0.91188000000E+02  0.91188000000E+02 0.  0.
    9900012    2    3    3    0    0  0.89705054979E+01 -0.73097259028E+01 -0.41829671055E+02  0.47787269105E+02  0.19999991157E+02 0.  0.
         12    1    3    3    0    0 -0.89705054979E+01  0.73097259028E+01  0.41829671055E+02  0.43400730895E+02  0.00000000000E+00 0. -1.
         11    1    4    4    0    0 -0.38691531225E+01 -0.52962762264E-01 -0.73768181355E+01  0.83301018604E+01  0.51100000000E-03 0. -1.
        -11    1    4    4    0    0  0.12232372895E+02 -0.86040684369E+00 -0.26747566024E+02  0.29424539674E+02  0.51100000000E-03 0.  1.
         12    1    4    4    0    0  0.60728572588E+00 -0.63963562969E+01 -0.77052868958E+01  0.10032627571E+02  0.00000000000E+00 0. -1.
</event>
<event>
 8    1  0.5834107E-011  0.9118800E+02  0.7816164E-02  0.1184000E+00
        -11   -1    0    0    0    0  0.00000000000E+00  0.00000000000E+00  0.45593999997E+02  0.45594000000E+02  0.51100000000E-03 0. -1.
         11   -1    0    0    0    0 -0.00000000000E+00 -0.00000000000E+00 -0.45593999997E+02  0.45594000000E+02  0.51100000000E-03 0.  1.
         23    2    1    2    0    0 -0.35527136788E-14 -0.17763568394E-14  0.71054273576E-14  0.91188000000E+02  0.91188000000E+02 0.  0.
    9900012    2    3    3    0    0 -0.26861881683E+02 -0.66140604945E+01  0.33441243240E+02  0.47787271513E+02  0.20000002136E+02 0.  0.
        -12    1    3    3    0    0  0.26861881683E+02  0.66140604945E+01 -0.33441243240E+02  0.43400728487E+02  0.00000000000E+00 0.  1.
         11    1    4    4    0    0 -0.11529343457E+02  0.13072027279E+00  0.12175914789E+02  0.16768892317E+02  0.51100000000E-03 0. -1.
        -11    1    4    4    0    0  0.15286651726E+01  0.24548978640E+01  0.53176056190E+01  0.60531207251E+01  0.51100000000E-03 0.  1.
         12    1    4    4    0    0 -0.16861203399E+02 -0.91996786313E+01  0.15947722832E+02  0.24965258471E+02  0.00000000000E+00 0. -1.
</event>
<event>
 8    1  0.5834107E-011  0.9118800E+02  0.7816164E-02  0.1184000E+00
        -11   -1    0    0    0    0  0.00000000000E+00  0.00000000000E+00  0.45593999997E+02  0.45594000000E+02  0.51100000000E-03 0. -1.
         11   -1    0    0    0    0 -0.00000000000E+00 -0.00000000000E+00 -0.45593999997E+02  0.45594000000E+02  0.51100000000E-03 0.  1.
         23    2    1    2    0    0  0.00000000000E+00  0.00000000000E+00  0.00000000000E+00  0.91188000000E+02  0.91188000000E+02 0.  0.
    9900012    2    3    3    0    0  0.74917937348E+01  0.10742258203E+02  0.41377532329E+02  0.47787271132E+02  0.20000000398E+02 0.  0.
        -12    1    3    3    0    0 -0.74917937348E+01 -0.10742258203E+02 -0.41377532329E+02  0.43400728868E+02  0.00000000000E+00 0.  1.
         11    1    4    4    0    0 -0.26151347220E+01  0.92392189961E+01  0.23882763213E+02  0.25740794009E+02  0.51100000000E-03 0. -1.
        -11    1    4    4    0    0  0.60074279869E+01  0.63335246117E+00  0.16729168818E+02  0.17786382880E+02  0.51100000000E-03 0.  1.
        -12    1    4    4    0    0  0.40995004699E+01  0.86968674581E+00  0.76560029775E+00  0.42600942424E+01  0.00000000000E+00 0.  1.
</event>
<event>
 8    1  0.5834107E-011  0.9118800E+02  0.7816164E-02  0.1184000E+00
        -11   -1    0    0    0    0  0.00000000000E+00  0.00000000000E+00  0.45593999997E+02  0.45594000000E+02  0.51100000000E-03 0. -1.
         11   -1    0    0    0    0 -0.00000000000E+00 -0.00000000000E+00 -0.45593999997E+02  0.45594000000E+02  0.51100000000E-03 0.  1.
         23    2    1    2    0    0  0.00000000000E+00  0.88817841970E-15  0.00000000000E+00  0.91188000000E+02  0.91188000000E+02 0.  0.
    9900012    2    3    3    0    0 -0.55465279028E+01 -0.58301353512E+01  0.42648200653E+02  0.47787268797E+02  0.19999989753E+02 0.  0.
        -12    1    3    3    0    0  0.55465279028E+01  0.58301353512E+01 -0.42648200653E+02  0.43400731203E+02  0.00000000000E+00 0.  1.
         11    1    4    4    0    0  0.47532329072E+00 -0.40345415428E+01  0.82817491711E+01  0.92244689432E+01  0.51100000000E-03 0. -1.
        -11    1    4    4    0    0 -0.44088999237E+01  0.71366639432E+01  0.17607367042E+02  0.19503582881E+02  0.51100000000E-03 0.  1.
        -12    1    4    4    0    0 -0.16129512698E+01 -0.89322577516E+01  0.16759084440E+02  0.19059216972E+02  0.00000000000E+00 0.  1.
</event>
<event>
 8    1  0.5834107E-011  0.9118800E+02  0.7816164E-02  0.1184000E+00
        -11   -1    0    0    0    0  0.00000000000E+00  0.00000000000E+00  0.45593999997E+02  0.45594000000E+02  0.51100000000E-03 0. -1.
         11   -1    0    0    0    0 -0.00000000000E+00 -0.00000000000E+00 -0.45593999997E+02  0.45594000000E+02  0.51100000000E-03 0.  1.
         23    2    1    2    0    0  0.00000000000E+00  0.22204460493E-15  0.35527136788E-14  0.91188000000E+02  0.91188000000E+02 0.  0.
    9900012    2    3    3    0    0  0.38974458608E+02  0.14242883126E+01  0.19041698988E+02  0.47787270497E+02  0.19999997506E+02 0.  0.
        -12    1    3    3    0    0 -0.38974458608E+02 -0.14242883126E+01 -0.19041698988E+02  0.43400729503E+02  0.00000000000E+00 0.  1.
         11    1    4    4    0    0  0.76689583687E+01  0.35274982037E+01  0.62827303665E+01  0.10522778490E+02  0.51100000000E-03 0. -1.
        -11    1    4    4    0    0  0.97862142813E+01  0.33084525201E+01  0.10868686802E+02  0.14994805804E+02  0.51100000000E-03 0.  1.
         12    1    4    4    0    0  0.21519285958E+02 -0.54116624113E+01  0.18902818192E+01  0.22269686203E+02  0.00000000000E+00 0. -1.
</event>
<event>
 8    1  0.5834107E-011  0.9118800E+02  0.7816164E-02  0.1184000E+00
        -11   -1    0    0    0    0  0.00000000000E+00  0.00000000000E+00  0.45593999997E+02  0.45594000000E+02  0.51100000000E-03 0. -1.
         11   -1    0    0    0    0 -0.00000000000E+00 -0.00000000000E+00 -0.45593999997E+02  0.45594000000E+02  0.51100000000E-03 0.  1.
         23    2    1    2    0    0  0.35527136788E-14 -0.44408920985E-15  0.00000000000E+00  0.91188000000E+02  0.91188000000E+02 0.  0.
    9900012    2    3    3    0    0  0.18974860948E+02 -0.13355495957E+01 -0.39010181562E+02  0.47787270672E+02  0.19999998300E+02 0.  0.
         12    1    3    3    0    0 -0.18974860948E+02  0.13355495957E+01  0.39010181562E+02  0.43400729328E+02  0.00000000000E+00 0. -1.
         11    1    4    4    0    0 -0.15967068135E+01  0.37727872484E+01 -0.13229068753E+02  0.13848886475E+02  0.51100000000E-03 0. -1.
        -11    1    4    4    0    0  0.10832068472E+02  0.85566640502E-02 -0.15275200344E+02  0.18726065428E+02  0.51100000000E-03 0.  1.
         12    1    4    4    0    0  0.97394992892E+01 -0.51168935082E+01 -0.10505912465E+02  0.15212318768E+02  0.00000000000E+00 0. -1.
</event>
<event>
 8    1  0.5834107E-011  0.9118800E+02  0.7816164E-02  0.1184000E+00
        -11   -1    0    0    0    0  0.00000000000E+00  0.00000000000E+00  0.45593999997E+02  0.45594000000E+02  0.51100000000E-03 0. -1.
         11   -1    0    0    0    0 -0.00000000000E+00 -0.00000000000E+00 -0.45593999997E+02  0.45594000000E+02  0.51100000000E-03 0.  1.
         23    2    1    2    0    0 -0.71054273576E-14  0.17763568394E-14 -0.35527136788E-14  0.91188000000E+02  0.91188000000E+02 0.  0.
    9900012    2    3    3    0    0  0.39918058833E+02 -0.11752007909E+02 -0.12331339484E+02  0.47787273689E+02  0.20000012056E+02 0.  0.
         12    1    3    3    0    0 -0.39918058833E+02  0.11752007909E+02  0.12331339484E+02  0.43400726311E+02  0.00000000000E+00 0. -1.
         11    1    4    4    0    0  0.95631909787E+01 -0.89110330497E+01 -0.24358838729E+01  0.13296415390E+02  0.51100000000E-03 0. -1.
        -11    1    4    4    0    0  0.29536219486E+02 -0.53981460204E+01 -0.10366887916E+02  0.31764769908E+02  0.51100000000E-03 0.  1.
         12    1    4    4    0    0  0.81864836876E+00  0.25571711615E+01  0.47143230447E+00  0.27260883916E+01  0.00000000000E+00 0. -1.
</event>
<event>
 8    1  0.5834107E-011  0.9118800E+02  0.7816164E-02  0.1184000E+00
        -11   -1    0    0    0    0  0.00000000000E+00  0.00000000000E+00  0.45593999997E+02  0.45594000000E+02  0.51100000000E-03 0. -1.
         11   -1    0    0    0    0 -0.00000000000E+00 -0.00000000000E+00 -0.45593999997E+02  0.45594000000E+02  0.51100000000E-03 0.  1.
         23    2    1    2    0    0 -0.35527136788E-14 -0.17763568394E-14  0.00000000000E+00  0.91188000000E+02  0.91188000000E+02 0.  0.
    9900012    2    3    3    0    0  0.21088079942E+02  0.65013881758E+01 -0.37371747092E+02  0.47787278294E+02  0.20000033053E+02 0.  0.
         12    1    3    3    0    0 -0.21088079942E+02 -0.65013881758E+01  0.37371747092E+02  0.43400721706E+02  0.00000000000E+00 0. -1.
         11    1    4    4    0    0 -0.71603161993E+00  0.10982972312E+01  0.37799944679E+00  0.13644932875E+01  0.51100000000E-03 0. -1.
        -11    1    4    4    0    0  0.23419474321E+01  0.67123630083E+01 -0.13896155999E+02  0.15609089875E+02  0.51100000000E-03 0.  1.
        -12    1    4    4    0    0  0.19462164130E+02 -0.13092720636E+01 -0.23853590540E+02  0.30813695131E+02  0.00000000000E+00 0.  1.
</event>
<event>
 8    1  0.5834107E-011  0.9118800E+02  0.7816164E-02  0.1184000E+00
        -11   -1    0    0    0    0  0.00000000000E+00  0.00000000000E+00  0.45593999997E+02  0.45594000000E+02  0.51100000000E-03 0. -1.
         11   -1    0    0    0    0 -0.00000000000E+00 -0.00000000000E+00 -0.45593999997E+02  0.45594000000E+02  0.51100000000E-03 0.  1.
         23    2    1    2    0    0 -0.71054273576E-14 -0.44408920985E-15  0.71054273576E-14  0.91188000000E+02  0.91188000000E+02 0.  0.
    9900012    2    3    3    0    0 -0.28990799714E+02 -0.11289059039E+01  0.32278204860E+02  0.47787269527E+02  0.19999993081E+02 0.  0.
        -12    1    3    3    0    0  0.28990799714E+02  0.11289059039E+01 -0.32278204860E+02  0.43400730473E+02  0.00000000000E+00 0.  1.
         11    1    4    4    0    0 -0.19272801784E+01  0.23130966439E+01  0.11561437745E+02  0.11947035949E+02  0.51100000000E-03 0.  1.
        -11    1    4    4    0    0 -0.18913343893E+02  0.14304337194E+01  0.17520657679E+02  0.25821196014E+02  0.51100000000E-03 0. -1.
         12    1    4    4    0    0 -0.81501756423E+01 -0.48724362672E+01  0.31961094366E+01  0.10019037564E+02  0.00000000000E+00 0. -1.
</event>
<event>
 8    1  0.5834107E-011  0.9118800E+02  0.7816164E-02  0.1184000E+00
        -11   -1    0    0    0    0  0.00000000000E+00  0.00000000000E+00  0.45593999997E+02  0.45594000000E+02  0.51100000000E-03 0. -1.
         11   -1    0    0    0    0 -0.00000000000E+00 -0.00000000000E+00 -0.45593999997E+02  0.45594000000E+02  0.51100000000E-03 0.  1.
         23    2    1    2    0    0 -0.17763568394E-14  0.17763568394E-14  0.00000000000E+00  0.91188000000E+02  0.91188000000E+02 0.  0.
    9900012    2    3    3    0    0 -0.62924929195E+01  0.12300877546E+02 -0.41142627104E+02  0.47787276267E+02  0.20000023812E+02 0.  0.
         12    1    3    3    0    0  0.62924929195E+01 -0.12300877546E+02  0.41142627104E+02  0.43400723733E+02  0.00000000000E+00 0. -1.
         11    1    4    4    0    0  0.56939922655E-01 -0.25285903081E+01 -0.24710597272E+01  0.35359790069E+01  0.51100000000E-03 0. -1.
        -11    1    4    4    0    0 -0.65361850714E+01 -0.10592761863E+00 -0.10611114452E+02  0.12463092960E+02  0.51100000000E-03 0.  1.
        -12    1    4    4    0    0  0.18675222925E+00  0.14935395472E+02 -0.28060452924E+02  0.31788204300E+02  0.00000000000E+00 0.  1.
</event>
<event>
 8    1  0.5834107E-011  0.9118800E+02  0.7816164E-02  0.1184000E+00
        -11   -1    0    0    0    0  0.00000000000E+00  0.00000000000E+00  0.45593999997E+02  0.45594000000E+02  0.51100000000E-03 0. -1.
         11   -1    0    0    0    0 -0.00000000000E+00 -0.00000000000E+00 -0.45593999997E+02  0.45594000000E+02  0.51100000000E-03 0.  1.
         23    2    1    2    0    0  0.00000000000E+00  0.00000000000E+00  0.00000000000E+00  0.91188000000E+02  0.91188000000E+02 0.  0.
    9900012    2    3    3    0    0 -0.32861601667E+02 -0.84666437615E+01  0.27056501438E+02  0.47787272001E+02  0.20000004363E+02 0.  0.
        -12    1    3    3    0    0  0.32861601667E+02  0.84666437615E+01 -0.27056501438E+02  0.43400727999E+02  0.00000000000E+00 0.  1.
         11    1    4    4    0    0 -0.35718614429E+01 -0.70088246776E+01  0.53563636311E+01  0.95169558756E+01  0.51100000000E-03 0. -1.
        -11    1    4    4    0    0 -0.86499486306E+01  0.13713724620E+01  0.85508669765E+00  0.87996276776E+01  0.51100000000E-03 0.  1.
         12    1    4    4    0    0 -0.20639791594E+02 -0.28291915458E+01  0.20845051110E+02  0.29470688448E+02  0.00000000000E+00 0. -1.
</event>
<event>
 8    1  0.5834107E-011  0.9118800E+02  0.7816164E-02  0.1184000E+00
        -11   -1    0    0    0    0  0.00000000000E+00  0.00000000000E+00  0.45593999997E+02  0.45594000000E+02  0.51100000000E-03 0. -1.
         11   -1    0    0    0    0 -0.00000000000E+00 -0.00000000000E+00 -0.45593999997E+02  0.45594000000E+02  0.51100000000E-03 0.  1.
         23    2    1    2    0    0 -0.17763568394E-14  0.00000000000E+00  0.00000000000E+00  0.91188000000E+02  0.91188000000E+02 0.  0.
    9900012    2    3    3    0    0 -0.14649060938E+02  0.25910828853E+01 -0.40771496178E+02  0.47787267317E+02  0.19999983004E+02 0.  0.
         12    1    3    3    0    0  0.14649060938E+02 -0.25910828853E+01  0.40771496178E+02  0.43400732683E+02  0.00000000000E+00 0. -1.
         11    1    4    4    0    0 -0.13426378975E+01 -0.42559127216E+01 -0.74142165163E+01  0.86536741578E+01  0.51100000000E-03 0. -1.
        -11    1    4    4    0    0 -0.12597780663E+02  0.66189167042E+01 -0.34751885937E+02  0.37552732422E+02  0.51100000000E-03 0.  1.
         12    1    4    4    0    0 -0.70864237736E+00  0.22807890273E+00  0.13946062754E+01  0.15808607365E+01  0.00000000000E+00 0. -1.
</event>
<event>
 8    1  0.5834107E-011  0.9118800E+02  0.7816164E-02  0.1184000E+00
        -11   -1    0    0    0    0  0.00000000000E+00  0.00000000000E+00  0.45593999997E+02  0.45594000000E+02  0.51100000000E-03 0. -1.
         11   -1    0    0    0    0 -0.00000000000E+00 -0.00000000000E+00 -0.45593999997E+02  0.45594000000E+02  0.51100000000E-03 0.  1.
         23    2    1    2    0    0 -0.35527136788E-14  0.00000000000E+00  0.00000000000E+00  0.91188000000E+02  0.91188000000E+02 0.  0.
    9900012    2    3    3    0    0  0.26002550572E+02 -0.21440692275E+01  0.34682760027E+02  0.47787268299E+02  0.19999987482E+02 0.  0.
        -12    1    3    3    0    0 -0.26002550572E+02  0.21440692275E+01 -0.34682760027E+02  0.43400731701E+02  0.00000000000E+00 0.  1.
         11    1    4    4    0    0  0.21945046890E+02 -0.52327301808E+01  0.23880937498E+02  0.32852179900E+02  0.51100000000E-03 0. -1.
        -11    1    4    4    0    0 -0.13642806880E+01 -0.22279396107E+01  0.37633663757E+01  0.45812556624E+01  0.51100000000E-03 0.  1.
        -12    1    4    4    0    0  0.54217843703E+01  0.53166005640E+01  0.70384561534E+01  0.10353832737E+02  0.00000000000E+00 0.  1.
</event>
<event>
 8    1  0.5834107E-011  0.9118800E+02  0.7816164E-02  0.1184000E+00
        -11   -1    0    0    0    0  0.00000000000E+00  0.00000000000E+00  0.45593999997E+02  0.45594000000E+02  0.51100000000E-03 0. -1.
         11   -1    0    0    0    0 -0.00000000000E+00 -0.00000000000E+00 -0.45593999997E+02  0.45594000000E+02  0.51100000000E-03 0.  1.
         23    2    1    2    0    0  0.44408920985E-15  0.00000000000E+00  0.00000000000E+00  0.91188000000E+02  0.91188000000E+02 0.  0.
    9900012    2    3    3    0    0  0.22269977755E+01  0.31055957787E+02 -0.30235594271E+02  0.47787271964E+02  0.20000004192E+02 0.  0.
         12    1    3    3    0    0 -0.22269977755E+01 -0.31055957787E+02  0.30235594271E+02  0.43400728036E+02  0.00000000000E+00 0. -1.
         11    1    4    4    0    0  0.50980071472E+01  0.96314790961E+01 -0.11867799702E+02  0.16112099071E+02  0.51100000000E-03 0. -1.
        -11    1    4    4    0    0 -0.15819368580E+01  0.16407738928E+02 -0.48247634548E+01  0.17175411600E+02  0.51100000000E-03 0.  1.
         12    1    4    4    0    0 -0.12890725136E+01  0.50167397623E+01 -0.13543031115E+02  0.14499761293E+02  0.00000000000E+00 0. -1.
</event>
<event>
 8    1  0.5834107E-011  0.9118800E+02  0.7816164E-02  0.1184000E+00
        -11   -1    0    0    0    0  0.00000000000E+00  0.00000000000E+00  0.45593999997E+02  0.45594000000E+02  0.51100000000E-03 0. -1.
         11   -1    0    0    0    0 -0.00000000000E+00 -0.00000000000E+00 -0.45593999997E+02  0.45594000000E+02  0.51100000000E-03 0.  1.
         23    2    1    2    0    0  0.88817841970E-15 -0.35527136788E-14  0.00000000000E+00  0.91188000000E+02  0.91188000000E+02 0.  0.
    9900012    2    3    3    0    0 -0.49633669018E+01  0.28730398887E+02 -0.32148914693E+02  0.47787267896E+02  0.19999985645E+02 0.  0.
         12    1    3    3    0    0  0.49633669018E+01 -0.28730398887E+02  0.32148914693E+02  0.43400732104E+02  0.00000000000E+00 0. -1.
         11    1    4    4    0    0 -0.50485726229E+01  0.34372836945E+01 -0.39155753709E+01  0.72549800463E+01  0.51100000000E-03 0. -1.
        -11    1    4    4    0    0 -0.32327354302E+01  0.25500048086E+02 -0.25742429424E+02  0.36378231179E+02  0.51100000000E-03 0.  1.
         12    1    4    4    0    0  0.33179411513E+01 -0.20693289342E+00 -0.24909098981E+01  0.41540566711E+01  0.00000000000E+00 0. -1.
</event>
<event>
 8    1  0.5834107E-011  0.9118800E+02  0.7816164E-02  0.1184000E+00
        -11   -1    0    0    0    0  0.00000000000E+00  0.00000000000E+00  0.45593999997E+02  0.45594000000E+02  0.51100000000E-03 0.  1.
         11   -1    0    0    0    0 -0.00000000000E+00 -0.00000000000E+00 -0.45593999997E+02  0.45594000000E+02  0.51100000000E-03 0. -1.
         23    2    1    2    0    0  0.00000000000E+00  0.11102230246E-15  0.00000000000E+00  0.91188000000E+02  0.91188000000E+02 0.  0.
    9900012    2    3    3    0    0 -0.41660635019E+02 -0.59338144025E+00 -0.12151651329E+02  0.47787271414E+02  0.20000001686E+02 0.  0.
         12    1    3    3    0    0  0.41660635019E+02  0.59338144025E+00  0.12151651329E+02  0.43400728586E+02  0.00000000000E+00 0. -1.
         11    1    4    4    0    0 -0.47331405253E+01  0.30496053020E+01 -0.62075568903E+00  0.56646314635E+01  0.51100000000E-03 0. -1.
        -11    1    4    4    0    0 -0.32977368112E+02 -0.33864913168E+01 -0.15430465819E+02  0.36566028041E+02  0.51100000000E-03 0.  1.
        -12    1    4    4    0    0 -0.39501263815E+01 -0.25649542540E+00  0.38995701787E+01  0.55566119094E+01  0.00000000000E+00 0.  1.
</event>
<event>
 8    1  0.5834107E-011  0.9118800E+02  0.7816164E-02  0.1184000E+00
        -11   -1    0    0    0    0  0.00000000000E+00  0.00000000000E+00  0.45593999997E+02  0.45594000000E+02  0.51100000000E-03 0. -1.
         11   -1    0    0    0    0 -0.00000000000E+00 -0.00000000000E+00 -0.45593999997E+02  0.45594000000E+02  0.51100000000E-03 0.  1.
         23    2    1    2    0    0  0.00000000000E+00  0.00000000000E+00  0.35527136788E-14  0.91188000000E+02  0.91188000000E+02 0.  0.
    9900012    2    3    3    0    0 -0.27018259427E+02  0.20233520678E+02  0.27280791511E+02  0.47787270894E+02  0.19999999315E+02 0.  0.
        -12    1    3    3    0    0  0.27018259427E+02 -0.20233520678E+02 -0.27280791511E+02  0.43400729106E+02  0.00000000000E+00 0.  1.
         11    1    4    4    0    0 -0.13232934283E+02  0.11105187368E+02  0.14078259829E+02  0.22285267248E+02  0.51100000000E-03 0. -1.
        -11    1    4    4    0    0  0.87896104334E+00  0.35003317314E+00  0.73890941023E+01  0.74494165981E+01  0.51100000000E-03 0.  1.
         12    1    4    4    0    0 -0.14664286187E+02  0.87783001370E+01  0.58134375791E+01  0.18052587048E+02  0.00000000000E+00 0. -1.
</event>
<event>
 8    1  0.5834107E-011  0.9118800E+02  0.7816164E-02  0.1184000E+00
        -11   -1    0    0    0    0  0.00000000000E+00  0.00000000000E+00  0.45593999997E+02  0.45594000000E+02  0.51100000000E-03 0. -1.
         11   -1    0    0    0    0 -0.00000000000E+00 -0.00000000000E+00 -0.45593999997E+02  0.45594000000E+02  0.51100000000E-03 0.  1.
         23    2    1    2    0    0 -0.44408920985E-15  0.00000000000E+00  0.00000000000E+00  0.91188000000E+02  0.91188000000E+02 0.  0.
    9900012    2    3    3    0    0 -0.35609472483E+01 -0.24459496745E+02 -0.35674576344E+02  0.47787277383E+02  0.20000028899E+02 0.  0.
         12    1    3    3    0    0  0.35609472483E+01  0.24459496745E+02  0.35674576344E+02  0.43400722617E+02  0.00000000000E+00 0. -1.
         11    1    4    4    0    0  0.85359950532E+00 -0.17741229484E+01  0.12886113981E+01  0.23530116761E+01  0.51100000000E-03 0. -1.
        -11    1    4    4    0    0  0.27713406428E+01 -0.16935279591E+02 -0.22629453941E+02  0.28400285381E+02  0.51100000000E-03 0.  1.
        -12    1    4    4    0    0 -0.71858873964E+01 -0.57500942060E+01 -0.14333733801E+02  0.17033980326E+02  0.00000000000E+00 0.  1.
</event>
<event>
 8    1  0.5834107E-011  0.9118800E+02  0.7816164E-02  0.1184000E+00
        -11   -1    0    0    0    0  0.00000000000E+00  0.00000000000E+00  0.45593999997E+02  0.45594000000E+02  0.51100000000E-03 0. -1.
         11   -1    0    0    0    0 -0.00000000000E+00 -0.00000000000E+00 -0.45593999997E+02  0.45594000000E+02  0.51100000000E-03 0.  1.
         23    2    1    2    0    0  0.00000000000E+00  0.00000000000E+00  0.00000000000E+00  0.91188000000E+02  0.91188000000E+02 0.  0.
    9900012    2    3    3    0    0  0.12270091912E+02  0.56413763138E+01  0.41246123955E+02  0.47787273928E+02  0.20000013147E+02 0.  0.
        -12    1    3    3    0    0 -0.12270091912E+02 -0.56413763138E+01 -0.41246123955E+02  0.43400726072E+02  0.00000000000E+00 0.  1.
         11    1    4    4    0    0  0.69656829905E+01  0.62022249995E+00  0.34551977081E+02  0.35252581976E+02  0.51100000000E-03 0. -1.
        -11    1    4    4    0    0  0.58232309163E+01  0.28212228554E+00  0.36574323438E+01  0.68823268521E+01  0.51100000000E-03 0.  1.
        -12    1    4    4    0    0 -0.51882199470E+00  0.47390315283E+01  0.30367145304E+01  0.56523651003E+01  0.00000000000E+00 0.  1.
</event>
<event>
 8    1  0.5834107E-011  0.9118800E+02  0.7816164E-02  0.1184000E+00
        -11   -1    0    0    0    0  0.00000000000E+00  0.00000000000E+00  0.45593999997E+02  0.45594000000E+02  0.51100000000E-03 0. -1.
         11   -1    0    0    0    0 -0.00000000000E+00 -0.00000000000E+00 -0.45593999997E+02  0.45594000000E+02  0.51100000000E-03 0.  1.
         23    2    1    2    0    0  0.00000000000E+00  0.00000000000E+00  0.00000000000E+00  0.91188000000E+02  0.91188000000E+02 0.  0.
    9900012    2    3    3    0    0  0.28076948415E+02  0.36788996744E+01  0.32890328633E+02  0.47787273593E+02  0.20000011619E+02 0.  0.
        -12    1    3    3    0    0 -0.28076948415E+02 -0.36788996744E+01 -0.32890328633E+02  0.43400726407E+02  0.00000000000E+00 0.  1.
         11    1    4    4    0    0  0.66823995421E+01 -0.96574781650E+00  0.72437403599E+01  0.99024697499E+01  0.51100000000E-03 0. -1.
        -11    1    4    4    0    0  0.78158296526E+01  0.27479084349E+01 -0.56488995074E+00  0.83040529167E+01  0.51100000000E-03 0.  1.
        -12    1    4    4    0    0  0.13578719220E+02  0.18967390561E+01  0.26211478224E+02  0.29580750926E+02  0.00000000000E+00 0.  1.
</event>
<event>
 8    1  0.5834107E-011  0.9118800E+02  0.7816164E-02  0.1184000E+00
        -11   -1    0    0    0    0  0.00000000000E+00  0.00000000000E+00  0.45593999997E+02  0.45594000000E+02  0.51100000000E-03 0. -1.
         11   -1    0    0    0    0 -0.00000000000E+00 -0.00000000000E+00 -0.45593999997E+02  0.45594000000E+02  0.51100000000E-03 0.  1.
         23    2    1    2    0    0 -0.11102230246E-14  0.00000000000E+00 -0.71054273576E-14  0.91188000000E+02  0.91188000000E+02 0.  0.
    9900012    2    3    3    0    0  0.16302004661E+01 -0.22526650798E+02  0.37060951645E+02  0.47787289331E+02  0.20000083376E+02 0.  0.
        -12    1    3    3    0    0 -0.16302004661E+01  0.22526650798E+02 -0.37060951645E+02  0.43400710669E+02  0.00000000000E+00 0.  1.
         11    1    4    4    0    0  0.40304979088E+01 -0.12295463093E+02  0.31782841127E+02  0.34315773580E+02  0.51100000000E-03 0. -1.
        -11    1    4    4    0    0  0.74579867545E+00  0.22568360860E+00 -0.67801507145E+00  0.10328859829E+01  0.51100000000E-03 0.  1.
         12    1    4    4    0    0 -0.31460961182E+01 -0.10456871314E+02  0.59561255896E+01  0.12438629768E+02  0.00000000000E+00 0. -1.
</event>
<event>
 8    1  0.5834107E-011  0.9118800E+02  0.7816164E-02  0.1184000E+00
        -11   -1    0    0    0    0  0.00000000000E+00  0.00000000000E+00  0.45593999997E+02  0.45594000000E+02  0.51100000000E-03 0. -1.
         11   -1    0    0    0    0 -0.00000000000E+00 -0.00000000000E+00 -0.45593999997E+02  0.45594000000E+02  0.51100000000E-03 0.  1.
         23    2    1    2    0    0  0.00000000000E+00  0.00000000000E+00  0.00000000000E+00  0.91188000000E+02  0.91188000000E+02 0.  0.
    9900012    2    3    3    0    0  0.23113255493E+02 -0.49167650155E+01  0.36403661329E+02  0.47787265953E+02  0.19999976785E+02 0.  0.
        -12    1    3    3    0    0 -0.23113255493E+02  0.49167650155E+01 -0.36403661329E+02  0.43400734047E+02  0.00000000000E+00 0.  1.
         11    1    4    4    0    0  0.13339730164E+02  0.36810322937E+01  0.11626113789E+02  0.18073874009E+02  0.51100000000E-03 0. -1.
        -11    1    4    4    0    0  0.76128322615E+01 -0.16081279715E+00  0.12992642534E+02  0.15059543023E+02  0.51100000000E-03 0.  1.
        -12    1    4    4    0    0  0.21606930677E+01 -0.84369845121E+01  0.11784905006E+02  0.14653848920E+02  0.00000000000E+00 0.  1.
</event>
<event>
 8    1  0.5834107E-011  0.9118800E+02  0.7816164E-02  0.1184000E+00
        -11   -1    0    0    0    0  0.00000000000E+00  0.00000000000E+00  0.45593999997E+02  0.45594000000E+02  0.51100000000E-03 0. -1.
         11   -1    0    0    0    0 -0.00000000000E+00 -0.00000000000E+00 -0.45593999997E+02  0.45594000000E+02  0.51100000000E-03 0.  1.
         23    2    1    2    0    0  0.00000000000E+00  0.00000000000E+00  0.00000000000E+00  0.91188000000E+02  0.91188000000E+02 0.  0.
    9900012    2    3    3    0    0 -0.48947699738E+01  0.20543666845E+02 -0.37915991536E+02  0.47787269191E+02  0.19999991551E+02 0.  0.
         12    1    3    3    0    0  0.48947699738E+01 -0.20543666845E+02  0.37915991536E+02  0.43400730809E+02  0.00000000000E+00 0. -1.
         11    1    4    4    0    0 -0.40722605595E+01  0.14434378738E+02 -0.11795564708E+02  0.19080616936E+02  0.51100000000E-03 0. -1.
        -11    1    4    4    0    0 -0.16254106299E+01  0.87098383674E+01 -0.22466319746E+02  0.24150336795E+02  0.51100000000E-03 0.  1.
         12    1    4    4    0    0  0.80290121558E+00 -0.26005502595E+01 -0.36541070820E+01  0.45563154611E+01  0.00000000000E+00 0. -1.
</event>
<event>
 8    1  0.5834107E-011  0.9118800E+02  0.7816164E-02  0.1184000E+00
        -11   -1    0    0    0    0  0.00000000000E+00  0.00000000000E+00  0.45593999997E+02  0.45594000000E+02  0.51100000000E-03 0. -1.
         11   -1    0    0    0    0 -0.00000000000E+00 -0.00000000000E+00 -0.45593999997E+02  0.45594000000E+02  0.51100000000E-03 0.  1.
         23    2    1    2    0    0  0.00000000000E+00  0.00000000000E+00  0.71054273576E-14  0.91188000000E+02  0.91188000000E+02 0.  0.
    9900012    2    3    3    0    0  0.15073677190E+02 -0.13244594380E+02  0.38483609505E+02  0.47787271609E+02  0.20000002573E+02 0.  0.
        -12    1    3    3    0    0 -0.15073677190E+02  0.13244594380E+02 -0.38483609505E+02  0.43400728391E+02  0.00000000000E+00 0.  1.
         11    1    4    4    0    0  0.10620537317E+02 -0.16492615231E+02  0.25808631683E+02  0.32417397176E+02  0.51100000000E-03 0. -1.
        -11    1    4    4    0    0 -0.49680348309E-01  0.41776709901E+00  0.87495948963E+01  0.87597036820E+01  0.51100000000E-03 0.  1.
        -12    1    4    4    0    0  0.45028202209E+01  0.28302537514E+01  0.39253829257E+01  0.66101707506E+01  0.00000000000E+00 0.  1.
</event>
<event>
 8    1  0.5834107E-011  0.9118800E+02  0.7816164E-02  0.1184000E+00
        -11   -1    0    0    0    0  0.00000000000E+00  0.00000000000E+00  0.45593999997E+02  0.45594000000E+02  0.51100000000E-03 0. -1.
         11   -1    0    0    0    0 -0.00000000000E+00 -0.00000000000E+00 -0.45593999997E+02  0.45594000000E+02  0.51100000000E-03 0.  1.
         23    2    1    2    0    0  0.00000000000E+00  0.00000000000E+00  0.00000000000E+00  0.91188000000E+02  0.91188000000E+02 0.  0.
    9900012    2    3    3    0    0 -0.15412576322E+02  0.64253110148E+00  0.40566773776E+02  0.47787268558E+02  0.19999988664E+02 0.  0.
        -12    1    3    3    0    0  0.15412576322E+02 -0.64253110148E+00 -0.40566773776E+02  0.43400731442E+02  0.00000000000E+00 0.  1.
         11    1    4    4    0    0  0.10094039727E+01 -0.36300985105E+01  0.81649073527E+01  0.89923425155E+01  0.51100000000E-03 0. -1.
        -11    1    4    4    0    0 -0.79104455803E+01  0.38302938590E+01  0.50294554181E+01  0.10126288678E+02  0.51100000000E-03 0.  1.
         12    1    4    4    0    0 -0.85115347149E+01  0.44233575296E+00  0.27372411005E+02  0.28668637365E+02  0.00000000000E+00 0. -1.
</event>
<event>
 8    1  0.5834107E-011  0.9118800E+02  0.7816164E-02  0.1184000E+00
        -11   -1    0    0    0    0  0.00000000000E+00  0.00000000000E+00  0.45593999997E+02  0.45594000000E+02  0.51100000000E-03 0. -1.
         11   -1    0    0    0    0 -0.00000000000E+00 -0.00000000000E+00 -0.45593999997E+02  0.45594000000E+02  0.51100000000E-03 0.  1.
         23    2    1    2    0    0  0.00000000000E+00  0.00000000000E+00  0.00000000000E+00  0.91188000000E+02  0.91188000000E+02 0.  0.
    9900012    2    3    3    0    0  0.18891004222E+02  0.14077217449E+02 -0.36449764451E+02  0.47787269359E+02  0.19999992315E+02 0.  0.
         12    1    3    3    0    0 -0.18891004222E+02 -0.14077217449E+02  0.36449764451E+02  0.43400730641E+02  0.00000000000E+00 0. -1.
         11    1    4    4    0    0  0.95739629116E+01  0.62580534041E+01 -0.30896775780E+02  0.32945936807E+02  0.51100000000E-03 0. -1.
        -11    1    4    4    0    0  0.73828631389E+01  0.51022505448E+01 -0.68220478630E+01  0.11272975031E+02  0.51100000000E-03 0.  1.
         12    1    4    4    0    0  0.19341781712E+01  0.27169135002E+01  0.12690591913E+01  0.35683575208E+01  0.00000000000E+00 0. -1.
</event>
<event>
 8    1  0.5834107E-011  0.9118800E+02  0.7816164E-02  0.1184000E+00
        -11   -1    0    0    0    0  0.00000000000E+00  0.00000000000E+00  0.45593999997E+02  0.45594000000E+02  0.51100000000E-03 0. -1.
         11   -1    0    0    0    0 -0.00000000000E+00 -0.00000000000E+00 -0.45593999997E+02  0.45594000000E+02  0.51100000000E-03 0.  1.
         23    2    1    2    0    0  0.44408920985E-15  0.00000000000E+00  0.00000000000E+00  0.91188000000E+02  0.91188000000E+02 0.  0.
    9900012    2    3    3    0    0  0.87914594607E+00 -0.34938111865E+02 -0.25732835841E+02  0.47787269606E+02  0.19999993442E+02 0.  0.
         12    1    3    3    0    0 -0.87914594607E+00  0.34938111865E+02  0.25732835841E+02  0.43400730394E+02  0.00000000000E+00 0. -1.
         11    1    4    4    0    0 -0.41977847502E+01 -0.46091499825E+01 -0.67969955239E+00  0.62711762942E+01  0.51100000000E-03 0. -1.
        -11    1    4    4    0    0 -0.35834962167E+00 -0.25552600737E+02 -0.17017267229E+02  0.30702625345E+02  0.51100000000E-03 0.  1.
         12    1    4    4    0    0  0.54352803179E+01 -0.47763611458E+01 -0.80358690600E+01  0.10813467967E+02  0.00000000000E+00 0. -1.
</event>
<event>
 8    1  0.5834107E-011  0.9118800E+02  0.7816164E-02  0.1184000E+00
        -11   -1    0    0    0    0  0.00000000000E+00  0.00000000000E+00  0.45593999997E+02  0.45594000000E+02  0.51100000000E-03 0. -1.
         11   -1    0    0    0    0 -0.00000000000E+00 -0.00000000000E+00 -0.45593999997E+02  0.45594000000E+02  0.51100000000E-03 0.  1.
         23    2    1    2    0    0 -0.26645352591E-14 -0.88817841970E-15 -0.71054273576E-14  0.91188000000E+02  0.91188000000E+02 0.  0.
    9900012    2    3    3    0    0  0.17038516865E+01 -0.58009282705E+01 -0.42977545760E+02  0.47787270526E+02  0.19999997635E+02 0.  0.
         12    1    3    3    0    0 -0.17038516865E+01  0.58009282705E+01  0.42977545760E+02  0.43400729474E+02  0.00000000000E+00 0. -1.
         11    1    4    4    0    0  0.41364354097E+01  0.10077786207E+01 -0.14824683224E+02  0.15423908344E+02  0.51100000000E-03 0. -1.
        -11    1    4    4    0    0  0.51565166103E+01 -0.24483005396E-01 -0.55597374348E+01  0.75829376613E+01  0.51100000000E-03 0.  1.
        -12    1    4    4    0    0 -0.75891003335E+01 -0.67842238857E+01 -0.22593125101E+02  0.24780424521E+02  0.00000000000E+00 0.  1.
</event>
<event>
 8    1  0.5834107E-011  0.9118800E+02  0.7816164E-02  0.1184000E+00
        -11   -1    0    0    0    0  0.00000000000E+00  0.00000000000E+00  0.45593999997E+02  0.45594000000E+02  0.51100000000E-03 0. -1.
         11   -1    0    0    0    0 -0.00000000000E+00 -0.00000000000E+00 -0.45593999997E+02  0.45594000000E+02  0.51100000000E-03 0.  1.
         23    2    1    2    0    0  0.00000000000E+00  0.00000000000E+00  0.00000000000E+00  0.91188000000E+02  0.91188000000E+02 0.  0.
    9900012    2    3    3    0    0  0.25207994091E+01 -0.24312856870E+02 -0.35862987256E+02  0.47787270815E+02  0.19999998955E+02 0.  0.
         12    1    3    3    0    0 -0.25207994091E+01  0.24312856870E+02  0.35862987256E+02  0.43400729185E+02  0.00000000000E+00 0. -1.
         11    1    4    4    0    0  0.45062869985E+01 -0.83228617296E+01 -0.47068365268E+01  0.10570286668E+02  0.51100000000E-03 0. -1.
        -11    1    4    4    0    0  0.26648417658E+01 -0.19615237752E+01 -0.14831524101E+02  0.15196152953E+02  0.51100000000E-03 0.  1.
        -12    1    4    4    0    0 -0.46503293552E+01 -0.14028471365E+02 -0.16324626629E+02  0.22020831195E+02  0.00000000000E+00 0.  1.
</event>
<event>
 8    1  0.5834107E-011  0.9118800E+02  0.7816164E-02  0.1184000E+00
        -11   -1    0    0    0    0  0.00000000000E+00  0.00000000000E+00  0.45593999997E+02  0.45594000000E+02  0.51100000000E-03 0. -1.
         11   -1    0    0    0    0 -0.00000000000E+00 -0.00000000000E+00 -0.45593999997E+02  0.45594000000E+02  0.51100000000E-03 0.  1.
         23    2    1    2    0    0  0.17763568394E-14 -0.71054273576E-14  0.00000000000E+00  0.91188000000E+02  0.91188000000E+02 0.  0.
    9900012    2    3    3    0    0 -0.15124148870E+02  0.33304867606E+02 -0.23359565443E+02  0.47787269788E+02  0.19999994271E+02 0.  0.
         12    1    3    3    0    0  0.15124148870E+02 -0.33304867606E+02  0.23359565443E+02  0.43400730212E+02  0.00000000000E+00 0. -1.
         11    1    4    4    0    0  0.12283081214E+00  0.80110163697E+01 -0.38670776553E+01  0.88963903094E+01  0.51100000000E-03 0. -1.
        -11    1    4    4    0    0 -0.93144567567E+01  0.42038199206E+01 -0.10863863580E+01  0.10276742781E+02  0.51100000000E-03 0.  1.
        -12    1    4    4    0    0 -0.59325229253E+01  0.21090031315E+02 -0.18406101430E+02  0.28614136698E+02  0.00000000000E+00 0.  1.
</event>
<event>
 8    1  0.5834107E-011  0.9118800E+02  0.7816164E-02  0.1184000E+00
        -11   -1    0    0    0    0  0.00000000000E+00  0.00000000000E+00  0.45593999997E+02  0.45594000000E+02  0.51100000000E-03 0.  1.
         11   -1    0    0    0    0 -0.00000000000E+00 -0.00000000000E+00 -0.45593999997E+02  0.45594000000E+02  0.51100000000E-03 0. -1.
         23    2    1    2    0    0  0.35527136788E-14  0.00000000000E+00 -0.88817841970E-15  0.91188000000E+02  0.91188000000E+02 0.  0.
    9900012    2    3    3    0    0  0.25576826345E+02 -0.34593120668E+02 -0.57240836324E+01  0.47787272162E+02  0.20000005096E+02 0.  0.
         12    1    3    3    0    0 -0.25576826345E+02  0.34593120668E+02  0.57240836324E+01  0.43400727838E+02  0.00000000000E+00 0. -1.
         11    1    4    4    0    0  0.18233321708E+02 -0.15272407728E+02 -0.21646554798E+01  0.23882759303E+02  0.51100000000E-03 0. -1.
        -11    1    4    4    0    0  0.86047743456E+01 -0.20295215649E+02 -0.33403165834E+01  0.22295641613E+02  0.51100000000E-03 0.  1.
         12    1    4    4    0    0 -0.12612697085E+01  0.97450270909E+00 -0.21911156926E+00  0.16088712463E+01  0.00000000000E+00 0. -1.
</event>
<event>
 8    1  0.5834107E-011  0.9118800E+02  0.7816164E-02  0.1184000E+00
        -11   -1    0    0    0    0  0.00000000000E+00  0.00000000000E+00  0.45593999997E+02  0.45594000000E+02  0.51100000000E-03 0. -1.
         11   -1    0    0    0    0 -0.00000000000E+00 -0.00000000000E+00 -0.45593999997E+02  0.45594000000E+02  0.51100000000E-03 0.  1.
         23    2    1    2    0    0  0.22204460493E-15  0.00000000000E+00  0.00000000000E+00  0.91188000000E+02  0.91188000000E+02 0.  0.
    9900012    2    3    3    0    0 -0.18045269494E+01 -0.39128522922E+02 -0.18690257709E+02  0.47787270089E+02  0.19999995643E+02 0.  0.
         12    1    3    3    0    0  0.18045269494E+01  0.39128522922E+02  0.18690257709E+02  0.43400729911E+02  0.00000000000E+00 0. -1.
         11    1    4    4    0    0 -0.30531259800E+01 -0.36034588687E+01 -0.33927696144E+01  0.58152712736E+01  0.51100000000E-03 0. -1.
        -11    1    4    4    0    0  0.72765016726E+01 -0.29994125235E+02 -0.11310657549E+02  0.32871355307E+02  0.51100000000E-03 0.  1.
        -12    1    4    4    0    0 -0.60279026421E+01 -0.55309388180E+01 -0.39868305458E+01  0.91006435087E+01  0.00000000000E+00 0.  1.
</event>
<event>
 8    1  0.5834107E-011  0.9118800E+02  0.7816164E-02  0.1184000E+00
        -11   -1    0    0    0    0  0.00000000000E+00  0.00000000000E+00  0.45593999997E+02  0.45594000000E+02  0.51100000000E-03 0. -1.
         11   -1    0    0    0    0 -0.00000000000E+00 -0.00000000000E+00 -0.45593999997E+02  0.45594000000E+02  0.51100000000E-03 0.  1.
         23    2    1    2    0    0  0.00000000000E+00  0.00000000000E+00  0.00000000000E+00  0.91188000000E+02  0.91188000000E+02 0.  0.
    9900012    2    3    3    0    0 -0.85756160519E+01 -0.42929362460E+01  0.42327921876E+02  0.47787268870E+02  0.19999990087E+02 0.  0.
        -12    1    3    3    0    0  0.85756160519E+01  0.42929362460E+01 -0.42327921876E+02  0.43400731130E+02  0.00000000000E+00 0.  1.
         11    1    4    4    0    0 -0.22649625842E+01 -0.18515427952E+01  0.23183784999E+02  0.23367630461E+02  0.51100000000E-03 0. -1.
        -11    1    4    4    0    0 -0.28516705083E+01 -0.16874108399E+01  0.20396916950E+02  0.20664307425E+02  0.51100000000E-03 0.  1.
        -12    1    4    4    0    0 -0.34589829594E+01 -0.75398261089E+00 -0.12527800729E+01  0.37553309844E+01  0.00000000000E+00 0.  1.
</event>
<event>
 8    1  0.5834107E-011  0.9118800E+02  0.7816164E-02  0.1184000E+00
        -11   -1    0    0    0    0  0.00000000000E+00  0.00000000000E+00  0.45593999997E+02  0.45594000000E+02  0.51100000000E-03 0. -1.
         11   -1    0    0    0    0 -0.00000000000E+00 -0.00000000000E+00 -0.45593999997E+02  0.45594000000E+02  0.51100000000E-03 0.  1.
         23    2    1    2    0    0 -0.44408920985E-15  0.00000000000E+00 -0.17763568394E-14  0.91188000000E+02  0.91188000000E+02 0.  0.
    9900012    2    3    3    0    0 -0.24766342915E+01  0.42024103322E+02 -0.10557664151E+02  0.47787271322E+02  0.20000001268E+02 0.  0.
         12    1    3    3    0    0  0.24766342915E+01 -0.42024103322E+02  0.10557664151E+02  0.43400728678E+02  0.00000000000E+00 0. -1.
         11    1    4    4    0    0  0.43667242316E+01  0.35167046096E+01 -0.41086375388E+01  0.69509995333E+01  0.51100000000E-03 0. -1.
        -11    1    4    4    0    0 -0.71162862446E+01  0.13672819000E+02 -0.36736246270E+01  0.15845599625E+02  0.51100000000E-03 0.  1.
         12    1    4    4    0    0  0.27292772156E+00  0.24834579713E+02 -0.27754019854E+01  0.24990672164E+02  0.00000000000E+00 0. -1.
</event>
<event>
 8    1  0.5834107E-011  0.9118800E+02  0.7816164E-02  0.1184000E+00
        -11   -1    0    0    0    0  0.00000000000E+00  0.00000000000E+00  0.45593999997E+02  0.45594000000E+02  0.51100000000E-03 0. -1.
         11   -1    0    0    0    0 -0.00000000000E+00 -0.00000000000E+00 -0.45593999997E+02  0.45594000000E+02  0.51100000000E-03 0.  1.
         23    2    1    2    0    0  0.00000000000E+00 -0.17763568394E-14  0.71054273576E-14  0.91188000000E+02  0.91188000000E+02 0.  0.
    9900012    2    3    3    0    0  0.13920888386E+02 -0.91264822310E+01 -0.40081660504E+02  0.47787270512E+02  0.19999997572E+02 0.  0.
         12    1    3    3    0    0 -0.13920888386E+02  0.91264822310E+01  0.40081660504E+02  0.43400729488E+02  0.00000000000E+00 0. -1.
         11    1    4    4    0    0 -0.27434296552E+01 -0.28248429317E+01 -0.72187199715E+01  0.82228986464E+01  0.51100000000E-03 0. -1.
        -11    1    4    4    0    0  0.11180553653E+02 -0.97735865550E+01 -0.17924987409E+02  0.23277305428E+02  0.51100000000E-03 0.  1.
         12    1    4    4    0    0  0.54837643885E+01  0.34719472557E+01 -0.14937953123E+02  0.16287066437E+02  0.00000000000E+00 0. -1.
</event>
<event>
 8    1  0.5834107E-011  0.9118800E+02  0.7816164E-02  0.1184000E+00
        -11   -1    0    0    0    0  0.00000000000E+00  0.00000000000E+00  0.45593999997E+02  0.45594000000E+02  0.51100000000E-03 0.  1.
         11   -1    0    0    0    0 -0.00000000000E+00 -0.00000000000E+00 -0.45593999997E+02  0.45594000000E+02  0.51100000000E-03 0. -1.
         23    2    1    2    0    0  0.00000000000E+00  0.00000000000E+00  0.35527136788E-14  0.91188000000E+02  0.91188000000E+02 0.  0.
    9900012    2    3    3    0    0 -0.24696809544E+02  0.23556404443E+02 -0.26810199682E+02  0.47787269604E+02  0.19999993433E+02 0.  0.
         12    1    3    3    0    0  0.24696809544E+02 -0.23556404443E+02  0.26810199682E+02  0.43400730396E+02  0.00000000000E+00 0. -1.
         11    1    4    4    0    0 -0.24708452332E+01  0.71258102486E+01 -0.84592338511E+01  0.11333176319E+02  0.51100000000E-03 0. -1.
        -11    1    4    4    0    0 -0.84403505188E+01  0.16465913389E+01  0.76406431080E+00  0.86333408626E+01  0.51100000000E-03 0.  1.
        -12    1    4    4    0    0 -0.13785613792E+02  0.14784002855E+02 -0.19115030142E+02  0.27820752423E+02  0.00000000000E+00 0.  1.
</event>
<event>
 8    1  0.5834107E-011  0.9118800E+02  0.7816164E-02  0.1184000E+00
        -11   -1    0    0    0    0  0.00000000000E+00  0.00000000000E+00  0.45593999997E+02  0.45594000000E+02  0.51100000000E-03 0. -1.
         11   -1    0    0    0    0 -0.00000000000E+00 -0.00000000000E+00 -0.45593999997E+02  0.45594000000E+02  0.51100000000E-03 0.  1.
         23    2    1    2    0    0 -0.71054273576E-14  0.00000000000E+00  0.35527136788E-14  0.91188000000E+02  0.91188000000E+02 0.  0.
    9900012    2    3    3    0    0 -0.39971605513E+02 -0.34309419260E+01  0.16556644015E+02  0.47787273384E+02  0.20000010667E+02 0.  0.
        -12    1    3    3    0    0  0.39971605513E+02  0.34309419260E+01 -0.16556644015E+02  0.43400726616E+02  0.00000000000E+00 0.  1.
         11    1    4    4    0    0 -0.48689200469E+01 -0.73069931118E+00  0.71674658869E+01  0.86955661925E+01  0.51100000000E-03 0. -1.
        -11    1    4    4    0    0 -0.28834551717E+02  0.34565645823E+01  0.85074682099E+01  0.30261464390E+02  0.51100000000E-03 0.  1.
        -12    1    4    4    0    0 -0.62681337491E+01 -0.61568071971E+01  0.88170991808E+00  0.88302428018E+01  0.00000000000E+00 0.  1.
</event>
<event>
 8    1  0.5834107E-011  0.9118800E+02  0.7816164E-02  0.1184000E+00
        -11   -1    0    0    0    0  0.00000000000E+00  0.00000000000E+00  0.45593999997E+02  0.45594000000E+02  0.51100000000E-03 0. -1.
         11   -1    0    0    0    0 -0.00000000000E+00 -0.00000000000E+00 -0.45593999997E+02  0.45594000000E+02  0.51100000000E-03 0.  1.
         23    2    1    2    0    0  0.00000000000E+00  0.00000000000E+00 -0.17763568394E-14  0.91188000000E+02  0.91188000000E+02 0.  0.
    9900012    2    3    3    0    0 -0.90864520328E+01  0.41587795288E+02 -0.84564013258E+01  0.47787319696E+02  0.20000221819E+02 0.  0.
         12    1    3    3    0    0  0.90864520328E+01 -0.41587795288E+02  0.84564013258E+01  0.43400680304E+02  0.00000000000E+00 0. -1.
         11    1    4    4    0    0 -0.64998368033E+01  0.26632468865E+02 -0.13162417804E+02  0.30410286401E+02  0.51100000000E-03 0. -1.
        -11    1    4    4    0    0  0.50532602621E+00  0.32129842799E+01 -0.16765590085E+01  0.36591628477E+01  0.51100000000E-03 0.  1.
        -12    1    4    4    0    0 -0.30919412557E+01  0.11742342144E+02  0.63825754865E+01  0.13717870447E+02  0.00000000000E+00 0.  1.
</event>
<event>
 8    1  0.5834107E-011  0.9118800E+02  0.7816164E-02  0.1184000E+00
        -11   -1    0    0    0    0  0.00000000000E+00  0.00000000000E+00  0.45593999997E+02  0.45594000000E+02  0.51100000000E-03 0. -1.
         11   -1    0    0    0    0 -0.00000000000E+00 -0.00000000000E+00 -0.45593999997E+02  0.45594000000E+02  0.51100000000E-03 0.  1.
         23    2    1    2    0    0  0.88817841970E-15  0.83266726847E-16  0.00000000000E+00  0.91188000000E+02  0.91188000000E+02 0.  0.
    9900012    2    3    3    0    0 -0.51278352071E+01 -0.17576604490E+00  0.43096379537E+02  0.47787268246E+02  0.19999987240E+02 0.  0.
        -12    1    3    3    0    0  0.51278352071E+01  0.17576604490E+00 -0.43096379537E+02  0.43400731754E+02  0.00000000000E+00 0.  1.
         11    1    4    4    0    0 -0.43550779559E+01  0.16924391776E+01  0.17669148689E+02  0.18276484072E+02  0.51100000000E-03 0. -1.
        -11    1    4    4    0    0  0.29301973775E+01  0.20123027003E+00  0.25083526720E+02  0.25254897807E+02  0.51100000000E-03 0.  1.
        -12    1    4    4    0    0 -0.37029546286E+01 -0.20694354925E+01  0.34370412819E+00  0.42558863668E+01  0.00000000000E+00 0.  1.
</event>
<event>
 8    1  0.5834107E-011  0.9118800E+02  0.7816164E-02  0.1184000E+00
        -11   -1    0    0    0    0  0.00000000000E+00  0.00000000000E+00  0.45593999997E+02  0.45594000000E+02  0.51100000000E-03 0. -1.
         11   -1    0    0    0    0 -0.00000000000E+00 -0.00000000000E+00 -0.45593999997E+02  0.45594000000E+02  0.51100000000E-03 0.  1.
         23    2    1    2    0    0  0.00000000000E+00  0.00000000000E+00  0.00000000000E+00  0.91188000000E+02  0.91188000000E+02 0.  0.
    9900012    2    3    3    0    0 -0.30051821463E+02 -0.25147412969E+02 -0.18657969913E+02  0.47787260449E+02  0.19999951693E+02 0.  0.
         12    1    3    3    0    0  0.30051821463E+02  0.25147412969E+02  0.18657969913E+02  0.43400739551E+02  0.00000000000E+00 0. -1.
         11    1    4    4    0    0 -0.10270385143E-01  0.12070766824E+00 -0.13292380926E+01  0.13347471633E+01  0.51100000000E-03 0. -1.
        -11    1    4    4    0    0 -0.20250308010E+02 -0.24302619192E+02 -0.18333838598E+02  0.36562575293E+02  0.51100000000E-03 0.  1.
         12    1    4    4    0    0 -0.97912430684E+01 -0.96550144470E+00  0.10051067776E+01  0.98899379926E+01  0.00000000000E+00 0. -1.
</event>
<event>
 8    1  0.5834107E-011  0.9118800E+02  0.7816164E-02  0.1184000E+00
        -11   -1    0    0    0    0  0.00000000000E+00  0.00000000000E+00  0.45593999997E+02  0.45594000000E+02  0.51100000000E-03 0. -1.
         11   -1    0    0    0    0 -0.00000000000E+00 -0.00000000000E+00 -0.45593999997E+02  0.45594000000E+02  0.51100000000E-03 0.  1.
         23    2    1    2    0    0  0.00000000000E+00  0.00000000000E+00  0.00000000000E+00  0.91188000000E+02  0.91188000000E+02 0.  0.
    9900012    2    3    3    0    0 -0.37217817301E+02  0.18458540333E+02  0.12559465791E+02  0.47787264789E+02  0.19999971481E+02 0.  0.
        -12    1    3    3    0    0  0.37217817301E+02 -0.18458540333E+02 -0.12559465791E+02  0.43400735211E+02  0.00000000000E+00 0.  1.
         11    1    4    4    0    0 -0.82055573153E+01  0.70207425125E+01  0.85218039778E+01  0.13756567144E+02  0.51100000000E-03 0. -1.
        -11    1    4    4    0    0 -0.15986662904E+02  0.12597018388E+02  0.30212248990E-01  0.20353357859E+02  0.51100000000E-03 0.  1.
        -12    1    4    4    0    0 -0.13025597081E+02 -0.11592205672E+01  0.40074495641E+01  0.13677339787E+02  0.00000000000E+00 0.  1.
</event>
<event>
 8    1  0.5834107E-011  0.9118800E+02  0.7816164E-02  0.1184000E+00
        -11   -1    0    0    0    0  0.00000000000E+00  0.00000000000E+00  0.45593999997E+02  0.45594000000E+02  0.51100000000E-03 0. -1.
         11   -1    0    0    0    0 -0.00000000000E+00 -0.00000000000E+00 -0.45593999997E+02  0.45594000000E+02  0.51100000000E-03 0.  1.
         23    2    1    2    0    0 -0.17763568394E-14  0.17763568394E-14  0.00000000000E+00  0.91188000000E+02  0.91188000000E+02 0.  0.
    9900012    2    3    3    0    0 -0.78249339797E+01  0.12651967223E+02  0.40771577705E+02  0.47787269420E+02  0.19999992592E+02 0.  0.
        -12    1    3    3    0    0  0.78249339797E+01 -0.12651967223E+02 -0.40771577705E+02  0.43400730580E+02  0.00000000000E+00 0.  1.
         11    1    4    4    0    0 -0.64667087474E+01  0.73768818883E+01  0.26880993139E+02  0.28615109660E+02  0.51100000000E-03 0. -1.
        -11    1    4    4    0    0 -0.22747366450E+01 -0.19019336461E+01 -0.55436805702E+00  0.30164718799E+01  0.51100000000E-03 0.  1.
         12    1    4    4    0    0  0.91651141277E+00  0.71770189806E+01  0.14444952622E+02  0.16155687880E+02  0.00000000000E+00 0. -1.
</event>
<event>
 8    1  0.5834107E-011  0.9118800E+02  0.7816164E-02  0.1184000E+00
        -11   -1    0    0    0    0  0.00000000000E+00  0.00000000000E+00  0.45593999997E+02  0.45594000000E+02  0.51100000000E-03 0. -1.
         11   -1    0    0    0    0 -0.00000000000E+00 -0.00000000000E+00 -0.45593999997E+02  0.45594000000E+02  0.51100000000E-03 0.  1.
         23    2    1    2    0    0 -0.35527136788E-14  0.00000000000E+00  0.00000000000E+00  0.91188000000E+02  0.91188000000E+02 0.  0.
    9900012    2    3    3    0    0 -0.30742673946E+02 -0.19717843688E+02 -0.23446063979E+02  0.47787271007E+02  0.19999999829E+02 0.  0.
         12    1    3    3    0    0  0.30742673946E+02  0.19717843688E+02  0.23446063979E+02  0.43400728993E+02  0.00000000000E+00 0. -1.
         11    1    4    4    0    0 -0.31210901710E+01 -0.94578358830E+01 -0.60656973295E+01  0.11661241263E+02  0.51100000000E-03 0. -1.
        -11    1    4    4    0    0 -0.14878243555E+02 -0.64078874445E+01 -0.15954664149E+02  0.22737072396E+02  0.51100000000E-03 0.  1.
        -12    1    4    4    0    0 -0.12743340220E+02 -0.38521203605E+01 -0.14257025002E+01  0.13388957348E+02  0.00000000000E+00 0.  1.
</event>
<event>
 8    1  0.5834107E-011  0.9118800E+02  0.7816164E-02  0.1184000E+00
        -11   -1    0    0    0    0  0.00000000000E+00  0.00000000000E+00  0.45593999997E+02  0.45594000000E+02  0.51100000000E-03 0.  1.
         11   -1    0    0    0    0 -0.00000000000E+00 -0.00000000000E+00 -0.45593999997E+02  0.45594000000E+02  0.51100000000E-03 0. -1.
         23    2    1    2    0    0  0.00000000000E+00 -0.17763568394E-14  0.00000000000E+00  0.91188000000E+02  0.91188000000E+02 0.  0.
    9900012    2    3    3    0    0 -0.39128767627E+02  0.13545016020E+02  0.13003676129E+02  0.47787268349E+02  0.19999987709E+02 0.  0.
        -12    1    3    3    0    0  0.39128767627E+02 -0.13545016020E+02 -0.13003676129E+02  0.43400731651E+02  0.00000000000E+00 0.  1.
         11    1    4    4    0    0 -0.28167194806E+02  0.16581441380E+02  0.12543073754E+02  0.35009481015E+02  0.51100000000E-03 0. -1.
        -11    1    4    4    0    0 -0.41671963673E+01  0.62544366300E+00 -0.20167433010E+01  0.46716120496E+01  0.51100000000E-03 0.  1.
        -12    1    4    4    0    0 -0.67943764540E+01 -0.36618690232E+01  0.24773456759E+01  0.81061752843E+01  0.00000000000E+00 0.  1.
</event>
<event>
 8    1  0.5834107E-011  0.9118800E+02  0.7816164E-02  0.1184000E+00
        -11   -1    0    0    0    0  0.00000000000E+00  0.00000000000E+00  0.45593999997E+02  0.45594000000E+02  0.51100000000E-03 0. -1.
         11   -1    0    0    0    0 -0.00000000000E+00 -0.00000000000E+00 -0.45593999997E+02  0.45594000000E+02  0.51100000000E-03 0.  1.
         23    2    1    2    0    0  0.00000000000E+00  0.35527136788E-14  0.17763568394E-14  0.91188000000E+02  0.91188000000E+02 0.  0.
    9900012    2    3    3    0    0  0.33994012654E+02 -0.22470020458E+02 -0.14937487032E+02  0.47787271498E+02  0.20000002068E+02 0.  0.
         12    1    3    3    0    0 -0.33994012654E+02  0.22470020458E+02  0.14937487032E+02  0.43400728502E+02  0.00000000000E+00 0. -1.
         11    1    4    4    0    0  0.10087425217E+02  0.66993656708E+00 -0.19995957041E+01  0.10305500753E+02  0.51100000000E-03 0. -1.
        -11    1    4    4    0    0  0.45207861715E+01  0.42456686851E-01 -0.38135130454E+01  0.59145745567E+01  0.51100000000E-03 0.  1.
        -12    1    4    4    0    0  0.19385801265E+02 -0.23182413712E+02 -0.91243782826E+01  0.31567196189E+02  0.00000000000E+00 0.  1.
</event>
<event>
 8    1  0.5834107E-011  0.9118800E+02  0.7816164E-02  0.1184000E+00
        -11   -1    0    0    0    0  0.00000000000E+00  0.00000000000E+00  0.45593999997E+02  0.45594000000E+02  0.51100000000E-03 0. -1.
         11   -1    0    0    0    0 -0.00000000000E+00 -0.00000000000E+00 -0.45593999997E+02  0.45594000000E+02  0.51100000000E-03 0.  1.
         23    2    1    2    0    0 -0.35527136788E-14  0.00000000000E+00  0.00000000000E+00  0.91188000000E+02  0.91188000000E+02 0.  0.
    9900012    2    3    3    0    0 -0.18943800931E+02 -0.18081649573E+02 -0.34609388927E+02  0.47787269051E+02  0.19999990912E+02 0.  0.
         12    1    3    3    0    0  0.18943800931E+02  0.18081649573E+02  0.34609388927E+02  0.43400730949E+02  0.00000000000E+00 0. -1.
         11    1    4    4    0    0 -0.49941026092E+01  0.80949143602E-01 -0.71997208522E+01  0.87626248491E+01  0.51100000000E-03 0.  1.
        -11    1    4    4    0    0 -0.14348262206E+02 -0.59076844171E+01 -0.15330906885E+02  0.21813071074E+02  0.51100000000E-03 0. -1.
        -12    1    4    4    0    0  0.39856388465E+00 -0.12254914299E+02 -0.12078761190E+02  0.17211573128E+02  0.00000000000E+00 0.  1.
</event>
<event>
 8    1  0.5834107E-011  0.9118800E+02  0.7816164E-02  0.1184000E+00
        -11   -1    0    0    0    0  0.00000000000E+00  0.00000000000E+00  0.45593999997E+02  0.45594000000E+02  0.51100000000E-03 0.  1.
         11   -1    0    0    0    0 -0.00000000000E+00 -0.00000000000E+00 -0.45593999997E+02  0.45594000000E+02  0.51100000000E-03 0. -1.
         23    2    1    2    0    0 -0.17763568394E-14  0.00000000000E+00  0.00000000000E+00  0.91188000000E+02  0.91188000000E+02 0.  0.
    9900012    2    3    3    0    0  0.13402253799E+02  0.40676788892E+02 -0.70285961716E+01  0.47787277361E+02  0.20000028801E+02 0.  0.
         12    1    3    3    0    0 -0.13402253799E+02 -0.40676788892E+02  0.70285961716E+01  0.43400722639E+02  0.00000000000E+00 0. -1.
         11    1    4    4    0    0  0.27856765209E+01  0.10643655315E+02 -0.75241323579E+01  0.13328914440E+02  0.51100000000E-03 0. -1.
        -11    1    4    4    0    0  0.69347864823E+01  0.29700347454E+02 -0.88539598543E+00  0.30512060382E+02  0.51100000000E-03 0.  1.
         12    1    4    4    0    0  0.36817907957E+01  0.33278612195E+00  0.13809321717E+01  0.39463025390E+01  0.00000000000E+00 0. -1.
</event>
<event>
 8    1  0.5834107E-011  0.9118800E+02  0.7816164E-02  0.1184000E+00
        -11   -1    0    0    0    0  0.00000000000E+00  0.00000000000E+00  0.45593999997E+02  0.45594000000E+02  0.51100000000E-03 0. -1.
         11   -1    0    0    0    0 -0.00000000000E+00 -0.00000000000E+00 -0.45593999997E+02  0.45594000000E+02  0.51100000000E-03 0.  1.
         23    2    1    2    0    0  0.00000000000E+00  0.00000000000E+00 -0.17763568394E-14  0.91188000000E+02  0.91188000000E+02 0.  0.
    9900012    2    3    3    0    0  0.37105280781E+02  0.20119897470E+02 -0.10100066271E+02  0.47787268730E+02  0.19999989449E+02 0.  0.
         12    1    3    3    0    0 -0.37105280781E+02 -0.20119897470E+02  0.10100066271E+02  0.43400731270E+02  0.00000000000E+00 0. -1.
         11    1    4    4    0    0  0.50689814940E+01  0.36056467371E+01 -0.47337257475E+01  0.78168677546E+01  0.51100000000E-03 0. -1.
        -11    1    4    4    0    0  0.30240598144E+02  0.12866910190E+02  0.45826498000E+00  0.32867326648E+02  0.51100000000E-03 0.  1.
        -12    1    4    4    0    0  0.17957011429E+01  0.36473405430E+01 -0.58246055034E+01  0.71030743275E+01  0.00000000000E+00 0.  1.
</event>
<event>
 8    1  0.5834107E-011  0.9118800E+02  0.7816164E-02  0.1184000E+00
        -11   -1    0    0    0    0  0.00000000000E+00  0.00000000000E+00  0.45593999997E+02  0.45594000000E+02  0.51100000000E-03 0.  1.
         11   -1    0    0    0    0 -0.00000000000E+00 -0.00000000000E+00 -0.45593999997E+02  0.45594000000E+02  0.51100000000E-03 0. -1.
         23    2    1    2    0    0 -0.71054273576E-14 -0.88817841970E-15  0.44408920985E-15  0.91188000000E+02  0.91188000000E+02 0.  0.
    9900012    2    3    3    0    0  0.42806945900E+02  0.69783106549E+01 -0.15774489410E+01  0.47787311272E+02  0.20000183415E+02 0.  0.
        -12    1    3    3    0    0 -0.42806945900E+02 -0.69783106549E+01  0.15774489410E+01  0.43400688728E+02  0.00000000000E+00 0.  1.
         11    1    4    4    0    0  0.33667571084E+01  0.14739215229E+01 -0.34013895711E+01  0.50076890237E+01  0.51100000000E-03 0. -1.
        -11    1    4    4    0    0  0.39083317083E+02  0.82090828058E+01  0.10751957449E+01  0.39950604011E+02  0.51100000000E-03 0.  1.
        -12    1    4    4    0    0  0.35687170877E+00 -0.27046936738E+01  0.74874488528E+00  0.28290182376E+01  0.00000000000E+00 0.  1.
</event>
<event>
 8    1  0.5834107E-011  0.9118800E+02  0.7816164E-02  0.1184000E+00
        -11   -1    0    0    0    0  0.00000000000E+00  0.00000000000E+00  0.45593999997E+02  0.45594000000E+02  0.51100000000E-03 0. -1.
         11   -1    0    0    0    0 -0.00000000000E+00 -0.00000000000E+00 -0.45593999997E+02  0.45594000000E+02  0.51100000000E-03 0.  1.
         23    2    1    2    0    0  0.00000000000E+00  0.00000000000E+00 -0.88817841970E-15  0.91188000000E+02  0.91188000000E+02 0.  0.
    9900012    2    3    3    0    0  0.37978895405E+00 -0.42741884959E+02  0.75239801427E+01  0.47787271358E+02  0.20000001429E+02 0.  0.
        -12    1    3    3    0    0 -0.37978895405E+00  0.42741884959E+02 -0.75239801427E+01  0.43400728642E+02  0.00000000000E+00 0.  1.
         11    1    4    4    0    0  0.43104020716E+01 -0.68872270993E+01  0.36641460396E+01  0.89128799833E+01  0.51100000000E-03 0. -1.
        -11    1    4    4    0    0 -0.14357421198E+01 -0.13702335171E-01  0.25456870549E+01  0.29226813086E+01  0.51100000000E-03 0.  1.
        -12    1    4    4    0    0 -0.24948709977E+01 -0.35840955524E+02  0.13141470482E+01  0.35951710066E+02  0.00000000000E+00 0.  1.
</event>
<event>
 8    1  0.6208972E-011  0.9118800E+02  0.7816164E-02  0.1184000E+00
        -11   -1    0    0    0    0  0.00000000000E+00  0.00000000000E+00  0.45593999997E+02  0.45594000000E+02  0.51100000000E-03 0. -1.
         11   -1    0    0    0    0 -0.00000000000E+00 -0.00000000000E+00 -0.45593999997E+02  0.45594000000E+02  0.51100000000E-03 0.  1.
         23    2    1    2    0    0 -0.17763568394E-14  0.17763568394E-14  0.14210854715E-13  0.91188000000E+02  0.91188000000E+02 0.  0.
    9900012    2    3    3    0    0  0.76860611530E+01 -0.83282950560E+01 -0.41894952285E+02  0.47787273491E+02  0.20000011153E+02 0.  0.
         12    1    3    3    0    0 -0.76860611530E+01  0.83282950560E+01  0.41894952285E+02  0.43400726509E+02  0.00000000000E+00 0. -1.
         11    1    4    4    0    0  0.14985247314E+00  0.21882942342E+01 -0.17944532122E+02  0.18078089522E+02  0.51100000000E-03 0. -1.
        -11    1    4    4    0    0  0.93323167393E+01 -0.64773062294E+01 -0.22232286934E+02  0.24966421736E+02  0.51100000000E-03 0.  1.
         12    1    4    4    0    0 -0.17961080595E+01 -0.40392830608E+01 -0.17181332292E+01  0.47427622332E+01  0.00000000000E+00 0. -1.
</event>
<event>
 8    1  0.5834107E-011  0.9118800E+02  0.7816164E-02  0.1184000E+00
        -11   -1    0    0    0    0  0.00000000000E+00  0.00000000000E+00  0.45593999997E+02  0.45594000000E+02  0.51100000000E-03 0. -1.
         11   -1    0    0    0    0 -0.00000000000E+00 -0.00000000000E+00 -0.45593999997E+02  0.45594000000E+02  0.51100000000E-03 0.  1.
         23    2    1    2    0    0 -0.17763568394E-14  0.13322676296E-14  0.00000000000E+00  0.91188000000E+02  0.91188000000E+02 0.  0.
    9900012    2    3    3    0    0  0.92524693644E+01 -0.17933777273E+01 -0.42365064635E+02  0.47787273110E+02  0.20000009419E+02 0.  0.
         12    1    3    3    0    0 -0.92524693644E+01  0.17933777273E+01  0.42365064635E+02  0.43400726890E+02  0.00000000000E+00 0. -1.
         11    1    4    4    0    0  0.88843823716E+01 -0.10177809434E+01 -0.13947494694E+02  0.16568063758E+02  0.51100000000E-03 0. -1.
        -11    1    4    4    0    0  0.13833162194E+01 -0.54847474863E+01 -0.58279470143E+01  0.81216368679E+01  0.51100000000E-03 0.  1.
        -12    1    4    4    0    0 -0.10152292266E+01  0.47091507024E+01 -0.22589622927E+02  0.23097572485E+02  0.00000000000E+00 0.  1.
</event>
<event>
 8    1  0.5834107E-011  0.9118800E+02  0.7816164E-02  0.1184000E+00
        -11   -1    0    0    0    0  0.00000000000E+00  0.00000000000E+00  0.45593999997E+02  0.45594000000E+02  0.51100000000E-03 0. -1.
         11   -1    0    0    0    0 -0.00000000000E+00 -0.00000000000E+00 -0.45593999997E+02  0.45594000000E+02  0.51100000000E-03 0.  1.
         23    2    1    2    0    0  0.00000000000E+00 -0.35527136788E-14  0.00000000000E+00  0.91188000000E+02  0.91188000000E+02 0.  0.
    9900012    2    3    3    0    0  0.21447157497E+02  0.25332285725E+02  0.27962800313E+02  0.47787268830E+02  0.19999989902E+02 0.  0.
        -12    1    3    3    0    0 -0.21447157497E+02 -0.25332285725E+02 -0.27962800313E+02  0.43400731170E+02  0.00000000000E+00 0.  1.
         11    1    4    4    0    0  0.11906618201E+02  0.14895270905E+02  0.14983760391E+02  0.24251798449E+02  0.51100000000E-03 0. -1.
        -11    1    4    4    0    0 -0.70740601247E+00  0.19933638614E+01  0.96049662936E+01  0.98351055161E+01  0.51100000000E-03 0.  1.
         12    1    4    4    0    0  0.10247945309E+02  0.84436509589E+01  0.33740736284E+01  0.13700364864E+02  0.00000000000E+00 0. -1.
</event>
<event>
 8    1  0.5834107E-011  0.9118800E+02  0.7816164E-02  0.1184000E+00
        -11   -1    0    0    0    0  0.00000000000E+00  0.00000000000E+00  0.45593999997E+02  0.45594000000E+02  0.51100000000E-03 0. -1.
         11   -1    0    0    0    0 -0.00000000000E+00 -0.00000000000E+00 -0.45593999997E+02  0.45594000000E+02  0.51100000000E-03 0.  1.
         23    2    1    2    0    0  0.27755575616E-16  0.00000000000E+00 -0.71054273576E-14  0.91188000000E+02  0.91188000000E+02 0.  0.
    9900012    2    3    3    0    0 -0.18480035925E+00 -0.25253948660E+02 -0.35296280574E+02  0.47787268480E+02  0.19999988309E+02 0.  0.
         12    1    3    3    0    0  0.18480035925E+00  0.25253948660E+02  0.35296280574E+02  0.43400731520E+02  0.00000000000E+00 0. -1.
         11    1    4    4    0    0 -0.32350384153E+01 -0.12495239138E+02 -0.21783592819E+02  0.25320375018E+02  0.51100000000E-03 0. -1.
        -11    1    4    4    0    0  0.67176420581E+01 -0.11164166072E+02 -0.13050397743E+02  0.18441209299E+02  0.51100000000E-03 0.  1.
         12    1    4    4    0    0 -0.36674040020E+01 -0.15945434498E+01 -0.46229001156E+00  0.40256841632E+01  0.00000000000E+00 0. -1.
</event>
<event>
 8    1  0.5834107E-011  0.9118800E+02  0.7816164E-02  0.1184000E+00
        -11   -1    0    0    0    0  0.00000000000E+00  0.00000000000E+00  0.45593999997E+02  0.45594000000E+02  0.51100000000E-03 0. -1.
         11   -1    0    0    0    0 -0.00000000000E+00 -0.00000000000E+00 -0.45593999997E+02  0.45594000000E+02  0.51100000000E-03 0.  1.
         23    2    1    2    0    0  0.00000000000E+00  0.00000000000E+00  0.00000000000E+00  0.91188000000E+02  0.91188000000E+02 0.  0.
    9900012    2    3    3    0    0  0.36272270470E+02 -0.15593666048E+02 -0.18021742516E+02  0.47787271559E+02  0.20000002346E+02 0.  0.
         12    1    3    3    0    0 -0.36272270470E+02  0.15593666048E+02  0.18021742516E+02  0.43400728441E+02  0.00000000000E+00 0. -1.
         11    1    4    4    0    0  0.85124933787E+01 -0.24299450373E+01 -0.24762588338E+01  0.91923356379E+01  0.51100000000E-03 0. -1.
        -11    1    4    4    0    0  0.20513328316E+02 -0.84236142215E+00 -0.59384253206E+01  0.21372204072E+02  0.51100000000E-03 0.  1.
         12    1    4    4    0    0  0.72464487759E+01 -0.12321359589E+02 -0.96070583612E+01  0.17222731849E+02  0.00000000000E+00 0. -1.
</event>
<event>
 8    1  0.5834107E-011  0.9118800E+02  0.7816164E-02  0.1184000E+00
        -11   -1    0    0    0    0  0.00000000000E+00  0.00000000000E+00  0.45593999997E+02  0.45594000000E+02  0.51100000000E-03 0. -1.
         11   -1    0    0    0    0 -0.00000000000E+00 -0.00000000000E+00 -0.45593999997E+02  0.45594000000E+02  0.51100000000E-03 0.  1.
         23    2    1    2    0    0  0.00000000000E+00  0.17763568394E-14  0.00000000000E+00  0.91188000000E+02  0.91188000000E+02 0.  0.
    9900012    2    3    3    0    0  0.80891525948E+01 -0.83553923465E+01  0.41813579012E+02  0.47787281564E+02  0.20000047965E+02 0.  0.
        -12    1    3    3    0    0 -0.80891525948E+01  0.83553923465E+01 -0.41813579012E+02  0.43400718436E+02  0.00000000000E+00 0.  1.
         11    1    4    4    0    0 -0.34599866341E+01  0.14446544462E+00  0.10560636388E+02  0.11113929051E+02  0.51100000000E-03 0. -1.
        -11    1    4    4    0    0  0.60508552719E+01 -0.99429530313E+01  0.27499892897E+02  0.29861668977E+02  0.51100000000E-03 0.  1.
        -12    1    4    4    0    0  0.54982839570E+01  0.14430952402E+01  0.37530497265E+01  0.68116835360E+01  0.00000000000E+00 0.  1.
</event>
<event>
 8    1  0.5834107E-011  0.9118800E+02  0.7816164E-02  0.1184000E+00
        -11   -1    0    0    0    0  0.00000000000E+00  0.00000000000E+00  0.45593999997E+02  0.45594000000E+02  0.51100000000E-03 0. -1.
         11   -1    0    0    0    0 -0.00000000000E+00 -0.00000000000E+00 -0.45593999997E+02  0.45594000000E+02  0.51100000000E-03 0.  1.
         23    2    1    2    0    0  0.00000000000E+00  0.00000000000E+00 -0.71054273576E-14  0.91188000000E+02  0.91188000000E+02 0.  0.
    9900012    2    3    3    0    0 -0.16572473442E+02  0.22650637310E+02 -0.33104752703E+02  0.47787275374E+02  0.20000019742E+02 0.  0.
         12    1    3    3    0    0  0.16572473442E+02 -0.22650637310E+02  0.33104752703E+02  0.43400724626E+02  0.00000000000E+00 0. -1.
         11    1    4    4    0    0 -0.77490687787E+01  0.12544534014E+02 -0.21173175861E+02  0.25801487880E+02  0.51100000000E-03 0. -1.
        -11    1    4    4    0    0 -0.81273683169E+01  0.10634761029E+02 -0.14224614353E+02  0.19531817930E+02  0.51100000000E-03 0.  1.
         12    1    4    4    0    0 -0.69603634657E+00 -0.52865773284E+00  0.22930375109E+01  0.24539695639E+01  0.00000000000E+00 0. -1.
</event>
<event>
 8    1  0.5834107E-011  0.9118800E+02  0.7816164E-02  0.1184000E+00
        -11   -1    0    0    0    0  0.00000000000E+00  0.00000000000E+00  0.45593999997E+02  0.45594000000E+02  0.51100000000E-03 0. -1.
         11   -1    0    0    0    0 -0.00000000000E+00 -0.00000000000E+00 -0.45593999997E+02  0.45594000000E+02  0.51100000000E-03 0.  1.
         23    2    1    2    0    0 -0.66613381478E-15  0.00000000000E+00  0.00000000000E+00  0.91188000000E+02  0.91188000000E+02 0.  0.
    9900012    2    3    3    0    0 -0.11188414989E+01 -0.76491849577E+01  0.42706693133E+02  0.47787268725E+02  0.19999989427E+02 0.  0.
        -12    1    3    3    0    0  0.11188414989E+01  0.76491849577E+01 -0.42706693133E+02  0.43400731275E+02  0.00000000000E+00 0.  1.
         11    1    4    4    0    0 -0.31440490366E+01 -0.69927352269E+01  0.15636458825E+02  0.17415000292E+02  0.51100000000E-03 0. -1.
        -11    1    4    4    0    0  0.77096939787E+01 -0.11887173858E+01  0.12636551802E+02  0.14850416559E+02  0.51100000000E-03 0.  1.
         12    1    4    4    0    0 -0.56844864409E+01  0.53226765495E+00  0.14433682506E+02  0.15521851875E+02  0.00000000000E+00 0. -1.
</event>
<event>
 8    1  0.5834107E-011  0.9118800E+02  0.7816164E-02  0.1184000E+00
        -11   -1    0    0    0    0  0.00000000000E+00  0.00000000000E+00  0.45593999997E+02  0.45594000000E+02  0.51100000000E-03 0. -1.
         11   -1    0    0    0    0 -0.00000000000E+00 -0.00000000000E+00 -0.45593999997E+02  0.45594000000E+02  0.51100000000E-03 0.  1.
         23    2    1    2    0    0  0.00000000000E+00  0.17763568394E-14  0.00000000000E+00  0.91188000000E+02  0.91188000000E+02 0.  0.
    9900012    2    3    3    0    0  0.53402371800E+01  0.12292674806E+02  0.41279477050E+02  0.47787271751E+02  0.20000003222E+02 0.  0.
        -12    1    3    3    0    0 -0.53402371800E+01 -0.12292674806E+02 -0.41279477050E+02  0.43400728249E+02  0.00000000000E+00 0.  1.
         11    1    4    4    0    0  0.56309185779E+01  0.60139385558E+01  0.15174310168E+02  0.17266568574E+02  0.51100000000E-03 0. -1.
        -11    1    4    4    0    0 -0.42564590917E+01  0.18157925965E+01  0.23594330504E+02  0.24043855326E+02  0.51100000000E-03 0.  1.
        -12    1    4    4    0    0  0.39657776938E+01  0.44629436533E+01  0.25108363778E+01  0.64768478510E+01  0.00000000000E+00 0.  1.
</event>
<event>
 8    1  0.5834107E-011  0.9118800E+02  0.7816164E-02  0.1184000E+00
        -11   -1    0    0    0    0  0.00000000000E+00  0.00000000000E+00  0.45593999997E+02  0.45594000000E+02  0.51100000000E-03 0.  1.
         11   -1    0    0    0    0 -0.00000000000E+00 -0.00000000000E+00 -0.45593999997E+02  0.45594000000E+02  0.51100000000E-03 0. -1.
         23    2    1    2    0    0 -0.35527136788E-14  0.71054273576E-14  0.00000000000E+00  0.91188000000E+02  0.91188000000E+02 0.  0.
    9900012    2    3    3    0    0  0.28988960405E+02 -0.32056653491E+02  0.39540441333E+01  0.47787270473E+02  0.19999997396E+02 0.  0.
        -12    1    3    3    0    0 -0.28988960405E+02  0.32056653491E+02 -0.39540441333E+01  0.43400729527E+02  0.00000000000E+00 0.  1.
         11    1    4    4    0    0  0.71439643402E+01 -0.10993748648E+02  0.79045462596E+01  0.15309493383E+02  0.51100000000E-03 0. -1.
        -11    1    4    4    0    0  0.12996266077E+02 -0.19014063154E+02 -0.41020635872E+01  0.23393684094E+02  0.51100000000E-03 0.  1.
         12    1    4    4    0    0  0.88487299888E+01 -0.20488416894E+01  0.15156146089E+00  0.90840929959E+01  0.00000000000E+00 0. -1.
</event>
<event>
 8    1  0.5834107E-011  0.9118800E+02  0.7816164E-02  0.1184000E+00
        -11   -1    0    0    0    0  0.00000000000E+00  0.00000000000E+00  0.45593999997E+02  0.45594000000E+02  0.51100000000E-03 0. -1.
         11   -1    0    0    0    0 -0.00000000000E+00 -0.00000000000E+00 -0.45593999997E+02  0.45594000000E+02  0.51100000000E-03 0.  1.
         23    2    1    2    0    0 -0.17763568394E-14 -0.71054273576E-14  0.35527136788E-14  0.91188000000E+02  0.91188000000E+02 0.  0.
    9900012    2    3    3    0    0 -0.93953687349E+01 -0.34065272456E+02  0.25197377091E+02  0.47787267824E+02  0.19999985316E+02 0.  0.
        -12    1    3    3    0    0  0.93953687349E+01  0.34065272456E+02 -0.25197377091E+02  0.43400732176E+02  0.00000000000E+00 0.  1.
         11    1    4    4    0    0 -0.19866219883E+01 -0.28676316020E+02  0.13659473521E+02  0.31825445551E+02  0.51100000000E-03 0. -1.
        -11    1    4    4    0    0 -0.41643750629E+01 -0.63140345726E+01  0.88959735483E+01  0.11676788851E+02  0.51100000000E-03 0.  1.
        -12    1    4    4    0    0 -0.32443716837E+01  0.92507813661E+00  0.26419300219E+01  0.42850334212E+01  0.00000000000E+00 0.  1.
</event>
<event>
 8    1  0.5834107E-011  0.9118800E+02  0.7816164E-02  0.1184000E+00
        -11   -1    0    0    0    0  0.00000000000E+00  0.00000000000E+00  0.45593999997E+02  0.45594000000E+02  0.51100000000E-03 0. -1.
         11   -1    0    0    0    0 -0.00000000000E+00 -0.00000000000E+00 -0.45593999997E+02  0.45594000000E+02  0.51100000000E-03 0.  1.
         23    2    1    2    0    0  0.00000000000E+00  0.00000000000E+00  0.00000000000E+00  0.91188000000E+02  0.91188000000E+02 0.  0.
    9900012    2    3    3    0    0  0.98087026469E+01 -0.15625267114E+02 -0.39284405096E+02  0.47787261484E+02  0.19999956408E+02 0.  0.
         12    1    3    3    0    0 -0.98087026469E+01  0.15625267114E+02  0.39284405096E+02  0.43400738516E+02  0.00000000000E+00 0. -1.
         11    1    4    4    0    0  0.36099665951E+00  0.96365830377E+00 -0.49173929158E+01  0.50239137397E+01  0.51100000000E-03 0. -1.
        -11    1    4    4    0    0  0.12067758853E+02 -0.15490196123E+02 -0.19667758884E+02  0.27792044175E+02  0.51100000000E-03 0.  1.
        -12    1    4    4    0    0 -0.26200528653E+01 -0.10987292953E+01 -0.14699253296E+02  0.14971303569E+02  0.00000000000E+00 0.  1.
</event>
<event>
 8    1  0.6328373E-011  0.9118800E+02  0.7816164E-02  0.1184000E+00
        -11   -1    0    0    0    0  0.00000000000E+00  0.00000000000E+00  0.45593999997E+02  0.45594000000E+02  0.51100000000E-03 0. -1.
         11   -1    0    0    0    0 -0.00000000000E+00 -0.00000000000E+00 -0.45593999997E+02  0.45594000000E+02  0.51100000000E-03 0.  1.
         23    2    1    2    0    0  0.22204460493E-15  0.00000000000E+00  0.00000000000E+00  0.91188000000E+02  0.91188000000E+02 0.  0.
    9900012    2    3    3    0    0 -0.13513833519E+01  0.16764202855E+02 -0.40009481936E+02  0.47787269832E+02  0.19999994473E+02 0.  0.
         12    1    3    3    0    0  0.13513833519E+01 -0.16764202855E+02  0.40009481936E+02  0.43400730168E+02  0.00000000000E+00 0. -1.
         11    1    4    4    0    0  0.99024487865E+00  0.10522681044E+02 -0.77668900359E+01  0.13116096308E+02  0.51100000000E-03 0. -1.
        -11    1    4    4    0    0  0.29460598991E+01  0.63093512405E+01 -0.22906101202E+02  0.23941108048E+02  0.51100000000E-03 0.  1.
         12    1    4    4    0    0 -0.52876881297E+01 -0.67829428832E-01 -0.93364906975E+01  0.10730065477E+02  0.00000000000E+00 0. -1.
</event>
<event>
 8    1  0.5834107E-011  0.9118800E+02  0.7816164E-02  0.1184000E+00
        -11   -1    0    0    0    0  0.00000000000E+00  0.00000000000E+00  0.45593999997E+02  0.45594000000E+02  0.51100000000E-03 0.  1.
         11   -1    0    0    0    0 -0.00000000000E+00 -0.00000000000E+00 -0.45593999997E+02  0.45594000000E+02  0.51100000000E-03 0. -1.
         23    2    1    2    0    0 -0.44408920985E-15 -0.71054273576E-14  0.35527136788E-14  0.91188000000E+02  0.91188000000E+02 0.  0.
    9900012    2    3    3    0    0 -0.25709758456E+01 -0.36942529870E+02  0.22633232496E+02  0.47787266789E+02  0.19999980600E+02 0.  0.
        -12    1    3    3    0    0  0.25709758456E+01  0.36942529870E+02 -0.22633232496E+02  0.43400733211E+02  0.00000000000E+00 0.  1.
         11    1    4    4    0    0 -0.23994073012E+01 -0.18670515065E+02  0.54005595127E+01  0.19583445342E+02  0.51100000000E-03 0. -1.
        -11    1    4    4    0    0 -0.86448996959E+00 -0.19647328314E+02  0.17836120575E+02  0.26549803205E+02  0.51100000000E-03 0.  1.
        -12    1    4    4    0    0  0.69292142515E+00  0.13753135087E+01 -0.60344759188E+00  0.16540182419E+01  0.00000000000E+00 0.  1.
</event>
<event>
 8    1  0.5834107E-011  0.9118800E+02  0.7816164E-02  0.1184000E+00
        -11   -1    0    0    0    0  0.00000000000E+00  0.00000000000E+00  0.45593999997E+02  0.45594000000E+02  0.51100000000E-03 0. -1.
         11   -1    0    0    0    0 -0.00000000000E+00 -0.00000000000E+00 -0.45593999997E+02  0.45594000000E+02  0.51100000000E-03 0.  1.
         23    2    1    2    0    0  0.00000000000E+00  0.00000000000E+00  0.00000000000E+00  0.91188000000E+02  0.91188000000E+02 0.  0.
    9900012    2    3    3    0    0  0.59292886859E+01 -0.56621759975E+01  0.42619323846E+02  0.47787268826E+02  0.19999989887E+02 0.  0.
        -12    1    3    3    0    0 -0.59292886859E+01  0.56621759975E+01 -0.42619323846E+02  0.43400731174E+02  0.00000000000E+00 0.  1.
         11    1    4    4    0    0  0.66832768965E+01  0.14183775766E+01  0.17224553521E+02  0.18530062851E+02  0.51100000000E-03 0. -1.
        -11    1    4    4    0    0 -0.50668488167E+01  0.84486666142E+00  0.12544936800E+02  0.13555891568E+02  0.51100000000E-03 0.  1.
        -12    1    4    4    0    0  0.43128606061E+01 -0.79254202355E+01  0.12849833524E+02  0.15701314408E+02  0.00000000000E+00 0.  1.
</event>
<event>
 8    1  0.5834107E-011  0.9118800E+02  0.7816164E-02  0.1184000E+00
        -11   -1    0    0    0    0  0.00000000000E+00  0.00000000000E+00  0.45593999997E+02  0.45594000000E+02  0.51100000000E-03 0. -1.
         11   -1    0    0    0    0 -0.00000000000E+00 -0.00000000000E+00 -0.45593999997E+02  0.45594000000E+02  0.51100000000E-03 0.  1.
         23    2    1    2    0    0  0.11102230246E-14 -0.44408920985E-15  0.00000000000E+00  0.91188000000E+02  0.91188000000E+02 0.  0.
    9900012    2    3    3    0    0  0.10490132690E+01 -0.34881399617E+01 -0.43247614046E+02  0.47787266482E+02  0.19999979199E+02 0.  0.
         12    1    3    3    0    0 -0.10490132690E+01  0.34881399617E+01  0.43247614046E+02  0.43400733518E+02  0.00000000000E+00 0. -1.
         11    1    4    4    0    0 -0.14751199024E+01 -0.19682449452E+01  0.45027563269E+00  0.25005430005E+01  0.51100000000E-03 0. -1.
        -11    1    4    4    0    0  0.65595920417E+01 -0.38246920540E+00 -0.16376717011E+02  0.17645718766E+02  0.51100000000E-03 0.  1.
        -12    1    4    4    0    0 -0.40354588703E+01 -0.11374258111E+01 -0.27321172667E+02  0.27641004715E+02  0.00000000000E+00 0.  1.
</event>
<event>
 8    1  0.5834107E-011  0.9118800E+02  0.7816164E-02  0.1184000E+00
        -11   -1    0    0    0    0  0.00000000000E+00  0.00000000000E+00  0.45593999997E+02  0.45594000000E+02  0.51100000000E-03 0. -1.
         11   -1    0    0    0    0 -0.00000000000E+00 -0.00000000000E+00 -0.45593999997E+02  0.45594000000E+02  0.51100000000E-03 0.  1.
         23    2    1    2    0    0  0.00000000000E+00  0.71054273576E-14  0.00000000000E+00  0.91188000000E+02  0.91188000000E+02 0.  0.
    9900012    2    3    3    0    0 -0.41278611444E+01 -0.34559976002E+02  0.25926667405E+02  0.47787271186E+02  0.20000000646E+02 0.  0.
        -12    1    3    3    0    0  0.41278611444E+01  0.34559976002E+02 -0.25926667405E+02  0.43400728814E+02  0.00000000000E+00 0.  1.
         11    1    4    4    0    0  0.31095648212E+01 -0.22184137554E+02  0.88023359959E+01  0.24068370772E+02  0.51100000000E-03 0. -1.
        -11    1    4    4    0    0 -0.55205182677E+01 -0.86018303501E+01  0.60113574983E+01  0.11857656874E+02  0.51100000000E-03 0.  1.
        -12    1    4    4    0    0 -0.17169076979E+01 -0.37740080978E+01  0.11112973910E+02  0.11861243539E+02  0.00000000000E+00 0.  1.
</event>
<event>
 8    1  0.5834107E-011  0.9118800E+02  0.7816164E-02  0.1184000E+00
        -11   -1    0    0    0    0  0.00000000000E+00  0.00000000000E+00  0.45593999997E+02  0.45594000000E+02  0.51100000000E-03 0. -1.
         11   -1    0    0    0    0 -0.00000000000E+00 -0.00000000000E+00 -0.45593999997E+02  0.45594000000E+02  0.51100000000E-03 0.  1.
         23    2    1    2    0    0  0.00000000000E+00 -0.55511151231E-15 -0.71054273576E-14  0.91188000000E+02  0.91188000000E+02 0.  0.
    9900012    2    3    3    0    0  0.46475279727E+01 -0.92870152346E+00 -0.43141170331E+02  0.47787279035E+02  0.20000036431E+02 0.  0.
         12    1    3    3    0    0 -0.46475279727E+01  0.92870152346E+00  0.43141170331E+02  0.43400720965E+02  0.00000000000E+00 0. -1.
         11    1    4    4    0    0  0.26863468661E+01 -0.42974841711E+01 -0.26985155735E+02  0.27456938285E+02  0.51100000000E-03 0. -1.
        -11    1    4    4    0    0 -0.39486386942E+01  0.48444784475E+01 -0.82218219187E+01  0.10327588048E+02  0.51100000000E-03 0.  1.
         12    1    4    4    0    0  0.59098198008E+01 -0.14756957998E+01 -0.79341926776E+01  0.10002752702E+02  0.00000000000E+00 0. -1.
</event>
<event>
 8    1  0.5834107E-011  0.9118800E+02  0.7816164E-02  0.1184000E+00
        -11   -1    0    0    0    0  0.00000000000E+00  0.00000000000E+00  0.45593999997E+02  0.45594000000E+02  0.51100000000E-03 0. -1.
         11   -1    0    0    0    0 -0.00000000000E+00 -0.00000000000E+00 -0.45593999997E+02  0.45594000000E+02  0.51100000000E-03 0.  1.
         23    2    1    2    0    0  0.00000000000E+00  0.00000000000E+00  0.00000000000E+00  0.91188000000E+02  0.91188000000E+02 0.  0.
    9900012    2    3    3    0    0  0.23624334149E+02  0.15174735970E+02 -0.33094430061E+02  0.47787273315E+02  0.20000010351E+02 0.  0.
         12    1    3    3    0    0 -0.23624334149E+02 -0.15174735970E+02  0.33094430061E+02  0.43400726685E+02  0.00000000000E+00 0. -1.
         11    1    4    4    0    0  0.35512677381E+01  0.66730897295E+00  0.20905625539E+01  0.41745964914E+01  0.51100000000E-03 0. -1.
        -11    1    4    4    0    0  0.27510114047E+01  0.29068680899E+01 -0.21332759372E+01  0.45352852530E+01  0.51100000000E-03 0.  1.
        -12    1    4    4    0    0  0.17322055006E+02  0.11600558907E+02 -0.33051716678E+02  0.39077391570E+02  0.00000000000E+00 0.  1.
</event>
<event>
 8    1  0.5834107E-011  0.9118800E+02  0.7816164E-02  0.1184000E+00
        -11   -1    0    0    0    0  0.00000000000E+00  0.00000000000E+00  0.45593999997E+02  0.45594000000E+02  0.51100000000E-03 0.  1.
         11   -1    0    0    0    0 -0.00000000000E+00 -0.00000000000E+00 -0.45593999997E+02  0.45594000000E+02  0.51100000000E-03 0. -1.
         23    2    1    2    0    0  0.00000000000E+00  0.00000000000E+00 -0.44408920985E-15  0.91188000000E+02  0.91188000000E+02 0.  0.
    9900012    2    3    3    0    0  0.17702009676E+02 -0.39474202369E+02  0.34712900484E+01  0.47787266667E+02  0.19999980040E+02 0.  0.
        -12    1    3    3    0    0 -0.17702009676E+02  0.39474202369E+02 -0.34712900484E+01  0.43400733333E+02  0.00000000000E+00 0.  1.
         11    1    4    4    0    0  0.80994317531E+01 -0.20537835596E+02  0.12823055317E+01  0.22114425008E+02  0.51100000000E-03 0. -1.
        -11    1    4    4    0    0  0.62213935625E+01 -0.32798600558E+01 -0.44624314515E+01  0.83292565434E+01  0.51100000000E-03 0.  1.
        -12    1    4    4    0    0  0.33811843603E+01 -0.15656506718E+02  0.66514159682E+01  0.17343585116E+02  0.00000000000E+00 0.  1.
</event>
<event>
 8    1  0.5834107E-011  0.9118800E+02  0.7816164E-02  0.1184000E+00
        -11   -1    0    0    0    0  0.00000000000E+00  0.00000000000E+00  0.45593999997E+02  0.45594000000E+02  0.51100000000E-03 0.  1.
         11   -1    0    0    0    0 -0.00000000000E+00 -0.00000000000E+00 -0.45593999997E+02  0.45594000000E+02  0.51100000000E-03 0. -1.
         23    2    1    2    0    0  0.00000000000E+00  0.00000000000E+00 -0.88817841970E-15  0.91188000000E+02  0.91188000000E+02 0.  0.
    9900012    2    3    3    0    0  0.13849363129E+02 -0.40634353868E+02 -0.63770424048E+01  0.47787282919E+02  0.20000054140E+02 0.  0.
        -12    1    3    3    0    0 -0.13849363129E+02  0.40634353868E+02  0.63770424048E+01  0.43400717081E+02  0.00000000000E+00 0.  1.
         11    1    4    4    0    0  0.76382695695E+01 -0.10145707214E+02 -0.21121358512E+01  0.12873991417E+02  0.51100000000E-03 0. -1.
        -11    1    4    4    0    0  0.38989383079E+00 -0.16928819003E+02  0.47929457629E+01  0.17598558446E+02  0.51100000000E-03 0.  1.
        -12    1    4    4    0    0  0.58211997286E+01 -0.13559827651E+02 -0.90578523165E+01  0.17314733056E+02  0.00000000000E+00 0.  1.
</event>
<event>
 8    1  0.5834107E-011  0.9118800E+02  0.7816164E-02  0.1184000E+00
        -11   -1    0    0    0    0  0.00000000000E+00  0.00000000000E+00  0.45593999997E+02  0.45594000000E+02  0.51100000000E-03 0. -1.
         11   -1    0    0    0    0 -0.00000000000E+00 -0.00000000000E+00 -0.45593999997E+02  0.45594000000E+02  0.51100000000E-03 0.  1.
         23    2    1    2    0    0 -0.71054273576E-14 -0.44408920985E-15  0.00000000000E+00  0.91188000000E+02  0.91188000000E+02 0.  0.
    9900012    2    3    3    0    0 -0.35930552573E+02 -0.16791188988E+01 -0.24285732238E+02  0.47787299098E+02  0.20000127907E+02 0.  0.
         12    1    3    3    0    0  0.35930552573E+02  0.16791188988E+01  0.24285732238E+02  0.43400700902E+02  0.00000000000E+00 0. -1.
         11    1    4    4    0    0 -0.62753926907E+01  0.27284383288E+01 -0.91307415780E+00  0.69035232900E+01  0.51100000000E-03 0. -1.
        -11    1    4    4    0    0 -0.79952448032E+01 -0.42514356425E+01 -0.51733700100E-01  0.90554580846E+01  0.51100000000E-03 0.  1.
        -12    1    4    4    0    0 -0.21659915079E+02 -0.15612158502E+00 -0.23320924380E+02  0.31828317723E+02  0.00000000000E+00 0.  1.
</event>
<event>
 8    1  0.5834107E-011  0.9118800E+02  0.7816164E-02  0.1184000E+00
        -11   -1    0    0    0    0  0.00000000000E+00  0.00000000000E+00  0.45593999997E+02  0.45594000000E+02  0.51100000000E-03 0. -1.
         11   -1    0    0    0    0 -0.00000000000E+00 -0.00000000000E+00 -0.45593999997E+02  0.45594000000E+02  0.51100000000E-03 0.  1.
         23    2    1    2    0    0  0.17763568394E-14  0.17763568394E-14 -0.71054273576E-14  0.91188000000E+02  0.91188000000E+02 0.  0.
    9900012    2    3    3    0    0 -0.14917372987E+02 -0.94479410645E+01  0.39646324043E+02  0.47787278609E+02  0.20000034488E+02 0.  0.
        -12    1    3    3    0    0  0.14917372987E+02  0.94479410645E+01 -0.39646324043E+02  0.43400721391E+02  0.00000000000E+00 0.  1.
         11    1    4    4    0    0 -0.77199665664E+01 -0.10071718040E+01  0.23443053300E+02  0.24702004516E+02  0.51100000000E-03 0. -1.
        -11    1    4    4    0    0 -0.57218916542E+01  0.12559127640E+01  0.96508034218E+01  0.11289613276E+02  0.51100000000E-03 0.  1.
        -12    1    4    4    0    0 -0.14755147666E+01 -0.96966820246E+01  0.65524673213E+01  0.11795660817E+02  0.00000000000E+00 0.  1.
</event>
<event>
 8    1  0.5834107E-011  0.9118800E+02  0.7816164E-02  0.1184000E+00
        -11   -1    0    0    0    0  0.00000000000E+00  0.00000000000E+00  0.45593999997E+02  0.45594000000E+02  0.51100000000E-03 0. -1.
         11   -1    0    0    0    0 -0.00000000000E+00 -0.00000000000E+00 -0.45593999997E+02  0.45594000000E+02  0.51100000000E-03 0.  1.
         23    2    1    2    0    0  0.00000000000E+00  0.00000000000E+00  0.00000000000E+00  0.91188000000E+02  0.91188000000E+02 0.  0.
    9900012    2    3    3    0    0  0.15351977621E+02 -0.45224118680E+01  0.40342137912E+02  0.47787268240E+02  0.19999987213E+02 0.  0.
        -12    1    3    3    0    0 -0.15351977621E+02  0.45224118680E+01 -0.40342137912E+02  0.43400731760E+02  0.00000000000E+00 0.  1.
         11    1    4    4    0    0  0.94578909449E+01  0.48162609310E+01  0.95539654262E+01  0.14280277522E+02  0.51100000000E-03 0. -1.
        -11    1    4    4    0    0  0.69424789670E+01 -0.52363862702E+01  0.17181232116E+02  0.19256492221E+02  0.51100000000E-03 0.  1.
         12    1    4    4    0    0 -0.10483922912E+01 -0.41022865289E+01  0.13606940371E+02  0.14250498497E+02  0.00000000000E+00 0. -1.
</event>
<event>
 8    1  0.5834107E-011  0.9118800E+02  0.7816164E-02  0.1184000E+00
        -11   -1    0    0    0    0  0.00000000000E+00  0.00000000000E+00  0.45593999997E+02  0.45594000000E+02  0.51100000000E-03 0. -1.
         11   -1    0    0    0    0 -0.00000000000E+00 -0.00000000000E+00 -0.45593999997E+02  0.45594000000E+02  0.51100000000E-03 0.  1.
         23    2    1    2    0    0  0.00000000000E+00 -0.17763568394E-14  0.00000000000E+00  0.91188000000E+02  0.91188000000E+02 0.  0.
    9900012    2    3    3    0    0  0.13592752631E+02 -0.15260506470E+02  0.38288103861E+02  0.47787252552E+02  0.19999915685E+02 0.  0.
        -12    1    3    3    0    0 -0.13592752631E+02  0.15260506470E+02 -0.38288103861E+02  0.43400747448E+02  0.00000000000E+00 0.  1.
         11    1    4    4    0    0  0.56032519181E+01 -0.41952399191E+01  0.25576493949E+02  0.26517041936E+02  0.51100000000E-03 0. -1.
        -11    1    4    4    0    0 -0.54928326291E+00 -0.76254941580E+01  0.74107896410E+01  0.10647519740E+02  0.51100000000E-03 0.  1.
        -12    1    4    4    0    0  0.85387839756E+01 -0.34397723928E+01  0.53008202706E+01  0.10622690876E+02  0.00000000000E+00 0.  1.
</event>
<event>
 8    1  0.5834107E-011  0.9118800E+02  0.7816164E-02  0.1184000E+00
        -11   -1    0    0    0    0  0.00000000000E+00  0.00000000000E+00  0.45593999997E+02  0.45594000000E+02  0.51100000000E-03 0.  1.
         11   -1    0    0    0    0 -0.00000000000E+00 -0.00000000000E+00 -0.45593999997E+02  0.45594000000E+02  0.51100000000E-03 0. -1.
         23    2    1    2    0    0 -0.35527136788E-14  0.35527136788E-14  0.35527136788E-14  0.91188000000E+02  0.91188000000E+02 0.  0.
    9900012    2    3    3    0    0 -0.21082284456E+02  0.29851917557E+02  0.23409883226E+02  0.47787281891E+02  0.20000049456E+02 0.  0.
        -12    1    3    3    0    0  0.21082284456E+02 -0.29851917557E+02 -0.23409883226E+02  0.43400718109E+02  0.00000000000E+00 0.  1.
         11    1    4    4    0    0 -0.16413544240E+02  0.27322971008E+02  0.13416018602E+02  0.34582347153E+02  0.51100000000E-03 0. -1.
        -11    1    4    4    0    0  0.17356213148E+01  0.36938613571E+00  0.13349555229E+01  0.22205706417E+01  0.51100000000E-03 0.  1.
        -12    1    4    4    0    0 -0.64043615310E+01  0.21595604133E+01  0.86589091011E+01  0.10984364097E+02  0.00000000000E+00 0.  1.
</event>
<event>
 8    1  0.5834107E-011  0.9118800E+02  0.7816164E-02  0.1184000E+00
        -11   -1    0    0    0    0  0.00000000000E+00  0.00000000000E+00  0.45593999997E+02  0.45594000000E+02  0.51100000000E-03 0. -1.
         11   -1    0    0    0    0 -0.00000000000E+00 -0.00000000000E+00 -0.45593999997E+02  0.45594000000E+02  0.51100000000E-03 0.  1.
         23    2    1    2    0    0  0.00000000000E+00  0.00000000000E+00  0.00000000000E+00  0.91188000000E+02  0.91188000000E+02 0.  0.
    9900012    2    3    3    0    0  0.36871507837E+02 -0.23077928657E+01 -0.22776948803E+02  0.47787269651E+02  0.19999993646E+02 0.  0.
         12    1    3    3    0    0 -0.36871507837E+02  0.23077928657E+01  0.22776948803E+02  0.43400730349E+02  0.00000000000E+00 0. -1.
         11    1    4    4    0    0  0.13554211722E+02 -0.49075210641E+01 -0.10263588416E+01  0.14451776054E+02  0.51100000000E-03 0.  1.
        -11    1    4    4    0    0  0.36296639910E+01  0.35977604960E+01 -0.72211079487E+01  0.88466231717E+01  0.51100000000E-03 0. -1.
        -12    1    4    4    0    0  0.19687632124E+02 -0.99803229756E+00 -0.14529482013E+02  0.24488870425E+02  0.00000000000E+00 0.  1.
</event>
<event>
 8    1  0.5834107E-011  0.9118800E+02  0.7816164E-02  0.1184000E+00
        -11   -1    0    0    0    0  0.00000000000E+00  0.00000000000E+00  0.45593999997E+02  0.45594000000E+02  0.51100000000E-03 0.  1.
         11   -1    0    0    0    0 -0.00000000000E+00 -0.00000000000E+00 -0.45593999997E+02  0.45594000000E+02  0.51100000000E-03 0. -1.
         23    2    1    2    0    0 -0.35527136788E-14  0.00000000000E+00  0.00000000000E+00  0.91188000000E+02  0.91188000000E+02 0.  0.
    9900012    2    3    3    0    0 -0.29117184435E+02  0.30963745086E+02  0.87783452626E+01  0.47787270920E+02  0.19999999430E+02 0.  0.
        -12    1    3    3    0    0  0.29117184435E+02 -0.30963745086E+02 -0.87783452626E+01  0.43400729080E+02  0.00000000000E+00 0.  1.
         11    1    4    4    0    0 -0.66484982708E+01  0.18783875238E+02  0.31216007457E+01  0.20168809824E+02  0.51100000000E-03 0. -1.
        -11    1    4    4    0    0 -0.12476969610E+02  0.80193150136E+01  0.75305769874E+01  0.16634114763E+02  0.51100000000E-03 0.  1.
        -12    1    4    4    0    0 -0.99917165543E+01  0.41605548342E+01 -0.18738324705E+01  0.10984346333E+02  0.00000000000E+00 0.  1.
</event>
<event>
 8    1  0.5834107E-011  0.9118800E+02  0.7816164E-02  0.1184000E+00
        -11   -1    0    0    0    0  0.00000000000E+00  0.00000000000E+00  0.45593999997E+02  0.45594000000E+02  0.51100000000E-03 0. -1.
         11   -1    0    0    0    0 -0.00000000000E+00 -0.00000000000E+00 -0.45593999997E+02  0.45594000000E+02  0.51100000000E-03 0.  1.
         23    2    1    2    0    0  0.00000000000E+00  0.00000000000E+00  0.00000000000E+00  0.91188000000E+02  0.91188000000E+02 0.  0.
    9900012    2    3    3    0    0 -0.42309881454E+02  0.19870810441E+01  0.94630129002E+01  0.47787272208E+02  0.20000005305E+02 0.  0.
        -12    1    3    3    0    0  0.42309881454E+02 -0.19870810441E+01 -0.94630129002E+01  0.43400727792E+02  0.00000000000E+00 0.  1.
         11    1    4    4    0    0 -0.15165932687E+01  0.21999442476E+01 -0.11528292604E+01  0.29101246365E+01  0.51100000000E-03 0.  1.
        -11    1    4    4    0    0 -0.21863005469E+02 -0.77228405637E+01  0.45682733467E+01  0.23632655292E+02  0.51100000000E-03 0. -1.
         12    1    4    4    0    0 -0.18930282716E+02  0.75099773602E+01  0.60475688138E+01  0.21244492280E+02  0.00000000000E+00 0. -1.
</event>
<event>
 8    1  0.5834107E-011  0.9118800E+02  0.7816164E-02  0.1184000E+00
        -11   -1    0    0    0    0  0.00000000000E+00  0.00000000000E+00  0.45593999997E+02  0.45594000000E+02  0.51100000000E-03 0. -1.
         11   -1    0    0    0    0 -0.00000000000E+00 -0.00000000000E+00 -0.45593999997E+02  0.45594000000E+02  0.51100000000E-03 0.  1.
         23    2    1    2    0    0  0.00000000000E+00  0.00000000000E+00  0.00000000000E+00  0.91188000000E+02  0.91188000000E+02 0.  0.
    9900012    2    3    3    0    0  0.11771605012E+02 -0.37613582972E+01 -0.41604154857E+02  0.47787260351E+02  0.19999951242E+02 0.  0.
         12    1    3    3    0    0 -0.11771605012E+02  0.37613582972E+01  0.41604154857E+02  0.43400739649E+02  0.00000000000E+00 0. -1.
         11    1    4    4    0    0 -0.35503301625E+01  0.19378393783E+01 -0.40217649674E+01  0.57039161489E+01  0.51100000000E-03 0. -1.
        -11    1    4    4    0    0  0.20430636954E+01  0.17072562117E+01 -0.12268561225E+02  0.12554139868E+02  0.51100000000E-03 0.  1.
        -12    1    4    4    0    0  0.13278871479E+02 -0.74064538872E+01 -0.25313828665E+02  0.29529204334E+02  0.00000000000E+00 0.  1.
</event>
<event>
 8    1  0.5834107E-011  0.9118800E+02  0.7816164E-02  0.1184000E+00
        -11   -1    0    0    0    0  0.00000000000E+00  0.00000000000E+00  0.45593999997E+02  0.45594000000E+02  0.51100000000E-03 0. -1.
         11   -1    0    0    0    0 -0.00000000000E+00 -0.00000000000E+00 -0.45593999997E+02  0.45594000000E+02  0.51100000000E-03 0.  1.
         23    2    1    2    0    0  0.00000000000E+00  0.00000000000E+00  0.00000000000E+00  0.91188000000E+02  0.91188000000E+02 0.  0.
    9900012    2    3    3    0    0  0.21147560946E+02 -0.74793711244E+01 -0.37154582460E+02  0.47787270465E+02  0.19999997358E+02 0.  0.
         12    1    3    3    0    0 -0.21147560946E+02  0.74793711244E+01  0.37154582460E+02  0.43400729535E+02  0.00000000000E+00 0. -1.
         11    1    4    4    0    0  0.10134541154E+02  0.38468858914E-01 -0.73172953890E+01  0.12500128652E+02  0.51100000000E-03 0. -1.
        -11    1    4    4    0    0  0.64367468730E+01 -0.22945151239E+01 -0.26887303031E+02  0.27742090305E+02  0.51100000000E-03 0.  1.
         12    1    4    4    0    0  0.45762729191E+01 -0.52233248595E+01 -0.29499840409E+01  0.75450515080E+01  0.00000000000E+00 0. -1.
</event>
<event>
 8    1  0.5834107E-011  0.9118800E+02  0.7816164E-02  0.1184000E+00
        -11   -1    0    0    0    0  0.00000000000E+00  0.00000000000E+00  0.45593999997E+02  0.45594000000E+02  0.51100000000E-03 0. -1.
         11   -1    0    0    0    0 -0.00000000000E+00 -0.00000000000E+00 -0.45593999997E+02  0.45594000000E+02  0.51100000000E-03 0.  1.
         23    2    1    2    0    0  0.71054273576E-14 -0.17763568394E-14  0.35527136788E-14  0.91188000000E+02  0.91188000000E+02 0.  0.
    9900012    2    3    3    0    0 -0.31496777084E+02  0.14251431416E+02 -0.26238769731E+02  0.47787270731E+02  0.19999998573E+02 0.  0.
         12    1    3    3    0    0  0.31496777084E+02 -0.14251431416E+02  0.26238769731E+02  0.43400729269E+02  0.00000000000E+00 0. -1.
         11    1    4    4    0    0 -0.11129351966E+02  0.10775281891E+02 -0.14047220322E+02  0.20911565557E+02  0.51100000000E-03 0. -1.
        -11    1    4    4    0    0 -0.21768479527E+02  0.23847767190E+01 -0.12262617808E+02  0.25098319798E+02  0.51100000000E-03 0.  1.
         12    1    4    4    0    0  0.14010544094E+01  0.10913728059E+01  0.71068398987E-01  0.17773853766E+01  0.00000000000E+00 0. -1.
</event>
<event>
 8    1  0.5834107E-011  0.9118800E+02  0.7816164E-02  0.1184000E+00
        -11   -1    0    0    0    0  0.00000000000E+00  0.00000000000E+00  0.45593999997E+02  0.45594000000E+02  0.51100000000E-03 0. -1.
         11   -1    0    0    0    0 -0.00000000000E+00 -0.00000000000E+00 -0.45593999997E+02  0.45594000000E+02  0.51100000000E-03 0.  1.
         23    2    1    2    0    0 -0.35527136788E-14  0.44408920985E-15  0.00000000000E+00  0.91188000000E+02  0.91188000000E+02 0.  0.
    9900012    2    3    3    0    0  0.21679447303E+02  0.21179304287E+01 -0.37538506670E+02  0.47787267890E+02  0.19999985618E+02 0.  0.
         12    1    3    3    0    0 -0.21679447303E+02 -0.21179304287E+01  0.37538506670E+02  0.43400732110E+02  0.00000000000E+00 0. -1.
         11    1    4    4    0    0  0.95188405913E+01  0.72172272730E+01 -0.13382550899E+02  0.17938488357E+02  0.51100000000E-03 0.  1.
        -11    1    4    4    0    0  0.12708528215E+01  0.30876076243E+01 -0.21643312440E+01  0.39790347738E+01  0.51100000000E-03 0. -1.
        -12    1    4    4    0    0  0.10889753891E+02 -0.81869044686E+01 -0.21991624527E+02  0.25869744759E+02  0.00000000000E+00 0.  1.
</event>
<event>
 8    1  0.5834107E-011  0.9118800E+02  0.7816164E-02  0.1184000E+00
        -11   -1    0    0    0    0  0.00000000000E+00  0.00000000000E+00  0.45593999997E+02  0.45594000000E+02  0.51100000000E-03 0. -1.
         11   -1    0    0    0    0 -0.00000000000E+00 -0.00000000000E+00 -0.45593999997E+02  0.45594000000E+02  0.51100000000E-03 0.  1.
         23    2    1    2    0    0  0.00000000000E+00  0.00000000000E+00  0.00000000000E+00  0.91188000000E+02  0.91188000000E+02 0.  0.
    9900012    2    3    3    0    0 -0.20039900083E+02  0.21720615631E+02  0.31784285955E+02  0.47787267605E+02  0.19999984319E+02 0.  0.
        -12    1    3    3    0    0  0.20039900083E+02 -0.21720615631E+02 -0.31784285955E+02  0.43400732395E+02  0.00000000000E+00 0.  1.
         11    1    4    4    0    0 -0.19549674259E+02  0.17661756705E+02  0.32621970371E+02  0.41932330780E+02  0.51100000000E-03 0. -1.
        -11    1    4    4    0    0 -0.18899429291E+01  0.33680630919E+01  0.37227729191E+00  0.38799901946E+01  0.51100000000E-03 0.  1.
         12    1    4    4    0    0  0.13997171050E+01  0.69079583382E+00 -0.12099617075E+01  0.19749466301E+01  0.00000000000E+00 0. -1.
</event>
<event>
 8    1  0.5834107E-011  0.9118800E+02  0.7816164E-02  0.1184000E+00
        -11   -1    0    0    0    0  0.00000000000E+00  0.00000000000E+00  0.45593999997E+02  0.45594000000E+02  0.51100000000E-03 0. -1.
         11   -1    0    0    0    0 -0.00000000000E+00 -0.00000000000E+00 -0.45593999997E+02  0.45594000000E+02  0.51100000000E-03 0.  1.
         23    2    1    2    0    0  0.00000000000E+00  0.13322676296E-14  0.00000000000E+00  0.91188000000E+02  0.91188000000E+02 0.  0.
    9900012    2    3    3    0    0  0.10528032409E+02 -0.38393991939E+01 -0.41929021486E+02  0.47787270797E+02  0.19999998871E+02 0.  0.
         12    1    3    3    0    0 -0.10528032409E+02  0.38393991939E+01  0.41929021486E+02  0.43400729203E+02  0.00000000000E+00 0. -1.
         11    1    4    4    0    0 -0.59811447785E+00 -0.26594402811E+01 -0.10132217298E+01  0.29080890757E+01  0.51100000000E-03 0. -1.
        -11    1    4    4    0    0  0.30341073899E+00 -0.56108007351E+01 -0.68375720303E+01  0.88501714388E+01  0.51100000000E-03 0.  1.
         12    1    4    4    0    0  0.10822736148E+02  0.44308418223E+01 -0.34078227726E+02  0.36029010282E+02  0.00000000000E+00 0. -1.
</event>
<event>
 8    1  0.5834107E-011  0.9118800E+02  0.7816164E-02  0.1184000E+00
        -11   -1    0    0    0    0  0.00000000000E+00  0.00000000000E+00  0.45593999997E+02  0.45594000000E+02  0.51100000000E-03 0. -1.
         11   -1    0    0    0    0 -0.00000000000E+00 -0.00000000000E+00 -0.45593999997E+02  0.45594000000E+02  0.51100000000E-03 0.  1.
         23    2    1    2    0    0  0.85001450323E-16  0.00000000000E+00  0.00000000000E+00  0.91188000000E+02  0.91188000000E+02 0.  0.
    9900012    2    3    3    0    0 -0.15039481820E-01 -0.39936304361E+02  0.16991605532E+02  0.47787270850E+02  0.19999999114E+02 0.  0.
        -12    1    3    3    0    0  0.15039481820E-01  0.39936304361E+02 -0.16991605532E+02  0.43400729150E+02  0.00000000000E+00 0.  1.
         11    1    4    4    0    0  0.12733979782E+01 -0.25593375278E+02  0.10176648183E+02  0.27571843773E+02  0.51100000000E-03 0.  1.
        -11    1    4    4    0    0  0.13997950596E+00 -0.69422295058E+01  0.98823592231E+01  0.12077879319E+02  0.51100000000E-03 0. -1.
        -12    1    4    4    0    0 -0.14284169659E+01 -0.74006995768E+01 -0.30674018742E+01  0.81375477579E+01  0.00000000000E+00 0.  1.
</event>
<event>
 8    1  0.5834107E-011  0.9118800E+02  0.7816164E-02  0.1184000E+00
        -11   -1    0    0    0    0  0.00000000000E+00  0.00000000000E+00  0.45593999997E+02  0.45594000000E+02  0.51100000000E-03 0. -1.
         11   -1    0    0    0    0 -0.00000000000E+00 -0.00000000000E+00 -0.45593999997E+02  0.45594000000E+02  0.51100000000E-03 0.  1.
         23    2    1    2    0    0  0.35527136788E-14  0.00000000000E+00 -0.71054273576E-14  0.91188000000E+02  0.91188000000E+02 0.  0.
    9900012    2    3    3    0    0 -0.18042841587E+02  0.10293737748E+02  0.38106670124E+02  0.47787268701E+02  0.19999989317E+02 0.  0.
        -12    1    3    3    0    0  0.18042841587E+02 -0.10293737748E+02 -0.38106670124E+02  0.43400731299E+02  0.00000000000E+00 0.  1.
         11    1    4    4    0    0 -0.11270627196E+02  0.74125368628E+01  0.12027503047E+02  0.18073006665E+02  0.51100000000E-03 0. -1.
        -11    1    4    4    0    0  0.16586741600E+01 -0.15505938875E+01  0.37397869016E+00  0.23011739819E+01  0.51100000000E-03 0.  1.
         12    1    4    4    0    0 -0.84308885511E+01  0.44317947722E+01  0.25705188387E+02  0.27413088054E+02  0.00000000000E+00 0. -1.
</event>
<event>
 8    1  0.5834107E-011  0.9118800E+02  0.7816164E-02  0.1184000E+00
        -11   -1    0    0    0    0  0.00000000000E+00  0.00000000000E+00  0.45593999997E+02  0.45594000000E+02  0.51100000000E-03 0.  1.
         11   -1    0    0    0    0 -0.00000000000E+00 -0.00000000000E+00 -0.45593999997E+02  0.45594000000E+02  0.51100000000E-03 0. -1.
         23    2    1    2    0    0  0.00000000000E+00  0.00000000000E+00  0.00000000000E+00  0.91188000000E+02  0.91188000000E+02 0.  0.
    9900012    2    3    3    0    0  0.21374579341E+02  0.35430956699E+02 -0.13091894132E+02  0.47787273894E+02  0.20000012991E+02 0.  0.
        -12    1    3    3    0    0 -0.21374579341E+02 -0.35430956699E+02  0.13091894132E+02  0.43400726106E+02  0.00000000000E+00 0.  1.
         11    1    4    4    0    0  0.71852297366E+01  0.21649266833E+02 -0.68309812519E+01  0.23811354138E+02  0.51100000000E-03 0. -1.
        -11    1    4    4    0    0  0.22757028782E+01  0.90552381218E+01  0.74978455000E+00  0.93668745142E+01  0.51100000000E-03 0.  1.
        -12    1    4    4    0    0  0.11913646726E+02  0.47264517442E+01 -0.70106974306E+01  0.14609045241E+02  0.00000000000E+00 0.  1.
</event>
<event>
 8    1  0.5834107E-011  0.9118800E+02  0.7816164E-02  0.1184000E+00
        -11   -1    0    0    0    0  0.00000000000E+00  0.00000000000E+00  0.45593999997E+02  0.45594000000E+02  0.51100000000E-03 0. -1.
         11   -1    0    0    0    0 -0.00000000000E+00 -0.00000000000E+00 -0.45593999997E+02  0.45594000000E+02  0.51100000000E-03 0.  1.
         23    2    1    2    0    0  0.00000000000E+00 -0.35527136788E-14  0.00000000000E+00  0.91188000000E+02  0.91188000000E+02 0.  0.
    9900012    2    3    3    0    0  0.12600781676E+02  0.20627322838E+02  0.36046594832E+02  0.47787272525E+02  0.20000006752E+02 0.  0.
        -12    1    3    3    0    0 -0.12600781676E+02 -0.20627322838E+02 -0.36046594832E+02  0.43400727475E+02  0.00000000000E+00 0.  1.
         11    1    4    4    0    0  0.38733343373E+01  0.14921625791E+02  0.25623277828E+02  0.29903344328E+02  0.51100000000E-03 0. -1.
        -11    1    4    4    0    0 -0.50263043006E-01  0.55908038189E+01  0.53838403274E+01  0.77617878512E+01  0.51100000000E-03 0.  1.
         12    1    4    4    0    0  0.87777103819E+01  0.11489322879E+00  0.50394766773E+01  0.10122140346E+02  0.00000000000E+00 0. -1.
</event>
<event>
 8    1  0.5834107E-011  0.9118800E+02  0.7816164E-02  0.1184000E+00
        -11   -1    0    0    0    0  0.00000000000E+00  0.00000000000E+00  0.45593999997E+02  0.45594000000E+02  0.51100000000E-03 0. -1.
         11   -1    0    0    0    0 -0.00000000000E+00 -0.00000000000E+00 -0.45593999997E+02  0.45594000000E+02  0.51100000000E-03 0.  1.
         23    2    1    2    0    0  0.35527136788E-14  0.00000000000E+00 -0.35527136788E-14  0.91188000000E+02  0.91188000000E+02 0.  0.
    9900012    2    3    3    0    0  0.31045739472E+02 -0.85708146035E+01 -0.29091691005E+02  0.47787270883E+02  0.19999999264E+02 0.  0.
         12    1    3    3    0    0 -0.31045739472E+02  0.85708146035E+01  0.29091691005E+02  0.43400729117E+02  0.00000000000E+00 0. -1.
         11    1    4    4    0    0  0.19067562722E+02 -0.10012777934E+01 -0.17543635745E+02  0.25929783277E+02  0.51100000000E-03 0. -1.
        -11    1    4    4    0    0  0.12147615230E+02 -0.20065990635E+01 -0.10527103497E+02  0.16199101946E+02  0.51100000000E-03 0.  1.
         12    1    4    4    0    0 -0.16943847948E+00 -0.55629377466E+01 -0.10209517631E+01  0.56583856596E+01  0.00000000000E+00 0. -1.
</event>
<event>
 8    1  0.5834107E-011  0.9118800E+02  0.7816164E-02  0.1184000E+00
        -11   -1    0    0    0    0  0.00000000000E+00  0.00000000000E+00  0.45593999997E+02  0.45594000000E+02  0.51100000000E-03 0.  1.
         11   -1    0    0    0    0 -0.00000000000E+00 -0.00000000000E+00 -0.45593999997E+02  0.45594000000E+02  0.51100000000E-03 0. -1.
         23    2    1    2    0    0 -0.13322676296E-14 -0.35527136788E-14  0.00000000000E+00  0.91188000000E+02  0.91188000000E+02 0.  0.
    9900012    2    3    3    0    0  0.38088312415E+01  0.27538159830E+02  0.33328149475E+02  0.47787274319E+02  0.20000014928E+02 0.  0.
        -12    1    3    3    0    0 -0.38088312415E+01 -0.27538159830E+02 -0.33328149475E+02  0.43400725681E+02  0.00000000000E+00 0.  1.
         11    1    4    4    0    0  0.18061720824E+01  0.49014385230E+01  0.35018404511E+01  0.62888189663E+01  0.51100000000E-03 0. -1.
        -11    1    4    4    0    0  0.59171907897E+01  0.15982656709E+02  0.29127029506E+02  0.33746737774E+02  0.51100000000E-03 0.  1.
        -12    1    4    4    0    0 -0.39145316305E+01  0.66540645982E+01  0.69927951770E+00  0.77517175779E+01  0.00000000000E+00 0.  1.
</event>
<event>
 8    1  0.5834107E-011  0.9118800E+02  0.7816164E-02  0.1184000E+00
        -11   -1    0    0    0    0  0.00000000000E+00  0.00000000000E+00  0.45593999997E+02  0.45594000000E+02  0.51100000000E-03 0. -1.
         11   -1    0    0    0    0 -0.00000000000E+00 -0.00000000000E+00 -0.45593999997E+02  0.45594000000E+02  0.51100000000E-03 0.  1.
         23    2    1    2    0    0  0.17763568394E-14 -0.35527136788E-14 -0.71054273576E-14  0.91188000000E+02  0.91188000000E+02 0.  0.
    9900012    2    3    3    0    0  0.59151934537E+01 -0.15730597204E+02 -0.40014776715E+02  0.47787267776E+02  0.19999985100E+02 0.  0.
         12    1    3    3    0    0 -0.59151934537E+01  0.15730597204E+02  0.40014776715E+02  0.43400732224E+02  0.00000000000E+00 0. -1.
         11    1    4    4    0    0  0.70289533276E+01 -0.35361509128E+01 -0.20734711378E+02  0.22177439085E+02  0.51100000000E-03 0. -1.
        -11    1    4    4    0    0 -0.20688312424E+01 -0.94088019798E+01 -0.20319050690E+02  0.22487094935E+02  0.51100000000E-03 0.  1.
        -12    1    4    4    0    0  0.95507136851E+00 -0.27856443117E+01  0.10389853536E+01  0.31227337567E+01  0.00000000000E+00 0.  1.
</event>
<event>
 8    1  0.5834107E-011  0.9118800E+02  0.7816164E-02  0.1184000E+00
        -11   -1    0    0    0    0  0.00000000000E+00  0.00000000000E+00  0.45593999997E+02  0.45594000000E+02  0.51100000000E-03 0. -1.
         11   -1    0    0    0    0 -0.00000000000E+00 -0.00000000000E+00 -0.45593999997E+02  0.45594000000E+02  0.51100000000E-03 0.  1.
         23    2    1    2    0    0  0.00000000000E+00  0.44408920985E-15  0.35527136788E-14  0.91188000000E+02  0.91188000000E+02 0.  0.
    9900012    2    3    3    0    0  0.29341138174E+02 -0.11400908914E+01  0.31959682212E+02  0.47787268628E+02  0.19999988982E+02 0.  0.
        -12    1    3    3    0    0 -0.29341138174E+02  0.11400908914E+01 -0.31959682212E+02  0.43400731372E+02  0.00000000000E+00 0.  1.
         11    1    4    4    0    0  0.10684127042E+02 -0.12324881285E+01  0.15235465211E+02  0.18649101804E+02  0.51100000000E-03 0. -1.
        -11    1    4    4    0    0  0.51411379111E+00  0.45599725324E+01  0.95229353225E+00  0.46866326631E+01  0.51100000000E-03 0.  1.
        -12    1    4    4    0    0  0.18142897340E+02 -0.44675752953E+01  0.15771923469E+02  0.24451534161E+02  0.00000000000E+00 0.  1.
</event>
<event>
 8    1  0.5834107E-011  0.9118800E+02  0.7816164E-02  0.1184000E+00
        -11   -1    0    0    0    0  0.00000000000E+00  0.00000000000E+00  0.45593999997E+02  0.45594000000E+02  0.51100000000E-03 0. -1.
         11   -1    0    0    0    0 -0.00000000000E+00 -0.00000000000E+00 -0.45593999997E+02  0.45594000000E+02  0.51100000000E-03 0.  1.
         23    2    1    2    0    0  0.00000000000E+00  0.00000000000E+00 -0.71054273576E-14  0.91188000000E+02  0.91188000000E+02 0.  0.
    9900012    2    3    3    0    0 -0.39815898739E+01  0.15226736788E+02 -0.40446463900E+02  0.47787274048E+02  0.20000013696E+02 0.  0.
         12    1    3    3    0    0  0.39815898739E+01 -0.15226736788E+02  0.40446463900E+02  0.43400725952E+02  0.00000000000E+00 0. -1.
         11    1    4    4    0    0 -0.33037582650E+01 -0.59502205529E+00 -0.95697307183E+01  0.10141430678E+02  0.51100000000E-03 0. -1.
        -11    1    4    4    0    0  0.25998898505E+01  0.10945903923E+02 -0.29554948198E+02  0.31623839160E+02  0.51100000000E-03 0.  1.
         12    1    4    4    0    0 -0.32777214594E+01  0.48758549200E+01 -0.13217849829E+01  0.60220042102E+01  0.00000000000E+00 0. -1.
</event>
<event>
 8    1  0.5834107E-011  0.9118800E+02  0.7816164E-02  0.1184000E+00
        -11   -1    0    0    0    0  0.00000000000E+00  0.00000000000E+00  0.45593999997E+02  0.45594000000E+02  0.51100000000E-03 0. -1.
         11   -1    0    0    0    0 -0.00000000000E+00 -0.00000000000E+00 -0.45593999997E+02  0.45594000000E+02  0.51100000000E-03 0.  1.
         23    2    1    2    0    0  0.17763568394E-14  0.71054273576E-14  0.00000000000E+00  0.91188000000E+02  0.91188000000E+02 0.  0.
    9900012    2    3    3    0    0 -0.15284691625E+02 -0.34203580139E+02  0.21911501343E+02  0.47787302038E+02  0.20000141314E+02 0.  0.
        -12    1    3    3    0    0  0.15284691625E+02  0.34203580139E+02 -0.21911501343E+02  0.43400697962E+02  0.00000000000E+00 0.  1.
         11    1    4    4    0    0  0.48431572320E+00 -0.64313994015E+01  0.32199475763E+01  0.72087115795E+01  0.51100000000E-03 0. -1.
        -11    1    4    4    0    0  0.32056677354E+01 -0.73803764093E+01  0.28609085712E+01  0.85399683657E+01  0.51100000000E-03 0.  1.
        -12    1    4    4    0    0 -0.18974675084E+02 -0.20391804329E+02  0.15830645196E+02  0.32038622093E+02  0.00000000000E+00 0.  1.
</event>
<event>
 8    1  0.5834107E-011  0.9118800E+02  0.7816164E-02  0.1184000E+00
        -11   -1    0    0    0    0  0.00000000000E+00  0.00000000000E+00  0.45593999997E+02  0.45594000000E+02  0.51100000000E-03 0. -1.
         11   -1    0    0    0    0 -0.00000000000E+00 -0.00000000000E+00 -0.45593999997E+02  0.45594000000E+02  0.51100000000E-03 0.  1.
         23    2    1    2    0    0  0.00000000000E+00  0.35527136788E-14  0.35527136788E-14  0.91188000000E+02  0.91188000000E+02 0.  0.
    9900012    2    3    3    0    0 -0.22093806812E+02 -0.21508922839E+02 -0.30542640483E+02  0.47787274789E+02  0.20000017073E+02 0.  0.
         12    1    3    3    0    0  0.22093806812E+02  0.21508922839E+02  0.30542640483E+02  0.43400725211E+02  0.00000000000E+00 0. -1.
         11    1    4    4    0    0  0.22398422868E+01  0.19524193900E+00 -0.39098535656E+01  0.45102070961E+01  0.51100000000E-03 0. -1.
        -11    1    4    4    0    0 -0.13971456511E+02 -0.63530008493E+01 -0.95227177987E+01  0.18062236056E+02  0.51100000000E-03 0.  1.
        -12    1    4    4    0    0 -0.10362192589E+02 -0.15351163929E+02 -0.17110069119E+02  0.25214831637E+02  0.00000000000E+00 0.  1.
</event>
<event>
 8    1  0.5834107E-011  0.9118800E+02  0.7816164E-02  0.1184000E+00
        -11   -1    0    0    0    0  0.00000000000E+00  0.00000000000E+00  0.45593999997E+02  0.45594000000E+02  0.51100000000E-03 0. -1.
         11   -1    0    0    0    0 -0.00000000000E+00 -0.00000000000E+00 -0.45593999997E+02  0.45594000000E+02  0.51100000000E-03 0.  1.
         23    2    1    2    0    0  0.00000000000E+00  0.00000000000E+00  0.00000000000E+00  0.91188000000E+02  0.91188000000E+02 0.  0.
    9900012    2    3    3    0    0  0.69196155427E+01  0.23162136994E+02 -0.36045229638E+02  0.47787259810E+02  0.19999948777E+02 0.  0.
         12    1    3    3    0    0 -0.69196155427E+01 -0.23162136994E+02  0.36045229638E+02  0.43400740190E+02  0.00000000000E+00 0. -1.
         11    1    4    4    0    0  0.46278080458E+00  0.33057147563E+01  0.12387193387E+01  0.35603850893E+01  0.51100000000E-03 0. -1.
        -11    1    4    4    0    0  0.54584777714E+01  0.24090213405E+01 -0.13046577753E+02  0.14346133790E+02  0.51100000000E-03 0.  1.
        -12    1    4    4    0    0  0.99835696680E+00  0.17447400897E+02 -0.24237371224E+02  0.29880740930E+02  0.00000000000E+00 0.  1.
</event>
<event>
 8    1  0.5834107E-011  0.9118800E+02  0.7816164E-02  0.1184000E+00
        -11   -1    0    0    0    0  0.00000000000E+00  0.00000000000E+00  0.45593999997E+02  0.45594000000E+02  0.51100000000E-03 0. -1.
         11   -1    0    0    0    0 -0.00000000000E+00 -0.00000000000E+00 -0.45593999997E+02  0.45594000000E+02  0.51100000000E-03 0.  1.
         23    2    1    2    0    0  0.17763568394E-14  0.00000000000E+00  0.00000000000E+00  0.91188000000E+02  0.91188000000E+02 0.  0.
    9900012    2    3    3    0    0 -0.89431749338E+01  0.19286013805E+02  0.37837730417E+02  0.47787256348E+02  0.19999932995E+02 0.  0.
        -12    1    3    3    0    0  0.89431749338E+01 -0.19286013805E+02 -0.37837730417E+02  0.43400743652E+02  0.00000000000E+00 0.  1.
         11    1    4    4    0    0 -0.71207428655E+01  0.18189493885E+01  0.16234355204E+02  0.17820433355E+02  0.51100000000E-03 0. -1.
        -11    1    4    4    0    0  0.33545613360E+01  0.22738200715E+01  0.78290621559E+01  0.88157560071E+01  0.51100000000E-03 0.  1.
         12    1    4    4    0    0 -0.51769934043E+01  0.15193244345E+02  0.13774313057E+02  0.21151066986E+02  0.00000000000E+00 0. -1.
</event>
<event>
 8    1  0.5834107E-011  0.9118800E+02  0.7816164E-02  0.1184000E+00
        -11   -1    0    0    0    0  0.00000000000E+00  0.00000000000E+00  0.45593999997E+02  0.45594000000E+02  0.51100000000E-03 0. -1.
         11   -1    0    0    0    0 -0.00000000000E+00 -0.00000000000E+00 -0.45593999997E+02  0.45594000000E+02  0.51100000000E-03 0.  1.
         23    2    1    2    0    0  0.00000000000E+00  0.35527136788E-14 -0.71054273576E-14  0.91188000000E+02  0.91188000000E+02 0.  0.
    9900012    2    3    3    0    0 -0.14952190949E+02 -0.30563789869E+02  0.26942720871E+02  0.47787268747E+02  0.19999989527E+02 0.  0.
        -12    1    3    3    0    0  0.14952190949E+02  0.30563789869E+02 -0.26942720871E+02  0.43400731253E+02  0.00000000000E+00 0.  1.
         11    1    4    4    0    0 -0.37087608268E+01 -0.14679587743E+02  0.22676295866E+02  0.27266455539E+02  0.51100000000E-03 0. -1.
        -11    1    4    4    0    0 -0.46369435595E+01 -0.10641952208E+02  0.30278360952E+01  0.11996673875E+02  0.51100000000E-03 0.  1.
         12    1    4    4    0    0 -0.66064865627E+01 -0.52422499170E+01  0.12385889102E+01  0.85241393340E+01  0.00000000000E+00 0. -1.
</event>
<event>
 8    1  0.5834107E-011  0.9118800E+02  0.7816164E-02  0.1184000E+00
        -11   -1    0    0    0    0  0.00000000000E+00  0.00000000000E+00  0.45593999997E+02  0.45594000000E+02  0.51100000000E-03 0. -1.
         11   -1    0    0    0    0 -0.00000000000E+00 -0.00000000000E+00 -0.45593999997E+02  0.45594000000E+02  0.51100000000E-03 0.  1.
         23    2    1    2    0    0  0.44408920985E-15 -0.17763568394E-14  0.00000000000E+00  0.91188000000E+02  0.91188000000E+02 0.  0.
    9900012    2    3    3    0    0 -0.28035889550E+01 -0.60435756073E+01 -0.42886350578E+02  0.47787262875E+02  0.19999962751E+02 0.  0.
         12    1    3    3    0    0  0.28035889550E+01  0.60435756073E+01  0.42886350578E+02  0.43400737125E+02  0.00000000000E+00 0. -1.
         11    1    4    4    0    0  0.45972931766E+01 -0.10194562136E+02 -0.28284497124E+02  0.30415078161E+02  0.51100000000E-03 0. -1.
        -11    1    4    4    0    0 -0.14429454448E+01  0.22423724258E+01 -0.72152801954E+01  0.76922424696E+01  0.51100000000E-03 0.  1.
         12    1    4    4    0    0 -0.59579366868E+01  0.19086141027E+01 -0.73865732579E+01  0.96799422442E+01  0.00000000000E+00 0. -1.
</event>
<event>
 8    1  0.5834107E-011  0.9118800E+02  0.7816164E-02  0.1184000E+00
        -11   -1    0    0    0    0  0.00000000000E+00  0.00000000000E+00  0.45593999997E+02  0.45594000000E+02  0.51100000000E-03 0. -1.
         11   -1    0    0    0    0 -0.00000000000E+00 -0.00000000000E+00 -0.45593999997E+02  0.45594000000E+02  0.51100000000E-03 0.  1.
         23    2    1    2    0    0 -0.35527136788E-14  0.00000000000E+00  0.00000000000E+00  0.91188000000E+02  0.91188000000E+02 0.  0.
    9900012    2    3    3    0    0  0.22860593273E+02  0.33662884608E+02  0.15093890479E+02  0.47787285090E+02  0.20000064037E+02 0.  0.
        -12    1    3    3    0    0 -0.22860593273E+02 -0.33662884608E+02 -0.15093890479E+02  0.43400714910E+02  0.00000000000E+00 0.  1.
         11    1    4    4    0    0  0.65123084771E+01  0.13714534239E+02  0.65687479395E+00  0.15196384302E+02  0.51100000000E-03 0. -1.
        -11    1    4    4    0    0  0.18629372436E+02  0.17365450956E+02  0.11058878111E+02  0.27765287493E+02  0.51100000000E-03 0.  1.
        -12    1    4    4    0    0 -0.22810876398E+01  0.25828994131E+01  0.33781375736E+01  0.48256132942E+01  0.00000000000E+00 0.  1.
</event>
<event>
 8    1  0.5834107E-011  0.9118800E+02  0.7816164E-02  0.1184000E+00
        -11   -1    0    0    0    0  0.00000000000E+00  0.00000000000E+00  0.45593999997E+02  0.45594000000E+02  0.51100000000E-03 0. -1.
         11   -1    0    0    0    0 -0.00000000000E+00 -0.00000000000E+00 -0.45593999997E+02  0.45594000000E+02  0.51100000000E-03 0.  1.
         23    2    1    2    0    0  0.17763568394E-14 -0.88817841970E-15  0.00000000000E+00  0.91188000000E+02  0.91188000000E+02 0.  0.
    9900012    2    3    3    0    0  0.11255164878E+02 -0.62355575219E+01  0.41449519413E+02  0.47787267591E+02  0.19999984255E+02 0.  0.
        -12    1    3    3    0    0 -0.11255164878E+02  0.62355575219E+01 -0.41449519413E+02  0.43400732409E+02  0.00000000000E+00 0.  1.
         11    1    4    4    0    0  0.69274718282E+01 -0.77545714619E+01  0.13442038678E+02  0.16994459349E+02  0.51100000000E-03 0. -1.
        -11    1    4    4    0    0 -0.39359489113E+01 -0.55808007892E+00  0.60410905384E+01  0.72317302467E+01  0.51100000000E-03 0.  1.
         12    1    4    4    0    0  0.82636419611E+01  0.20770940189E+01  0.21966390197E+02  0.23561077995E+02  0.00000000000E+00 0. -1.
</event>
<event>
 8    1  0.5834107E-011  0.9118800E+02  0.7816164E-02  0.1184000E+00
        -11   -1    0    0    0    0  0.00000000000E+00  0.00000000000E+00  0.45593999997E+02  0.45594000000E+02  0.51100000000E-03 0.  1.
         11   -1    0    0    0    0 -0.00000000000E+00 -0.00000000000E+00 -0.45593999997E+02  0.45594000000E+02  0.51100000000E-03 0. -1.
         23    2    1    2    0    0  0.35527136788E-14  0.00000000000E+00 -0.88817841970E-15  0.91188000000E+02  0.91188000000E+02 0.  0.
    9900012    2    3    3    0    0 -0.18357708924E+02 -0.38551972939E+02  0.77693612722E+01  0.47787273405E+02  0.20000010763E+02 0.  0.
         12    1    3    3    0    0  0.18357708924E+02  0.38551972939E+02 -0.77693612722E+01  0.43400726595E+02  0.00000000000E+00 0. -1.
         11    1    4    4    0    0 -0.69671336947E+01 -0.52872846565E+01 -0.22195003957E+01  0.90234424266E+01  0.51100000000E-03 0. -1.
        -11    1    4    4    0    0  0.27535773126E+01 -0.81007476477E+01  0.29633043741E+01  0.90545830132E+01  0.51100000000E-03 0.  1.
        -12    1    4    4    0    0 -0.14144152541E+02 -0.25163940635E+02  0.70255572938E+01  0.29709247965E+02  0.00000000000E+00 0.  1.
</event>
<event>
 8    1  0.5834107E-011  0.9118800E+02  0.7816164E-02  0.1184000E+00
        -11   -1    0    0    0    0  0.00000000000E+00  0.00000000000E+00  0.45593999997E+02  0.45594000000E+02  0.51100000000E-03 0. -1.
         11   -1    0    0    0    0 -0.00000000000E+00 -0.00000000000E+00 -0.45593999997E+02  0.45594000000E+02  0.51100000000E-03 0.  1.
         23    2    1    2    0    0  0.00000000000E+00  0.00000000000E+00  0.00000000000E+00  0.91188000000E+02  0.91188000000E+02 0.  0.
    9900012    2    3    3    0    0 -0.83439237845E+01 -0.19852393386E+02 -0.37681359552E+02  0.47787269073E+02  0.19999991011E+02 0.  0.
         12    1    3    3    0    0  0.83439237845E+01  0.19852393386E+02  0.37681359552E+02  0.43400730927E+02  0.00000000000E+00 0. -1.
         11    1    4    4    0    0 -0.33497049573E+01 -0.10853882545E+02 -0.48558356944E+01  0.12353397514E+02  0.51100000000E-03 0.  1.
        -11    1    4    4    0    0  0.16315531901E+01  0.29729852767E+00 -0.70699430238E+01  0.72618487210E+01  0.51100000000E-03 0. -1.
        -12    1    4    4    0    0 -0.66257720173E+01 -0.92958093693E+01 -0.25755580834E+02  0.28172022838E+02  0.00000000000E+00 0.  1.
</event>
<event>
 8    1  0.5834107E-011  0.9118800E+02  0.7816164E-02  0.1184000E+00
        -11   -1    0    0    0    0  0.00000000000E+00  0.00000000000E+00  0.45593999997E+02  0.45594000000E+02  0.51100000000E-03 0.  1.
         11   -1    0    0    0    0 -0.00000000000E+00 -0.00000000000E+00 -0.45593999997E+02  0.45594000000E+02  0.51100000000E-03 0. -1.
         23    2    1    2    0    0  0.00000000000E+00  0.00000000000E+00 -0.66613381478E-15  0.91188000000E+02  0.91188000000E+02 0.  0.
    9900012    2    3    3    0    0  0.35511913673E+02 -0.24924479638E+02  0.11390805160E+01  0.47787271868E+02  0.20000003753E+02 0.  0.
        -12    1    3    3    0    0 -0.35511913673E+02  0.24924479638E+02 -0.11390805160E+01  0.43400728132E+02  0.00000000000E+00 0.  1.
         11    1    4    4    0    0  0.43379583840E+01 -0.61191355668E+01 -0.52658699655E+01  0.91646652847E+01  0.51100000000E-03 0. -1.
        -11    1    4    4    0    0  0.92953967480E+01 -0.10608244967E+02 -0.92817379392E+00  0.14135089983E+02  0.51100000000E-03 0.  1.
        -12    1    4    4    0    0  0.21878558541E+02 -0.81970991051E+01  0.73331242754E+01  0.24487516600E+02  0.00000000000E+00 0.  1.
</event>
<event>
 8    1  0.5834107E-011  0.9118800E+02  0.7816164E-02  0.1184000E+00
        -11   -1    0    0    0    0  0.00000000000E+00  0.00000000000E+00  0.45593999997E+02  0.45594000000E+02  0.51100000000E-03 0. -1.
         11   -1    0    0    0    0 -0.00000000000E+00 -0.00000000000E+00 -0.45593999997E+02  0.45594000000E+02  0.51100000000E-03 0.  1.
         23    2    1    2    0    0  0.00000000000E+00  0.00000000000E+00  0.00000000000E+00  0.91188000000E+02  0.91188000000E+02 0.  0.
    9900012    2    3    3    0    0  0.20921558080E+02 -0.11148900584E+02  0.36354006875E+02  0.47787269677E+02  0.19999993765E+02 0.  0.
        -12    1    3    3    0    0 -0.20921558080E+02  0.11148900584E+02 -0.36354006875E+02  0.43400730323E+02  0.00000000000E+00 0.  1.
         11    1    4    4    0    0  0.87130842414E+01 -0.54636124432E+01  0.16383408685E+02  0.19343861515E+02  0.51100000000E-03 0. -1.
        -11    1    4    4    0    0  0.71740945940E+01 -0.60309807004E+01  0.17466205901E+01  0.95336795204E+01  0.51100000000E-03 0.  1.
         12    1    4    4    0    0  0.50343792448E+01  0.34569255978E+00  0.18223977600E+02  0.18909728641E+02  0.00000000000E+00 0. -1.
</event>
<event>
 8    1  0.5834107E-011  0.9118800E+02  0.7816164E-02  0.1184000E+00
        -11   -1    0    0    0    0  0.00000000000E+00  0.00000000000E+00  0.45593999997E+02  0.45594000000E+02  0.51100000000E-03 0. -1.
         11   -1    0    0    0    0 -0.00000000000E+00 -0.00000000000E+00 -0.45593999997E+02  0.45594000000E+02  0.51100000000E-03 0.  1.
         23    2    1    2    0    0  0.00000000000E+00  0.00000000000E+00  0.00000000000E+00  0.91188000000E+02  0.91188000000E+02 0.  0.
    9900012    2    3    3    0    0 -0.28147500021E+02 -0.16393702004E+02  0.28680795671E+02  0.47787271168E+02  0.20000000563E+02 0.  0.
        -12    1    3    3    0    0  0.28147500021E+02  0.16393702004E+02 -0.28680795671E+02  0.43400728832E+02  0.00000000000E+00 0.  1.
         11    1    4    4    0    0 -0.71780308041E+01 -0.16221937639E+01  0.10955080150E+02  0.13197326251E+02  0.51100000000E-03 0. -1.
        -11    1    4    4    0    0 -0.14215965624E+02 -0.55034169138E+01  0.17378599420E+02  0.23117028235E+02  0.51100000000E-03 0.  1.
        -12    1    4    4    0    0 -0.67535035924E+01 -0.92680913261E+01  0.34711610188E+00  0.11472916682E+02  0.00000000000E+00 0.  1.
</event>
<event>
 8    1  0.5834107E-011  0.9118800E+02  0.7816164E-02  0.1184000E+00
        -11   -1    0    0    0    0  0.00000000000E+00  0.00000000000E+00  0.45593999997E+02  0.45594000000E+02  0.51100000000E-03 0. -1.
         11   -1    0    0    0    0 -0.00000000000E+00 -0.00000000000E+00 -0.45593999997E+02  0.45594000000E+02  0.51100000000E-03 0.  1.
         23    2    1    2    0    0  0.35527136788E-14  0.44408920985E-15  0.00000000000E+00  0.91188000000E+02  0.91188000000E+02 0.  0.
    9900012    2    3    3    0    0  0.23395211424E+02  0.32137280711E+01  0.36413722777E+02  0.47787272216E+02  0.20000005343E+02 0.  0.
        -12    1    3    3    0    0 -0.23395211424E+02 -0.32137280711E+01 -0.36413722777E+02  0.43400727784E+02  0.00000000000E+00 0.  1.
         11    1    4    4    0    0  0.17201385632E+02 -0.50239201870E+01  0.14759985751E+02  0.23216042327E+02  0.51100000000E-03 0.  1.
        -11    1    4    4    0    0  0.52433336187E+01  0.40439664123E+01  0.16953644814E+02  0.18200886915E+02  0.51100000000E-03 0. -1.
        -12    1    4    4    0    0  0.95049217271E+00  0.41936818458E+01  0.47000922125E+01  0.63703429735E+01  0.00000000000E+00 0.  1.
</event>
<event>
 8    1  0.5834107E-011  0.9118800E+02  0.7816164E-02  0.1184000E+00
        -11   -1    0    0    0    0  0.00000000000E+00  0.00000000000E+00  0.45593999997E+02  0.45594000000E+02  0.51100000000E-03 0. -1.
         11   -1    0    0    0    0 -0.00000000000E+00 -0.00000000000E+00 -0.45593999997E+02  0.45594000000E+02  0.51100000000E-03 0.  1.
         23    2    1    2    0    0  0.00000000000E+00 -0.35527136788E-14  0.00000000000E+00  0.91188000000E+02  0.91188000000E+02 0.  0.
    9900012    2    3    3    0    0  0.20431634721E+02  0.18334960575E+02 -0.33615483668E+02  0.47787271678E+02  0.20000002887E+02 0.  0.
         12    1    3    3    0    0 -0.20431634721E+02 -0.18334960575E+02  0.33615483668E+02  0.43400728322E+02  0.00000000000E+00 0. -1.
         11    1    4    4    0    0  0.14172653176E+01  0.75132090560E+00 -0.13758422361E+00  0.16099856407E+01  0.51100000000E-03 0. -1.
        -11    1    4    4    0    0 -0.29001887908E+01  0.62127185351E+01 -0.49911758324E+01  0.84806133663E+01  0.51100000000E-03 0.  1.
        -12    1    4    4    0    0  0.21914558194E+02  0.11370921135E+02 -0.28486723612E+02  0.37696672671E+02  0.00000000000E+00 0.  1.
</event>
<event>
 8    1  0.5834107E-011  0.9118800E+02  0.7816164E-02  0.1184000E+00
        -11   -1    0    0    0    0  0.00000000000E+00  0.00000000000E+00  0.45593999997E+02  0.45594000000E+02  0.51100000000E-03 0. -1.
         11   -1    0    0    0    0 -0.00000000000E+00 -0.00000000000E+00 -0.45593999997E+02  0.45594000000E+02  0.51100000000E-03 0.  1.
         23    2    1    2    0    0  0.00000000000E+00  0.35527136788E-14  0.00000000000E+00  0.91188000000E+02  0.91188000000E+02 0.  0.
    9900012    2    3    3    0    0  0.14344031761E+02  0.24167264004E+02 -0.33072858465E+02  0.47787287291E+02  0.20000074073E+02 0.  0.
         12    1    3    3    0    0 -0.14344031761E+02 -0.24167264004E+02  0.33072858465E+02  0.43400712709E+02  0.00000000000E+00 0. -1.
         11    1    4    4    0    0 -0.69185634460E+00 -0.90107345457E+00  0.16936114170E+01  0.20393426551E+01  0.51100000000E-03 0.  1.
        -11    1    4    4    0    0  0.60920867752E+01  0.14665175725E+02 -0.16465288133E+02  0.22875458769E+02  0.51100000000E-03 0. -1.
        -12    1    4    4    0    0  0.89438013307E+01  0.10403161734E+02 -0.18301181749E+02  0.22872485866E+02  0.00000000000E+00 0.  1.
</event>
<event>
 8    1  0.5834107E-011  0.9118800E+02  0.7816164E-02  0.1184000E+00
        -11   -1    0    0    0    0  0.00000000000E+00  0.00000000000E+00  0.45593999997E+02  0.45594000000E+02  0.51100000000E-03 0. -1.
         11   -1    0    0    0    0 -0.00000000000E+00 -0.00000000000E+00 -0.45593999997E+02  0.45594000000E+02  0.51100000000E-03 0.  1.
         23    2    1    2    0    0 -0.88817841970E-15  0.00000000000E+00  0.00000000000E+00  0.91188000000E+02  0.91188000000E+02 0.  0.
    9900012    2    3    3    0    0 -0.57830855291E+01 -0.10550574420E+02 -0.41699696169E+02  0.47787270059E+02  0.19999995506E+02 0.  0.
         12    1    3    3    0    0  0.57830855291E+01  0.10550574420E+02  0.41699696169E+02  0.43400729941E+02  0.00000000000E+00 0. -1.
         11    1    4    4    0    0  0.33023683787E+01 -0.38991474791E+01 -0.11102392271E+01  0.52289214352E+01  0.51100000000E-03 0. -1.
        -11    1    4    4    0    0 -0.50837220780E+00 -0.18034947703E+01 -0.15352370358E+02  0.15466295987E+02  0.51100000000E-03 0.  1.
         12    1    4    4    0    0 -0.85770817000E+01 -0.48479321708E+01 -0.25237086584E+02  0.27092052636E+02  0.00000000000E+00 0. -1.
</event>
<event>
 8    1  0.5834107E-011  0.9118800E+02  0.7816164E-02  0.1184000E+00
        -11   -1    0    0    0    0  0.00000000000E+00  0.00000000000E+00  0.45593999997E+02  0.45594000000E+02  0.51100000000E-03 0. -1.
         11   -1    0    0    0    0 -0.00000000000E+00 -0.00000000000E+00 -0.45593999997E+02  0.45594000000E+02  0.51100000000E-03 0.  1.
         23    2    1    2    0    0  0.35527136788E-14  0.00000000000E+00  0.00000000000E+00  0.91188000000E+02  0.91188000000E+02 0.  0.
    9900012    2    3    3    0    0  0.19556513095E+02 -0.37791347316E+02  0.85428401093E+01  0.47787271279E+02  0.20000001070E+02 0.  0.
        -12    1    3    3    0    0 -0.19556513095E+02  0.37791347316E+02 -0.85428401093E+01  0.43400728721E+02  0.00000000000E+00 0.  1.
         11    1    4    4    0    0  0.18837625162E+02 -0.30146012700E+02  0.48206521515E+01  0.35873066371E+02  0.51100000000E-03 0. -1.
        -11    1    4    4    0    0 -0.78131867452E-01 -0.18271756273E+01 -0.26685210628E+01  0.32350703679E+01  0.51100000000E-03 0.  1.
        -12    1    4    4    0    0  0.79701980042E+00 -0.58181589886E+01  0.63907090205E+01  0.86791345400E+01  0.00000000000E+00 0.  1.
</event>
<event>
 8    1  0.5834107E-011  0.9118800E+02  0.7816164E-02  0.1184000E+00
        -11   -1    0    0    0    0  0.00000000000E+00  0.00000000000E+00  0.45593999997E+02  0.45594000000E+02  0.51100000000E-03 0. -1.
         11   -1    0    0    0    0 -0.00000000000E+00 -0.00000000000E+00 -0.45593999997E+02  0.45594000000E+02  0.51100000000E-03 0.  1.
         23    2    1    2    0    0  0.00000000000E+00 -0.17763568394E-14  0.00000000000E+00  0.91188000000E+02  0.91188000000E+02 0.  0.
    9900012    2    3    3    0    0  0.14203385542E+02  0.15740380479E+02 -0.37869878541E+02  0.47787269140E+02  0.19999991318E+02 0.  0.
         12    1    3    3    0    0 -0.14203385542E+02 -0.15740380479E+02  0.37869878541E+02  0.43400730860E+02  0.00000000000E+00 0. -1.
         11    1    4    4    0    0  0.11209418873E+00  0.88678972417E+01 -0.84661760550E+01  0.12260844337E+02  0.51100000000E-03 0. -1.
        -11    1    4    4    0    0  0.11139362506E+02  0.94653321402E+01 -0.27537479819E+02  0.31176765461E+02  0.51100000000E-03 0.  1.
        -12    1    4    4    0    0  0.29519288471E+01 -0.25928489028E+01 -0.18662226663E+01  0.43496593420E+01  0.00000000000E+00 0.  1.
</event>
<event>
 8    1  0.5834107E-011  0.9118800E+02  0.7816164E-02  0.1184000E+00
        -11   -1    0    0    0    0  0.00000000000E+00  0.00000000000E+00  0.45593999997E+02  0.45594000000E+02  0.51100000000E-03 0. -1.
         11   -1    0    0    0    0 -0.00000000000E+00 -0.00000000000E+00 -0.45593999997E+02  0.45594000000E+02  0.51100000000E-03 0.  1.
         23    2    1    2    0    0 -0.71054273576E-14  0.20816681712E-15  0.88817841970E-15  0.91188000000E+02  0.91188000000E+02 0.  0.
    9900012    2    3    3    0    0  0.43021556243E+02  0.92834221895E-01 -0.57236845369E+01  0.47787268619E+02  0.19999988941E+02 0.  0.
         12    1    3    3    0    0 -0.43021556243E+02 -0.92834221895E-01  0.57236845369E+01  0.43400731381E+02  0.00000000000E+00 0. -1.
         11    1    4    4    0    0  0.12042548581E+02 -0.29417987117E+01 -0.30122258376E+01  0.12757376719E+02  0.51100000000E-03 0. -1.
        -11    1    4    4    0    0  0.19626075130E+02 -0.47629410725E+01  0.24027482822E+01  0.20338181636E+02  0.51100000000E-03 0.  1.
         12    1    4    4    0    0  0.11352932532E+02  0.77975740061E+01 -0.51142069816E+01  0.14691710265E+02  0.00000000000E+00 0. -1.
</event>
<event>
 8    1  0.7038952E-011  0.9118800E+02  0.7816164E-02  0.1184000E+00
        -11   -1    0    0    0    0  0.00000000000E+00  0.00000000000E+00  0.45593999997E+02  0.45594000000E+02  0.51100000000E-03 0. -1.
         11   -1    0    0    0    0 -0.00000000000E+00 -0.00000000000E+00 -0.45593999997E+02  0.45594000000E+02  0.51100000000E-03 0.  1.
         23    2    1    2    0    0  0.00000000000E+00 -0.17763568394E-14  0.00000000000E+00  0.91188000000E+02  0.91188000000E+02 0.  0.
    9900012    2    3    3    0    0  0.27354560546E+01  0.84628788831E+01 -0.42479647309E+02  0.47787268735E+02  0.19999989472E+02 0.  0.
         12    1    3    3    0    0 -0.27354560546E+01 -0.84628788831E+01  0.42479647309E+02  0.43400731265E+02  0.00000000000E+00 0. -1.
         11    1    4    4    0    0 -0.54497059962E+00  0.44328309655E+01  0.49251336900E+00  0.44932786473E+01  0.51100000000E-03 0. -1.
        -11    1    4    4    0    0  0.14404240881E+01  0.14145657084E+01 -0.13760113738E+02  0.13907427801E+02  0.51100000000E-03 0.  1.
         12    1    4    4    0    0  0.18400025662E+01  0.26154822093E+01 -0.29212046940E+02  0.29386562287E+02  0.00000000000E+00 0. -1.
</event>
<event>
 8    1  0.5834107E-011  0.9118800E+02  0.7816164E-02  0.1184000E+00
        -11   -1    0    0    0    0  0.00000000000E+00  0.00000000000E+00  0.45593999997E+02  0.45594000000E+02  0.51100000000E-03 0. -1.
         11   -1    0    0    0    0 -0.00000000000E+00 -0.00000000000E+00 -0.45593999997E+02  0.45594000000E+02  0.51100000000E-03 0.  1.
         23    2    1    2    0    0 -0.35527136788E-14  0.00000000000E+00  0.00000000000E+00  0.91188000000E+02  0.91188000000E+02 0.  0.
    9900012    2    3    3    0    0 -0.17073537359E+02  0.35924621145E+02  0.17364893049E+02  0.47787267368E+02  0.19999983238E+02 0.  0.
        -12    1    3    3    0    0  0.17073537359E+02 -0.35924621145E+02 -0.17364893049E+02  0.43400732632E+02  0.00000000000E+00 0.  1.
         11    1    4    4    0    0  0.19225023556E+00  0.13245480684E+02  0.12404747917E+01  0.13304829825E+02  0.51100000000E-03 0. -1.
        -11    1    4    4    0    0 -0.10811360383E+02  0.12151696946E+02  0.31430077804E+01  0.16565860985E+02  0.51100000000E-03 0.  1.
        -12    1    4    4    0    0 -0.64544272118E+01  0.10527443515E+02  0.12981410477E+02  0.17916576558E+02  0.00000000000E+00 0.  1.
</event>
<event>
 8    1  0.5834107E-011  0.9118800E+02  0.7816164E-02  0.1184000E+00
        -11   -1    0    0    0    0  0.00000000000E+00  0.00000000000E+00  0.45593999997E+02  0.45594000000E+02  0.51100000000E-03 0. -1.
         11   -1    0    0    0    0 -0.00000000000E+00 -0.00000000000E+00 -0.45593999997E+02  0.45594000000E+02  0.51100000000E-03 0.  1.
         23    2    1    2    0    0  0.00000000000E+00  0.00000000000E+00  0.00000000000E+00  0.91188000000E+02  0.91188000000E+02 0.  0.
    9900012    2    3    3    0    0 -0.18144202739E+02 -0.59567345949E+01  0.38973428697E+02  0.47787275070E+02  0.20000018353E+02 0.  0.
        -12    1    3    3    0    0  0.18144202739E+02  0.59567345949E+01 -0.38973428697E+02  0.43400724930E+02  0.00000000000E+00 0.  1.
         11    1    4    4    0    0 -0.48312230211E+01  0.48987060207E+01  0.16462894353E+02  0.17842783620E+02  0.51100000000E-03 0. -1.
        -11    1    4    4    0    0  0.21108678306E+00 -0.35144552007E+01  0.13286412179E+01  0.37631424016E+01  0.51100000000E-03 0.  1.
        -12    1    4    4    0    0 -0.13524066501E+02 -0.73409854149E+01  0.21181893126E+02  0.26181349048E+02  0.00000000000E+00 0.  1.
</event>
<event>
 8    1  0.5834107E-011  0.9118800E+02  0.7816164E-02  0.1184000E+00
        -11   -1    0    0    0    0  0.00000000000E+00  0.00000000000E+00  0.45593999997E+02  0.45594000000E+02  0.51100000000E-03 0.  1.
         11   -1    0    0    0    0 -0.00000000000E+00 -0.00000000000E+00 -0.45593999997E+02  0.45594000000E+02  0.51100000000E-03 0. -1.
         23    2    1    2    0    0  0.00000000000E+00  0.00000000000E+00  0.00000000000E+00  0.91188000000E+02  0.91188000000E+02 0.  0.
    9900012    2    3    3    0    0 -0.10646317412E+02  0.37469330952E+02  0.19139673069E+02  0.47787286623E+02  0.20000071028E+02 0.  0.
        -12    1    3    3    0    0  0.10646317412E+02 -0.37469330952E+02 -0.19139673069E+02  0.43400713377E+02  0.00000000000E+00 0.  1.
         11    1    4    4    0    0  0.85163266134E+00  0.98666628211E+00 -0.13107312290E+01  0.18484602127E+01  0.51100000000E-03 0. -1.
        -11    1    4    4    0    0  0.30594437426E+00  0.98469316678E+00 -0.20426982906E+01  0.22881956123E+01  0.51100000000E-03 0.  1.
        -12    1    4    4    0    0 -0.11803894447E+02  0.35497971503E+02  0.22493102589E+02  0.43650630798E+02  0.00000000000E+00 0.  1.
</event>
<event>
 8    1  0.5834107E-011  0.9118800E+02  0.7816164E-02  0.1184000E+00
        -11   -1    0    0    0    0  0.00000000000E+00  0.00000000000E+00  0.45593999997E+02  0.45594000000E+02  0.51100000000E-03 0. -1.
         11   -1    0    0    0    0 -0.00000000000E+00 -0.00000000000E+00 -0.45593999997E+02  0.45594000000E+02  0.51100000000E-03 0.  1.
         23    2    1    2    0    0  0.00000000000E+00 -0.88817841970E-15  0.00000000000E+00  0.91188000000E+02  0.91188000000E+02 0.  0.
    9900012    2    3    3    0    0 -0.26805071240E+02  0.53171466371E+01  0.33717048487E+02  0.47787271305E+02  0.20000001189E+02 0.  0.
        -12    1    3    3    0    0  0.26805071240E+02 -0.53171466371E+01 -0.33717048487E+02  0.43400728695E+02  0.00000000000E+00 0.  1.
         11    1    4    4    0    0 -0.16385608637E+02 -0.18005108291E+01  0.19086234302E+02  0.25219324927E+02  0.51100000000E-03 0. -1.
        -11    1    4    4    0    0 -0.65914057674E+01  0.12131456600E+01  0.42594038656E+00  0.67156368170E+01  0.51100000000E-03 0.  1.
        -12    1    4    4    0    0 -0.38280568354E+01  0.59045118062E+01  0.14204873799E+02  0.15852309562E+02  0.00000000000E+00 0.  1.
</event>
<event>
 8    1  0.5834107E-011  0.9118800E+02  0.7816164E-02  0.1184000E+00
        -11   -1    0    0    0    0  0.00000000000E+00  0.00000000000E+00  0.45593999997E+02  0.45594000000E+02  0.51100000000E-03 0.  1.
         11   -1    0    0    0    0 -0.00000000000E+00 -0.00000000000E+00 -0.45593999997E+02  0.45594000000E+02  0.51100000000E-03 0. -1.
         23    2    1    2    0    0  0.00000000000E+00  0.00000000000E+00  0.17763568394E-14  0.91188000000E+02  0.91188000000E+02 0.  0.
    9900012    2    3    3    0    0 -0.13427214606E+02 -0.39064335276E+02 -0.13315817764E+02  0.47787269760E+02  0.19999994144E+02 0.  0.
         12    1    3    3    0    0  0.13427214606E+02  0.39064335276E+02  0.13315817764E+02  0.43400730240E+02  0.00000000000E+00 0. -1.
         11    1    4    4    0    0 -0.40976022720E+01 -0.93672452166E+01 -0.82207240263E+01  0.13119296136E+02  0.51100000000E-03 0. -1.
        -11    1    4    4    0    0 -0.52128301329E+01 -0.88496880430E+01  0.46687546566E+01  0.11282191576E+02  0.51100000000E-03 0.  1.
        -12    1    4    4    0    0 -0.41167822007E+01 -0.20847402017E+02 -0.97638483940E+01  0.23385782048E+02  0.00000000000E+00 0.  1.
</event>
