<event>
 7    1  0.1024956E-012  0.5052877E+02  0.7816164E-02  0.1300439E+00
        -11   -1    0    0    0    0  0.00000000000E+00  0.00000000000E+00  0.45593999997E+02  0.45594000000E+02  0.51100000000E-03 0.  1.
         11   -1    0    0    0    0 -0.00000000000E+00 -0.00000000000E+00 -0.45593999997E+02  0.45594000000E+02  0.51100000000E-03 0. -1.
    9900012    2    1    2    0    0  0.37079879406E+02 -0.23174751309E+01 -0.16519218529E+02  0.50528773144E+02  0.29999736447E+02 0.  0.
        -12    1    1    2    0    0 -0.37079879406E+02  0.23174751309E+01  0.16519218529E+02  0.40659226856E+02  0.00000000000E+00 0.  1.
         11    1    3    3    0    0  0.14744675498E+02 -0.10143798069E+02 -0.37344618450E+01  0.18282458815E+02  0.51100000000E-03 0. -1.
        -11    1    3    3    0    0  0.91844459762E+01  0.11849662166E+02 -0.10504542970E+02  0.18306118228E+02  0.51100000000E-03 0.  1.
        -12    1    3    3    0    0  0.13150757932E+02 -0.40233392273E+01 -0.22802137139E+01  0.13940196100E+02  0.00000000000E+00 0.  1.
</event>
<event>
 7    1  0.1024956E-012  0.5052886E+02  0.7816164E-02  0.1300439E+00
        -11   -1    0    0    0    0  0.00000000000E+00  0.00000000000E+00  0.45593999997E+02  0.45594000000E+02  0.51100000000E-03 0.  1.
         11   -1    0    0    0    0 -0.00000000000E+00 -0.00000000000E+00 -0.45593999997E+02  0.45594000000E+02  0.51100000000E-03 0. -1.
    9900012    2    1    2    0    0 -0.20020612133E+02 -0.16522805377E+02 -0.31294369522E+02  0.50528861156E+02  0.30000003970E+02 0.  0.
        -12    1    1    2    0    0  0.20020612133E+02  0.16522805377E+02  0.31294369522E+02  0.40659138844E+02  0.00000000000E+00 0.  1.
         11    1    3    3    0    0 -0.19412214991E+02 -0.15649725472E+02 -0.15056431374E+02  0.29128064203E+02  0.51100000000E-03 0. -1.
        -11    1    3    3    0    0  0.85582630293E+00 -0.63231497687E+01 -0.13895721759E+02  0.15290707803E+02  0.51100000000E-03 0.  1.
         12    1    3    3    0    0 -0.14642234456E+01  0.54500698636E+01 -0.23422163894E+01  0.61100891508E+01  0.00000000000E+00 0. -1.
</event>
<event>
 7    1  0.1024956E-012  0.5052886E+02  0.7816164E-02  0.1300439E+00
        -11   -1    0    0    0    0  0.00000000000E+00  0.00000000000E+00  0.45593999997E+02  0.45594000000E+02  0.51100000000E-03 0. -1.
         11   -1    0    0    0    0 -0.00000000000E+00 -0.00000000000E+00 -0.45593999997E+02  0.45594000000E+02  0.51100000000E-03 0.  1.
    9900012    2    1    2    0    0 -0.23925698055E+02 -0.32170315983E+02  0.67673742291E+01  0.50528860660E+02  0.30000002463E+02 0.  0.
        -12    1    1    2    0    0  0.23925698055E+02  0.32170315983E+02 -0.67673742291E+01  0.40659139340E+02  0.00000000000E+00 0.  1.
         11    1    3    3    0    0 -0.24466637900E+02 -0.21028378658E+02  0.10566007825E+02  0.33947748095E+02  0.51100000000E-03 0. -1.
        -11    1    3    3    0    0  0.55804029339E+00  0.24314585118E+01 -0.11704459139E+01  0.27556021777E+01  0.51100000000E-03 0.  1.
         12    1    3    3    0    0 -0.17100448128E-01 -0.13573395837E+02 -0.26281876819E+01  0.13825510387E+02  0.00000000000E+00 0. -1.
</event>
<event>
 7    1  0.1024956E-012  0.5052886E+02  0.7816164E-02  0.1300439E+00
        -11   -1    0    0    0    0  0.00000000000E+00  0.00000000000E+00  0.45593999997E+02  0.45594000000E+02  0.51100000000E-03 0.  1.
         11   -1    0    0    0    0 -0.00000000000E+00 -0.00000000000E+00 -0.45593999997E+02  0.45594000000E+02  0.51100000000E-03 0. -1.
    9900012    2    1    2    0    0 -0.75893582016E+01 -0.37047124395E+02 -0.14935802039E+02  0.50528856301E+02  0.29999989211E+02 0.  0.
        -12    1    1    2    0    0  0.75893582016E+01  0.37047124395E+02  0.14935802039E+02  0.40659143699E+02  0.00000000000E+00 0.  1.
         11    1    3    3    0    0  0.64065669543E+01 -0.53293630836E+01 -0.97820330449E+01  0.12850462317E+02  0.51100000000E-03 0. -1.
        -11    1    3    3    0    0 -0.64497962624E+01 -0.20521202129E+02  0.32788063918E+01  0.21759369942E+02  0.51100000000E-03 0.  1.
        -12    1    3    3    0    0 -0.75461288935E+01 -0.11196559182E+02 -0.84325753856E+01  0.15919024042E+02  0.00000000000E+00 0.  1.
</event>
<event>
 7    1  0.1024956E-012  0.5052885E+02  0.7816164E-02  0.1300439E+00
        -11   -1    0    0    0    0  0.00000000000E+00  0.00000000000E+00  0.45593999997E+02  0.45594000000E+02  0.51100000000E-03 0. -1.
         11   -1    0    0    0    0 -0.00000000000E+00 -0.00000000000E+00 -0.45593999997E+02  0.45594000000E+02  0.51100000000E-03 0.  1.
    9900012    2    1    2    0    0 -0.63519727566E+01  0.29471367228E+02  0.27281082250E+02  0.50528849826E+02  0.29999969530E+02 0.  0.
        -12    1    1    2    0    0  0.63519727566E+01 -0.29471367228E+02 -0.27281082250E+02  0.40659150174E+02  0.00000000000E+00 0.  1.
         11    1    3    3    0    0 -0.15777602895E+02  0.55803792147E+01  0.11771266794E+02  0.20460598904E+02  0.51100000000E-03 0. -1.
        -11    1    3    3    0    0  0.73256711828E+01  0.19708559205E+02  0.11918220248E+02  0.24168920918E+02  0.51100000000E-03 0.  1.
         12    1    3    3    0    0  0.20999589561E+01  0.41824288081E+01  0.35915952079E+01  0.58993300034E+01  0.00000000000E+00 0. -1.
</event>
<event>
 7    1  0.1024956E-012  0.5052887E+02  0.7816164E-02  0.1300439E+00
        -11   -1    0    0    0    0  0.00000000000E+00  0.00000000000E+00  0.45593999997E+02  0.45594000000E+02  0.51100000000E-03 0. -1.
         11   -1    0    0    0    0 -0.00000000000E+00 -0.00000000000E+00 -0.45593999997E+02  0.45594000000E+02  0.51100000000E-03 0.  1.
    9900012    2    1    2    0    0  0.38515395237E+02  0.97711801234E+01 -0.86170203314E+01  0.50528872234E+02  0.30000037644E+02 0.  0.
        -12    1    1    2    0    0 -0.38515395237E+02 -0.97711801234E+01  0.86170203314E+01  0.40659127766E+02  0.00000000000E+00 0.  1.
         11    1    3    3    0    0  0.15799284060E+02  0.33288713427E+01  0.86519877111E+01  0.18318178207E+02  0.51100000000E-03 0. -1.
        -11    1    3    3    0    0  0.19132704822E+02  0.10436079078E+02 -0.14454970928E+02  0.26151832156E+02  0.51100000000E-03 0.  1.
         12    1    3    3    0    0  0.35834063555E+01 -0.39937702972E+01 -0.28140371140E+01  0.60588618712E+01  0.00000000000E+00 0. -1.
</event>
<event>
 7    1  0.1024956E-012  0.5052885E+02  0.7816164E-02  0.1300439E+00
        -11   -1    0    0    0    0  0.00000000000E+00  0.00000000000E+00  0.45593999997E+02  0.45594000000E+02  0.51100000000E-03 0.  1.
         11   -1    0    0    0    0 -0.00000000000E+00 -0.00000000000E+00 -0.45593999997E+02  0.45594000000E+02  0.51100000000E-03 0. -1.
    9900012    2    1    2    0    0  0.31446220138E+02 -0.33772705346E+01 -0.25551825250E+02  0.50528849851E+02  0.29999969606E+02 0.  0.
        -12    1    1    2    0    0 -0.31446220138E+02  0.33772705346E+01  0.25551825250E+02  0.40659150149E+02  0.00000000000E+00 0.  1.
         11    1    3    3    0    0  0.29041065317E+02 -0.63810261907E+01 -0.28912444623E+02  0.41473249502E+02  0.51100000000E-03 0. -1.
        -11    1    3    3    0    0 -0.74548999231E+00 -0.21998386932E+01  0.81885965333E+00  0.24628392147E+01  0.51100000000E-03 0.  1.
         12    1    3    3    0    0  0.31506448138E+01  0.52035943493E+01  0.25417597191E+01  0.65927611336E+01  0.00000000000E+00 0. -1.
</event>
<event>
 7    1  0.1024956E-012  0.5052886E+02  0.7816164E-02  0.1300439E+00
        -11   -1    0    0    0    0  0.00000000000E+00  0.00000000000E+00  0.45593999997E+02  0.45594000000E+02  0.51100000000E-03 0. -1.
         11   -1    0    0    0    0 -0.00000000000E+00 -0.00000000000E+00 -0.45593999997E+02  0.45594000000E+02  0.51100000000E-03 0.  1.
    9900012    2    1    2    0    0 -0.70269752345E+01 -0.39845692587E+02  0.40134440622E+01  0.50528864103E+02  0.30000012928E+02 0.  0.
        -12    1    1    2    0    0  0.70269752345E+01  0.39845692587E+02 -0.40134440622E+01  0.40659135897E+02  0.00000000000E+00 0.  1.
         11    1    3    3    0    0  0.23340568776E+01  0.18855950915E+01  0.27534021832E+01  0.40724088940E+01  0.51100000000E-03 0.  1.
        -11    1    3    3    0    0 -0.74187186793E+01 -0.31163079990E+02 -0.71369960322E+01  0.32819379243E+02  0.51100000000E-03 0. -1.
         12    1    3    3    0    0 -0.19423134328E+01 -0.10568207688E+02  0.83970379112E+01  0.13637075966E+02  0.00000000000E+00 0. -1.
</event>
<event>
 7    1  0.1024956E-012  0.5052885E+02  0.7816164E-02  0.1300439E+00
        -11   -1    0    0    0    0  0.00000000000E+00  0.00000000000E+00  0.45593999997E+02  0.45594000000E+02  0.51100000000E-03 0.  1.
         11   -1    0    0    0    0 -0.00000000000E+00 -0.00000000000E+00 -0.45593999997E+02  0.45594000000E+02  0.51100000000E-03 0. -1.
    9900012    2    1    2    0    0 -0.99232794332E+01  0.65597692094E+01 -0.38880132244E+02  0.50528846909E+02  0.29999960665E+02 0.  0.
        -12    1    1    2    0    0  0.99232794332E+01 -0.65597692094E+01  0.38880132244E+02  0.40659153091E+02  0.00000000000E+00 0.  1.
         11    1    3    3    0    0 -0.13076880315E+02  0.81356407201E+01 -0.30319134557E+02  0.34006519511E+02  0.51100000000E-03 0. -1.
        -11    1    3    3    0    0  0.62010633040E+01  0.28267271136E+01 -0.48451585259E+00  0.68321539903E+01  0.51100000000E-03 0.  1.
         12    1    3    3    0    0 -0.30474624225E+01 -0.44025986243E+01 -0.80764818336E+01  0.96901734077E+01  0.00000000000E+00 0. -1.
</event>
<event>
 7    1  0.1024956E-012  0.5052886E+02  0.7816164E-02  0.1300439E+00
        -11   -1    0    0    0    0  0.00000000000E+00  0.00000000000E+00  0.45593999997E+02  0.45594000000E+02  0.51100000000E-03 0. -1.
         11   -1    0    0    0    0 -0.00000000000E+00 -0.00000000000E+00 -0.45593999997E+02  0.45594000000E+02  0.51100000000E-03 0.  1.
    9900012    2    1    2    0    0  0.39248606715E+02 -0.51498863983E+01  0.92839365873E+01  0.50528856655E+02  0.29999990288E+02 0.  0.
        -12    1    1    2    0    0 -0.39248606715E+02  0.51498863983E+01 -0.92839365873E+01  0.40659143345E+02  0.00000000000E+00 0.  1.
         11    1    3    3    0    0  0.11618466892E+02 -0.12636401734E+02 -0.42369716984E+01  0.17681044967E+02  0.51100000000E-03 0. -1.
        -11    1    3    3    0    0  0.74820089178E+01  0.21736062132E+01 -0.37845159268E+00  0.78005286542E+01  0.51100000000E-03 0.  1.
         12    1    3    3    0    0  0.20148130905E+02  0.53129091223E+01  0.13899359878E+02  0.25047283033E+02  0.00000000000E+00 0. -1.
</event>
<event>
 7    1  0.1024956E-012  0.5052885E+02  0.7816164E-02  0.1300439E+00
        -11   -1    0    0    0    0  0.00000000000E+00  0.00000000000E+00  0.45593999997E+02  0.45594000000E+02  0.51100000000E-03 0. -1.
         11   -1    0    0    0    0 -0.00000000000E+00 -0.00000000000E+00 -0.45593999997E+02  0.45594000000E+02  0.51100000000E-03 0.  1.
    9900012    2    1    2    0    0  0.15488269458E+02 -0.29898889414E+02 -0.22788956310E+02  0.50528848402E+02  0.29999965202E+02 0.  0.
        -12    1    1    2    0    0 -0.15488269458E+02  0.29898889414E+02  0.22788956310E+02  0.40659151598E+02  0.00000000000E+00 0.  1.
         11    1    3    3    0    0  0.13688943944E+02 -0.23216189557E+02 -0.27952841818E+01  0.27095982317E+02  0.51100000000E-03 0. -1.
        -11    1    3    3    0    0  0.56901265014E+01 -0.58897095306E+01 -0.14525954238E+02  0.16675417978E+02  0.51100000000E-03 0.  1.
         12    1    3    3    0    0 -0.38908009872E+01 -0.79299032660E+00 -0.54677178907E+01  0.67574481066E+01  0.00000000000E+00 0. -1.
</event>
<event>
 7    1  0.1024956E-012  0.5052882E+02  0.7816164E-02  0.1300439E+00
        -11   -1    0    0    0    0  0.00000000000E+00  0.00000000000E+00  0.45593999997E+02  0.45594000000E+02  0.51100000000E-03 0. -1.
         11   -1    0    0    0    0 -0.00000000000E+00 -0.00000000000E+00 -0.45593999997E+02  0.45594000000E+02  0.51100000000E-03 0.  1.
    9900012    2    1    2    0    0 -0.23732660356E+02 -0.32823721574E+02 -0.35401625250E+01  0.50528823715E+02  0.29999890163E+02 0.  0.
        -12    1    1    2    0    0  0.23732660356E+02  0.32823721574E+02  0.35401625250E+01  0.40659176285E+02  0.00000000000E+00 0.  1.
         11    1    3    3    0    0 -0.95939111583E+01 -0.23805137098E+01  0.47300347891E+01  0.10958248318E+02  0.51100000000E-03 0. -1.
        -11    1    3    3    0    0 -0.46757706649E+01 -0.22875329881E+02 -0.12809430283E+02  0.26631279596E+02  0.51100000000E-03 0.  1.
        -12    1    3    3    0    0 -0.94629785323E+01 -0.75678779831E+01  0.45392329689E+01  0.12939295801E+02  0.00000000000E+00 0.  1.
</event>
<event>
 7    1  0.1024956E-012  0.5052900E+02  0.7816164E-02  0.1300438E+00
        -11   -1    0    0    0    0  0.00000000000E+00  0.00000000000E+00  0.45593999997E+02  0.45594000000E+02  0.51100000000E-03 0.  1.
         11   -1    0    0    0    0 -0.00000000000E+00 -0.00000000000E+00 -0.45593999997E+02  0.45594000000E+02  0.51100000000E-03 0. -1.
    9900012    2    1    2    0    0 -0.12462641436E+02  0.65928430798E+00 -0.38696285090E+02  0.50528996482E+02  0.30000415302E+02 0.  0.
        -12    1    1    2    0    0  0.12462641436E+02 -0.65928430798E+00  0.38696285090E+02  0.40659003518E+02  0.00000000000E+00 0.  1.
         11    1    3    3    0    0 -0.18509904723E+02 -0.56887279846E+01 -0.26570275468E+02  0.32877921735E+02  0.51100000000E-03 0. -1.
        -11    1    3    3    0    0  0.44779935082E+01  0.15889104367E+01 -0.11692650840E+02  0.12621218094E+02  0.51100000000E-03 0.  1.
         12    1    3    3    0    0  0.15692697781E+01  0.47591018558E+01 -0.43335878134E+00  0.50298566524E+01  0.00000000000E+00 0. -1.
</event>
<event>
 7    1  0.1024956E-012  0.5052886E+02  0.7816164E-02  0.1300439E+00
        -11   -1    0    0    0    0  0.00000000000E+00  0.00000000000E+00  0.45593999997E+02  0.45594000000E+02  0.51100000000E-03 0.  1.
         11   -1    0    0    0    0 -0.00000000000E+00 -0.00000000000E+00 -0.45593999997E+02  0.45594000000E+02  0.51100000000E-03 0. -1.
    9900012    2    1    2    0    0  0.71330556077E+01  0.10383221858E+02 -0.38658422635E+02  0.50528863031E+02  0.30000009669E+02 0.  0.
        -12    1    1    2    0    0 -0.71330556077E+01 -0.10383221858E+02  0.38658422635E+02  0.40659136969E+02  0.00000000000E+00 0.  1.
         11    1    3    3    0    0 -0.45817981140E+01  0.75000843135E+01 -0.48178381594E+01  0.10022759274E+02  0.51100000000E-03 0. -1.
        -11    1    3    3    0    0  0.48876635655E+01 -0.60934298970E+01 -0.43687453278E+01  0.89501440793E+01  0.51100000000E-03 0.  1.
        -12    1    3    3    0    0  0.68271901562E+01  0.89765674419E+01 -0.29471839147E+02  0.31555959678E+02  0.00000000000E+00 0.  1.
</event>
<event>
 7    1  0.1024956E-012  0.5052886E+02  0.7816164E-02  0.1300439E+00
        -11   -1    0    0    0    0  0.00000000000E+00  0.00000000000E+00  0.45593999997E+02  0.45594000000E+02  0.51100000000E-03 0.  1.
         11   -1    0    0    0    0 -0.00000000000E+00 -0.00000000000E+00 -0.45593999997E+02  0.45594000000E+02  0.51100000000E-03 0. -1.
    9900012    2    1    2    0    0 -0.17354302737E+02 -0.29430448379E+02 -0.22041838184E+02  0.50528859013E+02  0.29999997456E+02 0.  0.
        -12    1    1    2    0    0  0.17354302737E+02  0.29430448379E+02  0.22041838184E+02  0.40659140987E+02  0.00000000000E+00 0.  1.
         11    1    3    3    0    0 -0.85205900068E+01 -0.19652140908E+02 -0.86294756831E+01  0.23092746636E+02  0.51100000000E-03 0. -1.
        -11    1    3    3    0    0 -0.23862804509E+01  0.62190345287E+01 -0.31764993951E+01  0.73797610753E+01  0.51100000000E-03 0.  1.
         12    1    3    3    0    0 -0.64474322794E+01 -0.15997341999E+02 -0.10235863105E+02  0.20056351302E+02  0.00000000000E+00 0. -1.
</event>
<event>
 7    1  0.1024956E-012  0.5052885E+02  0.7816164E-02  0.1300439E+00
        -11   -1    0    0    0    0  0.00000000000E+00  0.00000000000E+00  0.45593999997E+02  0.45594000000E+02  0.51100000000E-03 0.  1.
         11   -1    0    0    0    0 -0.00000000000E+00 -0.00000000000E+00 -0.45593999997E+02  0.45594000000E+02  0.51100000000E-03 0. -1.
    9900012    2    1    2    0    0  0.12997731497E+02  0.11484458513E+02  0.36774074523E+02  0.50528851357E+02  0.29999974183E+02 0.  0.
        -12    1    1    2    0    0 -0.12997731497E+02 -0.11484458513E+02 -0.36774074523E+02  0.40659148643E+02  0.00000000000E+00 0.  1.
         11    1    3    3    0    0 -0.72735837770E+01  0.27241327457E+01  0.61371596830E+00  0.77911852583E+01  0.51100000000E-03 0. -1.
        -11    1    3    3    0    0  0.16503911468E+02  0.88053698096E+01  0.27139237348E+02  0.32961368833E+02  0.51100000000E-03 0.  1.
         12    1    3    3    0    0  0.37674038058E+01 -0.45044042666E-01  0.90211212065E+01  0.97762972656E+01  0.00000000000E+00 0. -1.
</event>
<event>
 7    1  0.1024956E-012  0.5052886E+02  0.7816164E-02  0.1300439E+00
        -11   -1    0    0    0    0  0.00000000000E+00  0.00000000000E+00  0.45593999997E+02  0.45594000000E+02  0.51100000000E-03 0. -1.
         11   -1    0    0    0    0 -0.00000000000E+00 -0.00000000000E+00 -0.45593999997E+02  0.45594000000E+02  0.51100000000E-03 0.  1.
    9900012    2    1    2    0    0  0.16578015588E+02  0.26102388052E+02  0.26400764323E+02  0.50528860564E+02  0.30000002169E+02 0.  0.
        -12    1    1    2    0    0 -0.16578015588E+02 -0.26102388052E+02 -0.26400764323E+02  0.40659139436E+02  0.00000000000E+00 0.  1.
         11    1    3    3    0    0  0.24345860358E+02  0.13403346285E+02  0.14602014465E+02  0.31394098727E+02  0.51100000000E-03 0. -1.
        -11    1    3    3    0    0 -0.65770088253E+01  0.88042007499E+01  0.87370480215E+01  0.14039480201E+02  0.51100000000E-03 0.  1.
         12    1    3    3    0    0 -0.11908359449E+01  0.38948410176E+01  0.30617018369E+01  0.50952816348E+01  0.00000000000E+00 0. -1.
</event>
<event>
 7    1  0.1024956E-012  0.5052880E+02  0.7816164E-02  0.1300439E+00
        -11   -1    0    0    0    0  0.00000000000E+00  0.00000000000E+00  0.45593999997E+02  0.45594000000E+02  0.51100000000E-03 0.  1.
         11   -1    0    0    0    0 -0.00000000000E+00 -0.00000000000E+00 -0.45593999997E+02  0.45594000000E+02  0.51100000000E-03 0. -1.
    9900012    2    1    2    0    0 -0.32926838156E+01  0.32750908610E+02 -0.23868530434E+02  0.50528800223E+02  0.29999818756E+02 0.  0.
        -12    1    1    2    0    0  0.32926838156E+01 -0.32750908610E+02  0.23868530434E+02  0.40659199777E+02  0.00000000000E+00 0.  1.
         11    1    3    3    0    0 -0.37423678473E+01  0.13598057997E+02 -0.22704967200E+02  0.26728786620E+02  0.51100000000E-03 0. -1.
        -11    1    3    3    0    0  0.51239593063E+01  0.18212920745E+02 -0.12508993761E+00  0.18920388177E+02  0.51100000000E-03 0.  1.
        -12    1    3    3    0    0 -0.46742752746E+01  0.93992986825E+00 -0.10384732962E+01  0.48796254249E+01  0.00000000000E+00 0.  1.
</event>
<event>
 7    1  0.1024956E-012  0.5052887E+02  0.7816164E-02  0.1300439E+00
        -11   -1    0    0    0    0  0.00000000000E+00  0.00000000000E+00  0.45593999997E+02  0.45594000000E+02  0.51100000000E-03 0.  1.
         11   -1    0    0    0    0 -0.00000000000E+00 -0.00000000000E+00 -0.45593999997E+02  0.45594000000E+02  0.51100000000E-03 0. -1.
    9900012    2    1    2    0    0 -0.37721216031E+02 -0.44028292087E+01  0.14522040096E+02  0.50528871966E+02  0.30000036829E+02 0.  0.
        -12    1    1    2    0    0  0.37721216031E+02  0.44028292087E+01 -0.14522040096E+02  0.40659128034E+02  0.00000000000E+00 0.  1.
         11    1    3    3    0    0 -0.10359327114E+02 -0.41299983933E+00 -0.21569919321E+01  0.10589562860E+02  0.51100000000E-03 0. -1.
        -11    1    3    3    0    0 -0.24798831172E+02  0.75499876569E+00  0.21405727269E+02  0.32768234783E+02  0.51100000000E-03 0.  1.
        -12    1    3    3    0    0 -0.25630577457E+01 -0.47448281350E+01 -0.47266952413E+01  0.71710743228E+01  0.00000000000E+00 0.  1.
</event>
<event>
 7    1  0.1024956E-012  0.5052886E+02  0.7816164E-02  0.1300439E+00
        -11   -1    0    0    0    0  0.00000000000E+00  0.00000000000E+00  0.45593999997E+02  0.45594000000E+02  0.51100000000E-03 0.  1.
         11   -1    0    0    0    0 -0.00000000000E+00 -0.00000000000E+00 -0.45593999997E+02  0.45594000000E+02  0.51100000000E-03 0. -1.
    9900012    2    1    2    0    0  0.33385342104E+02 -0.21185097075E+02 -0.94750278975E+01  0.50528861309E+02  0.30000004434E+02 0.  0.
        -12    1    1    2    0    0 -0.33385342104E+02  0.21185097075E+02  0.94750278975E+01  0.40659138691E+02  0.00000000000E+00 0.  1.
         11    1    3    3    0    0  0.37645016489E+02 -0.22295286370E+02 -0.56813089687E+01  0.44119205938E+02  0.51100000000E-03 0. -1.
        -11    1    3    3    0    0 -0.17341535848E+01  0.13229517346E+01 -0.47233522908E+00  0.22317237234E+01  0.51100000000E-03 0.  1.
         12    1    3    3    0    0 -0.25255207999E+01 -0.21276243912E+00 -0.33213836997E+01  0.41779316469E+01  0.00000000000E+00 0. -1.
</event>
<event>
 7    1  0.1024956E-012  0.5052885E+02  0.7816164E-02  0.1300439E+00
        -11   -1    0    0    0    0  0.00000000000E+00  0.00000000000E+00  0.45593999997E+02  0.45594000000E+02  0.51100000000E-03 0.  1.
         11   -1    0    0    0    0 -0.00000000000E+00 -0.00000000000E+00 -0.45593999997E+02  0.45594000000E+02  0.51100000000E-03 0. -1.
    9900012    2    1    2    0    0 -0.19779680419E+01 -0.19402717050E+02 -0.35676163476E+02  0.50528850638E+02  0.29999971998E+02 0.  0.
        -12    1    1    2    0    0  0.19779680419E+01  0.19402717050E+02  0.35676163476E+02  0.40659149362E+02  0.00000000000E+00 0.  1.
         11    1    3    3    0    0  0.59626870252E+00 -0.25199212335E+00 -0.22013423180E+01  0.22945467217E+01  0.51100000000E-03 0. -1.
        -11    1    3    3    0    0  0.59019091781E+01  0.46513623925E+01 -0.15503403106E+02  0.17228558041E+02  0.51100000000E-03 0.  1.
        -12    1    3    3    0    0 -0.84761459225E+01 -0.23802087319E+02 -0.17971418052E+02  0.31005745874E+02  0.00000000000E+00 0.  1.
</event>
<event>
 7    1  0.1024956E-012  0.5052886E+02  0.7816164E-02  0.1300439E+00
        -11   -1    0    0    0    0  0.00000000000E+00  0.00000000000E+00  0.45593999997E+02  0.45594000000E+02  0.51100000000E-03 0.  1.
         11   -1    0    0    0    0 -0.00000000000E+00 -0.00000000000E+00 -0.45593999997E+02  0.45594000000E+02  0.51100000000E-03 0. -1.
    9900012    2    1    2    0    0 -0.35970054436E+02 -0.72328090032E+00 -0.18941953577E+02  0.50528861339E+02  0.30000004525E+02 0.  0.
        -12    1    1    2    0    0  0.35970054436E+02  0.72328090032E+00  0.18941953577E+02  0.40659138661E+02  0.00000000000E+00 0.  1.
         11    1    3    3    0    0 -0.25883676074E+02  0.67731213737E+01 -0.14837670224E+02  0.30594056909E+02  0.51100000000E-03 0. -1.
        -11    1    3    3    0    0  0.31163873084E+01  0.11148056589E+01 -0.23827882379E+01  0.40782767882E+01  0.51100000000E-03 0.  1.
        -12    1    3    3    0    0 -0.13202765671E+02 -0.86112079329E+01 -0.17214951151E+01  0.15856527642E+02  0.00000000000E+00 0.  1.
</event>
<event>
 7    1  0.1024956E-012  0.5052886E+02  0.7816164E-02  0.1300439E+00
        -11   -1    0    0    0    0  0.00000000000E+00  0.00000000000E+00  0.45593999997E+02  0.45594000000E+02  0.51100000000E-03 0.  1.
         11   -1    0    0    0    0 -0.00000000000E+00 -0.00000000000E+00 -0.45593999997E+02  0.45594000000E+02  0.51100000000E-03 0. -1.
    9900012    2    1    2    0    0 -0.35354483911E+02  0.90723980858E+01 -0.17914175285E+02  0.50528860612E+02  0.30000002316E+02 0.  0.
        -12    1    1    2    0    0  0.35354483911E+02 -0.90723980858E+01  0.17914175285E+02  0.40659139388E+02  0.00000000000E+00 0.  1.
         11    1    3    3    0    0 -0.10799466227E+02  0.15369143109E+02 -0.12729851693E+02  0.22691147063E+02  0.51100000000E-03 0. -1.
        -11    1    3    3    0    0 -0.23214284788E+02 -0.28623453865E+01 -0.58033782936E+01  0.24099278811E+02  0.51100000000E-03 0.  1.
         12    1    3    3    0    0 -0.13407328968E+01 -0.34343996365E+01  0.61905470141E+00  0.37384347376E+01  0.00000000000E+00 0. -1.
</event>
<event>
 7    1  0.1024956E-012  0.5052886E+02  0.7816164E-02  0.1300439E+00
        -11   -1    0    0    0    0  0.00000000000E+00  0.00000000000E+00  0.45593999997E+02  0.45594000000E+02  0.51100000000E-03 0. -1.
         11   -1    0    0    0    0 -0.00000000000E+00 -0.00000000000E+00 -0.45593999997E+02  0.45594000000E+02  0.51100000000E-03 0.  1.
    9900012    2    1    2    0    0 -0.34257173524E+02  0.14805738508E+02  0.16136976635E+02  0.50528857786E+02  0.29999993728E+02 0.  0.
        -12    1    1    2    0    0  0.34257173524E+02 -0.14805738508E+02 -0.16136976635E+02  0.40659142214E+02  0.00000000000E+00 0.  1.
         11    1    3    3    0    0 -0.15337324920E+02  0.11027482812E+02  0.23768611687E+00  0.18891675623E+02  0.51100000000E-03 0. -1.
        -11    1    3    3    0    0 -0.35552279344E+01 -0.13742654265E+01  0.14923177538E+02  0.15402255654E+02  0.51100000000E-03 0.  1.
        -12    1    3    3    0    0 -0.15364620669E+02  0.51525211225E+01  0.97611298002E+00  0.16234926510E+02  0.00000000000E+00 0.  1.
</event>
<event>
 7    1  0.1024956E-012  0.5052886E+02  0.7816164E-02  0.1300439E+00
        -11   -1    0    0    0    0  0.00000000000E+00  0.00000000000E+00  0.45593999997E+02  0.45594000000E+02  0.51100000000E-03 0.  1.
         11   -1    0    0    0    0 -0.00000000000E+00 -0.00000000000E+00 -0.45593999997E+02  0.45594000000E+02  0.51100000000E-03 0. -1.
    9900012    2    1    2    0    0 -0.23978025147E+02  0.24507942065E+02 -0.21853627792E+02  0.50528856355E+02  0.29999989378E+02 0.  0.
        -12    1    1    2    0    0  0.23978025147E+02 -0.24507942065E+02  0.21853627792E+02  0.40659143645E+02  0.00000000000E+00 0.  1.
         11    1    3    3    0    0 -0.10249949487E+02  0.17026484114E+02 -0.12534558004E+01  0.19913155889E+02  0.51100000000E-03 0. -1.
        -11    1    3    3    0    0 -0.49896231306E+01  0.50440218359E+01  0.10213124919E+01  0.71680942191E+01  0.51100000000E-03 0.  1.
         12    1    3    3    0    0 -0.87384525298E+01  0.24374361153E+01 -0.21621484484E+02  0.23447606247E+02  0.00000000000E+00 0. -1.
</event>
<event>
 7    1  0.1024956E-012  0.5052886E+02  0.7816164E-02  0.1300439E+00
        -11   -1    0    0    0    0  0.00000000000E+00  0.00000000000E+00  0.45593999997E+02  0.45594000000E+02  0.51100000000E-03 0.  1.
         11   -1    0    0    0    0 -0.00000000000E+00 -0.00000000000E+00 -0.45593999997E+02  0.45594000000E+02  0.51100000000E-03 0. -1.
    9900012    2    1    2    0    0  0.27830987343E+02  0.29560440717E+02  0.21867780154E+01  0.50528861914E+02  0.30000006273E+02 0.  0.
        -12    1    1    2    0    0 -0.27830987343E+02 -0.29560440717E+02 -0.21867780154E+01  0.40659138086E+02  0.00000000000E+00 0.  1.
         11    1    3    3    0    0  0.25679466287E+02  0.12798502044E+02  0.82066546878E+01  0.29842684611E+02  0.51100000000E-03 0. -1.
        -11    1    3    3    0    0  0.85466315076E+00  0.85836925775E+01  0.23211320379E+01  0.89329660004E+01  0.51100000000E-03 0.  1.
         12    1    3    3    0    0  0.12968579051E+01  0.81782460951E+01 -0.83410087102E+01  0.11753211303E+02  0.00000000000E+00 0. -1.
</event>
<event>
 7    1  0.1024956E-012  0.5052891E+02  0.7816164E-02  0.1300439E+00
        -11   -1    0    0    0    0  0.00000000000E+00  0.00000000000E+00  0.45593999997E+02  0.45594000000E+02  0.51100000000E-03 0.  1.
         11   -1    0    0    0    0 -0.00000000000E+00 -0.00000000000E+00 -0.45593999997E+02  0.45594000000E+02  0.51100000000E-03 0. -1.
    9900012    2    1    2    0    0  0.76053196962E+01  0.22081155891E+02 -0.33282782939E+02  0.50528905405E+02  0.30000138467E+02 0.  0.
        -12    1    1    2    0    0 -0.76053196962E+01 -0.22081155891E+02  0.33282782939E+02  0.40659094595E+02  0.00000000000E+00 0.  1.
         11    1    3    3    0    0  0.11440483637E+02  0.54717670242E+01 -0.30416688546E+02  0.32954511719E+02  0.51100000000E-03 0. -1.
        -11    1    3    3    0    0 -0.40798011148E+01  0.12851153146E+02 -0.29713589163E+01  0.13806733444E+02  0.51100000000E-03 0.  1.
         12    1    3    3    0    0  0.24463717370E+00  0.37582357206E+01  0.10526452381E+00  0.37676602419E+01  0.00000000000E+00 0. -1.
</event>
<event>
 7    1  0.1024956E-012  0.5052886E+02  0.7816164E-02  0.1300439E+00
        -11   -1    0    0    0    0  0.00000000000E+00  0.00000000000E+00  0.45593999997E+02  0.45594000000E+02  0.51100000000E-03 0.  1.
         11   -1    0    0    0    0 -0.00000000000E+00 -0.00000000000E+00 -0.45593999997E+02  0.45594000000E+02  0.51100000000E-03 0. -1.
    9900012    2    1    2    0    0 -0.38337417724E+02  0.11505588043E+02  0.71435155257E+01  0.50528856280E+02  0.29999989150E+02 0.  0.
        -12    1    1    2    0    0  0.38337417724E+02 -0.11505588043E+02 -0.71435155257E+01  0.40659143720E+02  0.00000000000E+00 0.  1.
         11    1    3    3    0    0 -0.20252203090E+02 -0.58194445204E+01 -0.54209495917E+01  0.21757857414E+02  0.51100000000E-03 0. -1.
        -11    1    3    3    0    0 -0.11519215626E+02  0.14848387467E+02  0.81760090465E+01  0.20494244636E+02  0.51100000000E-03 0.  1.
         12    1    3    3    0    0 -0.65659990078E+01  0.24766450970E+01  0.43884560709E+01  0.82767542306E+01  0.00000000000E+00 0. -1.
</event>
<event>
 7    1  0.1024956E-012  0.5052887E+02  0.7816164E-02  0.1300439E+00
        -11   -1    0    0    0    0  0.00000000000E+00  0.00000000000E+00  0.45593999997E+02  0.45594000000E+02  0.51100000000E-03 0. -1.
         11   -1    0    0    0    0 -0.00000000000E+00 -0.00000000000E+00 -0.45593999997E+02  0.45594000000E+02  0.51100000000E-03 0.  1.
    9900012    2    1    2    0    0  0.16333873274E+02  0.13856242488E+02  0.34559721805E+02  0.50528865193E+02  0.30000016242E+02 0.  0.
        -12    1    1    2    0    0 -0.16333873274E+02 -0.13856242488E+02 -0.34559721805E+02  0.40659134807E+02  0.00000000000E+00 0.  1.
         11    1    3    3    0    0 -0.22705132560E+01  0.59806401938E+01  0.93811442807E+01  0.11354697523E+02  0.51100000000E-03 0. -1.
        -11    1    3    3    0    0  0.24171750247E+01 -0.68559353601E+01  0.25794249642E+01  0.77136254880E+01  0.51100000000E-03 0.  1.
        -12    1    3    3    0    0  0.16187211505E+02  0.14731537654E+02  0.22599152560E+02  0.31460542182E+02  0.00000000000E+00 0.  1.
</event>
<event>
 7    1  0.1024956E-012  0.5052886E+02  0.7816164E-02  0.1300439E+00
        -11   -1    0    0    0    0  0.00000000000E+00  0.00000000000E+00  0.45593999997E+02  0.45594000000E+02  0.51100000000E-03 0.  1.
         11   -1    0    0    0    0 -0.00000000000E+00 -0.00000000000E+00 -0.45593999997E+02  0.45594000000E+02  0.51100000000E-03 0. -1.
    9900012    2    1    2    0    0  0.30179845510E+02 -0.19815131818E+02 -0.18700352863E+02  0.50528859316E+02  0.29999998378E+02 0.  0.
        -12    1    1    2    0    0 -0.30179845510E+02  0.19815131818E+02  0.18700352863E+02  0.40659140684E+02  0.00000000000E+00 0.  1.
         11    1    3    3    0    0  0.88565434187E+01  0.39809455529E+01 -0.71518498504E+01  0.12059653617E+02  0.51100000000E-03 0. -1.
        -11    1    3    3    0    0  0.80264179529E+01 -0.18343284454E+02  0.16166749128E-01  0.20022480649E+02  0.51100000000E-03 0.  1.
        -12    1    3    3    0    0  0.13296884138E+02 -0.54527929163E+01 -0.11564669761E+02  0.18446725050E+02  0.00000000000E+00 0.  1.
</event>
<event>
 7    1  0.1024956E-012  0.5052887E+02  0.7816164E-02  0.1300439E+00
        -11   -1    0    0    0    0  0.00000000000E+00  0.00000000000E+00  0.45593999997E+02  0.45594000000E+02  0.51100000000E-03 0. -1.
         11   -1    0    0    0    0 -0.00000000000E+00 -0.00000000000E+00 -0.45593999997E+02  0.45594000000E+02  0.51100000000E-03 0.  1.
    9900012    2    1    2    0    0  0.39004171273E+02 -0.40497307851E-01  0.11482075044E+02  0.50528867397E+02  0.30000022940E+02 0.  0.
        -12    1    1    2    0    0 -0.39004171273E+02  0.40497307851E-01 -0.11482075044E+02  0.40659132603E+02  0.00000000000E+00 0.  1.
         11    1    3    3    0    0  0.24198743577E+02 -0.36638246072E+00  0.12434717541E+02  0.27209109273E+02  0.51100000000E-03 0. -1.
        -11    1    3    3    0    0  0.80800671314E+01  0.28432226060E+01 -0.90743910513E+01  0.12478620631E+02  0.51100000000E-03 0.  1.
        -12    1    3    3    0    0  0.67253605644E+01 -0.25173374532E+01  0.81217485539E+01  0.10841137493E+02  0.00000000000E+00 0.  1.
</event>
<event>
 7    1  0.1024956E-012  0.5052885E+02  0.7816164E-02  0.1300439E+00
        -11   -1    0    0    0    0  0.00000000000E+00  0.00000000000E+00  0.45593999997E+02  0.45594000000E+02  0.51100000000E-03 0.  1.
         11   -1    0    0    0    0 -0.00000000000E+00 -0.00000000000E+00 -0.45593999997E+02  0.45594000000E+02  0.51100000000E-03 0. -1.
    9900012    2    1    2    0    0  0.20761307881E+02 -0.32435847389E+02 -0.13040325847E+02  0.50528853440E+02  0.29999980517E+02 0.  0.
        -12    1    1    2    0    0 -0.20761307881E+02  0.32435847389E+02  0.13040325847E+02  0.40659146560E+02  0.00000000000E+00 0.  1.
         11    1    3    3    0    0  0.18381845809E+02 -0.13914672504E+02 -0.31800203050E+01  0.23272793035E+02  0.51100000000E-03 0. -1.
        -11    1    3    3    0    0  0.16855629265E+00 -0.99295045776E+01  0.40766061928E+01  0.10735091555E+02  0.51100000000E-03 0.  1.
         12    1    3    3    0    0  0.22109057788E+01 -0.85916703074E+01 -0.13936911735E+02  0.16520968850E+02  0.00000000000E+00 0. -1.
</event>
<event>
 7    1  0.1024956E-012  0.5052884E+02  0.7816164E-02  0.1300439E+00
        -11   -1    0    0    0    0  0.00000000000E+00  0.00000000000E+00  0.45593999997E+02  0.45594000000E+02  0.51100000000E-03 0.  1.
         11   -1    0    0    0    0 -0.00000000000E+00 -0.00000000000E+00 -0.45593999997E+02  0.45594000000E+02  0.51100000000E-03 0. -1.
    9900012    2    1    2    0    0 -0.24151763836E+02 -0.45558943394E+01 -0.32389860806E+02  0.50528844172E+02  0.29999952345E+02 0.  0.
        -12    1    1    2    0    0  0.24151763836E+02  0.45558943394E+01  0.32389860806E+02  0.40659155828E+02  0.00000000000E+00 0.  1.
         11    1    3    3    0    0 -0.86998457920E+01 -0.50729417407E+01 -0.20286947865E+02  0.22649112756E+02  0.51100000000E-03 0. -1.
        -11    1    3    3    0    0 -0.14167534444E+01  0.66694373799E+01  0.19455324296E+01  0.70903936408E+01  0.51100000000E-03 0.  1.
        -12    1    3    3    0    0 -0.14035164599E+02 -0.61523899786E+01 -0.14048445371E+02  0.20789337775E+02  0.00000000000E+00 0.  1.
</event>
<event>
 7    1  0.1024956E-012  0.5052886E+02  0.7816164E-02  0.1300439E+00
        -11   -1    0    0    0    0  0.00000000000E+00  0.00000000000E+00  0.45593999997E+02  0.45594000000E+02  0.51100000000E-03 0.  1.
         11   -1    0    0    0    0 -0.00000000000E+00 -0.00000000000E+00 -0.45593999997E+02  0.45594000000E+02  0.51100000000E-03 0. -1.
    9900012    2    1    2    0    0  0.11724168856E+01 -0.18099277723E+02 -0.36389661608E+02  0.50528857272E+02  0.29999992163E+02 0.  0.
        -12    1    1    2    0    0 -0.11724168856E+01  0.18099277723E+02  0.36389661608E+02  0.40659142728E+02  0.00000000000E+00 0.  1.
         11    1    3    3    0    0  0.14453530553E+01 -0.95305942525E+01 -0.56601639222E+01  0.11178494002E+02  0.51100000000E-03 0. -1.
        -11    1    3    3    0    0  0.41780688055E+01  0.63711520592E+01 -0.16791584727E+02  0.18439228710E+02  0.51100000000E-03 0.  1.
        -12    1    3    3    0    0 -0.44510049751E+01 -0.14939835530E+02 -0.13937912959E+02  0.20911134560E+02  0.00000000000E+00 0.  1.
</event>
<event>
 7    1  0.1024956E-012  0.5052885E+02  0.7816164E-02  0.1300439E+00
        -11   -1    0    0    0    0  0.00000000000E+00  0.00000000000E+00  0.45593999997E+02  0.45594000000E+02  0.51100000000E-03 0. -1.
         11   -1    0    0    0    0 -0.00000000000E+00 -0.00000000000E+00 -0.45593999997E+02  0.45594000000E+02  0.51100000000E-03 0.  1.
    9900012    2    1    2    0    0 -0.15462530553E+01 -0.36408562251E+02  0.18033087884E+02  0.50528848972E+02  0.29999966936E+02 0.  0.
        -12    1    1    2    0    0  0.15462530553E+01  0.36408562251E+02 -0.18033087884E+02  0.40659151028E+02  0.00000000000E+00 0.  1.
         11    1    3    3    0    0 -0.10648905877E+02 -0.21065334406E+02  0.14280186957E+02  0.27587519820E+02  0.51100000000E-03 0. -1.
        -11    1    3    3    0    0  0.84765762894E+01 -0.35314436010E+01  0.59067323492E+01  0.10918467237E+02  0.51100000000E-03 0.  1.
         12    1    3    3    0    0  0.62607653205E+00 -0.11811784244E+02 -0.21538314227E+01  0.12022861916E+02  0.00000000000E+00 0. -1.
</event>
<event>
 7    1  0.1024956E-012  0.5052886E+02  0.7816164E-02  0.1300439E+00
        -11   -1    0    0    0    0  0.00000000000E+00  0.00000000000E+00  0.45593999997E+02  0.45594000000E+02  0.51100000000E-03 0. -1.
         11   -1    0    0    0    0 -0.00000000000E+00 -0.00000000000E+00 -0.45593999997E+02  0.45594000000E+02  0.51100000000E-03 0.  1.
    9900012    2    1    2    0    0  0.11666097386E+02  0.46531758841E+00  0.38946776237E+02  0.50528859233E+02  0.29999998125E+02 0.  0.
        -12    1    1    2    0    0 -0.11666097386E+02 -0.46531758841E+00 -0.38946776237E+02  0.40659140767E+02  0.00000000000E+00 0.  1.
         11    1    3    3    0    0  0.98985829505E+01 -0.11155792716E+02  0.29842649190E+02  0.33361914911E+02  0.51100000000E-03 0. -1.
        -11    1    3    3    0    0 -0.32755458845E+01  0.45677194205E+01  0.52018719520E+01  0.76585072705E+01  0.51100000000E-03 0.  1.
         12    1    3    3    0    0  0.50430603201E+01  0.70533908838E+01  0.39022550944E+01  0.95084370521E+01  0.00000000000E+00 0. -1.
</event>
<event>
 7    1  0.1024956E-012  0.5052886E+02  0.7816164E-02  0.1300439E+00
        -11   -1    0    0    0    0  0.00000000000E+00  0.00000000000E+00  0.45593999997E+02  0.45594000000E+02  0.51100000000E-03 0.  1.
         11   -1    0    0    0    0 -0.00000000000E+00 -0.00000000000E+00 -0.45593999997E+02  0.45594000000E+02  0.51100000000E-03 0. -1.
    9900012    2    1    2    0    0 -0.19768906119E+02 -0.34716468033E+02 -0.75579637251E+01  0.50528860591E+02  0.30000002253E+02 0.  0.
        -12    1    1    2    0    0  0.19768906119E+02  0.34716468033E+02  0.75579637251E+01  0.40659139409E+02  0.00000000000E+00 0.  1.
         11    1    3    3    0    0 -0.10465583383E+02 -0.20088679281E+02 -0.95796714795E+01  0.24593771095E+02  0.51100000000E-03 0. -1.
        -11    1    3    3    0    0 -0.94524462869E+01  0.14192268739E+01  0.25011612759E+01  0.98802203273E+01  0.51100000000E-03 0.  1.
        -12    1    3    3    0    0  0.14912355076E+00 -0.16047015626E+02 -0.47945352150E+00  0.16054869168E+02  0.00000000000E+00 0.  1.
</event>
<event>
 7    1  0.1024956E-012  0.5052886E+02  0.7816164E-02  0.1300439E+00
        -11   -1    0    0    0    0  0.00000000000E+00  0.00000000000E+00  0.45593999997E+02  0.45594000000E+02  0.51100000000E-03 0.  1.
         11   -1    0    0    0    0 -0.00000000000E+00 -0.00000000000E+00 -0.45593999997E+02  0.45594000000E+02  0.51100000000E-03 0. -1.
    9900012    2    1    2    0    0  0.12918070451E+02 -0.26319369199E+02 -0.28170550218E+02  0.50528860329E+02  0.30000001456E+02 0.  0.
        -12    1    1    2    0    0 -0.12918070451E+02  0.26319369199E+02  0.28170550218E+02  0.40659139671E+02  0.00000000000E+00 0.  1.
         11    1    3    3    0    0  0.69428733485E+01 -0.42919848350E+01 -0.10032164368E+02  0.12933249643E+02  0.51100000000E-03 0. -1.
        -11    1    3    3    0    0 -0.86034171123E+01 -0.45266636132E+01 -0.27357307063E+01  0.10099192653E+02  0.51100000000E-03 0.  1.
        -12    1    3    3    0    0  0.14578614214E+02 -0.17500720751E+02 -0.15402655143E+02  0.27496418033E+02  0.00000000000E+00 0.  1.
</event>
<event>
 7    1  0.1024956E-012  0.5052885E+02  0.7816164E-02  0.1300439E+00
        -11   -1    0    0    0    0  0.00000000000E+00  0.00000000000E+00  0.45593999997E+02  0.45594000000E+02  0.51100000000E-03 0. -1.
         11   -1    0    0    0    0 -0.00000000000E+00 -0.00000000000E+00 -0.45593999997E+02  0.45594000000E+02  0.51100000000E-03 0.  1.
    9900012    2    1    2    0    0 -0.34585320415E+02  0.21827783907E+01  0.21266344484E+02  0.50528851984E+02  0.29999976089E+02 0.  0.
        -12    1    1    2    0    0  0.34585320415E+02 -0.21827783907E+01 -0.21266344484E+02  0.40659148016E+02  0.00000000000E+00 0.  1.
         11    1    3    3    0    0 -0.26465663835E+02  0.11432244172E+02  0.42085582474E+01  0.29134850811E+02  0.51100000000E-03 0. -1.
        -11    1    3    3    0    0 -0.49768772885E+00 -0.25692127204E+01  0.49919226330E+01  0.56362965600E+01  0.51100000000E-03 0.  1.
         12    1    3    3    0    0 -0.76219688516E+01 -0.66802530614E+01  0.12065863604E+02  0.15757704612E+02  0.00000000000E+00 0. -1.
</event>
<event>
 7    1  0.1024956E-012  0.5052886E+02  0.7816164E-02  0.1300439E+00
        -11   -1    0    0    0    0  0.00000000000E+00  0.00000000000E+00  0.45593999997E+02  0.45594000000E+02  0.51100000000E-03 0.  1.
         11   -1    0    0    0    0 -0.00000000000E+00 -0.00000000000E+00 -0.45593999997E+02  0.45594000000E+02  0.51100000000E-03 0. -1.
    9900012    2    1    2    0    0 -0.63416490937E+01 -0.27313286896E+02 -0.29443737482E+02  0.50528857963E+02  0.29999994263E+02 0.  0.
        -12    1    1    2    0    0  0.63416490937E+01  0.27313286896E+02  0.29443737482E+02  0.40659142037E+02  0.00000000000E+00 0.  1.
         11    1    3    3    0    0  0.28746092714E+01 -0.26376405169E+02 -0.13975513983E+02  0.29988216343E+02  0.51100000000E-03 0. -1.
        -11    1    3    3    0    0 -0.10393237217E+02 -0.79275619506E+00 -0.16113281520E+02  0.19190770798E+02  0.51100000000E-03 0.  1.
        -12    1    3    3    0    0  0.11769788515E+01 -0.14412553239E+00  0.64505802031E+00  0.13498708218E+01  0.00000000000E+00 0.  1.
</event>
<event>
 7    1  0.1024956E-012  0.5052886E+02  0.7816164E-02  0.1300439E+00
        -11   -1    0    0    0    0  0.00000000000E+00  0.00000000000E+00  0.45593999997E+02  0.45594000000E+02  0.51100000000E-03 0.  1.
         11   -1    0    0    0    0 -0.00000000000E+00 -0.00000000000E+00 -0.45593999997E+02  0.45594000000E+02  0.51100000000E-03 0. -1.
    9900012    2    1    2    0    0  0.24333434708E+02 -0.67169503915E+01 -0.31873692023E+02  0.50528859448E+02  0.29999998778E+02 0.  0.
        -12    1    1    2    0    0 -0.24333434708E+02  0.67169503915E+01  0.31873692023E+02  0.40659140552E+02  0.00000000000E+00 0.  1.
         11    1    3    3    0    0  0.23949265146E+02 -0.12885387189E+02 -0.12086927217E+02  0.29760616826E+02  0.51100000000E-03 0. -1.
        -11    1    3    3    0    0 -0.28029204491E+00  0.20630426332E+01 -0.81098585412E+01  0.83728438631E+01  0.51100000000E-03 0.  1.
         12    1    3    3    0    0  0.66446160693E+00  0.41053941647E+01 -0.11676906265E+02  0.12395398759E+02  0.00000000000E+00 0. -1.
</event>
<event>
 7    1  0.1024956E-012  0.5052887E+02  0.7816164E-02  0.1300439E+00
        -11   -1    0    0    0    0  0.00000000000E+00  0.00000000000E+00  0.45593999997E+02  0.45594000000E+02  0.51100000000E-03 0. -1.
         11   -1    0    0    0    0 -0.00000000000E+00 -0.00000000000E+00 -0.45593999997E+02  0.45594000000E+02  0.51100000000E-03 0.  1.
    9900012    2    1    2    0    0 -0.17980572912E+02 -0.42091676177E-01  0.36467277504E+02  0.50528866924E+02  0.30000021502E+02 0.  0.
        -12    1    1    2    0    0  0.17980572912E+02  0.42091676177E-01 -0.36467277504E+02  0.40659133076E+02  0.00000000000E+00 0.  1.
         11    1    3    3    0    0  0.13238448879E+00 -0.40767868595E+01  0.13478428037E+02  0.14082107064E+02  0.51100000000E-03 0. -1.
        -11    1    3    3    0    0 -0.15193010214E+02  0.78289501475E+01  0.49653090686E+01  0.17798154797E+02  0.51100000000E-03 0.  1.
        -12    1    3    3    0    0 -0.29199471868E+01 -0.37942549642E+01  0.18023540398E+02  0.18648605062E+02  0.00000000000E+00 0.  1.
</event>
<event>
 7    1  0.1024956E-012  0.5052886E+02  0.7816164E-02  0.1300439E+00
        -11   -1    0    0    0    0  0.00000000000E+00  0.00000000000E+00  0.45593999997E+02  0.45594000000E+02  0.51100000000E-03 0. -1.
         11   -1    0    0    0    0 -0.00000000000E+00 -0.00000000000E+00 -0.45593999997E+02  0.45594000000E+02  0.51100000000E-03 0.  1.
    9900012    2    1    2    0    0  0.37219606490E+02 -0.11365360426E+02  0.11776897788E+02  0.50528857776E+02  0.29999993695E+02 0.  0.
        -12    1    1    2    0    0 -0.37219606490E+02  0.11365360426E+02 -0.11776897788E+02  0.40659142224E+02  0.00000000000E+00 0.  1.
         11    1    3    3    0    0  0.70229962416E+00  0.58111975431E+01  0.74464314424E+00  0.59006554992E+01  0.51100000000E-03 0.  1.
        -11    1    3    3    0    0  0.28042054662E+02 -0.17359604791E+02  0.13741283425E+02  0.35728638073E+02  0.51100000000E-03 0. -1.
         12    1    3    3    0    0  0.84752522044E+01  0.18304682191E+00 -0.27090287812E+01  0.88995642030E+01  0.00000000000E+00 0. -1.
</event>
<event>
 7    1  0.1024956E-012  0.5052884E+02  0.7816164E-02  0.1300439E+00
        -11   -1    0    0    0    0  0.00000000000E+00  0.00000000000E+00  0.45593999997E+02  0.45594000000E+02  0.51100000000E-03 0.  1.
         11   -1    0    0    0    0 -0.00000000000E+00 -0.00000000000E+00 -0.45593999997E+02  0.45594000000E+02  0.51100000000E-03 0. -1.
    9900012    2    1    2    0    0 -0.15496316903E+02 -0.11314419450E+02 -0.35847112860E+02  0.50528838358E+02  0.29999934671E+02 0.  0.
        -12    1    1    2    0    0  0.15496316903E+02  0.11314419450E+02  0.35847112860E+02  0.40659161642E+02  0.00000000000E+00 0.  1.
         11    1    3    3    0    0 -0.10503072521E+02 -0.16801415468E+02 -0.75977704955E+01  0.21220938030E+02  0.51100000000E-03 0. -1.
        -11    1    3    3    0    0 -0.40262183104E+01  0.32756590597E+01 -0.22112756649E+02  0.22713748767E+02  0.51100000000E-03 0.  1.
         12    1    3    3    0    0 -0.96702607088E+00  0.22113369574E+01 -0.61365857159E+01  0.65941515610E+01  0.00000000000E+00 0. -1.
</event>
<event>
 7    1  0.1024956E-012  0.5052887E+02  0.7816164E-02  0.1300439E+00
        -11   -1    0    0    0    0  0.00000000000E+00  0.00000000000E+00  0.45593999997E+02  0.45594000000E+02  0.51100000000E-03 0.  1.
         11   -1    0    0    0    0 -0.00000000000E+00 -0.00000000000E+00 -0.45593999997E+02  0.45594000000E+02  0.51100000000E-03 0. -1.
    9900012    2    1    2    0    0 -0.13623842401E+02  0.31332751830E+02 -0.22041197565E+02  0.50528870531E+02  0.30000032467E+02 0.  0.
        -12    1    1    2    0    0  0.13623842401E+02 -0.31332751830E+02  0.22041197565E+02  0.40659129469E+02  0.00000000000E+00 0.  1.
         11    1    3    3    0    0  0.50421715535E+01  0.14275711491E+02 -0.26638162565E+01  0.15372551833E+02  0.51100000000E-03 0.  1.
        -11    1    3    3    0    0 -0.10326337928E+02  0.13664808949E+02 -0.19753845928E+02  0.26145261289E+02  0.51100000000E-03 0. -1.
        -12    1    3    3    0    0 -0.83396760265E+01  0.33922313896E+01  0.37646461959E+00  0.90110574095E+01  0.00000000000E+00 0.  1.
</event>
<event>
 7    1  0.1024956E-012  0.5052884E+02  0.7816164E-02  0.1300439E+00
        -11   -1    0    0    0    0  0.00000000000E+00  0.00000000000E+00  0.45593999997E+02  0.45594000000E+02  0.51100000000E-03 0.  1.
         11   -1    0    0    0    0 -0.00000000000E+00 -0.00000000000E+00 -0.45593999997E+02  0.45594000000E+02  0.51100000000E-03 0. -1.
    9900012    2    1    2    0    0 -0.23931572003E+02 -0.10795309713E+02 -0.31046868803E+02  0.50528844662E+02  0.29999953836E+02 0.  0.
        -12    1    1    2    0    0  0.23931572003E+02  0.10795309713E+02  0.31046868803E+02  0.40659155338E+02  0.00000000000E+00 0.  1.
         11    1    3    3    0    0 -0.12849738560E+02 -0.66316264186E+01 -0.15450517891E+02  0.21161586740E+02  0.51100000000E-03 0. -1.
        -11    1    3    3    0    0  0.28203188409E+01  0.61358938823E+01 -0.11988627078E+01  0.68586196973E+01  0.51100000000E-03 0.  1.
        -12    1    3    3    0    0 -0.13902152284E+02 -0.10299577177E+02 -0.14397488204E+02  0.22508638225E+02  0.00000000000E+00 0.  1.
</event>
<event>
 7    1  0.1024956E-012  0.5052885E+02  0.7816164E-02  0.1300439E+00
        -11   -1    0    0    0    0  0.00000000000E+00  0.00000000000E+00  0.45593999997E+02  0.45594000000E+02  0.51100000000E-03 0.  1.
         11   -1    0    0    0    0 -0.00000000000E+00 -0.00000000000E+00 -0.45593999997E+02  0.45594000000E+02  0.51100000000E-03 0. -1.
    9900012    2    1    2    0    0  0.10430503254E+02 -0.36520071371E+02 -0.14513975041E+02  0.50528849953E+02  0.29999969916E+02 0.  0.
        -12    1    1    2    0    0 -0.10430503254E+02  0.36520071371E+02  0.14513975041E+02  0.40659150047E+02  0.00000000000E+00 0.  1.
         11    1    3    3    0    0  0.14871730257E+02 -0.24158188541E+02 -0.18369203106E+02  0.33796657489E+02  0.51100000000E-03 0. -1.
        -11    1    3    3    0    0 -0.39252166159E+01 -0.28897614376E+01  0.52274086231E+01  0.71472965394E+01  0.51100000000E-03 0.  1.
         12    1    3    3    0    0 -0.51601038700E+00 -0.94721213923E+01 -0.13721805582E+01  0.95848959240E+01  0.00000000000E+00 0. -1.
</event>
<event>
 7    1  0.1024956E-012  0.5052886E+02  0.7816164E-02  0.1300439E+00
        -11   -1    0    0    0    0  0.00000000000E+00  0.00000000000E+00  0.45593999997E+02  0.45594000000E+02  0.51100000000E-03 0. -1.
         11   -1    0    0    0    0 -0.00000000000E+00 -0.00000000000E+00 -0.45593999997E+02  0.45594000000E+02  0.51100000000E-03 0.  1.
    9900012    2    1    2    0    0  0.22488908882E+02  0.33746054033E+02  0.29356659614E+01  0.50528864248E+02  0.30000013368E+02 0.  0.
        -12    1    1    2    0    0 -0.22488908882E+02 -0.33746054033E+02 -0.29356659614E+01  0.40659135752E+02  0.00000000000E+00 0.  1.
         11    1    3    3    0    0  0.17414026489E+02  0.19382161889E+02 -0.11962675130E+02  0.28670928039E+02  0.51100000000E-03 0. -1.
        -11    1    3    3    0    0  0.32615665698E+01  0.31319330240E+01  0.53487097668E+01  0.70039644050E+01  0.51100000000E-03 0.  1.
         12    1    3    3    0    0  0.18133158230E+01  0.11231959119E+02  0.95496313245E+01  0.14853971804E+02  0.00000000000E+00 0. -1.
</event>
<event>
 7    1  0.1024956E-012  0.5052886E+02  0.7816164E-02  0.1300439E+00
        -11   -1    0    0    0    0  0.00000000000E+00  0.00000000000E+00  0.45593999997E+02  0.45594000000E+02  0.51100000000E-03 0.  1.
         11   -1    0    0    0    0 -0.00000000000E+00 -0.00000000000E+00 -0.45593999997E+02  0.45594000000E+02  0.51100000000E-03 0. -1.
    9900012    2    1    2    0    0  0.26442324428E+02  0.14327612740E+02 -0.27362172149E+02  0.50528862372E+02  0.30000007664E+02 0.  0.
        -12    1    1    2    0    0 -0.26442324428E+02 -0.14327612740E+02  0.27362172149E+02  0.40659137628E+02  0.00000000000E+00 0.  1.
         11    1    3    3    0    0  0.13853016740E+02  0.80724010695E+01 -0.30270284626E+02  0.34254340797E+02  0.51100000000E-03 0. -1.
        -11    1    3    3    0    0  0.32651700686E+01  0.34983940295E+01  0.43230732645E+01  0.64489579835E+01  0.51100000000E-03 0.  1.
         12    1    3    3    0    0  0.93241376196E+01  0.27568176414E+01 -0.14149607873E+01  0.98255635913E+01  0.00000000000E+00 0. -1.
</event>
<event>
 7    1  0.1024956E-012  0.5052886E+02  0.7816164E-02  0.1300439E+00
        -11   -1    0    0    0    0  0.00000000000E+00  0.00000000000E+00  0.45593999997E+02  0.45594000000E+02  0.51100000000E-03 0.  1.
         11   -1    0    0    0    0 -0.00000000000E+00 -0.00000000000E+00 -0.45593999997E+02  0.45594000000E+02  0.51100000000E-03 0. -1.
    9900012    2    1    2    0    0 -0.26188167742E+02 -0.23941376812E+02 -0.19853367192E+02  0.50528857828E+02  0.29999993853E+02 0.  0.
        -12    1    1    2    0    0  0.26188167742E+02  0.23941376812E+02  0.19853367192E+02  0.40659142172E+02  0.00000000000E+00 0.  1.
         11    1    3    3    0    0 -0.12566491673E+02 -0.23223394330E+02 -0.18108908034E+02  0.32018358915E+02  0.51100000000E-03 0. -1.
        -11    1    3    3    0    0  0.18171871618E+01  0.20512248040E+01 -0.36779570313E+00  0.27649532216E+01  0.51100000000E-03 0.  1.
         12    1    3    3    0    0 -0.15438863230E+02 -0.27692072864E+01 -0.13766634545E+01  0.15745545691E+02  0.00000000000E+00 0. -1.
</event>
<event>
 7    1  0.1024956E-012  0.5052885E+02  0.7816164E-02  0.1300439E+00
        -11   -1    0    0    0    0  0.00000000000E+00  0.00000000000E+00  0.45593999997E+02  0.45594000000E+02  0.51100000000E-03 0.  1.
         11   -1    0    0    0    0 -0.00000000000E+00 -0.00000000000E+00 -0.45593999997E+02  0.45594000000E+02  0.51100000000E-03 0. -1.
    9900012    2    1    2    0    0  0.28052696763E+02 -0.20474424288E+02 -0.21142628836E+02  0.50528848513E+02  0.29999965539E+02 0.  0.
        -12    1    1    2    0    0 -0.28052696763E+02  0.20474424288E+02  0.21142628836E+02  0.40659151487E+02  0.00000000000E+00 0.  1.
         11    1    3    3    0    0  0.16962453065E+02 -0.22259057226E+02 -0.66787747678E+01  0.28771452435E+02  0.51100000000E-03 0. -1.
        -11    1    3    3    0    0  0.21558902820E+01  0.78525914219E+00 -0.12297866295E+02  0.12510076359E+02  0.51100000000E-03 0.  1.
         12    1    3    3    0    0  0.89343534161E+01  0.99937379623E+00 -0.21659877727E+01  0.92473197187E+01  0.00000000000E+00 0. -1.
</event>
<event>
 7    1  0.1024956E-012  0.5052886E+02  0.7816164E-02  0.1300439E+00
        -11   -1    0    0    0    0  0.00000000000E+00  0.00000000000E+00  0.45593999997E+02  0.45594000000E+02  0.51100000000E-03 0.  1.
         11   -1    0    0    0    0 -0.00000000000E+00 -0.00000000000E+00 -0.45593999997E+02  0.45594000000E+02  0.51100000000E-03 0. -1.
    9900012    2    1    2    0    0  0.36089328187E+02  0.18443709178E+02 -0.32489333047E+01  0.50528860992E+02  0.30000003472E+02 0.  0.
        -12    1    1    2    0    0 -0.36089328187E+02 -0.18443709178E+02  0.32489333047E+01  0.40659139008E+02  0.00000000000E+00 0.  1.
         11    1    3    3    0    0  0.23666378633E+02  0.28824380521E+01 -0.10303083722E+02  0.25972282556E+02  0.51100000000E-03 0. -1.
        -11    1    3    3    0    0  0.12415414158E+02  0.16632859326E+02  0.37611729093E+01  0.21093623207E+02  0.51100000000E-03 0.  1.
        -12    1    3    3    0    0  0.75353963672E-02 -0.10715881999E+01  0.32929775085E+01  0.34629552299E+01  0.00000000000E+00 0.  1.
</event>
<event>
 7    1  0.1024956E-012  0.5052884E+02  0.7816164E-02  0.1300439E+00
        -11   -1    0    0    0    0  0.00000000000E+00  0.00000000000E+00  0.45593999997E+02  0.45594000000E+02  0.51100000000E-03 0.  1.
         11   -1    0    0    0    0 -0.00000000000E+00 -0.00000000000E+00 -0.45593999997E+02  0.45594000000E+02  0.51100000000E-03 0. -1.
    9900012    2    1    2    0    0 -0.23199861490E+02  0.31286641980E+02 -0.11665312905E+02  0.50528842794E+02  0.29999948156E+02 0.  0.
        -12    1    1    2    0    0  0.23199861490E+02 -0.31286641980E+02  0.11665312905E+02  0.40659157206E+02  0.00000000000E+00 0.  1.
         11    1    3    3    0    0 -0.10375129133E+02  0.75245089969E+01 -0.62160999500E+00  0.12831521321E+02  0.51100000000E-03 0. -1.
        -11    1    3    3    0    0 -0.56625525177E+01  0.21778068116E+02 -0.16976507682E+02  0.28187773328E+02  0.51100000000E-03 0.  1.
        -12    1    3    3    0    0 -0.71621798393E+01  0.19840648679E+01  0.59328047721E+01  0.95095481446E+01  0.00000000000E+00 0.  1.
</event>
<event>
 7    1  0.1024956E-012  0.5052887E+02  0.7816164E-02  0.1300439E+00
        -11   -1    0    0    0    0  0.00000000000E+00  0.00000000000E+00  0.45593999997E+02  0.45594000000E+02  0.51100000000E-03 0.  1.
         11   -1    0    0    0    0 -0.00000000000E+00 -0.00000000000E+00 -0.45593999997E+02  0.45594000000E+02  0.51100000000E-03 0. -1.
    9900012    2    1    2    0    0 -0.10846188170E+02  0.10190395443E+01 -0.39172523413E+02  0.50528870275E+02  0.30000031688E+02 0.  0.
        -12    1    1    2    0    0  0.10846188170E+02 -0.10190395443E+01  0.39172523413E+02  0.40659129725E+02  0.00000000000E+00 0.  1.
         11    1    3    3    0    0  0.81325861007E+01  0.36682528952E+01 -0.23633777029E+02  0.25261639949E+02  0.51100000000E-03 0. -1.
        -11    1    3    3    0    0 -0.15327059884E+02 -0.20111905984E+01 -0.14966112245E+02  0.21516230346E+02  0.51100000000E-03 0.  1.
         12    1    3    3    0    0 -0.36517143867E+01 -0.63802275248E+00 -0.57263413945E+00  0.37509999803E+01  0.00000000000E+00 0. -1.
</event>
<event>
 7    1  0.1024956E-012  0.5052887E+02  0.7816164E-02  0.1300439E+00
        -11   -1    0    0    0    0  0.00000000000E+00  0.00000000000E+00  0.45593999997E+02  0.45594000000E+02  0.51100000000E-03 0.  1.
         11   -1    0    0    0    0 -0.00000000000E+00 -0.00000000000E+00 -0.45593999997E+02  0.45594000000E+02  0.51100000000E-03 0. -1.
    9900012    2    1    2    0    0 -0.75566857961E+01 -0.38432080713E+02 -0.10910393442E+02  0.50528868021E+02  0.30000024838E+02 0.  0.
        -12    1    1    2    0    0  0.75566857961E+01  0.38432080713E+02  0.10910393442E+02  0.40659131979E+02  0.00000000000E+00 0.  1.
         11    1    3    3    0    0  0.50664586445E+01 -0.75942681451E+01 -0.12499382627E+01  0.92143506433E+01  0.51100000000E-03 0. -1.
        -11    1    3    3    0    0 -0.87459149647E+01 -0.28484774198E+02 -0.15764144818E+02  0.33710260334E+02  0.51100000000E-03 0.  1.
        -12    1    3    3    0    0 -0.38772294759E+01 -0.23530383700E+01  0.61036896389E+01  0.76042570438E+01  0.00000000000E+00 0.  1.
</event>
<event>
 7    1  0.1024956E-012  0.5052887E+02  0.7816164E-02  0.1300439E+00
        -11   -1    0    0    0    0  0.00000000000E+00  0.00000000000E+00  0.45593999997E+02  0.45594000000E+02  0.51100000000E-03 0.  1.
         11   -1    0    0    0    0 -0.00000000000E+00 -0.00000000000E+00 -0.45593999997E+02  0.45594000000E+02  0.51100000000E-03 0. -1.
    9900012    2    1    2    0    0 -0.23429716046E+02 -0.12799316491E+02 -0.30665796129E+02  0.50528866353E+02  0.30000019768E+02 0.  0.
        -12    1    1    2    0    0  0.23429716046E+02  0.12799316491E+02  0.30665796129E+02  0.40659133647E+02  0.00000000000E+00 0.  1.
         11    1    3    3    0    0 -0.10111662960E+01 -0.13978224836E+01 -0.21758159404E+02  0.21826448770E+02  0.51100000000E-03 0. -1.
        -11    1    3    3    0    0 -0.17442032933E+02 -0.39026071962E+01 -0.82297378339E+01  0.19676977432E+02  0.51100000000E-03 0.  1.
         12    1    3    3    0    0 -0.49765168172E+01 -0.74988868109E+01 -0.67789889132E+00  0.90254401522E+01  0.00000000000E+00 0. -1.
</event>
<event>
 7    1  0.1024956E-012  0.5052887E+02  0.7816164E-02  0.1300439E+00
        -11   -1    0    0    0    0  0.00000000000E+00  0.00000000000E+00  0.45593999997E+02  0.45594000000E+02  0.51100000000E-03 0. -1.
         11   -1    0    0    0    0 -0.00000000000E+00 -0.00000000000E+00 -0.45593999997E+02  0.45594000000E+02  0.51100000000E-03 0.  1.
    9900012    2    1    2    0    0  0.25070564203E+01  0.24053767194E+02  0.32684796647E+02  0.50528868430E+02  0.30000026081E+02 0.  0.
        -12    1    1    2    0    0 -0.25070564203E+01 -0.24053767194E+02 -0.32684796647E+02  0.40659131570E+02  0.00000000000E+00 0.  1.
         11    1    3    3    0    0  0.11058195736E+02  0.13879225338E+02  0.96581801286E+01  0.20203886572E+02  0.51100000000E-03 0. -1.
        -11    1    3    3    0    0  0.30320933405E+00 -0.71020449844E+00  0.13134653007E+02  0.13157333933E+02  0.51100000000E-03 0.  1.
         12    1    3    3    0    0 -0.88543486502E+01  0.10884746354E+02  0.98919635113E+01  0.17167647926E+02  0.00000000000E+00 0. -1.
</event>
<event>
 7    1  0.1024956E-012  0.5052886E+02  0.7816164E-02  0.1300439E+00
        -11   -1    0    0    0    0  0.00000000000E+00  0.00000000000E+00  0.45593999997E+02  0.45594000000E+02  0.51100000000E-03 0.  1.
         11   -1    0    0    0    0 -0.00000000000E+00 -0.00000000000E+00 -0.45593999997E+02  0.45594000000E+02  0.51100000000E-03 0. -1.
    9900012    2    1    2    0    0 -0.39242855097E+02 -0.56111628737E+00 -0.10623043465E+02  0.50528861051E+02  0.30000003650E+02 0.  0.
        -12    1    1    2    0    0  0.39242855097E+02  0.56111628737E+00  0.10623043465E+02  0.40659138949E+02  0.00000000000E+00 0.  1.
         11    1    3    3    0    0 -0.14143077551E+02  0.89335571316E+01 -0.10399029445E+02  0.19697078446E+02  0.51100000000E-03 0.  1.
        -11    1    3    3    0    0 -0.11614711018E+02 -0.70023899124E+01  0.70751068114E+01  0.15296800750E+02  0.51100000000E-03 0. -1.
         12    1    3    3    0    0 -0.13485066528E+02 -0.24922835067E+01 -0.72991208311E+01  0.15534981855E+02  0.00000000000E+00 0. -1.
</event>
<event>
 7    1  0.1024956E-012  0.5052886E+02  0.7816164E-02  0.1300439E+00
        -11   -1    0    0    0    0  0.00000000000E+00  0.00000000000E+00  0.45593999997E+02  0.45594000000E+02  0.51100000000E-03 0.  1.
         11   -1    0    0    0    0 -0.00000000000E+00 -0.00000000000E+00 -0.45593999997E+02  0.45594000000E+02  0.51100000000E-03 0. -1.
    9900012    2    1    2    0    0  0.74350293235E+01 -0.17281161554E+01 -0.39936196469E+02  0.50528857918E+02  0.29999994127E+02 0.  0.
        -12    1    1    2    0    0 -0.74350293235E+01  0.17281161554E+01  0.39936196469E+02  0.40659142082E+02  0.00000000000E+00 0.  1.
         11    1    3    3    0    0 -0.96184656565E+01  0.59679109398E+01 -0.15467184864E+02  0.19166758997E+02  0.51100000000E-03 0. -1.
        -11    1    3    3    0    0  0.68082923628E+01 -0.18499335435E+01 -0.13605680262E+02  0.15326109573E+02  0.51100000000E-03 0.  1.
         12    1    3    3    0    0  0.10245202617E+02 -0.58460935517E+01 -0.10863331343E+02  0.16035989348E+02  0.00000000000E+00 0. -1.
</event>
<event>
 7    1  0.1024956E-012  0.5052885E+02  0.7816164E-02  0.1300439E+00
        -11   -1    0    0    0    0  0.00000000000E+00  0.00000000000E+00  0.45593999997E+02  0.45594000000E+02  0.51100000000E-03 0.  1.
         11   -1    0    0    0    0 -0.00000000000E+00 -0.00000000000E+00 -0.45593999997E+02  0.45594000000E+02  0.51100000000E-03 0. -1.
    9900012    2    1    2    0    0 -0.27161841832E+02 -0.16899086860E+02 -0.25096244829E+02  0.50528852285E+02  0.29999977004E+02 0.  0.
        -12    1    1    2    0    0  0.27161841832E+02  0.16899086860E+02  0.25096244829E+02  0.40659147715E+02  0.00000000000E+00 0.  1.
         11    1    3    3    0    0 -0.11422092869E+01  0.27710479779E+00  0.84961148619E+00  0.14502651697E+01  0.51100000000E-03 0. -1.
        -11    1    3    3    0    0 -0.13870771364E+02 -0.18594941906E+02 -0.34242092232E+01  0.23449848012E+02  0.51100000000E-03 0.  1.
        -12    1    3    3    0    0 -0.12148861181E+02  0.14187502478E+01 -0.22521647092E+02  0.25628739103E+02  0.00000000000E+00 0.  1.
</event>
<event>
 7    1  0.1024956E-012  0.5052890E+02  0.7816164E-02  0.1300439E+00
        -11   -1    0    0    0    0  0.00000000000E+00  0.00000000000E+00  0.45593999997E+02  0.45594000000E+02  0.51100000000E-03 0.  1.
         11   -1    0    0    0    0 -0.00000000000E+00 -0.00000000000E+00 -0.45593999997E+02  0.45594000000E+02  0.51100000000E-03 0. -1.
    9900012    2    1    2    0    0 -0.30085543550E+01  0.34941234694E+02 -0.20572348776E+02  0.50528895049E+02  0.30000106992E+02 0.  0.
        -12    1    1    2    0    0  0.30085543550E+01 -0.34941234694E+02  0.20572348776E+02  0.40659104951E+02  0.00000000000E+00 0.  1.
         11    1    3    3    0    0 -0.37881940421E+00  0.31401584255E+01 -0.99220720041E+00  0.33149018791E+01  0.51100000000E-03 0. -1.
        -11    1    3    3    0    0 -0.14238349291E+02  0.22146158273E+02 -0.62205705744E+01  0.27053251474E+02  0.51100000000E-03 0.  1.
        -12    1    3    3    0    0  0.11608614341E+02  0.96549179959E+01 -0.13359571001E+02  0.20160741696E+02  0.00000000000E+00 0.  1.
</event>
<event>
 7    1  0.1024956E-012  0.5052886E+02  0.7816164E-02  0.1300439E+00
        -11   -1    0    0    0    0  0.00000000000E+00  0.00000000000E+00  0.45593999997E+02  0.45594000000E+02  0.51100000000E-03 0.  1.
         11   -1    0    0    0    0 -0.00000000000E+00 -0.00000000000E+00 -0.45593999997E+02  0.45594000000E+02  0.51100000000E-03 0. -1.
    9900012    2    1    2    0    0 -0.37677764955E+02  0.14828549213E+02  0.36967840261E+01  0.50528855199E+02  0.29999985864E+02 0.  0.
        -12    1    1    2    0    0  0.37677764955E+02 -0.14828549213E+02 -0.36967840261E+01  0.40659144801E+02  0.00000000000E+00 0.  1.
         11    1    3    3    0    0 -0.47512247612E+01  0.10086182227E+02  0.10245030511E+02  0.15141527634E+02  0.51100000000E-03 0. -1.
        -11    1    3    3    0    0 -0.22641792980E+02 -0.15046817051E+01 -0.33634332299E+01  0.22939649948E+02  0.51100000000E-03 0.  1.
         12    1    3    3    0    0 -0.10284747215E+02  0.62470486909E+01 -0.31848132553E+01  0.12447677618E+02  0.00000000000E+00 0. -1.
</event>
<event>
 7    1  0.1024956E-012  0.5052886E+02  0.7816164E-02  0.1300439E+00
        -11   -1    0    0    0    0  0.00000000000E+00  0.00000000000E+00  0.45593999997E+02  0.45594000000E+02  0.51100000000E-03 0. -1.
         11   -1    0    0    0    0 -0.00000000000E+00 -0.00000000000E+00 -0.45593999997E+02  0.45594000000E+02  0.51100000000E-03 0.  1.
    9900012    2    1    2    0    0 -0.26747191268E+02  0.25186113156E+02 -0.17418749468E+02  0.50528863638E+02  0.30000011515E+02 0.  0.
        -12    1    1    2    0    0  0.26747191268E+02 -0.25186113156E+02  0.17418749468E+02  0.40659136362E+02  0.00000000000E+00 0.  1.
         11    1    3    3    0    0 -0.13199517715E+02  0.16594202103E+02  0.81747456515E+00  0.21219403297E+02  0.51100000000E-03 0. -1.
        -11    1    3    3    0    0  0.71668756876E+00 -0.38439410843E+01 -0.42691106656E+01  0.57891994496E+01  0.51100000000E-03 0.  1.
         12    1    3    3    0    0 -0.14264361122E+02  0.12435852137E+02 -0.13967113368E+02  0.23520260892E+02  0.00000000000E+00 0. -1.
</event>
<event>
 7    1  0.1024956E-012  0.5052888E+02  0.7816164E-02  0.1300439E+00
        -11   -1    0    0    0    0  0.00000000000E+00  0.00000000000E+00  0.45593999997E+02  0.45594000000E+02  0.51100000000E-03 0. -1.
         11   -1    0    0    0    0 -0.00000000000E+00 -0.00000000000E+00 -0.45593999997E+02  0.45594000000E+02  0.51100000000E-03 0.  1.
    9900012    2    1    2    0    0 -0.32408721826E+02  0.23003074062E+02 -0.85847373434E+01  0.50528875785E+02  0.30000048436E+02 0.  0.
        -12    1    1    2    0    0  0.32408721826E+02 -0.23003074062E+02  0.85847373434E+01  0.40659124215E+02  0.00000000000E+00 0.  1.
         11    1    3    3    0    0 -0.11449319662E+02 -0.34968947460E+01  0.42751970349E+01  0.12711904009E+02  0.51100000000E-03 0. -1.
        -11    1    3    3    0    0 -0.21903950206E+02  0.26761803222E+02 -0.12525656409E+02  0.36781370489E+02  0.51100000000E-03 0.  1.
         12    1    3    3    0    0  0.94454804232E+00 -0.26183441369E+00 -0.33427796958E+00  0.10356012869E+01  0.00000000000E+00 0. -1.
</event>
<event>
 7    1  0.1024956E-012  0.5052887E+02  0.7816164E-02  0.1300439E+00
        -11   -1    0    0    0    0  0.00000000000E+00  0.00000000000E+00  0.45593999997E+02  0.45594000000E+02  0.51100000000E-03 0.  1.
         11   -1    0    0    0    0 -0.00000000000E+00 -0.00000000000E+00 -0.45593999997E+02  0.45594000000E+02  0.51100000000E-03 0. -1.
    9900012    2    1    2    0    0 -0.17085833461E+02  0.92135480426E+01 -0.35726033105E+02  0.50528872931E+02  0.30000039760E+02 0.  0.
        -12    1    1    2    0    0  0.17085833461E+02 -0.92135480426E+01  0.35726033105E+02  0.40659127069E+02  0.00000000000E+00 0.  1.
         11    1    3    3    0    0 -0.19842457948E+02  0.54583018228E+01 -0.96968799352E+01  0.22749630259E+02  0.51100000000E-03 0. -1.
        -11    1    3    3    0    0  0.46560268913E+01 -0.46315685767E+00 -0.91415463432E+01  0.10269419190E+02  0.51100000000E-03 0.  1.
         12    1    3    3    0    0 -0.18994024046E+01  0.42184030775E+01 -0.16887606827E+02  0.17509823482E+02  0.00000000000E+00 0. -1.
</event>
<event>
 7    1  0.1024956E-012  0.5052886E+02  0.7816164E-02  0.1300439E+00
        -11   -1    0    0    0    0  0.00000000000E+00  0.00000000000E+00  0.45593999997E+02  0.45594000000E+02  0.51100000000E-03 0.  1.
         11   -1    0    0    0    0 -0.00000000000E+00 -0.00000000000E+00 -0.45593999997E+02  0.45594000000E+02  0.51100000000E-03 0. -1.
    9900012    2    1    2    0    0 -0.30009882842E+02  0.18299876859E+02 -0.20437388407E+02  0.50528863190E+02  0.30000010152E+02 0.  0.
        -12    1    1    2    0    0  0.30009882842E+02 -0.18299876859E+02  0.20437388407E+02  0.40659136810E+02  0.00000000000E+00 0.  1.
         11    1    3    3    0    0 -0.18213016701E+02 -0.18062075602E+01 -0.18011519474E+02  0.25678613613E+02  0.51100000000E-03 0. -1.
        -11    1    3    3    0    0 -0.91643758253E+01  0.18071984711E+02 -0.47248145669E+01  0.20806400184E+02  0.51100000000E-03 0.  1.
         12    1    3    3    0    0 -0.26324903160E+01  0.20340997088E+01  0.22989456335E+01  0.40438493932E+01  0.00000000000E+00 0. -1.
</event>
<event>
 7    1  0.1024956E-012  0.5052887E+02  0.7816164E-02  0.1300439E+00
        -11   -1    0    0    0    0  0.00000000000E+00  0.00000000000E+00  0.45593999997E+02  0.45594000000E+02  0.51100000000E-03 0. -1.
         11   -1    0    0    0    0 -0.00000000000E+00 -0.00000000000E+00 -0.45593999997E+02  0.45594000000E+02  0.51100000000E-03 0.  1.
    9900012    2    1    2    0    0 -0.25968643100E+02 -0.80113207138E+01  0.30242577447E+02  0.50528866036E+02  0.30000018804E+02 0.  0.
        -12    1    1    2    0    0  0.25968643100E+02  0.80113207138E+01 -0.30242577447E+02  0.40659133964E+02  0.00000000000E+00 0.  1.
         11    1    3    3    0    0 -0.13607631492E+02 -0.35912413753E+01  0.13147094425E+02  0.19259043110E+02  0.51100000000E-03 0. -1.
        -11    1    3    3    0    0 -0.11680574582E+02  0.35603597887E+01 -0.19678374348E+00  0.12212727316E+02  0.51100000000E-03 0.  1.
        -12    1    3    3    0    0 -0.68043702590E+00 -0.79804391272E+01  0.17292266765E+02  0.19057095610E+02  0.00000000000E+00 0.  1.
</event>
<event>
 7    1  0.1024956E-012  0.5052886E+02  0.7816164E-02  0.1300439E+00
        -11   -1    0    0    0    0  0.00000000000E+00  0.00000000000E+00  0.45593999997E+02  0.45594000000E+02  0.51100000000E-03 0. -1.
         11   -1    0    0    0    0 -0.00000000000E+00 -0.00000000000E+00 -0.45593999997E+02  0.45594000000E+02  0.51100000000E-03 0.  1.
    9900012    2    1    2    0    0 -0.51596178631E+01 -0.24852883174E+02  0.31762839279E+02  0.50528863049E+02  0.30000009723E+02 0.  0.
        -12    1    1    2    0    0  0.51596178631E+01  0.24852883174E+02 -0.31762839279E+02  0.40659136951E+02  0.00000000000E+00 0.  1.
         11    1    3    3    0    0  0.58576960626E+01 -0.12057566422E+02  0.30330802390E+02  0.33161047708E+02  0.51100000000E-03 0. -1.
        -11    1    3    3    0    0 -0.80312696497E+01 -0.79944289554E+01  0.25239361976E+01  0.11609584002E+02  0.51100000000E-03 0.  1.
         12    1    3    3    0    0 -0.29860442761E+01 -0.48008877964E+01 -0.10918993085E+01  0.57582313389E+01  0.00000000000E+00 0. -1.
</event>
<event>
 7    1  0.1024956E-012  0.5052886E+02  0.7816164E-02  0.1300439E+00
        -11   -1    0    0    0    0  0.00000000000E+00  0.00000000000E+00  0.45593999997E+02  0.45594000000E+02  0.51100000000E-03 0. -1.
         11   -1    0    0    0    0 -0.00000000000E+00 -0.00000000000E+00 -0.45593999997E+02  0.45594000000E+02  0.51100000000E-03 0.  1.
    9900012    2    1    2    0    0 -0.19616466686E+02  0.21298142500E+02  0.28543806756E+02  0.50528861503E+02  0.30000005025E+02 0.  0.
        -12    1    1    2    0    0  0.19616466686E+02 -0.21298142500E+02 -0.28543806756E+02  0.40659138497E+02  0.00000000000E+00 0.  1.
         11    1    3    3    0    0 -0.87701345678E+01  0.13506712057E+02  0.60747118718E+01  0.17211875421E+02  0.51100000000E-03 0.  1.
        -11    1    3    3    0    0 -0.85444827049E+01 -0.61124581566E+01  0.94364201783E+01  0.14121485597E+02  0.51100000000E-03 0. -1.
         12    1    3    3    0    0 -0.23018494130E+01  0.13903888600E+02  0.13032674706E+02  0.19195500486E+02  0.00000000000E+00 0. -1.
</event>
<event>
 7    1  0.1024956E-012  0.5052896E+02  0.7816164E-02  0.1300438E+00
        -11   -1    0    0    0    0  0.00000000000E+00  0.00000000000E+00  0.45593999997E+02  0.45594000000E+02  0.51100000000E-03 0.  1.
         11   -1    0    0    0    0 -0.00000000000E+00 -0.00000000000E+00 -0.45593999997E+02  0.45594000000E+02  0.51100000000E-03 0. -1.
    9900012    2    1    2    0    0  0.30009626043E+02  0.55078209706E+01 -0.26874587090E+02  0.50528964370E+02  0.30000317698E+02 0.  0.
        -12    1    1    2    0    0 -0.30009626043E+02 -0.55078209706E+01  0.26874587090E+02  0.40659035630E+02  0.00000000000E+00 0.  1.
         11    1    3    3    0    0  0.19082109782E+02  0.17031490029E+02 -0.17095621882E+02  0.30764571412E+02  0.51100000000E-03 0. -1.
        -11    1    3    3    0    0  0.83696559645E+01 -0.51715418787E+01 -0.80229822824E+01  0.12695047512E+02  0.51100000000E-03 0.  1.
         12    1    3    3    0    0  0.25578602970E+01 -0.63521271798E+01 -0.17559829251E+01  0.70693454464E+01  0.00000000000E+00 0. -1.
</event>
<event>
 7    1  0.1024956E-012  0.5052886E+02  0.7816164E-02  0.1300439E+00
        -11   -1    0    0    0    0  0.00000000000E+00  0.00000000000E+00  0.45593999997E+02  0.45594000000E+02  0.51100000000E-03 0.  1.
         11   -1    0    0    0    0 -0.00000000000E+00 -0.00000000000E+00 -0.45593999997E+02  0.45594000000E+02  0.51100000000E-03 0. -1.
    9900012    2    1    2    0    0  0.44684613888E+01 -0.22925301830E+02 -0.33281061642E+02  0.50528859881E+02  0.30000000095E+02 0.  0.
        -12    1    1    2    0    0 -0.44684613888E+01  0.22925301830E+02  0.33281061642E+02  0.40659140119E+02  0.00000000000E+00 0.  1.
         11    1    3    3    0    0  0.52456483216E+01 -0.42144081703E+01 -0.25208410623E+02  0.26091033497E+02  0.51100000000E-03 0.  1.
        -11    1    3    3    0    0  0.36648502026E+00 -0.20403922754E+02 -0.88609067631E+01  0.22247922239E+02  0.51100000000E-03 0. -1.
         12    1    3    3    0    0 -0.11436719531E+01  0.16930290936E+01  0.78825574460E+00  0.21899041456E+01  0.00000000000E+00 0. -1.
</event>
<event>
 7    1  0.1024956E-012  0.5052886E+02  0.7816164E-02  0.1300439E+00
        -11   -1    0    0    0    0  0.00000000000E+00  0.00000000000E+00  0.45593999997E+02  0.45594000000E+02  0.51100000000E-03 0.  1.
         11   -1    0    0    0    0 -0.00000000000E+00 -0.00000000000E+00 -0.45593999997E+02  0.45594000000E+02  0.51100000000E-03 0. -1.
    9900012    2    1    2    0    0 -0.26115289722E+02 -0.24242669596E+02 -0.19581884012E+02  0.50528861201E+02  0.30000004107E+02 0.  0.
        -12    1    1    2    0    0  0.26115289722E+02  0.24242669596E+02  0.19581884012E+02  0.40659138799E+02  0.00000000000E+00 0.  1.
         11    1    3    3    0    0  0.41354339253E+01 -0.11288026862E+01 -0.66044916587E+01  0.78737106617E+01  0.51100000000E-03 0. -1.
        -11    1    3    3    0    0 -0.24893886348E+02 -0.23989563013E+02 -0.84562119102E+01  0.35590900960E+02  0.51100000000E-03 0.  1.
         12    1    3    3    0    0 -0.53568372994E+01  0.87569610272E+00 -0.45211804429E+01  0.70642495789E+01  0.00000000000E+00 0. -1.
</event>
<event>
 7    1  0.1024956E-012  0.5052886E+02  0.7816164E-02  0.1300439E+00
        -11   -1    0    0    0    0  0.00000000000E+00  0.00000000000E+00  0.45593999997E+02  0.45594000000E+02  0.51100000000E-03 0.  1.
         11   -1    0    0    0    0 -0.00000000000E+00 -0.00000000000E+00 -0.45593999997E+02  0.45594000000E+02  0.51100000000E-03 0. -1.
    9900012    2    1    2    0    0 -0.32043931319E+01 -0.40036707534E+02 -0.63213729296E+01  0.50528857840E+02  0.29999993889E+02 0.  0.
        -12    1    1    2    0    0  0.32043931319E+01  0.40036707534E+02  0.63213729296E+01  0.40659142160E+02  0.00000000000E+00 0.  1.
         11    1    3    3    0    0 -0.25217291397E+01 -0.15112471896E+02 -0.46091533630E+01  0.15999694361E+02  0.51100000000E-03 0.  1.
        -11    1    3    3    0    0 -0.84295837245E+01 -0.17414517651E+01 -0.48592707758E+01  0.98844852548E+01  0.51100000000E-03 0. -1.
        -12    1    3    3    0    0  0.77469197323E+01 -0.23182783873E+02  0.31470512093E+01  0.24644678224E+02  0.00000000000E+00 0.  1.
</event>
<event>
 7    1  0.1024956E-012  0.5052886E+02  0.7816164E-02  0.1300439E+00
        -11   -1    0    0    0    0  0.00000000000E+00  0.00000000000E+00  0.45593999997E+02  0.45594000000E+02  0.51100000000E-03 0. -1.
         11   -1    0    0    0    0 -0.00000000000E+00 -0.00000000000E+00 -0.45593999997E+02  0.45594000000E+02  0.51100000000E-03 0.  1.
    9900012    2    1    2    0    0 -0.23415437864E+01 -0.25008725509E+02  0.31972591737E+02  0.50528858330E+02  0.29999995381E+02 0.  0.
        -12    1    1    2    0    0  0.23415437864E+01  0.25008725509E+02 -0.31972591737E+02  0.40659141670E+02  0.00000000000E+00 0.  1.
         11    1    3    3    0    0  0.12938692601E+02 -0.15176063043E+02  0.21077624566E+02  0.29017045220E+02  0.51100000000E-03 0. -1.
        -11    1    3    3    0    0 -0.33766958807E+01 -0.20558762470E+01  0.69754791553E+00  0.40143835852E+01  0.51100000000E-03 0.  1.
         12    1    3    3    0    0 -0.11903540507E+02 -0.77767862198E+01  0.10197419256E+02  0.17497429525E+02  0.00000000000E+00 0. -1.
</event>
<event>
 7    1  0.1024956E-012  0.5052885E+02  0.7816164E-02  0.1300439E+00
        -11   -1    0    0    0    0  0.00000000000E+00  0.00000000000E+00  0.45593999997E+02  0.45594000000E+02  0.51100000000E-03 0.  1.
         11   -1    0    0    0    0 -0.00000000000E+00 -0.00000000000E+00 -0.45593999997E+02  0.45594000000E+02  0.51100000000E-03 0. -1.
    9900012    2    1    2    0    0 -0.31173980465E+02 -0.16719179783E+02 -0.20045399934E+02  0.50528854790E+02  0.29999984620E+02 0.  0.
        -12    1    1    2    0    0  0.31173980465E+02  0.16719179783E+02  0.20045399934E+02  0.40659145210E+02  0.00000000000E+00 0.  1.
         11    1    3    3    0    0  0.17395694299E+01  0.49606244599E+01 -0.64390661009E+01  0.83123684558E+01  0.51100000000E-03 0. -1.
        -11    1    3    3    0    0 -0.86177111125E+01 -0.90999575484E+01 -0.31130041865E+01  0.12913751102E+02  0.51100000000E-03 0.  1.
         12    1    3    3    0    0 -0.24295838782E+02 -0.12579846695E+02 -0.10493329647E+02  0.29302735232E+02  0.00000000000E+00 0. -1.
</event>
<event>
 7    1  0.1024956E-012  0.5052886E+02  0.7816164E-02  0.1300439E+00
        -11   -1    0    0    0    0  0.00000000000E+00  0.00000000000E+00  0.45593999997E+02  0.45594000000E+02  0.51100000000E-03 0.  1.
         11   -1    0    0    0    0 -0.00000000000E+00 -0.00000000000E+00 -0.45593999997E+02  0.45594000000E+02  0.51100000000E-03 0. -1.
    9900012    2    1    2    0    0 -0.18789628635E+02  0.97802958867E+01 -0.34705350746E+02  0.50528859548E+02  0.29999999083E+02 0.  0.
        -12    1    1    2    0    0  0.18789628635E+02 -0.97802958867E+01  0.34705350746E+02  0.40659140452E+02  0.00000000000E+00 0.  1.
         11    1    3    3    0    0 -0.21470290771E+02  0.49159665025E+01 -0.91791295774E+01  0.23862031190E+02  0.51100000000E-03 0. -1.
        -11    1    3    3    0    0  0.37284495938E+01  0.35996278642E+01 -0.12417031245E+02  0.13455159692E+02  0.51100000000E-03 0.  1.
         12    1    3    3    0    0 -0.10477874572E+01  0.12647015200E+01 -0.13109189924E+02  0.13211668667E+02  0.00000000000E+00 0. -1.
</event>
<event>
 7    1  0.1024956E-012  0.5052885E+02  0.7816164E-02  0.1300439E+00
        -11   -1    0    0    0    0  0.00000000000E+00  0.00000000000E+00  0.45593999997E+02  0.45594000000E+02  0.51100000000E-03 0. -1.
         11   -1    0    0    0    0 -0.00000000000E+00 -0.00000000000E+00 -0.45593999997E+02  0.45594000000E+02  0.51100000000E-03 0.  1.
    9900012    2    1    2    0    0 -0.40347128343E+02 -0.32342894871E+01 -0.38490807772E+01  0.50528845842E+02  0.29999957420E+02 0.  0.
        -12    1    1    2    0    0  0.40347128343E+02  0.32342894871E+01  0.38490807772E+01  0.40659154158E+02  0.00000000000E+00 0.  1.
         11    1    3    3    0    0 -0.21497535729E+02  0.97751956952E+01  0.23580201029E+01  0.23733072965E+02  0.51100000000E-03 0. -1.
        -11    1    3    3    0    0 -0.16229913747E+02 -0.11134441743E+02 -0.97858068498E+01  0.21980625767E+02  0.51100000000E-03 0.  1.
         12    1    3    3    0    0 -0.26196788681E+01 -0.18750434398E+01  0.35787059698E+01  0.48151471100E+01  0.00000000000E+00 0. -1.
</event>
<event>
 7    1  0.1024956E-012  0.5052886E+02  0.7816164E-02  0.1300439E+00
        -11   -1    0    0    0    0  0.00000000000E+00  0.00000000000E+00  0.45593999997E+02  0.45594000000E+02  0.51100000000E-03 0.  1.
         11   -1    0    0    0    0 -0.00000000000E+00 -0.00000000000E+00 -0.45593999997E+02  0.45594000000E+02  0.51100000000E-03 0. -1.
    9900012    2    1    2    0    0  0.38923696932E+02 -0.11746573826E+02  0.35992393548E+00  0.50528859272E+02  0.29999998243E+02 0.  0.
        -12    1    1    2    0    0 -0.38923696932E+02  0.11746573826E+02 -0.35992393548E+00  0.40659140728E+02  0.00000000000E+00 0.  1.
         11    1    3    3    0    0  0.24328063910E+02 -0.33860010674E+01  0.12521978866E+02  0.27570267532E+02  0.51100000000E-03 0. -1.
        -11    1    3    3    0    0  0.12228573720E+01  0.19243502119E+01 -0.29771242619E+01  0.37499030684E+01  0.51100000000E-03 0.  1.
         12    1    3    3    0    0  0.13372775650E+02 -0.10284922970E+02 -0.91849306681E+01  0.19208688671E+02  0.00000000000E+00 0. -1.
</event>
<event>
 7    1  0.1024956E-012  0.5052886E+02  0.7816164E-02  0.1300439E+00
        -11   -1    0    0    0    0  0.00000000000E+00  0.00000000000E+00  0.45593999997E+02  0.45594000000E+02  0.51100000000E-03 0.  1.
         11   -1    0    0    0    0 -0.00000000000E+00 -0.00000000000E+00 -0.45593999997E+02  0.45594000000E+02  0.51100000000E-03 0. -1.
    9900012    2    1    2    0    0  0.31610492472E+02 -0.88443415125E+01 -0.23994169735E+02  0.50528858441E+02  0.29999995716E+02 0.  0.
        -12    1    1    2    0    0 -0.31610492472E+02  0.88443415125E+01  0.23994169735E+02  0.40659141559E+02  0.00000000000E+00 0.  1.
         11    1    3    3    0    0  0.35458828063E+00  0.69739268294E+01 -0.50361907318E+01  0.86095647752E+01  0.51100000000E-03 0. -1.
        -11    1    3    3    0    0  0.13987206244E+02 -0.57501482835E+01 -0.11816969593E+01  0.15169131542E+02  0.51100000000E-03 0.  1.
         12    1    3    3    0    0  0.17268697947E+02 -0.10068120058E+02 -0.17776282043E+02  0.26750162123E+02  0.00000000000E+00 0. -1.
</event>
<event>
 7    1  0.1024956E-012  0.5052886E+02  0.7816164E-02  0.1300439E+00
        -11   -1    0    0    0    0  0.00000000000E+00  0.00000000000E+00  0.45593999997E+02  0.45594000000E+02  0.51100000000E-03 0. -1.
         11   -1    0    0    0    0 -0.00000000000E+00 -0.00000000000E+00 -0.45593999997E+02  0.45594000000E+02  0.51100000000E-03 0.  1.
    9900012    2    1    2    0    0 -0.63145846150E+01  0.25557934270E+02  0.30985214806E+02  0.50528861795E+02  0.30000005913E+02 0.  0.
        -12    1    1    2    0    0  0.63145846150E+01 -0.25557934270E+02 -0.30985214806E+02  0.40659138205E+02  0.00000000000E+00 0.  1.
         11    1    3    3    0    0 -0.14109036557E+02  0.20617597211E+02  0.11011474522E+02  0.27302065833E+02  0.51100000000E-03 0. -1.
        -11    1    3    3    0    0  0.28902956045E+00 -0.95683725945E+00 -0.94738701177E-01  0.10040175848E+01  0.51100000000E-03 0.  1.
         12    1    3    3    0    0  0.75054223814E+01  0.58971743179E+01  0.20068478985E+02  0.22222778378E+02  0.00000000000E+00 0. -1.
</event>
<event>
 7    1  0.1024956E-012  0.5052886E+02  0.7816164E-02  0.1300439E+00
        -11   -1    0    0    0    0  0.00000000000E+00  0.00000000000E+00  0.45593999997E+02  0.45594000000E+02  0.51100000000E-03 0.  1.
         11   -1    0    0    0    0 -0.00000000000E+00 -0.00000000000E+00 -0.45593999997E+02  0.45594000000E+02  0.51100000000E-03 0. -1.
    9900012    2    1    2    0    0 -0.15273523723E+02 -0.16050606145E+02 -0.34091981469E+02  0.50528859760E+02  0.29999999727E+02 0.  0.
        -12    1    1    2    0    0  0.15273523723E+02  0.16050606145E+02  0.34091981469E+02  0.40659140240E+02  0.00000000000E+00 0.  1.
         11    1    3    3    0    0 -0.89673737354E+01 -0.12670586946E+02 -0.15735824798E+02  0.22103704386E+02  0.51100000000E-03 0.  1.
        -11    1    3    3    0    0 -0.10846184781E+02  0.50040954855E+01 -0.12211658157E+02  0.17082309304E+02  0.51100000000E-03 0. -1.
        -12    1    3    3    0    0  0.45400347936E+01 -0.83841146853E+01 -0.61444985146E+01  0.11342846070E+02  0.00000000000E+00 0.  1.
</event>
<event>
 7    1  0.1024956E-012  0.5052886E+02  0.7816164E-02  0.1300439E+00
        -11   -1    0    0    0    0  0.00000000000E+00  0.00000000000E+00  0.45593999997E+02  0.45594000000E+02  0.51100000000E-03 0.  1.
         11   -1    0    0    0    0 -0.00000000000E+00 -0.00000000000E+00 -0.45593999997E+02  0.45594000000E+02  0.51100000000E-03 0. -1.
    9900012    2    1    2    0    0  0.37643556848E+02  0.10285814331E+02  0.11416221529E+02  0.50528862495E+02  0.30000008041E+02 0.  0.
        -12    1    1    2    0    0 -0.37643556848E+02 -0.10285814331E+02 -0.11416221529E+02  0.40659137505E+02  0.00000000000E+00 0.  1.
         11    1    3    3    0    0  0.57016384815E+00  0.99054832467E+01  0.80821992631E+01  0.12797094606E+02  0.51100000000E-03 0. -1.
        -11    1    3    3    0    0  0.16438459848E+02 -0.27175508645E+01  0.25077385641E+01  0.16849237307E+02  0.51100000000E-03 0.  1.
         12    1    3    3    0    0  0.20634933152E+02  0.30978819484E+01  0.82628370194E+00  0.20882530582E+02  0.00000000000E+00 0. -1.
</event>
<event>
 7    1  0.1024956E-012  0.5052885E+02  0.7816164E-02  0.1300439E+00
        -11   -1    0    0    0    0  0.00000000000E+00  0.00000000000E+00  0.45593999997E+02  0.45594000000E+02  0.51100000000E-03 0.  1.
         11   -1    0    0    0    0 -0.00000000000E+00 -0.00000000000E+00 -0.45593999997E+02  0.45594000000E+02  0.51100000000E-03 0. -1.
    9900012    2    1    2    0    0  0.27576646237E+02 -0.29713592266E+02 -0.31300323023E+01  0.50528854839E+02  0.29999984769E+02 0.  0.
        -12    1    1    2    0    0 -0.27576646237E+02  0.29713592266E+02  0.31300323023E+01  0.40659145161E+02  0.00000000000E+00 0.  1.
         11    1    3    3    0    0  0.29687754553E+02 -0.15806582145E+02  0.12460039869E+00  0.33633708315E+02  0.51100000000E-03 0.  1.
        -11    1    3    3    0    0 -0.45452118142E+01 -0.13317130752E+02 -0.28721182332E+01  0.14361545367E+02  0.51100000000E-03 0. -1.
         12    1    3    3    0    0  0.24341034980E+01 -0.58987936806E+00 -0.38251446781E+00  0.25336011576E+01  0.00000000000E+00 0. -1.
</event>
<event>
 7    1  0.1024956E-012  0.5052886E+02  0.7816164E-02  0.1300439E+00
        -11   -1    0    0    0    0  0.00000000000E+00  0.00000000000E+00  0.45593999997E+02  0.45594000000E+02  0.51100000000E-03 0. -1.
         11   -1    0    0    0    0 -0.00000000000E+00 -0.00000000000E+00 -0.45593999997E+02  0.45594000000E+02  0.51100000000E-03 0.  1.
    9900012    2    1    2    0    0 -0.28824415868E+02 -0.18381997478E+02  0.22009563426E+02  0.50528860024E+02  0.30000000528E+02 0.  0.
        -12    1    1    2    0    0  0.28824415868E+02  0.18381997478E+02 -0.22009563426E+02  0.40659139976E+02  0.00000000000E+00 0.  1.
         11    1    3    3    0    0 -0.17908123546E+02  0.14839730176E+01  0.72120777146E+01  0.19362776920E+02  0.51100000000E-03 0. -1.
        -11    1    3    3    0    0 -0.78389453964E+01 -0.19221117213E+02  0.17398730571E+02  0.27085350978E+02  0.51100000000E-03 0.  1.
        -12    1    3    3    0    0 -0.30773469259E+01 -0.64485328322E+00 -0.26012448601E+01  0.40807321257E+01  0.00000000000E+00 0.  1.
</event>
<event>
 7    1  0.1024956E-012  0.5052886E+02  0.7816164E-02  0.1300439E+00
        -11   -1    0    0    0    0  0.00000000000E+00  0.00000000000E+00  0.45593999997E+02  0.45594000000E+02  0.51100000000E-03 0.  1.
         11   -1    0    0    0    0 -0.00000000000E+00 -0.00000000000E+00 -0.45593999997E+02  0.45594000000E+02  0.51100000000E-03 0. -1.
    9900012    2    1    2    0    0 -0.34940348042E+02  0.14241650883E+02 -0.15149690974E+02  0.50528859850E+02  0.29999999999E+02 0.  0.
        -12    1    1    2    0    0  0.34940348042E+02 -0.14241650883E+02  0.15149690974E+02  0.40659140150E+02  0.00000000000E+00 0.  1.
         11    1    3    3    0    0 -0.33945854801E+02  0.15748092014E+02 -0.28147296708E+01  0.37526606077E+02  0.51100000000E-03 0. -1.
        -11    1    3    3    0    0  0.63216210872E+00 -0.36112154711E+00 -0.95608959754E+01  0.95885749628E+01  0.51100000000E-03 0.  1.
         12    1    3    3    0    0 -0.16266553494E+01 -0.11453195840E+01 -0.27740653277E+01  0.34136788100E+01  0.00000000000E+00 0. -1.
</event>
<event>
 7    1  0.1024956E-012  0.5052887E+02  0.7816164E-02  0.1300439E+00
        -11   -1    0    0    0    0  0.00000000000E+00  0.00000000000E+00  0.45593999997E+02  0.45594000000E+02  0.51100000000E-03 0. -1.
         11   -1    0    0    0    0 -0.00000000000E+00 -0.00000000000E+00 -0.45593999997E+02  0.45594000000E+02  0.51100000000E-03 0.  1.
    9900012    2    1    2    0    0  0.34639910875E+02  0.72404254560E+01  0.20020440047E+02  0.50528865652E+02  0.30000017637E+02 0.  0.
        -12    1    1    2    0    0 -0.34639910875E+02 -0.72404254560E+01 -0.20020440047E+02  0.40659134348E+02  0.00000000000E+00 0.  1.
         11    1    3    3    0    0  0.12221142529E+02  0.15805442899E+02  0.10828641273E+02  0.22725048339E+02  0.51100000000E-03 0.  1.
        -11    1    3    3    0    0  0.11584477926E+02 -0.42349979044E+01 -0.91409959684E+00  0.12368141105E+02  0.51100000000E-03 0. -1.
         12    1    3    3    0    0  0.10834290420E+02 -0.43300195384E+01  0.10105898371E+02  0.15435676208E+02  0.00000000000E+00 0. -1.
</event>
<event>
 7    1  0.1024956E-012  0.5052886E+02  0.7816164E-02  0.1300439E+00
        -11   -1    0    0    0    0  0.00000000000E+00  0.00000000000E+00  0.45593999997E+02  0.45594000000E+02  0.51100000000E-03 0.  1.
         11   -1    0    0    0    0 -0.00000000000E+00 -0.00000000000E+00 -0.45593999997E+02  0.45594000000E+02  0.51100000000E-03 0. -1.
    9900012    2    1    2    0    0  0.98812105514E+01  0.22056057603E+02 -0.32696444690E+02  0.50528862106E+02  0.30000006857E+02 0.  0.
        -12    1    1    2    0    0 -0.98812105514E+01 -0.22056057603E+02  0.32696444690E+02  0.40659137894E+02  0.00000000000E+00 0.  1.
         11    1    3    3    0    0  0.15706284308E+02  0.78776611268E+01 -0.20173742163E+02  0.26753033187E+02  0.51100000000E-03 0. -1.
        -11    1    3    3    0    0 -0.63470627574E+01  0.91061052924E+00 -0.67103757848E+01  0.92813555377E+01  0.51100000000E-03 0.  1.
         12    1    3    3    0    0  0.52198900086E+00  0.13267785947E+02 -0.58123267422E+01  0.14494473382E+02  0.00000000000E+00 0. -1.
</event>
<event>
 7    1  0.1024956E-012  0.5052887E+02  0.7816164E-02  0.1300439E+00
        -11   -1    0    0    0    0  0.00000000000E+00  0.00000000000E+00  0.45593999997E+02  0.45594000000E+02  0.51100000000E-03 0. -1.
         11   -1    0    0    0    0 -0.00000000000E+00 -0.00000000000E+00 -0.45593999997E+02  0.45594000000E+02  0.51100000000E-03 0.  1.
    9900012    2    1    2    0    0  0.16248328700E+02  0.31772562046E+02  0.19484887745E+02  0.50528871444E+02  0.30000035240E+02 0.  0.
        -12    1    1    2    0    0 -0.16248328700E+02 -0.31772562046E+02 -0.19484887745E+02  0.40659128556E+02  0.00000000000E+00 0.  1.
         11    1    3    3    0    0 -0.27696063497E+01  0.24178630115E+02  0.39058208168E+01  0.24648170522E+02  0.51100000000E-03 0. -1.
        -11    1    3    3    0    0  0.13539418730E+02  0.65459872035E+01  0.10548520229E+02  0.18369460724E+02  0.51100000000E-03 0.  1.
         12    1    3    3    0    0  0.54785163200E+01  0.10479447280E+01  0.50305466989E+01  0.75112401980E+01  0.00000000000E+00 0. -1.
</event>
<event>
 7    1  0.1024956E-012  0.5052886E+02  0.7816164E-02  0.1300439E+00
        -11   -1    0    0    0    0  0.00000000000E+00  0.00000000000E+00  0.45593999997E+02  0.45594000000E+02  0.51100000000E-03 0.  1.
         11   -1    0    0    0    0 -0.00000000000E+00 -0.00000000000E+00 -0.45593999997E+02  0.45594000000E+02  0.51100000000E-03 0. -1.
    9900012    2    1    2    0    0 -0.30090282567E+02 -0.41394230402E+00 -0.27341705293E+02  0.50528864477E+02  0.30000014063E+02 0.  0.
        -12    1    1    2    0    0  0.30090282567E+02  0.41394230402E+00  0.27341705293E+02  0.40659135523E+02  0.00000000000E+00 0.  1.
         11    1    3    3    0    0 -0.19098819592E+02  0.49576181145E+01 -0.22388914735E+02  0.29843029177E+02  0.51100000000E-03 0. -1.
        -11    1    3    3    0    0  0.18582231410E+01 -0.55300679916E+01 -0.52258789996E+01  0.78322702209E+01  0.51100000000E-03 0.  1.
         12    1    3    3    0    0 -0.12849686116E+02  0.15850757308E+00  0.27308844189E+00  0.12853565079E+02  0.00000000000E+00 0. -1.
</event>
<event>
 7    1  0.1024956E-012  0.5052886E+02  0.7816164E-02  0.1300439E+00
        -11   -1    0    0    0    0  0.00000000000E+00  0.00000000000E+00  0.45593999997E+02  0.45594000000E+02  0.51100000000E-03 0.  1.
         11   -1    0    0    0    0 -0.00000000000E+00 -0.00000000000E+00 -0.45593999997E+02  0.45594000000E+02  0.51100000000E-03 0. -1.
    9900012    2    1    2    0    0  0.15612486674E+02  0.84010147271E+01 -0.36590142339E+02  0.50528864434E+02  0.30000013935E+02 0.  0.
        -12    1    1    2    0    0 -0.15612486674E+02 -0.84010147271E+01  0.36590142339E+02  0.40659135566E+02  0.00000000000E+00 0.  1.
         11    1    3    3    0    0  0.15062515709E+02  0.14869701895E+02 -0.23171279113E+02  0.31383046218E+02  0.51100000000E-03 0. -1.
        -11    1    3    3    0    0  0.40352560075E+01 -0.61717106447E+01 -0.26703415575E+01  0.78424503583E+01  0.51100000000E-03 0.  1.
        -12    1    3    3    0    0 -0.34852850427E+01 -0.29697652339E+00 -0.10748521668E+02  0.11303367858E+02  0.00000000000E+00 0.  1.
</event>
<event>
 7    1  0.1024956E-012  0.5052886E+02  0.7816164E-02  0.1300439E+00
        -11   -1    0    0    0    0  0.00000000000E+00  0.00000000000E+00  0.45593999997E+02  0.45594000000E+02  0.51100000000E-03 0.  1.
         11   -1    0    0    0    0 -0.00000000000E+00 -0.00000000000E+00 -0.45593999997E+02  0.45594000000E+02  0.51100000000E-03 0. -1.
    9900012    2    1    2    0    0  0.89405639152E+01 -0.22702342187E+01 -0.39598968550E+02  0.50528856419E+02  0.29999989572E+02 0.  0.
        -12    1    1    2    0    0 -0.89405639152E+01  0.22702342187E+01  0.39598968550E+02  0.40659143581E+02  0.00000000000E+00 0.  1.
         11    1    3    3    0    0  0.26656091867E+01  0.14419306047E+01  0.10746536368E+01  0.32155119196E+01  0.51100000000E-03 0. -1.
        -11    1    3    3    0    0  0.10333299454E+02 -0.76182007612E+01 -0.39534386406E+02  0.41566594390E+02  0.51100000000E-03 0.  1.
        -12    1    3    3    0    0 -0.40583447252E+01  0.39060359377E+01 -0.11392357800E+01  0.57467501092E+01  0.00000000000E+00 0.  1.
</event>
<event>
 7    1  0.1024956E-012  0.5052885E+02  0.7816164E-02  0.1300439E+00
        -11   -1    0    0    0    0  0.00000000000E+00  0.00000000000E+00  0.45593999997E+02  0.45594000000E+02  0.51100000000E-03 0. -1.
         11   -1    0    0    0    0 -0.00000000000E+00 -0.00000000000E+00 -0.45593999997E+02  0.45594000000E+02  0.51100000000E-03 0.  1.
    9900012    2    1    2    0    0  0.32206407404E+02  0.91060978951E+01  0.23086639330E+02  0.50528848357E+02  0.29999965066E+02 0.  0.
        -12    1    1    2    0    0 -0.32206407404E+02 -0.91060978951E+01 -0.23086639330E+02  0.40659151643E+02  0.00000000000E+00 0.  1.
         11    1    3    3    0    0  0.23665970036E+02  0.11023116028E+02  0.14095046832E+02  0.29669134975E+02  0.51100000000E-03 0. -1.
        -11    1    3    3    0    0  0.71730055053E+01 -0.83454636966E+01  0.18582829255E+01  0.11160286196E+02  0.51100000000E-03 0.  1.
        -12    1    3    3    0    0  0.13674318623E+01  0.64284455640E+01  0.71333095729E+01  0.96994271856E+01  0.00000000000E+00 0.  1.
</event>
<event>
 7    1  0.1024956E-012  0.5052886E+02  0.7816164E-02  0.1300439E+00
        -11   -1    0    0    0    0  0.00000000000E+00  0.00000000000E+00  0.45593999997E+02  0.45594000000E+02  0.51100000000E-03 0.  1.
         11   -1    0    0    0    0 -0.00000000000E+00 -0.00000000000E+00 -0.45593999997E+02  0.45594000000E+02  0.51100000000E-03 0. -1.
    9900012    2    1    2    0    0 -0.56218311296E+01  0.10391824634E+02 -0.38904635890E+02  0.50528859598E+02  0.29999999236E+02 0.  0.
        -12    1    1    2    0    0  0.56218311296E+01 -0.10391824634E+02  0.38904635890E+02  0.40659140402E+02  0.00000000000E+00 0.  1.
         11    1    3    3    0    0  0.42072116342E+01  0.75007072702E+01 -0.26311227389E+02  0.27681075237E+02  0.51100000000E-03 0. -1.
        -11    1    3    3    0    0 -0.26822147620E+01 -0.52025119607E+01  0.50237756750E+00  0.58747587365E+01  0.51100000000E-03 0.  1.
         12    1    3    3    0    0 -0.71468280018E+01  0.80936293241E+01 -0.13095786069E+02  0.16973025625E+02  0.00000000000E+00 0. -1.
</event>
<event>
 7    1  0.1024956E-012  0.5052888E+02  0.7816164E-02  0.1300439E+00
        -11   -1    0    0    0    0  0.00000000000E+00  0.00000000000E+00  0.45593999997E+02  0.45594000000E+02  0.51100000000E-03 0.  1.
         11   -1    0    0    0    0 -0.00000000000E+00 -0.00000000000E+00 -0.45593999997E+02  0.45594000000E+02  0.51100000000E-03 0. -1.
    9900012    2    1    2    0    0  0.28637422415E+02 -0.13671135977E+02 -0.25419721354E+02  0.50528878573E+02  0.30000056912E+02 0.  0.
        -12    1    1    2    0    0 -0.28637422415E+02  0.13671135977E+02  0.25419721354E+02  0.40659121427E+02  0.00000000000E+00 0.  1.
         11    1    3    3    0    0  0.98467913886E+01 -0.15819189253E+02 -0.60316497807E+01  0.19585373334E+02  0.51100000000E-03 0.  1.
        -11    1    3    3    0    0  0.59434802348E+01  0.17197711251E+01  0.15463692494E+01  0.63776036362E+01  0.51100000000E-03 0. -1.
         12    1    3    3    0    0  0.12847150792E+02  0.42828215058E+00 -0.20934440822E+02  0.24565901604E+02  0.00000000000E+00 0. -1.
</event>
<event>
 7    1  0.1024956E-012  0.5052886E+02  0.7816164E-02  0.1300439E+00
        -11   -1    0    0    0    0  0.00000000000E+00  0.00000000000E+00  0.45593999997E+02  0.45594000000E+02  0.51100000000E-03 0.  1.
         11   -1    0    0    0    0 -0.00000000000E+00 -0.00000000000E+00 -0.45593999997E+02  0.45594000000E+02  0.51100000000E-03 0. -1.
    9900012    2    1    2    0    0 -0.39287627128E+02 -0.99898220020E+01 -0.31387301187E+01  0.50528858153E+02  0.29999994842E+02 0.  0.
        -12    1    1    2    0    0  0.39287627128E+02  0.99898220020E+01  0.31387301187E+01  0.40659141847E+02  0.00000000000E+00 0.  1.
         11    1    3    3    0    0 -0.27132015990E+02 -0.66044481009E+01 -0.56733622214E+01  0.28494772601E+02  0.51100000000E-03 0. -1.
        -11    1    3    3    0    0  0.40084818125E+01 -0.39908727972E+01  0.13503370811E+01  0.58153591994E+01  0.51100000000E-03 0.  1.
        -12    1    3    3    0    0 -0.16164092950E+02  0.60549889623E+00  0.11842950215E+01  0.16218726353E+02  0.00000000000E+00 0.  1.
</event>
<event>
 7    1  0.1024956E-012  0.5052887E+02  0.7816164E-02  0.1300439E+00
        -11   -1    0    0    0    0  0.00000000000E+00  0.00000000000E+00  0.45593999997E+02  0.45594000000E+02  0.51100000000E-03 0.  1.
         11   -1    0    0    0    0 -0.00000000000E+00 -0.00000000000E+00 -0.45593999997E+02  0.45594000000E+02  0.51100000000E-03 0. -1.
    9900012    2    1    2    0    0 -0.19561950995E+02 -0.40477803533E+01 -0.35413417199E+02  0.50528873470E+02  0.30000041399E+02 0.  0.
        -12    1    1    2    0    0  0.19561950995E+02  0.40477803533E+01  0.35413417199E+02  0.40659126530E+02  0.00000000000E+00 0.  1.
         11    1    3    3    0    0  0.38161103895E+01 -0.48996996151E+00 -0.40577945214E+01  0.55918213229E+01  0.51100000000E-03 0. -1.
        -11    1    3    3    0    0 -0.15033899061E+02 -0.11937801157E+01 -0.32840923455E+02  0.36138199811E+02  0.51100000000E-03 0.  1.
        -12    1    3    3    0    0 -0.83441623237E+01 -0.23640302762E+01  0.14853007781E+01  0.87988523361E+01  0.00000000000E+00 0.  1.
</event>
<event>
 7    1  0.1024956E-012  0.5052886E+02  0.7816164E-02  0.1300439E+00
        -11   -1    0    0    0    0  0.00000000000E+00  0.00000000000E+00  0.45593999997E+02  0.45594000000E+02  0.51100000000E-03 0. -1.
         11   -1    0    0    0    0 -0.00000000000E+00 -0.00000000000E+00 -0.45593999997E+02  0.45594000000E+02  0.51100000000E-03 0.  1.
    9900012    2    1    2    0    0  0.15469332791E+02  0.34771331697E+02  0.14311525986E+02  0.50528861531E+02  0.30000005109E+02 0.  0.
        -12    1    1    2    0    0 -0.15469332791E+02 -0.34771331697E+02 -0.14311525986E+02  0.40659138469E+02  0.00000000000E+00 0.  1.
         11    1    3    3    0    0 -0.66517597546E+01  0.16320738840E+02  0.96405034179E+01  0.20088597028E+02  0.51100000000E-03 0. -1.
        -11    1    3    3    0    0  0.59839043667E+01  0.74042476090E+00  0.18957659069E+01  0.63205434047E+01  0.51100000000E-03 0.  1.
         12    1    3    3    0    0  0.16137188179E+02  0.17710168096E+02  0.27752566615E+01  0.24119721098E+02  0.00000000000E+00 0. -1.
</event>
<event>
 7    1  0.1024956E-012  0.5052889E+02  0.7816164E-02  0.1300439E+00
        -11   -1    0    0    0    0  0.00000000000E+00  0.00000000000E+00  0.45593999997E+02  0.45594000000E+02  0.51100000000E-03 0.  1.
         11   -1    0    0    0    0 -0.00000000000E+00 -0.00000000000E+00 -0.45593999997E+02  0.45594000000E+02  0.51100000000E-03 0. -1.
    9900012    2    1    2    0    0 -0.23124057020E+02  0.28209439083E+02 -0.17962984102E+02  0.50528889529E+02  0.30000090213E+02 0.  0.
        -12    1    1    2    0    0  0.23124057020E+02 -0.28209439083E+02  0.17962984102E+02  0.40659110471E+02  0.00000000000E+00 0.  1.
         11    1    3    3    0    0 -0.71064039856E+01  0.98255799334E+01 -0.87107474421E+01  0.14930509700E+02  0.51100000000E-03 0. -1.
        -11    1    3    3    0    0 -0.10124569896E+02 -0.19573698815E+01 -0.10058630241E+02  0.14405355081E+02  0.51100000000E-03 0.  1.
        -12    1    3    3    0    0 -0.58930831386E+01  0.20341229031E+02  0.80639358184E+00  0.21193024748E+02  0.00000000000E+00 0.  1.
</event>
<event>
 7    1  0.1024956E-012  0.5052886E+02  0.7816164E-02  0.1300439E+00
        -11   -1    0    0    0    0  0.00000000000E+00  0.00000000000E+00  0.45593999997E+02  0.45594000000E+02  0.51100000000E-03 0. -1.
         11   -1    0    0    0    0 -0.00000000000E+00 -0.00000000000E+00 -0.45593999997E+02  0.45594000000E+02  0.51100000000E-03 0.  1.
    9900012    2    1    2    0    0  0.19921083004E+02 -0.26336337003E+02  0.23721581665E+02  0.50528860418E+02  0.30000001727E+02 0.  0.
        -12    1    1    2    0    0 -0.19921083004E+02  0.26336337003E+02 -0.23721581665E+02  0.40659139582E+02  0.00000000000E+00 0.  1.
         11    1    3    3    0    0  0.10001338444E+02  0.27435888222E+01  0.66535063553E+01  0.12321655627E+02  0.51100000000E-03 0. -1.
        -11    1    3    3    0    0  0.79145361133E+01 -0.19138909856E+02  0.30933580360E+01  0.20940549576E+02  0.51100000000E-03 0.  1.
         12    1    3    3    0    0  0.20052084466E+01 -0.99410159697E+01  0.13974717274E+02  0.17266655215E+02  0.00000000000E+00 0. -1.
</event>
<event>
 7    1  0.1024956E-012  0.5052882E+02  0.7816164E-02  0.1300439E+00
        -11   -1    0    0    0    0  0.00000000000E+00  0.00000000000E+00  0.45593999997E+02  0.45594000000E+02  0.51100000000E-03 0.  1.
         11   -1    0    0    0    0 -0.00000000000E+00 -0.00000000000E+00 -0.45593999997E+02  0.45594000000E+02  0.51100000000E-03 0. -1.
    9900012    2    1    2    0    0  0.14783907280E+01  0.36022300922E+02 -0.18798321137E+02  0.50528822924E+02  0.29999887761E+02 0.  0.
        -12    1    1    2    0    0 -0.14783907280E+01 -0.36022300922E+02  0.18798321137E+02  0.40659177076E+02  0.00000000000E+00 0.  1.
         11    1    3    3    0    0  0.35457095590E+01  0.21125855526E+02 -0.22592262398E+02  0.31133328580E+02  0.51100000000E-03 0. -1.
        -11    1    3    3    0    0 -0.62299269096E+01  0.13051670736E+02  0.26870791704E+01  0.14709809415E+02  0.51100000000E-03 0.  1.
         12    1    3    3    0    0  0.41626080787E+01  0.18447746605E+01  0.11068620906E+01  0.46856849288E+01  0.00000000000E+00 0. -1.
</event>
<event>
 7    1  0.1024956E-012  0.5052886E+02  0.7816164E-02  0.1300439E+00
        -11   -1    0    0    0    0  0.00000000000E+00  0.00000000000E+00  0.45593999997E+02  0.45594000000E+02  0.51100000000E-03 0. -1.
         11   -1    0    0    0    0 -0.00000000000E+00 -0.00000000000E+00 -0.45593999997E+02  0.45594000000E+02  0.51100000000E-03 0.  1.
    9900012    2    1    2    0    0  0.28949192014E+01 -0.40498896245E+02 -0.21505281840E+01  0.50528856801E+02  0.29999990732E+02 0.  0.
        -12    1    1    2    0    0 -0.28949192014E+01  0.40498896245E+02  0.21505281840E+01  0.40659143199E+02  0.00000000000E+00 0.  1.
         11    1    3    3    0    0 -0.18960740924E+01 -0.16419261305E+01 -0.89989900185E+01  0.93419933631E+01  0.51100000000E-03 0.  1.
        -11    1    3    3    0    0  0.96984505212E+00 -0.15644597234E+02  0.80706467604E+01  0.17630353412E+02  0.51100000000E-03 0. -1.
         12    1    3    3    0    0  0.38211482417E+01 -0.23212372880E+02 -0.12221849260E+01  0.23556510026E+02  0.00000000000E+00 0. -1.
</event>
<event>
 7    1  0.1024956E-012  0.5052886E+02  0.7816164E-02  0.1300439E+00
        -11   -1    0    0    0    0  0.00000000000E+00  0.00000000000E+00  0.45593999997E+02  0.45594000000E+02  0.51100000000E-03 0. -1.
         11   -1    0    0    0    0 -0.00000000000E+00 -0.00000000000E+00 -0.45593999997E+02  0.45594000000E+02  0.51100000000E-03 0.  1.
    9900012    2    1    2    0    0  0.37241112046E+01  0.40207821387E+02 -0.47568947490E+01  0.50528856470E+02  0.29999989727E+02 0.  0.
        -12    1    1    2    0    0 -0.37241112046E+01 -0.40207821387E+02  0.47568947490E+01  0.40659143530E+02  0.00000000000E+00 0.  1.
         11    1    3    3    0    0  0.96230882254E+00  0.35667337797E+02 -0.11026029296E+02  0.37345124797E+02  0.51100000000E-03 0. -1.
        -11    1    3    3    0    0 -0.74183102455E+00  0.36465130579E+01  0.82574712340E+01  0.90572182369E+01  0.51100000000E-03 0.  1.
         12    1    3    3    0    0  0.35036334067E+01  0.89397053164E+00 -0.19883366874E+01  0.41265134365E+01  0.00000000000E+00 0. -1.
</event>
<event>
 7    1  0.1024956E-012  0.5052885E+02  0.7816164E-02  0.1300439E+00
        -11   -1    0    0    0    0  0.00000000000E+00  0.00000000000E+00  0.45593999997E+02  0.45594000000E+02  0.51100000000E-03 0.  1.
         11   -1    0    0    0    0 -0.00000000000E+00 -0.00000000000E+00 -0.45593999997E+02  0.45594000000E+02  0.51100000000E-03 0. -1.
    9900012    2    1    2    0    0  0.98078395592E+01 -0.82128549832E+01 -0.38594319949E+02  0.50528852983E+02  0.29999979128E+02 0.  0.
        -12    1    1    2    0    0 -0.98078395592E+01  0.82128549832E+01  0.38594319949E+02  0.40659147017E+02  0.00000000000E+00 0.  1.
         11    1    3    3    0    0 -0.32594547867E+01  0.58083991761E+01 -0.26346452458E+02  0.27175303198E+02  0.51100000000E-03 0. -1.
        -11    1    3    3    0    0  0.80099353962E+01 -0.11997154996E+02 -0.85347877130E+01  0.16761067824E+02  0.51100000000E-03 0.  1.
        -12    1    3    3    0    0  0.50573589496E+01 -0.20240991639E+01 -0.37130797777E+01  0.65924819610E+01  0.00000000000E+00 0.  1.
</event>
<event>
 7    1  0.1024956E-012  0.5052887E+02  0.7816164E-02  0.1300439E+00
        -11   -1    0    0    0    0  0.00000000000E+00  0.00000000000E+00  0.45593999997E+02  0.45594000000E+02  0.51100000000E-03 0. -1.
         11   -1    0    0    0    0 -0.00000000000E+00 -0.00000000000E+00 -0.45593999997E+02  0.45594000000E+02  0.51100000000E-03 0.  1.
    9900012    2    1    2    0    0  0.12890493112E+02 -0.18145922264E+02  0.34025371899E+02  0.50528865228E+02  0.30000016348E+02 0.  0.
        -12    1    1    2    0    0 -0.12890493112E+02  0.18145922264E+02 -0.34025371899E+02  0.40659134772E+02  0.00000000000E+00 0.  1.
         11    1    3    3    0    0  0.12234448252E+02 -0.15429152927E+02  0.98538292340E+01  0.22019047094E+02  0.51100000000E-03 0. -1.
        -11    1    3    3    0    0 -0.54728972261E+01  0.32760514982E+01  0.12444353524E+02  0.13983813942E+02  0.51100000000E-03 0.  1.
        -12    1    3    3    0    0  0.61289420862E+01 -0.59928208347E+01  0.11727189141E+02  0.14526004193E+02  0.00000000000E+00 0.  1.
</event>
<event>
 7    1  0.1024956E-012  0.5052886E+02  0.7816164E-02  0.1300439E+00
        -11   -1    0    0    0    0  0.00000000000E+00  0.00000000000E+00  0.45593999997E+02  0.45594000000E+02  0.51100000000E-03 0.  1.
         11   -1    0    0    0    0 -0.00000000000E+00 -0.00000000000E+00 -0.45593999997E+02  0.45594000000E+02  0.51100000000E-03 0. -1.
    9900012    2    1    2    0    0  0.22447318134E+01 -0.31212270543E+02 -0.25959984358E+02  0.50528862759E+02  0.30000008842E+02 0.  0.
        -12    1    1    2    0    0 -0.22447318134E+01  0.31212270543E+02  0.25959984358E+02  0.40659137241E+02  0.00000000000E+00 0.  1.
         11    1    3    3    0    0 -0.95100170577E+01 -0.31706406318E+01 -0.70761280238E+00  0.10049582210E+02  0.51100000000E-03 0. -1.
        -11    1    3    3    0    0  0.57365998617E+01 -0.13875235974E+02 -0.18071480093E+02  0.23494874852E+02  0.51100000000E-03 0.  1.
         12    1    3    3    0    0  0.60181490094E+01 -0.14166393937E+02 -0.71808914623E+01  0.16984405697E+02  0.00000000000E+00 0. -1.
</event>
<event>
 7    1  0.1024956E-012  0.5052887E+02  0.7816164E-02  0.1300439E+00
        -11   -1    0    0    0    0  0.00000000000E+00  0.00000000000E+00  0.45593999997E+02  0.45594000000E+02  0.51100000000E-03 0. -1.
         11   -1    0    0    0    0 -0.00000000000E+00 -0.00000000000E+00 -0.45593999997E+02  0.45594000000E+02  0.51100000000E-03 0.  1.
    9900012    2    1    2    0    0  0.20153719666E+01 -0.15365324938E+02  0.37590025252E+02  0.50528869007E+02  0.30000027834E+02 0.  0.
        -12    1    1    2    0    0 -0.20153719666E+01  0.15365324938E+02 -0.37590025252E+02  0.40659130993E+02  0.00000000000E+00 0.  1.
         11    1    3    3    0    0 -0.82386108886E+00  0.79179381016E+01  0.10216565880E+02  0.12951861238E+02  0.51100000000E-03 0. -1.
        -11    1    3    3    0    0  0.56372030729E+01 -0.11874330306E+02  0.96186701346E+01  0.16287927864E+02  0.51100000000E-03 0.  1.
         12    1    3    3    0    0 -0.27979700174E+01 -0.11408932733E+02  0.17754789238E+02  0.21289079905E+02  0.00000000000E+00 0. -1.
</event>
<event>
 7    1  0.1024956E-012  0.5052886E+02  0.7816164E-02  0.1300439E+00
        -11   -1    0    0    0    0  0.00000000000E+00  0.00000000000E+00  0.45593999997E+02  0.45594000000E+02  0.51100000000E-03 0. -1.
         11   -1    0    0    0    0 -0.00000000000E+00 -0.00000000000E+00 -0.45593999997E+02  0.45594000000E+02  0.51100000000E-03 0.  1.
    9900012    2    1    2    0    0 -0.22196750034E+02 -0.33248784593E+02 -0.74154061154E+01  0.50528860353E+02  0.30000001528E+02 0.  0.
        -12    1    1    2    0    0  0.22196750034E+02  0.33248784593E+02  0.74154061154E+01  0.40659139647E+02  0.00000000000E+00 0.  1.
         11    1    3    3    0    0  0.68420462830E+00 -0.10803040529E+01  0.31612369405E+01  0.34100750835E+01  0.51100000000E-03 0. -1.
        -11    1    3    3    0    0 -0.99469178423E+01 -0.15387714393E+02 -0.16984693143E+02  0.24984049516E+02  0.51100000000E-03 0.  1.
        -12    1    3    3    0    0 -0.12934036820E+02 -0.16780766147E+02  0.64080500870E+01  0.22134735753E+02  0.00000000000E+00 0.  1.
</event>
<event>
 7    1  0.1024956E-012  0.5052884E+02  0.7816164E-02  0.1300439E+00
        -11   -1    0    0    0    0  0.00000000000E+00  0.00000000000E+00  0.45593999997E+02  0.45594000000E+02  0.51100000000E-03 0.  1.
         11   -1    0    0    0    0 -0.00000000000E+00 -0.00000000000E+00 -0.45593999997E+02  0.45594000000E+02  0.51100000000E-03 0. -1.
    9900012    2    1    2    0    0 -0.45927589810E+00  0.40473764273E+02 -0.38511201786E+01  0.50528835530E+02  0.29999926077E+02 0.  0.
        -12    1    1    2    0    0  0.45927589810E+00 -0.40473764273E+02  0.38511201786E+01  0.40659164470E+02  0.00000000000E+00 0.  1.
         11    1    3    3    0    0  0.49917339638E+01  0.11706473671E+02  0.19580351406E+01  0.12876056681E+02  0.51100000000E-03 0. -1.
        -11    1    3    3    0    0 -0.10087116095E+02  0.30593603780E+02 -0.48106590870E+01  0.32570860358E+02  0.51100000000E-03 0.  1.
        -12    1    3    3    0    0  0.46361062331E+01 -0.18263131778E+01 -0.99849623222E+00  0.50819184914E+01  0.00000000000E+00 0.  1.
</event>
<event>
 7    1  0.1024956E-012  0.5052885E+02  0.7816164E-02  0.1300439E+00
        -11   -1    0    0    0    0  0.00000000000E+00  0.00000000000E+00  0.45593999997E+02  0.45594000000E+02  0.51100000000E-03 0.  1.
         11   -1    0    0    0    0 -0.00000000000E+00 -0.00000000000E+00 -0.45593999997E+02  0.45594000000E+02  0.51100000000E-03 0. -1.
    9900012    2    1    2    0    0  0.21744853103E+02  0.30170391634E+02 -0.16433957163E+02  0.50528854462E+02  0.29999983623E+02 0.  0.
        -12    1    1    2    0    0 -0.21744853103E+02 -0.30170391634E+02  0.16433957163E+02  0.40659145538E+02  0.00000000000E+00 0.  1.
         11    1    3    3    0    0  0.19309420656E+02  0.18722762078E+02 -0.48220840246E+01  0.27324861217E+02  0.51100000000E-03 0. -1.
        -11    1    3    3    0    0 -0.69702622606E+00 -0.31360297481E+01  0.13096211338E+01  0.34692414036E+01  0.51100000000E-03 0.  1.
         12    1    3    3    0    0  0.31324586727E+01  0.14583659305E+02 -0.12921494272E+02  0.19734751842E+02  0.00000000000E+00 0. -1.
</event>
<event>
 7    1  0.1024956E-012  0.5052886E+02  0.7816164E-02  0.1300439E+00
        -11   -1    0    0    0    0  0.00000000000E+00  0.00000000000E+00  0.45593999997E+02  0.45594000000E+02  0.51100000000E-03 0.  1.
         11   -1    0    0    0    0 -0.00000000000E+00 -0.00000000000E+00 -0.45593999997E+02  0.45594000000E+02  0.51100000000E-03 0. -1.
    9900012    2    1    2    0    0 -0.50038753591E+01 -0.30825920958E+02 -0.26036311645E+02  0.50528859630E+02  0.29999999333E+02 0.  0.
        -12    1    1    2    0    0  0.50038753591E+01  0.30825920958E+02  0.26036311645E+02  0.40659140370E+02  0.00000000000E+00 0.  1.
         11    1    3    3    0    0  0.98868406303E+01 -0.11242842444E+02 -0.17090716312E+02  0.22720997077E+02  0.51100000000E-03 0. -1.
        -11    1    3    3    0    0 -0.14710798379E+02 -0.20566069098E+02 -0.89039708790E+01  0.26807675856E+02  0.51100000000E-03 0.  1.
        -12    1    3    3    0    0 -0.17991761022E+00  0.98299058412E+00 -0.41624454207E-01  0.10001866976E+01  0.00000000000E+00 0.  1.
</event>
<event>
 7    1  0.1024956E-012  0.5052886E+02  0.7816164E-02  0.1300439E+00
        -11   -1    0    0    0    0  0.00000000000E+00  0.00000000000E+00  0.45593999997E+02  0.45594000000E+02  0.51100000000E-03 0.  1.
         11   -1    0    0    0    0 -0.00000000000E+00 -0.00000000000E+00 -0.45593999997E+02  0.45594000000E+02  0.51100000000E-03 0. -1.
    9900012    2    1    2    0    0 -0.21159389132E+02  0.87319177116E+01 -0.33603560431E+02  0.50528863155E+02  0.30000010045E+02 0.  0.
        -12    1    1    2    0    0  0.21159389132E+02 -0.87319177116E+01  0.33603560431E+02  0.40659136845E+02  0.00000000000E+00 0.  1.
         11    1    3    3    0    0 -0.37339673236E+01 -0.49264939080E+01 -0.18432383857E+02  0.19441338152E+02  0.51100000000E-03 0. -1.
        -11    1    3    3    0    0 -0.13685845136E+02  0.53628763666E+01 -0.16264605983E+02  0.21922595833E+02  0.51100000000E-03 0.  1.
         12    1    3    3    0    0 -0.37395766725E+01  0.82955352531E+01  0.10934294089E+01  0.91649291703E+01  0.00000000000E+00 0. -1.
</event>
<event>
 7    1  0.1024956E-012  0.5052886E+02  0.7816164E-02  0.1300439E+00
        -11   -1    0    0    0    0  0.00000000000E+00  0.00000000000E+00  0.45593999997E+02  0.45594000000E+02  0.51100000000E-03 0. -1.
         11   -1    0    0    0    0 -0.00000000000E+00 -0.00000000000E+00 -0.45593999997E+02  0.45594000000E+02  0.51100000000E-03 0.  1.
    9900012    2    1    2    0    0  0.37926948812E+02 -0.13006081271E+02 -0.67493545269E+01  0.50528863478E+02  0.30000011027E+02 0.  0.
        -12    1    1    2    0    0 -0.37926948812E+02  0.13006081271E+02  0.67493545269E+01  0.40659136522E+02  0.00000000000E+00 0.  1.
         11    1    3    3    0    0  0.15329670592E+02  0.74418583115E+01 -0.79667350595E+01  0.18810872478E+02  0.51100000000E-03 0. -1.
        -11    1    3    3    0    0  0.18487043152E+02 -0.19575146736E+02 -0.10459027385E+01  0.26945334421E+02  0.51100000000E-03 0.  1.
        -12    1    3    3    0    0  0.41102350672E+01 -0.87279284654E+00  0.22632832711E+01  0.47726565795E+01  0.00000000000E+00 0.  1.
</event>
<event>
 7    1  0.1024956E-012  0.5052890E+02  0.7816164E-02  0.1300439E+00
        -11   -1    0    0    0    0  0.00000000000E+00  0.00000000000E+00  0.45593999997E+02  0.45594000000E+02  0.51100000000E-03 0. -1.
         11   -1    0    0    0    0 -0.00000000000E+00 -0.00000000000E+00 -0.45593999997E+02  0.45594000000E+02  0.51100000000E-03 0.  1.
    9900012    2    1    2    0    0 -0.34331188961E+02  0.18926059216E+02  0.10785927956E+02  0.50528898992E+02  0.30000118976E+02 0.  0.
        -12    1    1    2    0    0  0.34331188961E+02 -0.18926059216E+02 -0.10785927956E+02  0.40659101008E+02  0.00000000000E+00 0.  1.
         11    1    3    3    0    0 -0.16528653728E+02  0.81679823371E-01  0.24748363575E+01  0.16713105065E+02  0.51100000000E-03 0. -1.
        -11    1    3    3    0    0 -0.79879401844E+01  0.15886539091E+02  0.13500870919E+02  0.22326281117E+02  0.51100000000E-03 0.  1.
        -12    1    3    3    0    0 -0.98145950479E+01  0.29578403015E+01 -0.51897793207E+01  0.11489512810E+02  0.00000000000E+00 0.  1.
</event>
<event>
 7    1  0.1024956E-012  0.5052886E+02  0.7816164E-02  0.1300439E+00
        -11   -1    0    0    0    0  0.00000000000E+00  0.00000000000E+00  0.45593999997E+02  0.45594000000E+02  0.51100000000E-03 0.  1.
         11   -1    0    0    0    0 -0.00000000000E+00 -0.00000000000E+00 -0.45593999997E+02  0.45594000000E+02  0.51100000000E-03 0. -1.
    9900012    2    1    2    0    0  0.16071954606E+02 -0.11774140342E+02 -0.35443295502E+02  0.50528864475E+02  0.30000014057E+02 0.  0.
        -12    1    1    2    0    0 -0.16071954606E+02  0.11774140342E+02  0.35443295502E+02  0.40659135525E+02  0.00000000000E+00 0.  1.
         11    1    3    3    0    0  0.22413780707E+02 -0.11091313599E+02 -0.36103420075E+02  0.43918694702E+02  0.51100000000E-03 0. -1.
        -11    1    3    3    0    0 -0.37846907476E+01  0.21809843532E-01  0.10536783890E+01  0.39286891112E+01  0.51100000000E-03 0.  1.
         12    1    3    3    0    0 -0.25571353531E+01 -0.70463658671E+00 -0.39355381577E+00  0.26814806618E+01  0.00000000000E+00 0. -1.
</event>
<event>
 7    1  0.1024956E-012  0.5052885E+02  0.7816164E-02  0.1300439E+00
        -11   -1    0    0    0    0  0.00000000000E+00  0.00000000000E+00  0.45593999997E+02  0.45594000000E+02  0.51100000000E-03 0. -1.
         11   -1    0    0    0    0 -0.00000000000E+00 -0.00000000000E+00 -0.45593999997E+02  0.45594000000E+02  0.51100000000E-03 0.  1.
    9900012    2    1    2    0    0  0.36961587485E+02 -0.62510234987E+01  0.15745853685E+02  0.50528854012E+02  0.29999982256E+02 0.  0.
        -12    1    1    2    0    0 -0.36961587485E+02  0.62510234987E+01 -0.15745853685E+02  0.40659145988E+02  0.00000000000E+00 0.  1.
         11    1    3    3    0    0  0.20546685613E+02 -0.42039750862E+01 -0.56381788322E+01  0.21717015380E+02  0.51100000000E-03 0.  1.
        -11    1    3    3    0    0  0.15411745855E+02 -0.29933024062E+01  0.13197281758E+02  0.20509754158E+02  0.51100000000E-03 0. -1.
        -12    1    3    3    0    0  0.10031560165E+01  0.94625399361E+00  0.81867507593E+01  0.83020844737E+01  0.00000000000E+00 0.  1.
</event>
<event>
 7    1  0.1024956E-012  0.5052886E+02  0.7816164E-02  0.1300439E+00
        -11   -1    0    0    0    0  0.00000000000E+00  0.00000000000E+00  0.45593999997E+02  0.45594000000E+02  0.51100000000E-03 0.  1.
         11   -1    0    0    0    0 -0.00000000000E+00 -0.00000000000E+00 -0.45593999997E+02  0.45594000000E+02  0.51100000000E-03 0. -1.
    9900012    2    1    2    0    0  0.30959449701E+02  0.21427223983E-01 -0.26356735036E+02  0.50528862446E+02  0.30000007890E+02 0.  0.
        -12    1    1    2    0    0 -0.30959449701E+02 -0.21427223983E-01  0.26356735036E+02  0.40659137554E+02  0.00000000000E+00 0.  1.
         11    1    3    3    0    0  0.25148417955E+02  0.76740057809E+01 -0.23105826865E+02  0.35003035951E+02  0.51100000000E-03 0. -1.
        -11    1    3    3    0    0 -0.28827088057E+01 -0.17156336370E+01 -0.36928532604E+01  0.49890454297E+01  0.51100000000E-03 0.  1.
         12    1    3    3    0    0  0.86937405515E+01 -0.59369449199E+01  0.44194508953E+00  0.10536781065E+02  0.00000000000E+00 0. -1.
</event>
<event>
 7    1  0.1024956E-012  0.5052887E+02  0.7816164E-02  0.1300439E+00
        -11   -1    0    0    0    0  0.00000000000E+00  0.00000000000E+00  0.45593999997E+02  0.45594000000E+02  0.51100000000E-03 0.  1.
         11   -1    0    0    0    0 -0.00000000000E+00 -0.00000000000E+00 -0.45593999997E+02  0.45594000000E+02  0.51100000000E-03 0. -1.
    9900012    2    1    2    0    0  0.13612322546E+02  0.31187726104E+02 -0.22252975013E+02  0.50528874560E+02  0.30000044711E+02 0.  0.
        -12    1    1    2    0    0 -0.13612322546E+02 -0.31187726104E+02  0.22252975013E+02  0.40659125440E+02  0.00000000000E+00 0.  1.
         11    1    3    3    0    0  0.35486036559E+01  0.16551906530E+02 -0.14517850942E+02  0.22300811508E+02  0.51100000000E-03 0. -1.
        -11    1    3    3    0    0  0.17437109209E+01  0.76884286435E+01  0.65823719916E+01  0.10270349754E+02  0.51100000000E-03 0.  1.
        -12    1    3    3    0    0  0.83200079692E+01  0.69473909301E+01 -0.14317496063E+02  0.17957713297E+02  0.00000000000E+00 0.  1.
</event>
<event>
 7    1  0.1024956E-012  0.5052886E+02  0.7816164E-02  0.1300439E+00
        -11   -1    0    0    0    0  0.00000000000E+00  0.00000000000E+00  0.45593999997E+02  0.45594000000E+02  0.51100000000E-03 0.  1.
         11   -1    0    0    0    0 -0.00000000000E+00 -0.00000000000E+00 -0.45593999997E+02  0.45594000000E+02  0.51100000000E-03 0. -1.
    9900012    2    1    2    0    0 -0.14552599908E+01  0.24637942024E+02 -0.32311293661E+02  0.50528859984E+02  0.30000000406E+02 0.  0.
        -12    1    1    2    0    0  0.14552599908E+01 -0.24637942024E+02  0.32311293661E+02  0.40659140016E+02  0.00000000000E+00 0.  1.
         11    1    3    3    0    0 -0.75294924579E+01  0.23635058848E+02 -0.29248162015E+02  0.38350544259E+02  0.51100000000E-03 0. -1.
        -11    1    3    3    0    0  0.38796901488E+00 -0.38365169382E+01 -0.26910198280E+01  0.47022303378E+01  0.51100000000E-03 0.  1.
        -12    1    3    3    0    0  0.56862634523E+01  0.48394001142E+01 -0.37211181832E+00  0.74760853874E+01  0.00000000000E+00 0.  1.
</event>
<event>
 7    1  0.1024956E-012  0.5052877E+02  0.7816164E-02  0.1300439E+00
        -11   -1    0    0    0    0  0.00000000000E+00  0.00000000000E+00  0.45593999997E+02  0.45594000000E+02  0.51100000000E-03 0. -1.
         11   -1    0    0    0    0 -0.00000000000E+00 -0.00000000000E+00 -0.45593999997E+02  0.45594000000E+02  0.51100000000E-03 0.  1.
    9900012    2    1    2    0    0 -0.17704423244E+02 -0.35032586160E+02  0.10603958187E+02  0.50528774421E+02  0.29999740330E+02 0.  0.
        -12    1    1    2    0    0  0.17704423244E+02  0.35032586160E+02 -0.10603958187E+02  0.40659225579E+02  0.00000000000E+00 0.  1.
         11    1    3    3    0    0 -0.46532043645E+01 -0.49221127576E+01  0.10635773050E+02  0.12609487439E+02  0.51100000000E-03 0. -1.
        -11    1    3    3    0    0 -0.42926767123E+01 -0.16644440931E+02 -0.91243418357E+01  0.19460680909E+02  0.51100000000E-03 0.  1.
        -12    1    3    3    0    0 -0.87585421671E+01 -0.13466032471E+02  0.90925269725E+01  0.18458606073E+02  0.00000000000E+00 0.  1.
</event>
<event>
 7    1  0.1024956E-012  0.5052886E+02  0.7816164E-02  0.1300439E+00
        -11   -1    0    0    0    0  0.00000000000E+00  0.00000000000E+00  0.45593999997E+02  0.45594000000E+02  0.51100000000E-03 0.  1.
         11   -1    0    0    0    0 -0.00000000000E+00 -0.00000000000E+00 -0.45593999997E+02  0.45594000000E+02  0.51100000000E-03 0. -1.
    9900012    2    1    2    0    0  0.50178437255E+01  0.39658885442E+02 -0.74269673101E+01  0.50528858426E+02  0.29999995671E+02 0.  0.
        -12    1    1    2    0    0 -0.50178437255E+01 -0.39658885442E+02  0.74269673101E+01  0.40659141574E+02  0.00000000000E+00 0.  1.
         11    1    3    3    0    0  0.10762306363E+02  0.20711107859E+02 -0.21167018081E+01  0.23436246581E+02  0.51100000000E-03 0. -1.
        -11    1    3    3    0    0 -0.12063194324E+02  0.14371121270E+02 -0.39036851614E+01  0.19164773465E+02  0.51100000000E-03 0.  1.
        -12    1    3    3    0    0  0.63187316864E+01  0.45766563124E+01 -0.14065803406E+01  0.79278383801E+01  0.00000000000E+00 0.  1.
</event>
<event>
 7    1  0.1024956E-012  0.5052885E+02  0.7816164E-02  0.1300439E+00
        -11   -1    0    0    0    0  0.00000000000E+00  0.00000000000E+00  0.45593999997E+02  0.45594000000E+02  0.51100000000E-03 0.  1.
         11   -1    0    0    0    0 -0.00000000000E+00 -0.00000000000E+00 -0.45593999997E+02  0.45594000000E+02  0.51100000000E-03 0. -1.
    9900012    2    1    2    0    0 -0.32091993765E+02 -0.14805954072E+02  0.20101096472E+02  0.50528850732E+02  0.29999972286E+02 0.  0.
        -12    1    1    2    0    0  0.32091993765E+02  0.14805954072E+02 -0.20101096472E+02  0.40659149268E+02  0.00000000000E+00 0.  1.
         11    1    3    3    0    0 -0.69681986793E+01 -0.99238944221E+01 -0.40320104333E+01  0.12778755093E+02  0.51100000000E-03 0. -1.
        -11    1    3    3    0    0 -0.11409360582E+02  0.39624098494E+01  0.14216477943E+02  0.18654287605E+02  0.51100000000E-03 0.  1.
        -12    1    3    3    0    0 -0.13714434503E+02 -0.88444694998E+01  0.99166289626E+01  0.19095808034E+02  0.00000000000E+00 0.  1.
</event>
<event>
 7    1  0.1024956E-012  0.5052886E+02  0.7816164E-02  0.1300439E+00
        -11   -1    0    0    0    0  0.00000000000E+00  0.00000000000E+00  0.45593999997E+02  0.45594000000E+02  0.51100000000E-03 0.  1.
         11   -1    0    0    0    0 -0.00000000000E+00 -0.00000000000E+00 -0.45593999997E+02  0.45594000000E+02  0.51100000000E-03 0. -1.
    9900012    2    1    2    0    0  0.12781140697E+02 -0.62891464542E+01 -0.38082211796E+02  0.50528858642E+02  0.29999996329E+02 0.  0.
        -12    1    1    2    0    0 -0.12781140697E+02  0.62891464542E+01  0.38082211796E+02  0.40659141358E+02  0.00000000000E+00 0.  1.
         11    1    3    3    0    0  0.11883385784E+00 -0.57402260044E+01  0.40362476478E+00  0.57556258808E+01  0.51100000000E-03 0. -1.
        -11    1    3    3    0    0  0.65928767433E+01 -0.70436385220E+01 -0.32874720841E+02  0.34261146187E+02  0.51100000000E-03 0.  1.
        -12    1    3    3    0    0  0.60694300963E+01  0.64947180722E+01 -0.56111157197E+01  0.10512086575E+02  0.00000000000E+00 0.  1.
</event>
<event>
 7    1  0.1024956E-012  0.5052885E+02  0.7816164E-02  0.1300439E+00
        -11   -1    0    0    0    0  0.00000000000E+00  0.00000000000E+00  0.45593999997E+02  0.45594000000E+02  0.51100000000E-03 0.  1.
         11   -1    0    0    0    0 -0.00000000000E+00 -0.00000000000E+00 -0.45593999997E+02  0.45594000000E+02  0.51100000000E-03 0. -1.
    9900012    2    1    2    0    0 -0.20605182092E+02  0.15420764154E+02 -0.31476858407E+02  0.50528854518E+02  0.29999983793E+02 0.  0.
        -12    1    1    2    0    0  0.20605182092E+02 -0.15420764154E+02  0.31476858407E+02  0.40659145482E+02  0.00000000000E+00 0.  1.
         11    1    3    3    0    0 -0.15222390050E+02 -0.37544765514E+01 -0.18916353747E+02  0.24569202111E+02  0.51100000000E-03 0. -1.
        -11    1    3    3    0    0 -0.81695427206E+01  0.10585936395E+02 -0.95841070457E+01  0.16451704646E+02  0.51100000000E-03 0.  1.
         12    1    3    3    0    0  0.27867506783E+01  0.85893043105E+01 -0.29763976143E+01  0.95079477617E+01  0.00000000000E+00 0. -1.
</event>
<event>
 7    1  0.1024956E-012  0.5052886E+02  0.7816164E-02  0.1300439E+00
        -11   -1    0    0    0    0  0.00000000000E+00  0.00000000000E+00  0.45593999997E+02  0.45594000000E+02  0.51100000000E-03 0.  1.
         11   -1    0    0    0    0 -0.00000000000E+00 -0.00000000000E+00 -0.45593999997E+02  0.45594000000E+02  0.51100000000E-03 0. -1.
    9900012    2    1    2    0    0 -0.21010818231E+02  0.31645272717E+02 -0.14501304429E+02  0.50528860828E+02  0.30000002972E+02 0.  0.
        -12    1    1    2    0    0  0.21010818231E+02 -0.31645272717E+02  0.14501304429E+02  0.40659139172E+02  0.00000000000E+00 0.  1.
         11    1    3    3    0    0 -0.16865086259E+02  0.13812932382E+02 -0.13903199060E+02  0.25855892557E+02  0.51100000000E-03 0. -1.
        -11    1    3    3    0    0  0.38852043690E+01  0.15084531728E+02 -0.29750955296E+01  0.15858407994E+02  0.51100000000E-03 0.  1.
         12    1    3    3    0    0 -0.80309363412E+01  0.27478086065E+01  0.23769901604E+01  0.88145602770E+01  0.00000000000E+00 0. -1.
</event>
<event>
 7    1  0.1024956E-012  0.5052886E+02  0.7816164E-02  0.1300439E+00
        -11   -1    0    0    0    0  0.00000000000E+00  0.00000000000E+00  0.45593999997E+02  0.45594000000E+02  0.51100000000E-03 0.  1.
         11   -1    0    0    0    0 -0.00000000000E+00 -0.00000000000E+00 -0.45593999997E+02  0.45594000000E+02  0.51100000000E-03 0. -1.
    9900012    2    1    2    0    0  0.39481478986E+02  0.47809966488E+01  0.84569602201E+01  0.50528864642E+02  0.30000014565E+02 0.  0.
        -12    1    1    2    0    0 -0.39481478986E+02 -0.47809966488E+01 -0.84569602201E+01  0.40659135358E+02  0.00000000000E+00 0.  1.
         11    1    3    3    0    0  0.38521620835E+02  0.27890072179E+01  0.54691716421E+01  0.39007764249E+02  0.51100000000E-03 0. -1.
        -11    1    3    3    0    0  0.16402592180E+01  0.57502674128E+01  0.44264877295E+01  0.74397459299E+01  0.51100000000E-03 0.  1.
         12    1    3    3    0    0 -0.68040106662E+00 -0.37582779820E+01 -0.14386991515E+01  0.40813544627E+01  0.00000000000E+00 0. -1.
</event>
<event>
 7    1  0.1024956E-012  0.5052886E+02  0.7816164E-02  0.1300439E+00
        -11   -1    0    0    0    0  0.00000000000E+00  0.00000000000E+00  0.45593999997E+02  0.45594000000E+02  0.51100000000E-03 0.  1.
         11   -1    0    0    0    0 -0.00000000000E+00 -0.00000000000E+00 -0.45593999997E+02  0.45594000000E+02  0.51100000000E-03 0. -1.
    9900012    2    1    2    0    0 -0.10964673716E+02 -0.12075549692E+02 -0.37244098683E+02  0.50528857648E+02  0.29999993307E+02 0.  0.
        -12    1    1    2    0    0  0.10964673716E+02  0.12075549692E+02  0.37244098683E+02  0.40659142352E+02  0.00000000000E+00 0.  1.
         11    1    3    3    0    0 -0.96602737662E+01 -0.45883154782E+01 -0.39152341945E+02  0.40586690038E+02  0.51100000000E-03 0. -1.
        -11    1    3    3    0    0  0.20350114632E+01 -0.16454126225E+01  0.18642135471E+01  0.32130899091E+01  0.51100000000E-03 0.  1.
         12    1    3    3    0    0 -0.33394114133E+01 -0.58418215914E+01  0.44029715176E-01  0.67290777012E+01  0.00000000000E+00 0. -1.
</event>
<event>
 7    1  0.1024956E-012  0.5052886E+02  0.7816164E-02  0.1300439E+00
        -11   -1    0    0    0    0  0.00000000000E+00  0.00000000000E+00  0.45593999997E+02  0.45594000000E+02  0.51100000000E-03 0. -1.
         11   -1    0    0    0    0 -0.00000000000E+00 -0.00000000000E+00 -0.45593999997E+02  0.45594000000E+02  0.51100000000E-03 0.  1.
    9900012    2    1    2    0    0 -0.17325985048E+02 -0.32011476095E+02  0.18117431934E+02  0.50528859582E+02  0.29999999184E+02 0.  0.
        -12    1    1    2    0    0  0.17325985048E+02  0.32011476095E+02 -0.18117431934E+02  0.40659140418E+02  0.00000000000E+00 0.  1.
         11    1    3    3    0    0 -0.69577893313E+01 -0.30559097228E+02  0.20372011349E+02  0.37380317046E+02  0.51100000000E-03 0. -1.
        -11    1    3    3    0    0  0.35085388414E+00 -0.19922733104E+01  0.46716132227E+00  0.20761722841E+01  0.51100000000E-03 0.  1.
         12    1    3    3    0    0 -0.10719049601E+02  0.53989444317E+00 -0.27217407369E+01  0.11072370252E+02  0.00000000000E+00 0. -1.
</event>
<event>
 7    1  0.1024956E-012  0.5052886E+02  0.7816164E-02  0.1300439E+00
        -11   -1    0    0    0    0  0.00000000000E+00  0.00000000000E+00  0.45593999997E+02  0.45594000000E+02  0.51100000000E-03 0.  1.
         11   -1    0    0    0    0 -0.00000000000E+00 -0.00000000000E+00 -0.45593999997E+02  0.45594000000E+02  0.51100000000E-03 0. -1.
    9900012    2    1    2    0    0  0.16296599093E+02  0.11683693308E+02 -0.35370582730E+02  0.50528856453E+02  0.29999989675E+02 0.  0.
        -12    1    1    2    0    0 -0.16296599093E+02 -0.11683693308E+02  0.35370582730E+02  0.40659143547E+02  0.00000000000E+00 0.  1.
         11    1    3    3    0    0  0.37527125380E+01  0.88708718496E+00  0.40863557563E+01  0.56185477389E+01  0.51100000000E-03 0. -1.
        -11    1    3    3    0    0  0.78589145215E+00  0.52716161575E+01 -0.24616331652E+02  0.25186729572E+02  0.51100000000E-03 0.  1.
        -12    1    3    3    0    0  0.11757995103E+02  0.55249899657E+01 -0.14840606834E+02  0.19723579142E+02  0.00000000000E+00 0.  1.
</event>
<event>
 7    1  0.1024956E-012  0.5052886E+02  0.7816164E-02  0.1300439E+00
        -11   -1    0    0    0    0  0.00000000000E+00  0.00000000000E+00  0.45593999997E+02  0.45594000000E+02  0.51100000000E-03 0.  1.
         11   -1    0    0    0    0 -0.00000000000E+00 -0.00000000000E+00 -0.45593999997E+02  0.45594000000E+02  0.51100000000E-03 0. -1.
    9900012    2    1    2    0    0  0.13166409197E+02  0.61087263879E+01 -0.37980190568E+02  0.50528859025E+02  0.29999997494E+02 0.  0.
        -12    1    1    2    0    0 -0.13166409197E+02 -0.61087263879E+01  0.37980190568E+02  0.40659140975E+02  0.00000000000E+00 0.  1.
         11    1    3    3    0    0  0.98449965919E+01 -0.35058704136E+01 -0.26741906168E+02  0.28711402456E+02  0.51100000000E-03 0. -1.
        -11    1    3    3    0    0  0.15332789081E+01  0.21276006933E+01  0.39781624243E+01  0.47648090681E+01  0.51100000000E-03 0.  1.
        -12    1    3    3    0    0  0.17881336965E+01  0.74869961081E+01 -0.15216446824E+02  0.17052647501E+02  0.00000000000E+00 0.  1.
</event>
<event>
 7    1  0.1024956E-012  0.5052887E+02  0.7816164E-02  0.1300439E+00
        -11   -1    0    0    0    0  0.00000000000E+00  0.00000000000E+00  0.45593999997E+02  0.45594000000E+02  0.51100000000E-03 0. -1.
         11   -1    0    0    0    0 -0.00000000000E+00 -0.00000000000E+00 -0.45593999997E+02  0.45594000000E+02  0.51100000000E-03 0.  1.
    9900012    2    1    2    0    0  0.64544125548E+01  0.37884182899E+02 -0.13277571441E+02  0.50528872381E+02  0.30000038090E+02 0.  0.
        -12    1    1    2    0    0 -0.64544125548E+01 -0.37884182899E+02  0.13277571441E+02  0.40659127619E+02  0.00000000000E+00 0.  1.
         11    1    3    3    0    0  0.40738304031E+01  0.95314366753E+01  0.49673869237E+01  0.11494316524E+02  0.51100000000E-03 0. -1.
        -11    1    3    3    0    0 -0.81022166217E+01  0.79345903480E+01 -0.81251206363E+01  0.13950671088E+02  0.51100000000E-03 0.  1.
        -12    1    3    3    0    0  0.10482798773E+02  0.20418155876E+02 -0.10119837728E+02  0.25083884770E+02  0.00000000000E+00 0.  1.
</event>
<event>
 7    1  0.1024956E-012  0.5052886E+02  0.7816164E-02  0.1300439E+00
        -11   -1    0    0    0    0  0.00000000000E+00  0.00000000000E+00  0.45593999997E+02  0.45594000000E+02  0.51100000000E-03 0.  1.
         11   -1    0    0    0    0 -0.00000000000E+00 -0.00000000000E+00 -0.45593999997E+02  0.45594000000E+02  0.51100000000E-03 0. -1.
    9900012    2    1    2    0    0 -0.33054829553E+02  0.14470855561E+02 -0.18738687140E+02  0.50528858184E+02  0.29999994937E+02 0.  0.
        -12    1    1    2    0    0  0.33054829553E+02 -0.14470855561E+02  0.18738687140E+02  0.40659141816E+02  0.00000000000E+00 0.  1.
         11    1    3    3    0    0 -0.31084374829E+02  0.13095385488E+02 -0.13162159720E+02  0.36207318712E+02  0.51100000000E-03 0. -1.
        -11    1    3    3    0    0  0.19156774769E+01 -0.14314539293E+01  0.33931536077E+01  0.41511892529E+01  0.51100000000E-03 0.  1.
         12    1    3    3    0    0 -0.38861322016E+01  0.28069240018E+01 -0.89696810274E+01  0.10170350219E+02  0.00000000000E+00 0. -1.
</event>
<event>
 7    1  0.1024956E-012  0.5052888E+02  0.7816164E-02  0.1300439E+00
        -11   -1    0    0    0    0  0.00000000000E+00  0.00000000000E+00  0.45593999997E+02  0.45594000000E+02  0.51100000000E-03 0.  1.
         11   -1    0    0    0    0 -0.00000000000E+00 -0.00000000000E+00 -0.45593999997E+02  0.45594000000E+02  0.51100000000E-03 0. -1.
    9900012    2    1    2    0    0 -0.22227445351E+02  0.27978175069E+02 -0.19399134843E+02  0.50528879994E+02  0.30000061229E+02 0.  0.
        -12    1    1    2    0    0  0.22227445351E+02 -0.27978175069E+02  0.19399134843E+02  0.40659120006E+02  0.00000000000E+00 0.  1.
         11    1    3    3    0    0 -0.28473545015E+02  0.21659696046E+02 -0.20208126823E+02  0.41088363176E+02  0.51100000000E-03 0. -1.
        -11    1    3    3    0    0  0.60786669413E+01  0.61664151998E+01  0.60938336886E-01  0.86590173774E+01  0.51100000000E-03 0.  1.
         12    1    3    3    0    0  0.16743272268E+00  0.15206382286E+00  0.74805364289E+00  0.78149944050E+00  0.00000000000E+00 0. -1.
</event>
<event>
 7    1  0.1024956E-012  0.5052886E+02  0.7816164E-02  0.1300439E+00
        -11   -1    0    0    0    0  0.00000000000E+00  0.00000000000E+00  0.45593999997E+02  0.45594000000E+02  0.51100000000E-03 0.  1.
         11   -1    0    0    0    0 -0.00000000000E+00 -0.00000000000E+00 -0.45593999997E+02  0.45594000000E+02  0.51100000000E-03 0. -1.
    9900012    2    1    2    0    0  0.23829316714E+02 -0.11004390235E+02 -0.31052096266E+02  0.50528860535E+02  0.30000002083E+02 0.  0.
        -12    1    1    2    0    0 -0.23829316714E+02  0.11004390235E+02  0.31052096266E+02  0.40659139465E+02  0.00000000000E+00 0.  1.
         11    1    3    3    0    0  0.39837041608E+00  0.11026444689E+01 -0.53925663693E+01  0.55185411226E+01  0.51100000000E-03 0. -1.
        -11    1    3    3    0    0  0.27474969382E+02 -0.38054770878E+01 -0.19666072892E+02  0.34001617927E+02  0.51100000000E-03 0.  1.
        -12    1    3    3    0    0 -0.40440230833E+01 -0.83015576156E+01 -0.59934570043E+01  0.11008701486E+02  0.00000000000E+00 0.  1.
</event>
<event>
 7    1  0.1024956E-012  0.5052886E+02  0.7816164E-02  0.1300439E+00
        -11   -1    0    0    0    0  0.00000000000E+00  0.00000000000E+00  0.45593999997E+02  0.45594000000E+02  0.51100000000E-03 0.  1.
         11   -1    0    0    0    0 -0.00000000000E+00 -0.00000000000E+00 -0.45593999997E+02  0.45594000000E+02  0.51100000000E-03 0. -1.
    9900012    2    1    2    0    0  0.20227688725E+02 -0.27989014186E+02 -0.21462093303E+02  0.50528858897E+02  0.29999997104E+02 0.  0.
        -12    1    1    2    0    0 -0.20227688725E+02  0.27989014186E+02  0.21462093303E+02  0.40659141103E+02  0.00000000000E+00 0.  1.
         11    1    3    3    0    0 -0.48474973396E+00 -0.12332757079E+02 -0.22671354923E+00  0.12344362226E+02  0.51100000000E-03 0. -1.
        -11    1    3    3    0    0  0.17275425332E+02 -0.10152220465E+02 -0.49298430639E+01  0.20635194539E+02  0.51100000000E-03 0.  1.
         12    1    3    3    0    0  0.34370131271E+01 -0.55040366422E+01 -0.16305536690E+02  0.17549302133E+02  0.00000000000E+00 0. -1.
</event>
<event>
 7    1  0.1024956E-012  0.5052885E+02  0.7816164E-02  0.1300439E+00
        -11   -1    0    0    0    0  0.00000000000E+00  0.00000000000E+00  0.45593999997E+02  0.45594000000E+02  0.51100000000E-03 0. -1.
         11   -1    0    0    0    0 -0.00000000000E+00 -0.00000000000E+00 -0.45593999997E+02  0.45594000000E+02  0.51100000000E-03 0.  1.
    9900012    2    1    2    0    0 -0.55741144540E+01 -0.37419825598E+02 -0.14894696229E+02  0.50528854959E+02  0.29999985134E+02 0.  0.
        -12    1    1    2    0    0  0.55741144540E+01  0.37419825598E+02  0.14894696229E+02  0.40659145041E+02  0.00000000000E+00 0.  1.
         11    1    3    3    0    0 -0.23271150094E+01 -0.28663788862E+01  0.74662287989E+01  0.83292355546E+01  0.51100000000E-03 0. -1.
        -11    1    3    3    0    0  0.21492715793E+01 -0.22238991374E+02 -0.13831582912E+02  0.26277457864E+02  0.51100000000E-03 0.  1.
         12    1    3    3    0    0 -0.53962710239E+01 -0.12314455337E+02 -0.85293421156E+01  0.15922161541E+02  0.00000000000E+00 0. -1.
</event>
<event>
 7    1  0.1024956E-012  0.5052886E+02  0.7816164E-02  0.1300439E+00
        -11   -1    0    0    0    0  0.00000000000E+00  0.00000000000E+00  0.45593999997E+02  0.45594000000E+02  0.51100000000E-03 0. -1.
         11   -1    0    0    0    0 -0.00000000000E+00 -0.00000000000E+00 -0.45593999997E+02  0.45594000000E+02  0.51100000000E-03 0.  1.
    9900012    2    1    2    0    0  0.34334170763E+02  0.21629618799E+02 -0.25475657648E+01  0.50528858559E+02  0.29999996077E+02 0.  0.
        -12    1    1    2    0    0 -0.34334170763E+02 -0.21629618799E+02  0.25475657648E+01  0.40659141441E+02  0.00000000000E+00 0.  1.
         11    1    3    3    0    0  0.16796225764E+02  0.47797280461E+01  0.75731037581E+01  0.19034466131E+02  0.51100000000E-03 0. -1.
        -11    1    3    3    0    0 -0.17595856906E+01  0.41764878540E+01 -0.67970200161E+01  0.81693741472E+01  0.51100000000E-03 0.  1.
         12    1    3    3    0    0  0.19297530689E+02  0.12673402899E+02 -0.33236495068E+01  0.23325018281E+02  0.00000000000E+00 0. -1.
</event>
<event>
 7    1  0.1024956E-012  0.5052885E+02  0.7816164E-02  0.1300439E+00
        -11   -1    0    0    0    0  0.00000000000E+00  0.00000000000E+00  0.45593999997E+02  0.45594000000E+02  0.51100000000E-03 0.  1.
         11   -1    0    0    0    0 -0.00000000000E+00 -0.00000000000E+00 -0.45593999997E+02  0.45594000000E+02  0.51100000000E-03 0. -1.
    9900012    2    1    2    0    0  0.31170064736E+02 -0.23933564040E+02 -0.10429652868E+02  0.50528854876E+02  0.29999984881E+02 0.  0.
        -12    1    1    2    0    0 -0.31170064736E+02  0.23933564040E+02  0.10429652868E+02  0.40659145124E+02  0.00000000000E+00 0.  1.
         11    1    3    3    0    0  0.80316532628E+01  0.39099761680E+01 -0.47297537138E+01  0.10107716766E+02  0.51100000000E-03 0.  1.
        -11    1    3    3    0    0  0.25421215761E+02 -0.23993114737E+02 -0.72203088373E+01  0.35693705685E+02  0.51100000000E-03 0. -1.
         12    1    3    3    0    0 -0.22828042887E+01 -0.38504254708E+01  0.15204096832E+01  0.47274324248E+01  0.00000000000E+00 0. -1.
</event>
<event>
 7    1  0.1024956E-012  0.5052883E+02  0.7816164E-02  0.1300439E+00
        -11   -1    0    0    0    0  0.00000000000E+00  0.00000000000E+00  0.45593999997E+02  0.45594000000E+02  0.51100000000E-03 0.  1.
         11   -1    0    0    0    0 -0.00000000000E+00 -0.00000000000E+00 -0.45593999997E+02  0.45594000000E+02  0.51100000000E-03 0. -1.
    9900012    2    1    2    0    0 -0.20972111701E+02  0.32064973845E+02 -0.13607927981E+02  0.50528834726E+02  0.29999923632E+02 0.  0.
        -12    1    1    2    0    0  0.20972111701E+02 -0.32064973845E+02  0.13607927981E+02  0.40659165274E+02  0.00000000000E+00 0.  1.
         11    1    3    3    0    0 -0.18796242754E+02  0.12266465091E+02 -0.15577310966E+02  0.27320642831E+02  0.51100000000E-03 0. -1.
        -11    1    3    3    0    0  0.32132490177E+01  0.12331756414E+02  0.47329153024E+01  0.13594030786E+02  0.51100000000E-03 0.  1.
         12    1    3    3    0    0 -0.53891179646E+01  0.74667523396E+01 -0.27635323175E+01  0.96141611078E+01  0.00000000000E+00 0. -1.
</event>
<event>
 7    1  0.1024956E-012  0.5052886E+02  0.7816164E-02  0.1300439E+00
        -11   -1    0    0    0    0  0.00000000000E+00  0.00000000000E+00  0.45593999997E+02  0.45594000000E+02  0.51100000000E-03 0.  1.
         11   -1    0    0    0    0 -0.00000000000E+00 -0.00000000000E+00 -0.45593999997E+02  0.45594000000E+02  0.51100000000E-03 0. -1.
    9900012    2    1    2    0    0  0.28840313273E+02  0.20327474505E+02 -0.20203853010E+02  0.50528861226E+02  0.30000004182E+02 0.  0.
        -12    1    1    2    0    0 -0.28840313273E+02 -0.20327474505E+02  0.20203853010E+02  0.40659138774E+02  0.00000000000E+00 0.  1.
         11    1    3    3    0    0  0.93490538316E+01  0.10395442150E+02 -0.19296424734E+02  0.23829016614E+02  0.51100000000E-03 0. -1.
        -11    1    3    3    0    0  0.11868980043E+02  0.56117700238E+01  0.70169503494E+01  0.14886310575E+02  0.51100000000E-03 0.  1.
        -12    1    3    3    0    0  0.76222793985E+01  0.43202623303E+01 -0.79243786256E+01  0.11813534037E+02  0.00000000000E+00 0.  1.
</event>
<event>
 7    1  0.1024956E-012  0.5052886E+02  0.7816164E-02  0.1300439E+00
        -11   -1    0    0    0    0  0.00000000000E+00  0.00000000000E+00  0.45593999997E+02  0.45594000000E+02  0.51100000000E-03 0.  1.
         11   -1    0    0    0    0 -0.00000000000E+00 -0.00000000000E+00 -0.45593999997E+02  0.45594000000E+02  0.51100000000E-03 0. -1.
    9900012    2    1    2    0    0  0.15516252503E+02  0.49025792439E+01 -0.37260917548E+02  0.50528863862E+02  0.30000012195E+02 0.  0.
        -12    1    1    2    0    0 -0.15516252503E+02 -0.49025792439E+01  0.37260917548E+02  0.40659136138E+02  0.00000000000E+00 0.  1.
         11    1    3    3    0    0 -0.59822707673E+01 -0.74041007013E+00 -0.63359634487E+01  0.87452960893E+01  0.51100000000E-03 0. -1.
        -11    1    3    3    0    0  0.16500767416E+02  0.11712881750E+02 -0.22365347804E+02  0.30160830673E+02  0.51100000000E-03 0.  1.
        -12    1    3    3    0    0  0.49977558545E+01 -0.60698924364E+01 -0.85596062949E+01  0.11622737100E+02  0.00000000000E+00 0.  1.
</event>
<event>
 7    1  0.1024956E-012  0.5052886E+02  0.7816164E-02  0.1300439E+00
        -11   -1    0    0    0    0  0.00000000000E+00  0.00000000000E+00  0.45593999997E+02  0.45594000000E+02  0.51100000000E-03 0. -1.
         11   -1    0    0    0    0 -0.00000000000E+00 -0.00000000000E+00 -0.45593999997E+02  0.45594000000E+02  0.51100000000E-03 0.  1.
    9900012    2    1    2    0    0 -0.71914578937E+01  0.10296779246E+02  0.38670724393E+02  0.50528860135E+02  0.30000000865E+02 0.  0.
        -12    1    1    2    0    0  0.71914578937E+01 -0.10296779246E+02 -0.38670724393E+02  0.40659139865E+02  0.00000000000E+00 0.  1.
         11    1    3    3    0    0  0.77716487336E+01  0.79896855114E+01  0.24155157253E+02  0.26602729574E+02  0.51100000000E-03 0.  1.
        -11    1    3    3    0    0 -0.14496158012E+02  0.29428253216E+01  0.69916698555E+01  0.16360998307E+02  0.51100000000E-03 0. -1.
         12    1    3    3    0    0 -0.46694861562E+00 -0.63573158714E+00  0.75238972853E+01  0.75651322540E+01  0.00000000000E+00 0. -1.
</event>
<event>
 7    1  0.1024956E-012  0.5052887E+02  0.7816164E-02  0.1300439E+00
        -11   -1    0    0    0    0  0.00000000000E+00  0.00000000000E+00  0.45593999997E+02  0.45594000000E+02  0.51100000000E-03 0.  1.
         11   -1    0    0    0    0 -0.00000000000E+00 -0.00000000000E+00 -0.45593999997E+02  0.45594000000E+02  0.51100000000E-03 0. -1.
    9900012    2    1    2    0    0 -0.11084212847E+02  0.21094211017E+02 -0.32944494540E+02  0.50528865315E+02  0.30000016610E+02 0.  0.
        -12    1    1    2    0    0  0.11084212847E+02 -0.21094211017E+02  0.32944494540E+02  0.40659134685E+02  0.00000000000E+00 0.  1.
         11    1    3    3    0    0 -0.20916224881E+01 -0.34777922573E+01 -0.19972231153E+02  0.20380381280E+02  0.51100000000E-03 0. -1.
        -11    1    3    3    0    0 -0.37792223937E+01  0.19766375896E+02 -0.95512573875E+01  0.22275965880E+02  0.51100000000E-03 0.  1.
        -12    1    3    3    0    0 -0.52133679656E+01  0.48056273781E+01 -0.34210059997E+01  0.78725181545E+01  0.00000000000E+00 0.  1.
</event>
<event>
 7    1  0.1024956E-012  0.5052886E+02  0.7816164E-02  0.1300439E+00
        -11   -1    0    0    0    0  0.00000000000E+00  0.00000000000E+00  0.45593999997E+02  0.45594000000E+02  0.51100000000E-03 0. -1.
         11   -1    0    0    0    0 -0.00000000000E+00 -0.00000000000E+00 -0.45593999997E+02  0.45594000000E+02  0.51100000000E-03 0.  1.
    9900012    2    1    2    0    0  0.12076480382E+02  0.18112312785E+02  0.34340476620E+02  0.50528860962E+02  0.30000003379E+02 0.  0.
        -12    1    1    2    0    0 -0.12076480382E+02 -0.18112312785E+02 -0.34340476620E+02  0.40659139038E+02  0.00000000000E+00 0.  1.
         11    1    3    3    0    0  0.65335246641E+01 -0.27105796638E+01  0.41576462989E+01  0.82048893751E+01  0.51100000000E-03 0. -1.
        -11    1    3    3    0    0  0.40252675966E+01  0.24791050185E+02  0.27750585455E+02  0.37428517762E+02  0.51100000000E-03 0.  1.
        -12    1    3    3    0    0  0.15176881208E+01 -0.39681577364E+01  0.24322448663E+01  0.48954538240E+01  0.00000000000E+00 0.  1.
</event>
<event>
 7    1  0.1024956E-012  0.5052886E+02  0.7816164E-02  0.1300439E+00
        -11   -1    0    0    0    0  0.00000000000E+00  0.00000000000E+00  0.45593999997E+02  0.45594000000E+02  0.51100000000E-03 0. -1.
         11   -1    0    0    0    0 -0.00000000000E+00 -0.00000000000E+00 -0.45593999997E+02  0.45594000000E+02  0.51100000000E-03 0.  1.
    9900012    2    1    2    0    0 -0.12394148204E+02  0.15113739804E+02  0.35652848907E+02  0.50528859875E+02  0.30000000076E+02 0.  0.
        -12    1    1    2    0    0  0.12394148204E+02 -0.15113739804E+02 -0.35652848907E+02  0.40659140125E+02  0.00000000000E+00 0.  1.
         11    1    3    3    0    0 -0.12880477906E+02  0.11931704234E+02  0.27364425898E+02  0.32512829498E+02  0.51100000000E-03 0. -1.
        -11    1    3    3    0    0  0.61711634987E+01 -0.35029875665E+00 -0.13062689142E+01  0.63176187669E+01  0.51100000000E-03 0.  1.
        -12    1    3    3    0    0 -0.56848337968E+01  0.35323343265E+01  0.95946919229E+01  0.11698411610E+02  0.00000000000E+00 0.  1.
</event>
<event>
 7    1  0.1024956E-012  0.5052885E+02  0.7816164E-02  0.1300439E+00
        -11   -1    0    0    0    0  0.00000000000E+00  0.00000000000E+00  0.45593999997E+02  0.45594000000E+02  0.51100000000E-03 0. -1.
         11   -1    0    0    0    0 -0.00000000000E+00 -0.00000000000E+00 -0.45593999997E+02  0.45594000000E+02  0.51100000000E-03 0.  1.
    9900012    2    1    2    0    0 -0.37899979869E+02  0.76912242794E+00  0.14702593170E+02  0.50528852575E+02  0.29999977888E+02 0.  0.
        -12    1    1    2    0    0  0.37899979869E+02 -0.76912242794E+00 -0.14702593170E+02  0.40659147425E+02  0.00000000000E+00 0.  1.
         11    1    3    3    0    0 -0.83276429278E+01  0.76503679563E+01  0.26293750628E+01  0.11609968996E+02  0.51100000000E-03 0. -1.
        -11    1    3    3    0    0 -0.15963680704E+02 -0.12919677034E+02  0.13694420595E+01  0.20582335341E+02  0.51100000000E-03 0.  1.
        -12    1    3    3    0    0 -0.13608656237E+02  0.60384315053E+01  0.10703776048E+02  0.18336548238E+02  0.00000000000E+00 0.  1.
</event>
<event>
 7    1  0.1024956E-012  0.5052884E+02  0.7816164E-02  0.1300439E+00
        -11   -1    0    0    0    0  0.00000000000E+00  0.00000000000E+00  0.45593999997E+02  0.45594000000E+02  0.51100000000E-03 0.  1.
         11   -1    0    0    0    0 -0.00000000000E+00 -0.00000000000E+00 -0.45593999997E+02  0.45594000000E+02  0.51100000000E-03 0. -1.
    9900012    2    1    2    0    0 -0.26577554147E+02 -0.28168131484E+02 -0.12383749611E+02  0.50528840267E+02  0.29999940477E+02 0.  0.
        -12    1    1    2    0    0  0.26577554147E+02  0.28168131484E+02  0.12383749611E+02  0.40659159733E+02  0.00000000000E+00 0.  1.
         11    1    3    3    0    0 -0.88534526640E+01 -0.26588271419E+02 -0.92820661532E+01  0.29520781721E+02  0.51100000000E-03 0. -1.
        -11    1    3    3    0    0 -0.78390417176E+01 -0.35196031518E+01  0.31501705596E+01  0.91521448968E+01  0.51100000000E-03 0.  1.
         12    1    3    3    0    0 -0.98850597652E+01  0.19397430865E+01 -0.62518540173E+01  0.11855913649E+02  0.00000000000E+00 0. -1.
</event>
<event>
 7    1  0.1024956E-012  0.5052884E+02  0.7816164E-02  0.1300439E+00
        -11   -1    0    0    0    0  0.00000000000E+00  0.00000000000E+00  0.45593999997E+02  0.45594000000E+02  0.51100000000E-03 0.  1.
         11   -1    0    0    0    0 -0.00000000000E+00 -0.00000000000E+00 -0.45593999997E+02  0.45594000000E+02  0.51100000000E-03 0. -1.
    9900012    2    1    2    0    0  0.22055612903E+01  0.20120995078E+02 -0.35262559009E+02  0.50528843449E+02  0.29999950148E+02 0.  0.
        -12    1    1    2    0    0 -0.22055612903E+01 -0.20120995078E+02  0.35262559009E+02  0.40659156551E+02  0.00000000000E+00 0.  1.
         11    1    3    3    0    0  0.21370487148E+01  0.18851342930E+01  0.29099346105E+01  0.40728894179E+01  0.51100000000E-03 0.  1.
        -11    1    3    3    0    0  0.20789795294E+01  0.15996413252E+02 -0.39863748518E+02  0.43003788659E+02  0.51100000000E-03 0. -1.
         12    1    3    3    0    0 -0.20104669538E+01  0.22394475337E+01  0.16912548986E+01  0.34521653727E+01  0.00000000000E+00 0. -1.
</event>
<event>
 7    1  0.1024956E-012  0.5052888E+02  0.7816164E-02  0.1300439E+00
        -11   -1    0    0    0    0  0.00000000000E+00  0.00000000000E+00  0.45593999997E+02  0.45594000000E+02  0.51100000000E-03 0. -1.
         11   -1    0    0    0    0 -0.00000000000E+00 -0.00000000000E+00 -0.45593999997E+02  0.45594000000E+02  0.51100000000E-03 0.  1.
    9900012    2    1    2    0    0 -0.39263846239E+02 -0.55473444822E+01  0.89856023895E+01  0.50528884140E+02  0.30000073831E+02 0.  0.
        -12    1    1    2    0    0  0.39263846239E+02  0.55473444822E+01 -0.89856023895E+01  0.40659115860E+02  0.00000000000E+00 0.  1.
         11    1    3    3    0    0 -0.30581368914E+02 -0.77678670183E+01  0.13748015334E+02  0.34417550880E+02  0.51100000000E-03 0. -1.
        -11    1    3    3    0    0  0.34742694223E+00 -0.41001832473E+01 -0.27190956691E-01  0.41149663123E+01  0.51100000000E-03 0.  1.
         12    1    3    3    0    0 -0.90299042668E+01  0.63207057835E+01 -0.47352219878E+01  0.11996366948E+02  0.00000000000E+00 0. -1.
</event>
<event>
 7    1  0.1024956E-012  0.5052886E+02  0.7816164E-02  0.1300439E+00
        -11   -1    0    0    0    0  0.00000000000E+00  0.00000000000E+00  0.45593999997E+02  0.45594000000E+02  0.51100000000E-03 0.  1.
         11   -1    0    0    0    0 -0.00000000000E+00 -0.00000000000E+00 -0.45593999997E+02  0.45594000000E+02  0.51100000000E-03 0. -1.
    9900012    2    1    2    0    0 -0.11927415135E+02  0.89061208885E+01 -0.37836267392E+02  0.50528863865E+02  0.30000012204E+02 0.  0.
        -12    1    1    2    0    0  0.11927415135E+02 -0.89061208885E+01  0.37836267392E+02  0.40659136135E+02  0.00000000000E+00 0.  1.
         11    1    3    3    0    0 -0.13529618572E+02  0.58920187421E+01 -0.27394299581E+02  0.31116139114E+02  0.51100000000E-03 0. -1.
        -11    1    3    3    0    0  0.37182842152E+01 -0.35208365706E+01  0.17561790224E+01  0.54135101996E+01  0.51100000000E-03 0.  1.
         12    1    3    3    0    0 -0.21160807784E+01  0.65349387171E+01 -0.12198146833E+02  0.13999214552E+02  0.00000000000E+00 0. -1.
</event>
<event>
 7    1  0.1024956E-012  0.5052889E+02  0.7816164E-02  0.1300439E+00
        -11   -1    0    0    0    0  0.00000000000E+00  0.00000000000E+00  0.45593999997E+02  0.45594000000E+02  0.51100000000E-03 0. -1.
         11   -1    0    0    0    0 -0.00000000000E+00 -0.00000000000E+00 -0.45593999997E+02  0.45594000000E+02  0.51100000000E-03 0.  1.
    9900012    2    1    2    0    0 -0.12419925181E+02  0.38715720672E+02 -0.42689816143E-01  0.50528887970E+02  0.30000085472E+02 0.  0.
        -12    1    1    2    0    0  0.12419925181E+02 -0.38715720672E+02  0.42689816143E-01  0.40659112030E+02  0.00000000000E+00 0.  1.
         11    1    3    3    0    0 -0.81168777874E+01  0.35868908070E+02  0.67642069345E+01  0.37392736819E+02  0.51100000000E-03 0. -1.
        -11    1    3    3    0    0 -0.77498063964E+00  0.51644558598E+01 -0.72023928185E+01  0.88964409677E+01  0.51100000000E-03 0.  1.
         12    1    3    3    0    0 -0.35280667543E+01 -0.23176432572E+01  0.39549606780E+00  0.42397101823E+01  0.00000000000E+00 0. -1.
</event>
<event>
 7    1  0.1024956E-012  0.5052887E+02  0.7816164E-02  0.1300439E+00
        -11   -1    0    0    0    0  0.00000000000E+00  0.00000000000E+00  0.45593999997E+02  0.45594000000E+02  0.51100000000E-03 0. -1.
         11   -1    0    0    0    0 -0.00000000000E+00 -0.00000000000E+00 -0.45593999997E+02  0.45594000000E+02  0.51100000000E-03 0.  1.
    9900012    2    1    2    0    0  0.11052042939E+02  0.33293215642E+02 -0.20556735645E+02  0.50528865217E+02  0.30000016315E+02 0.  0.
        -12    1    1    2    0    0 -0.11052042939E+02 -0.33293215642E+02  0.20556735645E+02  0.40659134783E+02  0.00000000000E+00 0.  1.
         11    1    3    3    0    0  0.37117928592E+01  0.24515538287E+02 -0.11997938843E+02  0.27545227544E+02  0.51100000000E-03 0. -1.
        -11    1    3    3    0    0  0.44631589154E+01 -0.52358097852E+01 -0.15462391435E+01  0.70515492880E+01  0.51100000000E-03 0.  1.
        -12    1    3    3    0    0  0.28770911648E+01  0.14013487141E+02 -0.70125576581E+01  0.15932088385E+02  0.00000000000E+00 0.  1.
</event>
<event>
 7    1  0.1024956E-012  0.5052888E+02  0.7816164E-02  0.1300439E+00
        -11   -1    0    0    0    0  0.00000000000E+00  0.00000000000E+00  0.45593999997E+02  0.45594000000E+02  0.51100000000E-03 0.  1.
         11   -1    0    0    0    0 -0.00000000000E+00 -0.00000000000E+00 -0.45593999997E+02  0.45594000000E+02  0.51100000000E-03 0. -1.
    9900012    2    1    2    0    0  0.22685088051E+02  0.28296281757E+02 -0.18381274271E+02  0.50528880174E+02  0.30000061778E+02 0.  0.
        -12    1    1    2    0    0 -0.22685088051E+02 -0.28296281757E+02  0.18381274271E+02  0.40659119826E+02  0.00000000000E+00 0.  1.
         11    1    3    3    0    0  0.17970668405E+02  0.16362513581E+02 -0.11565793208E+02  0.26915503830E+02  0.51100000000E-03 0. -1.
        -11    1    3    3    0    0 -0.14238388624E+01  0.15420348641E+01 -0.10723683168E+02  0.10927148282E+02  0.51100000000E-03 0.  1.
        -12    1    3    3    0    0  0.61382585087E+01  0.10391733312E+02  0.39082021057E+01  0.12686228062E+02  0.00000000000E+00 0.  1.
</event>
<event>
 7    1  0.1024956E-012  0.5052886E+02  0.7816164E-02  0.1300439E+00
        -11   -1    0    0    0    0  0.00000000000E+00  0.00000000000E+00  0.45593999997E+02  0.45594000000E+02  0.51100000000E-03 0.  1.
         11   -1    0    0    0    0 -0.00000000000E+00 -0.00000000000E+00 -0.45593999997E+02  0.45594000000E+02  0.51100000000E-03 0. -1.
    9900012    2    1    2    0    0 -0.53344122837E+01 -0.40069459958E+02  0.43758734842E+01  0.50528857799E+02  0.29999993767E+02 0.  0.
        -12    1    1    2    0    0  0.53344122837E+01  0.40069459958E+02 -0.43758734842E+01  0.40659142201E+02  0.00000000000E+00 0.  1.
         11    1    3    3    0    0 -0.11328787771E+01 -0.25876682833E+02  0.10782531648E+02  0.28056177890E+02  0.51100000000E-03 0. -1.
        -11    1    3    3    0    0  0.26671142177E+01  0.12849455970E+01 -0.45630034419E+01  0.54392631955E+01  0.51100000000E-03 0.  1.
         12    1    3    3    0    0 -0.68686477243E+01 -0.15477722722E+02 -0.18436547222E+01  0.17033416714E+02  0.00000000000E+00 0. -1.
</event>
<event>
 7    1  0.1024956E-012  0.5052886E+02  0.7816164E-02  0.1300439E+00
        -11   -1    0    0    0    0  0.00000000000E+00  0.00000000000E+00  0.45593999997E+02  0.45594000000E+02  0.51100000000E-03 0.  1.
         11   -1    0    0    0    0 -0.00000000000E+00 -0.00000000000E+00 -0.45593999997E+02  0.45594000000E+02  0.51100000000E-03 0. -1.
    9900012    2    1    2    0    0  0.14383017513E+02 -0.83049711682E+01 -0.37112283830E+02  0.50528863880E+02  0.30000012251E+02 0.  0.
        -12    1    1    2    0    0 -0.14383017513E+02  0.83049711682E+01  0.37112283830E+02  0.40659136120E+02  0.00000000000E+00 0.  1.
         11    1    3    3    0    0  0.62112465548E+01 -0.12549309327E+02 -0.14082139894E+02  0.19858786786E+02  0.51100000000E-03 0. -1.
        -11    1    3    3    0    0 -0.64649871797E-01  0.46313721934E+01  0.14380390628E+01  0.48499221238E+01  0.51100000000E-03 0.  1.
        -12    1    3    3    0    0  0.82364208299E+01 -0.38703403432E+00 -0.24468182999E+02  0.25820154971E+02  0.00000000000E+00 0.  1.
</event>
<event>
 7    1  0.1024956E-012  0.5052885E+02  0.7816164E-02  0.1300439E+00
        -11   -1    0    0    0    0  0.00000000000E+00  0.00000000000E+00  0.45593999997E+02  0.45594000000E+02  0.51100000000E-03 0.  1.
         11   -1    0    0    0    0 -0.00000000000E+00 -0.00000000000E+00 -0.45593999997E+02  0.45594000000E+02  0.51100000000E-03 0. -1.
    9900012    2    1    2    0    0  0.19587499766E+01  0.48663892854E+01 -0.40319325571E+02  0.50528850223E+02  0.29999970736E+02 0.  0.
        -12    1    1    2    0    0 -0.19587499766E+01 -0.48663892854E+01  0.40319325571E+02  0.40659149777E+02  0.00000000000E+00 0.  1.
         11    1    3    3    0    0 -0.71773639677E+01  0.81081721838E+01 -0.22506985658E+02  0.24976417144E+02  0.51100000000E-03 0. -1.
        -11    1    3    3    0    0  0.12734875594E+02  0.21671135645E+00 -0.96283206667E+01  0.15966482998E+02  0.51100000000E-03 0.  1.
         12    1    3    3    0    0 -0.35987616497E+01 -0.34584942549E+01 -0.81840192456E+01  0.95859500799E+01  0.00000000000E+00 0. -1.
</event>
<event>
 7    1  0.1354483E-012  0.5052886E+02  0.7816164E-02  0.1300439E+00
        -11   -1    0    0    0    0  0.00000000000E+00  0.00000000000E+00  0.45593999997E+02  0.45594000000E+02  0.51100000000E-03 0. -1.
         11   -1    0    0    0    0 -0.00000000000E+00 -0.00000000000E+00 -0.45593999997E+02  0.45594000000E+02  0.51100000000E-03 0.  1.
    9900012    2    1    2    0    0  0.17199521506E+01  0.38548854249E+02 -0.12813788946E+02  0.50528860972E+02  0.30000003412E+02 0.  0.
        -12    1    1    2    0    0 -0.17199521506E+01 -0.38548854249E+02  0.12813788946E+02  0.40659139028E+02  0.00000000000E+00 0.  1.
         11    1    3    3    0    0  0.42986719013E+01  0.33973845641E+02 -0.32396902824E+01  0.34397621446E+02  0.51100000000E-03 0. -1.
        -11    1    3    3    0    0  0.31764950899E+01  0.33582497926E+01 -0.91282263804E+01  0.10231934316E+02  0.51100000000E-03 0.  1.
        -12    1    3    3    0    0 -0.57552148407E+01  0.12167588153E+01 -0.44587228362E+00  0.58993052108E+01  0.00000000000E+00 0.  1.
</event>
<event>
 7    1  0.1024956E-012  0.5052889E+02  0.7816164E-02  0.1300439E+00
        -11   -1    0    0    0    0  0.00000000000E+00  0.00000000000E+00  0.45593999997E+02  0.45594000000E+02  0.51100000000E-03 0. -1.
         11   -1    0    0    0    0 -0.00000000000E+00 -0.00000000000E+00 -0.45593999997E+02  0.45594000000E+02  0.51100000000E-03 0.  1.
    9900012    2    1    2    0    0 -0.27817683708E+00  0.37128100422E+02  0.16570757872E+02  0.50528889830E+02  0.30000091128E+02 0.  0.
        -12    1    1    2    0    0  0.27817683708E+00 -0.37128100422E+02 -0.16570757872E+02  0.40659110170E+02  0.00000000000E+00 0.  1.
         11    1    3    3    0    0 -0.13039904104E+02  0.16344597274E+02  0.54729609173E+01  0.21613381516E+02  0.51100000000E-03 0. -1.
        -11    1    3    3    0    0  0.14666854236E+02  0.18347737635E+02  0.88881149413E+01  0.25114829822E+02  0.51100000000E-03 0.  1.
        -12    1    3    3    0    0 -0.19051269691E+01  0.24357655136E+01  0.22096820136E+01  0.38006784930E+01  0.00000000000E+00 0.  1.
</event>
<event>
 7    1  0.1024956E-012  0.5052884E+02  0.7816164E-02  0.1300439E+00
        -11   -1    0    0    0    0  0.00000000000E+00  0.00000000000E+00  0.45593999997E+02  0.45594000000E+02  0.51100000000E-03 0.  1.
         11   -1    0    0    0    0 -0.00000000000E+00 -0.00000000000E+00 -0.45593999997E+02  0.45594000000E+02  0.51100000000E-03 0. -1.
    9900012    2    1    2    0    0 -0.15252338441E+02 -0.32535046304E+02 -0.19026399916E+02  0.50528844085E+02  0.29999952082E+02 0.  0.
        -12    1    1    2    0    0  0.15252338441E+02  0.32535046304E+02  0.19026399916E+02  0.40659155915E+02  0.00000000000E+00 0.  1.
         11    1    3    3    0    0 -0.52111594720E+01 -0.20655287425E+02 -0.19982807112E+02  0.29208041050E+02  0.51100000000E-03 0. -1.
        -11    1    3    3    0    0 -0.13746046737E+02 -0.10189934613E+02  0.16487674259E+01  0.17190317118E+02  0.51100000000E-03 0.  1.
         12    1    3    3    0    0  0.37048677682E+01 -0.16898242660E+01 -0.69236023065E+00  0.41304859180E+01  0.00000000000E+00 0. -1.
</event>
<event>
 7    1  0.1024956E-012  0.5052886E+02  0.7816164E-02  0.1300439E+00
        -11   -1    0    0    0    0  0.00000000000E+00  0.00000000000E+00  0.45593999997E+02  0.45594000000E+02  0.51100000000E-03 0.  1.
         11   -1    0    0    0    0 -0.00000000000E+00 -0.00000000000E+00 -0.45593999997E+02  0.45594000000E+02  0.51100000000E-03 0. -1.
    9900012    2    1    2    0    0  0.37879159256E+02 -0.12360627933E+02 -0.80962744673E+01  0.50528862170E+02  0.30000007051E+02 0.  0.
        -12    1    1    2    0    0 -0.37879159256E+02  0.12360627933E+02  0.80962744673E+01  0.40659137830E+02  0.00000000000E+00 0.  1.
         11    1    3    3    0    0  0.21859884787E+02 -0.11576444301E+02 -0.88896130452E+01  0.26284859633E+02  0.51100000000E-03 0. -1.
        -11    1    3    3    0    0  0.53927473970E+01 -0.43379339477E+01  0.82621870068E+01  0.10777900065E+02  0.51100000000E-03 0.  1.
         12    1    3    3    0    0  0.10626527072E+02  0.35537503154E+01 -0.74688484288E+01  0.13466102471E+02  0.00000000000E+00 0. -1.
</event>
<event>
 7    1  0.1024956E-012  0.5052886E+02  0.7816164E-02  0.1300439E+00
        -11   -1    0    0    0    0  0.00000000000E+00  0.00000000000E+00  0.45593999997E+02  0.45594000000E+02  0.51100000000E-03 0.  1.
         11   -1    0    0    0    0 -0.00000000000E+00 -0.00000000000E+00 -0.45593999997E+02  0.45594000000E+02  0.51100000000E-03 0. -1.
    9900012    2    1    2    0    0 -0.69297113079E+01  0.25577242764E+02 -0.30837465777E+02  0.50528861522E+02  0.30000005083E+02 0.  0.
        -12    1    1    2    0    0  0.69297113079E+01 -0.25577242764E+02  0.30837465777E+02  0.40659138478E+02  0.00000000000E+00 0.  1.
         11    1    3    3    0    0  0.79603990333E+01  0.19685659059E+01 -0.86513315588E+01  0.11920098259E+02  0.51100000000E-03 0. -1.
        -11    1    3    3    0    0 -0.94324545634E+01  0.24319484496E+02 -0.17961576492E+02  0.31670597651E+02  0.51100000000E-03 0.  1.
        -12    1    3    3    0    0 -0.54576557778E+01 -0.71080763748E+00 -0.42245577263E+01  0.69381656127E+01  0.00000000000E+00 0.  1.
</event>
<event>
 7    1  0.1024956E-012  0.5052886E+02  0.7816164E-02  0.1300439E+00
        -11   -1    0    0    0    0  0.00000000000E+00  0.00000000000E+00  0.45593999997E+02  0.45594000000E+02  0.51100000000E-03 0.  1.
         11   -1    0    0    0    0 -0.00000000000E+00 -0.00000000000E+00 -0.45593999997E+02  0.45594000000E+02  0.51100000000E-03 0. -1.
    9900012    2    1    2    0    0 -0.16532267350E+02 -0.36076221636E+02  0.88518826239E+01  0.50528862561E+02  0.30000008240E+02 0.  0.
        -12    1    1    2    0    0  0.16532267350E+02  0.36076221636E+02 -0.88518826239E+01  0.40659137439E+02  0.00000000000E+00 0.  1.
         11    1    3    3    0    0 -0.31106402728E+01  0.29367473645E+01  0.17703230403E+01  0.46297529003E+01  0.51100000000E-03 0. -1.
        -11    1    3    3    0    0 -0.15705539840E+02 -0.22722069481E+02  0.96308831635E+01  0.29252526966E+02  0.51100000000E-03 0.  1.
         12    1    3    3    0    0  0.22839127624E+01 -0.16290899520E+02 -0.25493235799E+01  0.16646582694E+02  0.00000000000E+00 0. -1.
</event>
<event>
 7    1  0.1024956E-012  0.5052886E+02  0.7816164E-02  0.1300439E+00
        -11   -1    0    0    0    0  0.00000000000E+00  0.00000000000E+00  0.45593999997E+02  0.45594000000E+02  0.51100000000E-03 0.  1.
         11   -1    0    0    0    0 -0.00000000000E+00 -0.00000000000E+00 -0.45593999997E+02  0.45594000000E+02  0.51100000000E-03 0. -1.
    9900012    2    1    2    0    0 -0.26586153439E+02  0.27493147633E+02 -0.13801042245E+02  0.50528862177E+02  0.30000007074E+02 0.  0.
        -12    1    1    2    0    0  0.26586153439E+02 -0.27493147633E+02  0.13801042245E+02  0.40659137823E+02  0.00000000000E+00 0.  1.
         11    1    3    3    0    0  0.42213760080E+01  0.20387577675E+00  0.21748803717E+01  0.47530711783E+01  0.51100000000E-03 0.  1.
        -11    1    3    3    0    0 -0.22332050676E+02  0.13461396805E+02 -0.60746180873E+01  0.26773693740E+02  0.51100000000E-03 0. -1.
         12    1    3    3    0    0 -0.84754787705E+01  0.13827875052E+02 -0.99013045291E+01  0.19002097258E+02  0.00000000000E+00 0. -1.
</event>
<event>
 7    1  0.1024956E-012  0.5052885E+02  0.7816164E-02  0.1300439E+00
        -11   -1    0    0    0    0  0.00000000000E+00  0.00000000000E+00  0.45593999997E+02  0.45594000000E+02  0.51100000000E-03 0.  1.
         11   -1    0    0    0    0 -0.00000000000E+00 -0.00000000000E+00 -0.45593999997E+02  0.45594000000E+02  0.51100000000E-03 0. -1.
    9900012    2    1    2    0    0  0.68482696793E+00  0.55563218117E+01 -0.40271882891E+02  0.50528852793E+02  0.29999978549E+02 0.  0.
        -12    1    1    2    0    0 -0.68482696793E+00 -0.55563218117E+01  0.40271882891E+02  0.40659147207E+02  0.00000000000E+00 0.  1.
         11    1    3    3    0    0  0.10526886470E+02  0.56962554133E+01 -0.34200668143E+02  0.36234629379E+02  0.51100000000E-03 0. -1.
        -11    1    3    3    0    0 -0.73812608673E+01 -0.38189805748E+01 -0.51381438566E+01  0.97707802745E+01  0.51100000000E-03 0.  1.
         12    1    3    3    0    0 -0.24607986349E+01  0.36790469731E+01 -0.93307089066E+00  0.45234431398E+01  0.00000000000E+00 0. -1.
</event>
<event>
 7    1  0.1024956E-012  0.5052877E+02  0.7816164E-02  0.1300439E+00
        -11   -1    0    0    0    0  0.00000000000E+00  0.00000000000E+00  0.45593999997E+02  0.45594000000E+02  0.51100000000E-03 0.  1.
         11   -1    0    0    0    0 -0.00000000000E+00 -0.00000000000E+00 -0.45593999997E+02  0.45594000000E+02  0.51100000000E-03 0. -1.
    9900012    2    1    2    0    0 -0.36796975124E+02  0.29190708761E+01 -0.17048005760E+02  0.50528771608E+02  0.29999731778E+02 0.  0.
        -12    1    1    2    0    0  0.36796975124E+02 -0.29190708761E+01  0.17048005760E+02  0.40659228392E+02  0.00000000000E+00 0.  1.
         11    1    3    3    0    0 -0.23839794514E+02 -0.10556693786E+02 -0.15676184620E+01  0.26119667189E+02  0.51100000000E-03 0. -1.
        -11    1    3    3    0    0 -0.10622440827E+02  0.12108872746E+02 -0.13898812356E+02  0.21275291619E+02  0.51100000000E-03 0.  1.
         12    1    3    3    0    0 -0.23347397834E+01  0.13668919164E+01 -0.15815749416E+01  0.31338127997E+01  0.00000000000E+00 0. -1.
</event>
<event>
 7    1  0.1024956E-012  0.5052887E+02  0.7816164E-02  0.1300439E+00
        -11   -1    0    0    0    0  0.00000000000E+00  0.00000000000E+00  0.45593999997E+02  0.45594000000E+02  0.51100000000E-03 0.  1.
         11   -1    0    0    0    0 -0.00000000000E+00 -0.00000000000E+00 -0.45593999997E+02  0.45594000000E+02  0.51100000000E-03 0. -1.
    9900012    2    1    2    0    0  0.36741549839E+02  0.11318716254E+02 -0.13232904915E+02  0.50528873168E+02  0.30000040482E+02 0.  0.
        -12    1    1    2    0    0 -0.36741549839E+02 -0.11318716254E+02  0.13232904915E+02  0.40659126832E+02  0.00000000000E+00 0.  1.
         11    1    3    3    0    0  0.16389677860E+02  0.81275290670E+01 -0.24139312259E+01  0.18452786600E+02  0.51100000000E-03 0. -1.
        -11    1    3    3    0    0 -0.45049103218E+01 -0.10399109473E+01  0.38310872130E-01  0.46235375817E+01  0.51100000000E-03 0.  1.
        -12    1    3    3    0    0  0.24856782301E+02  0.42310981343E+01 -0.10857284562E+02  0.27452548986E+02  0.00000000000E+00 0.  1.
</event>
<event>
 7    1  0.1024956E-012  0.5052886E+02  0.7816164E-02  0.1300439E+00
        -11   -1    0    0    0    0  0.00000000000E+00  0.00000000000E+00  0.45593999997E+02  0.45594000000E+02  0.51100000000E-03 0.  1.
         11   -1    0    0    0    0 -0.00000000000E+00 -0.00000000000E+00 -0.45593999997E+02  0.45594000000E+02  0.51100000000E-03 0. -1.
    9900012    2    1    2    0    0 -0.34117369973E+02 -0.13177888078E+02 -0.17762722519E+02  0.50528856141E+02  0.29999988725E+02 0.  0.
        -12    1    1    2    0    0  0.34117369973E+02  0.13177888078E+02  0.17762722519E+02  0.40659143859E+02  0.00000000000E+00 0.  1.
         11    1    3    3    0    0 -0.10751894379E+02 -0.20654792093E+01 -0.10347131252E+02  0.15064281016E+02  0.51100000000E-03 0. -1.
        -11    1    3    3    0    0 -0.37933772533E+01 -0.51173535560E+01  0.77186240444E+01  0.10007705821E+02  0.51100000000E-03 0.  1.
        -12    1    3    3    0    0 -0.19572098340E+02 -0.59950553127E+01 -0.15134215312E+02  0.25456869304E+02  0.00000000000E+00 0.  1.
</event>
<event>
 7    1  0.1024956E-012  0.5052888E+02  0.7816164E-02  0.1300439E+00
        -11   -1    0    0    0    0  0.00000000000E+00  0.00000000000E+00  0.45593999997E+02  0.45594000000E+02  0.51100000000E-03 0.  1.
         11   -1    0    0    0    0 -0.00000000000E+00 -0.00000000000E+00 -0.45593999997E+02  0.45594000000E+02  0.51100000000E-03 0. -1.
    9900012    2    1    2    0    0 -0.26054883932E+01 -0.36249909592E+02  0.18229631043E+02  0.50528880935E+02  0.30000064090E+02 0.  0.
        -12    1    1    2    0    0  0.26054883932E+01  0.36249909592E+02 -0.18229631043E+02  0.40659119065E+02  0.00000000000E+00 0.  1.
         11    1    3    3    0    0 -0.31217629829E+01 -0.44596161578E+01 -0.69938850835E+01  0.88627314762E+01  0.51100000000E-03 0. -1.
        -11    1    3    3    0    0  0.33528344740E+01 -0.64649855285E+01  0.30848126975E+01  0.79090837987E+01  0.51100000000E-03 0.  1.
         12    1    3    3    0    0 -0.28365598843E+01 -0.25325307905E+02  0.22138703429E+02  0.33757065660E+02  0.00000000000E+00 0. -1.
</event>
<event>
 7    1  0.1024956E-012  0.5052886E+02  0.7816164E-02  0.1300439E+00
        -11   -1    0    0    0    0  0.00000000000E+00  0.00000000000E+00  0.45593999997E+02  0.45594000000E+02  0.51100000000E-03 0.  1.
         11   -1    0    0    0    0 -0.00000000000E+00 -0.00000000000E+00 -0.45593999997E+02  0.45594000000E+02  0.51100000000E-03 0. -1.
    9900012    2    1    2    0    0 -0.83517840941E+01  0.30604599690E+02 -0.25431702404E+02  0.50528864410E+02  0.30000013861E+02 0.  0.
        -12    1    1    2    0    0  0.83517840941E+01 -0.30604599690E+02  0.25431702404E+02  0.40659135590E+02  0.00000000000E+00 0.  1.
         11    1    3    3    0    0  0.17639773873E+01 -0.25258887372E+01 -0.11088201399E+02  0.11508255327E+02  0.51100000000E-03 0.  1.
        -11    1    3    3    0    0 -0.78122153264E+01  0.25692404198E+02 -0.15714939379E+02  0.31114139257E+02  0.51100000000E-03 0. -1.
         12    1    3    3    0    0 -0.23035461550E+01  0.74380842300E+01  0.13714383743E+01  0.79064698264E+01  0.00000000000E+00 0. -1.
</event>
<event>
 7    1  0.1024956E-012  0.5052879E+02  0.7816164E-02  0.1300439E+00
        -11   -1    0    0    0    0  0.00000000000E+00  0.00000000000E+00  0.45593999997E+02  0.45594000000E+02  0.51100000000E-03 0.  1.
         11   -1    0    0    0    0 -0.00000000000E+00 -0.00000000000E+00 -0.45593999997E+02  0.45594000000E+02  0.51100000000E-03 0. -1.
    9900012    2    1    2    0    0  0.13335233189E+02 -0.26217065161E+02 -0.28071490656E+02  0.50528787790E+02  0.29999780966E+02 0.  0.
        -12    1    1    2    0    0 -0.13335233189E+02  0.26217065161E+02  0.28071490656E+02  0.40659212210E+02  0.00000000000E+00 0.  1.
         11    1    3    3    0    0  0.16261974924E+02 -0.16378781852E+02 -0.10853315214E+02  0.25505112718E+02  0.51100000000E-03 0. -1.
        -11    1    3    3    0    0 -0.14123783668E+01  0.37274329380E+01 -0.16370868439E+01  0.43091324595E+01  0.51100000000E-03 0.  1.
         12    1    3    3    0    0 -0.15143633684E+01 -0.13565716248E+02 -0.15581088599E+02  0.20714542612E+02  0.00000000000E+00 0. -1.
</event>
<event>
 7    1  0.1024956E-012  0.5052886E+02  0.7816164E-02  0.1300439E+00
        -11   -1    0    0    0    0  0.00000000000E+00  0.00000000000E+00  0.45593999997E+02  0.45594000000E+02  0.51100000000E-03 0.  1.
         11   -1    0    0    0    0 -0.00000000000E+00 -0.00000000000E+00 -0.45593999997E+02  0.45594000000E+02  0.51100000000E-03 0. -1.
    9900012    2    1    2    0    0 -0.14437762136E+02  0.41998089278E+01 -0.37776688933E+02  0.50528860839E+02  0.30000003007E+02 0.  0.
        -12    1    1    2    0    0  0.14437762136E+02 -0.41998089278E+01  0.37776688933E+02  0.40659139161E+02  0.00000000000E+00 0.  1.
         11    1    3    3    0    0 -0.24129871754E+01 -0.79028625353E+01 -0.91765483511E+00  0.83138338941E+01  0.51100000000E-03 0. -1.
        -11    1    3    3    0    0 -0.12081195678E+00  0.47305339910E+01 -0.18672837179E+02  0.19263109716E+02  0.51100000000E-03 0.  1.
         12    1    3    3    0    0 -0.11903963004E+02  0.73721374722E+01 -0.18186196919E+02  0.22951917229E+02  0.00000000000E+00 0. -1.
</event>
<event>
 7    1  0.1024956E-012  0.5052884E+02  0.7816164E-02  0.1300439E+00
        -11   -1    0    0    0    0  0.00000000000E+00  0.00000000000E+00  0.45593999997E+02  0.45594000000E+02  0.51100000000E-03 0. -1.
         11   -1    0    0    0    0 -0.00000000000E+00 -0.00000000000E+00 -0.45593999997E+02  0.45594000000E+02  0.51100000000E-03 0.  1.
    9900012    2    1    2    0    0  0.15657431306E+02 -0.51160854950E+01  0.37173075343E+02  0.50528843388E+02  0.29999949963E+02 0.  0.
        -12    1    1    2    0    0 -0.15657431306E+02  0.51160854950E+01 -0.37173075343E+02  0.40659156612E+02  0.00000000000E+00 0.  1.
         11    1    3    3    0    0  0.10610178719E+02 -0.13639185990E+02  0.30087177391E+02  0.34696419564E+02  0.51100000000E-03 0. -1.
        -11    1    3    3    0    0  0.37764012673E+01  0.95865646416E+01  0.87251242127E+01  0.13501526615E+02  0.51100000000E-03 0.  1.
        -12    1    3    3    0    0  0.12708513193E+01 -0.10634641469E+01 -0.16392262604E+01  0.23308972093E+01  0.00000000000E+00 0.  1.
</event>
<event>
 7    1  0.1024956E-012  0.5052892E+02  0.7816164E-02  0.1300439E+00
        -11   -1    0    0    0    0  0.00000000000E+00  0.00000000000E+00  0.45593999997E+02  0.45594000000E+02  0.51100000000E-03 0.  1.
         11   -1    0    0    0    0 -0.00000000000E+00 -0.00000000000E+00 -0.45593999997E+02  0.45594000000E+02  0.51100000000E-03 0. -1.
    9900012    2    1    2    0    0  0.86613192217E+01  0.23447546409E+02 -0.32067966875E+02  0.50528924965E+02  0.30000197922E+02 0.  0.
        -12    1    1    2    0    0 -0.86613192217E+01 -0.23447546409E+02  0.32067966875E+02  0.40659075035E+02  0.00000000000E+00 0.  1.
         11    1    3    3    0    0 -0.48567835069E+01  0.10024409545E+02 -0.50155235907E+01  0.12216079973E+02  0.51100000000E-03 0. -1.
        -11    1    3    3    0    0  0.10775854812E+02  0.11114250687E+01 -0.22376058863E+02  0.24860457017E+02  0.51100000000E-03 0.  1.
        -12    1    3    3    0    0  0.27422479171E+01  0.12311711795E+02 -0.46763844214E+01  0.13452387975E+02  0.00000000000E+00 0.  1.
</event>
<event>
 7    1  0.1024956E-012  0.5052886E+02  0.7816164E-02  0.1300439E+00
        -11   -1    0    0    0    0  0.00000000000E+00  0.00000000000E+00  0.45593999997E+02  0.45594000000E+02  0.51100000000E-03 0. -1.
         11   -1    0    0    0    0 -0.00000000000E+00 -0.00000000000E+00 -0.45593999997E+02  0.45594000000E+02  0.51100000000E-03 0.  1.
    9900012    2    1    2    0    0  0.80778027615E+01  0.12854796515E+02  0.37718286412E+02  0.50528858091E+02  0.29999994653E+02 0.  0.
        -12    1    1    2    0    0 -0.80778027615E+01 -0.12854796515E+02 -0.37718286412E+02  0.40659141909E+02  0.00000000000E+00 0.  1.
         11    1    3    3    0    0  0.18862039072E+01  0.93737745235E+01  0.68156602947E+01  0.11742173543E+02  0.51100000000E-03 0. -1.
        -11    1    3    3    0    0  0.14995351391E+00 -0.36491784286E+01  0.29025501764E+02  0.29254379880E+02  0.51100000000E-03 0.  1.
        -12    1    3    3    0    0  0.60416453404E+01  0.71302004198E+01  0.18771243537E+01  0.95323046681E+01  0.00000000000E+00 0.  1.
</event>
<event>
 7    1  0.1088805E-012  0.5052886E+02  0.7816164E-02  0.1300439E+00
        -11   -1    0    0    0    0  0.00000000000E+00  0.00000000000E+00  0.45593999997E+02  0.45594000000E+02  0.51100000000E-03 0. -1.
         11   -1    0    0    0    0 -0.00000000000E+00 -0.00000000000E+00 -0.45593999997E+02  0.45594000000E+02  0.51100000000E-03 0.  1.
    9900012    2    1    2    0    0 -0.20184415925E+02  0.29882822077E+02  0.18782213961E+02  0.50528864952E+02  0.30000015509E+02 0.  0.
        -12    1    1    2    0    0  0.20184415925E+02 -0.29882822077E+02 -0.18782213961E+02  0.40659135048E+02  0.00000000000E+00 0.  1.
         11    1    3    3    0    0 -0.13203405043E+02  0.29142211884E+02  0.13397977052E+02  0.34685792590E+02  0.51100000000E-03 0. -1.
        -11    1    3    3    0    0 -0.65547093691E+01  0.88641074240E+00  0.95698794858E+01  0.11633251160E+02  0.51100000000E-03 0.  1.
        -12    1    3    3    0    0 -0.42630151265E+00 -0.14580054925E+00 -0.41856425765E+01  0.42098212026E+01  0.00000000000E+00 0.  1.
</event>
<event>
 7    1  0.1024956E-012  0.5052885E+02  0.7816164E-02  0.1300439E+00
        -11   -1    0    0    0    0  0.00000000000E+00  0.00000000000E+00  0.45593999997E+02  0.45594000000E+02  0.51100000000E-03 0. -1.
         11   -1    0    0    0    0 -0.00000000000E+00 -0.00000000000E+00 -0.45593999997E+02  0.45594000000E+02  0.51100000000E-03 0.  1.
    9900012    2    1    2    0    0 -0.72351208898E+01 -0.39604784913E+02 -0.56815746940E+01  0.50528852772E+02  0.29999978485E+02 0.  0.
        -12    1    1    2    0    0  0.72351208898E+01  0.39604784913E+02  0.56815746940E+01  0.40659147228E+02  0.00000000000E+00 0.  1.
         11    1    3    3    0    0 -0.89716560354E+01 -0.14483408763E+01 -0.71683456582E+01  0.11574691488E+02  0.51100000000E-03 0. -1.
        -11    1    3    3    0    0  0.21919985160E+00  0.12657600896E+00  0.57722937203E+00  0.63028887825E+00  0.51100000000E-03 0.  1.
         12    1    3    3    0    0  0.15173352939E+01 -0.38283020046E+02  0.90954159220E+00  0.38323872405E+02  0.00000000000E+00 0. -1.
</event>
<event>
 7    1  0.1024956E-012  0.5052885E+02  0.7816164E-02  0.1300439E+00
        -11   -1    0    0    0    0  0.00000000000E+00  0.00000000000E+00  0.45593999997E+02  0.45594000000E+02  0.51100000000E-03 0.  1.
         11   -1    0    0    0    0 -0.00000000000E+00 -0.00000000000E+00 -0.45593999997E+02  0.45594000000E+02  0.51100000000E-03 0. -1.
    9900012    2    1    2    0    0 -0.24155409181E+01 -0.38390350704E+02 -0.13172432828E+02  0.50528845413E+02  0.29999956118E+02 0.  0.
        -12    1    1    2    0    0  0.24155409181E+01  0.38390350704E+02  0.13172432828E+02  0.40659154587E+02  0.00000000000E+00 0.  1.
         11    1    3    3    0    0 -0.28031266266E+01 -0.30295341416E+02  0.88735235247E+00  0.30437684289E+02  0.51100000000E-03 0. -1.
        -11    1    3    3    0    0  0.52710158075E+01 -0.96881123427E+00 -0.33052587222E+01  0.62965814798E+01  0.51100000000E-03 0.  1.
         12    1    3    3    0    0 -0.48834300990E+01 -0.71261980537E+01 -0.10754526458E+02  0.13794579645E+02  0.00000000000E+00 0. -1.
</event>
<event>
 7    1  0.1024956E-012  0.5052886E+02  0.7816164E-02  0.1300439E+00
        -11   -1    0    0    0    0  0.00000000000E+00  0.00000000000E+00  0.45593999997E+02  0.45594000000E+02  0.51100000000E-03 0. -1.
         11   -1    0    0    0    0 -0.00000000000E+00 -0.00000000000E+00 -0.45593999997E+02  0.45594000000E+02  0.51100000000E-03 0.  1.
    9900012    2    1    2    0    0 -0.20862166151E+02 -0.29928739520E+02 -0.17950104513E+02  0.50528859849E+02  0.29999999998E+02 0.  0.
        -12    1    1    2    0    0  0.20862166151E+02  0.29928739520E+02  0.17950104513E+02  0.40659140151E+02  0.00000000000E+00 0.  1.
         11    1    3    3    0    0 -0.73107802212E+01 -0.58070984576E+01 -0.16510144170E+01  0.94813368681E+01  0.51100000000E-03 0. -1.
        -11    1    3    3    0    0 -0.29236544364E+01 -0.14489149252E+02 -0.21239931613E+02  0.25876976186E+02  0.51100000000E-03 0.  1.
        -12    1    3    3    0    0 -0.10627731493E+02 -0.96324918110E+01  0.49408415177E+01  0.15170546796E+02  0.00000000000E+00 0.  1.
</event>
<event>
 7    1  0.1024956E-012  0.5052889E+02  0.7816164E-02  0.1300439E+00
        -11   -1    0    0    0    0  0.00000000000E+00  0.00000000000E+00  0.45593999997E+02  0.45594000000E+02  0.51100000000E-03 0. -1.
         11   -1    0    0    0    0 -0.00000000000E+00 -0.00000000000E+00 -0.45593999997E+02  0.45594000000E+02  0.51100000000E-03 0.  1.
    9900012    2    1    2    0    0  0.20708806001E+02 -0.26510957534E+02  0.22835883881E+02  0.50528891451E+02  0.30000096056E+02 0.  0.
        -12    1    1    2    0    0 -0.20708806001E+02  0.26510957534E+02 -0.22835883881E+02  0.40659108549E+02  0.00000000000E+00 0.  1.
         11    1    3    3    0    0  0.18317005942E+02 -0.17416989306E+02  0.67184211147E+01  0.26153420536E+02  0.51100000000E-03 0. -1.
        -11    1    3    3    0    0 -0.36951086698E+01 -0.10101852737E+01 -0.14549523385E+01  0.40977053258E+01  0.51100000000E-03 0.  1.
         12    1    3    3    0    0  0.60869087279E+01 -0.80837829548E+01  0.17572415104E+02  0.20277765590E+02  0.00000000000E+00 0. -1.
</event>
<event>
 7    1  0.1230586E-012  0.5052882E+02  0.7816164E-02  0.1300439E+00
        -11   -1    0    0    0    0  0.00000000000E+00  0.00000000000E+00  0.45593999997E+02  0.45594000000E+02  0.51100000000E-03 0. -1.
         11   -1    0    0    0    0 -0.00000000000E+00 -0.00000000000E+00 -0.45593999997E+02  0.45594000000E+02  0.51100000000E-03 0.  1.
    9900012    2    1    2    0    0  0.13178098953E+02 -0.35454130910E+02  0.14916805804E+02  0.50528821627E+02  0.29999883818E+02 0.  0.
        -12    1    1    2    0    0 -0.13178098953E+02  0.35454130910E+02 -0.14916805804E+02  0.40659178373E+02  0.00000000000E+00 0.  1.
         11    1    3    3    0    0  0.49323775506E+01 -0.24330701553E+02  0.87343697228E+01  0.26317306114E+02  0.51100000000E-03 0. -1.
        -11    1    3    3    0    0  0.56195815561E+01  0.17827909660E+01 -0.43669531124E+01  0.73367786011E+01  0.51100000000E-03 0.  1.
        -12    1    3    3    0    0  0.26261398459E+01 -0.12906220322E+02  0.10549389194E+02  0.16874736912E+02  0.00000000000E+00 0.  1.
</event>
<event>
 7    1  0.1024956E-012  0.5052880E+02  0.7816164E-02  0.1300439E+00
        -11   -1    0    0    0    0  0.00000000000E+00  0.00000000000E+00  0.45593999997E+02  0.45594000000E+02  0.51100000000E-03 0. -1.
         11   -1    0    0    0    0 -0.00000000000E+00 -0.00000000000E+00 -0.45593999997E+02  0.45594000000E+02  0.51100000000E-03 0.  1.
    9900012    2    1    2    0    0  0.18055246401E+02  0.25890075683E+02  0.25629726527E+02  0.50528796573E+02  0.29999807663E+02 0.  0.
        -12    1    1    2    0    0 -0.18055246401E+02 -0.25890075683E+02 -0.25629726527E+02  0.40659203427E+02  0.00000000000E+00 0.  1.
         11    1    3    3    0    0 -0.62196771447E+01  0.14500417132E+02  0.91698425808E+01  0.18249177899E+02  0.51100000000E-03 0. -1.
        -11    1    3    3    0    0  0.80586637342E+01  0.18856611373E+01  0.18685213999E+01  0.84846421014E+01  0.51100000000E-03 0.  1.
         12    1    3    3    0    0  0.16216259812E+02  0.95039974139E+01  0.14591362546E+02  0.23794976572E+02  0.00000000000E+00 0. -1.
</event>
<event>
 7    1  0.1024956E-012  0.5052886E+02  0.7816164E-02  0.1300439E+00
        -11   -1    0    0    0    0  0.00000000000E+00  0.00000000000E+00  0.45593999997E+02  0.45594000000E+02  0.51100000000E-03 0.  1.
         11   -1    0    0    0    0 -0.00000000000E+00 -0.00000000000E+00 -0.45593999997E+02  0.45594000000E+02  0.51100000000E-03 0. -1.
    9900012    2    1    2    0    0  0.30394635834E+02  0.12493652097E+02 -0.23942444185E+02  0.50528857563E+02  0.29999993048E+02 0.  0.
        -12    1    1    2    0    0 -0.30394635834E+02 -0.12493652097E+02  0.23942444185E+02  0.40659142437E+02  0.00000000000E+00 0.  1.
         11    1    3    3    0    0  0.13961979910E+02  0.16542871003E+02 -0.22921614012E+02  0.31527826649E+02  0.51100000000E-03 0. -1.
        -11    1    3    3    0    0 -0.69277099520E+00  0.15606117936E-01 -0.12150262873E+01  0.13987366953E+01  0.51100000000E-03 0.  1.
         12    1    3    3    0    0  0.17125426919E+02 -0.40648250243E+01  0.19419611473E+00  0.17602294218E+02  0.00000000000E+00 0. -1.
</event>
<event>
 7    1  0.1024956E-012  0.5052887E+02  0.7816164E-02  0.1300439E+00
        -11   -1    0    0    0    0  0.00000000000E+00  0.00000000000E+00  0.45593999997E+02  0.45594000000E+02  0.51100000000E-03 0.  1.
         11   -1    0    0    0    0 -0.00000000000E+00 -0.00000000000E+00 -0.45593999997E+02  0.45594000000E+02  0.51100000000E-03 0. -1.
    9900012    2    1    2    0    0  0.18041816505E+02 -0.10266302127E+02 -0.34960847575E+02  0.50528868611E+02  0.30000026631E+02 0.  0.
        -12    1    1    2    0    0 -0.18041816505E+02  0.10266302127E+02  0.34960847575E+02  0.40659131389E+02  0.00000000000E+00 0.  1.
         11    1    3    3    0    0  0.11301716501E+01 -0.13000218799E+02 -0.23539047347E+02  0.26914117616E+02  0.51100000000E-03 0. -1.
        -11    1    3    3    0    0  0.82470838839E+01 -0.43520192971E+00  0.80498141359E+00  0.82976977919E+01  0.51100000000E-03 0.  1.
         12    1    3    3    0    0  0.86645609709E+01  0.31691186019E+01 -0.12226781641E+02  0.15317053203E+02  0.00000000000E+00 0. -1.
</event>
<event>
 7    1  0.1024956E-012  0.5052886E+02  0.7816164E-02  0.1300439E+00
        -11   -1    0    0    0    0  0.00000000000E+00  0.00000000000E+00  0.45593999997E+02  0.45594000000E+02  0.51100000000E-03 0.  1.
         11   -1    0    0    0    0 -0.00000000000E+00 -0.00000000000E+00 -0.45593999997E+02  0.45594000000E+02  0.51100000000E-03 0. -1.
    9900012    2    1    2    0    0 -0.30572881267E+02 -0.11325006136E+01 -0.26780247691E+02  0.50528864581E+02  0.30000014380E+02 0.  0.
        -12    1    1    2    0    0  0.30572881267E+02  0.11325006136E+01  0.26780247691E+02  0.40659135419E+02  0.00000000000E+00 0.  1.
         11    1    3    3    0    0 -0.58763627706E+01  0.36466157752E+01 -0.15348428423E+02  0.16834598342E+02  0.51100000000E-03 0. -1.
        -11    1    3    3    0    0 -0.18563509096E+02 -0.17933383388E+01  0.18720244189E+01  0.18743649806E+02  0.51100000000E-03 0.  1.
         12    1    3    3    0    0 -0.61330094004E+01 -0.29857780500E+01 -0.13303843687E+02  0.14950616433E+02  0.00000000000E+00 0. -1.
</event>
<event>
 7    1  0.1024956E-012  0.5052886E+02  0.7816164E-02  0.1300439E+00
        -11   -1    0    0    0    0  0.00000000000E+00  0.00000000000E+00  0.45593999997E+02  0.45594000000E+02  0.51100000000E-03 0.  1.
         11   -1    0    0    0    0 -0.00000000000E+00 -0.00000000000E+00 -0.45593999997E+02  0.45594000000E+02  0.51100000000E-03 0. -1.
    9900012    2    1    2    0    0 -0.13436585955E+01 -0.34905244460E+02 -0.20808278676E+02  0.50528856247E+02  0.29999989049E+02 0.  0.
        -12    1    1    2    0    0  0.13436585955E+01  0.34905244460E+02  0.20808278676E+02  0.40659143753E+02  0.00000000000E+00 0.  1.
         11    1    3    3    0    0  0.34431300054E+01 -0.10494452156E+00 -0.10265692675E+02  0.10828231801E+02  0.51100000000E-03 0.  1.
        -11    1    3    3    0    0  0.15176103125E+01 -0.63948751056E+01  0.34403830424E+01  0.74184772302E+01  0.51100000000E-03 0. -1.
         12    1    3    3    0    0 -0.63043989134E+01 -0.28405424833E+02 -0.13982969043E+02  0.32282147216E+02  0.00000000000E+00 0. -1.
</event>
<event>
 7    1  0.1024956E-012  0.5052886E+02  0.7816164E-02  0.1300439E+00
        -11   -1    0    0    0    0  0.00000000000E+00  0.00000000000E+00  0.45593999997E+02  0.45594000000E+02  0.51100000000E-03 0. -1.
         11   -1    0    0    0    0 -0.00000000000E+00 -0.00000000000E+00 -0.45593999997E+02  0.45594000000E+02  0.51100000000E-03 0.  1.
    9900012    2    1    2    0    0  0.13774985263E+02  0.16695080304E+02 -0.34419318569E+02  0.50528863067E+02  0.30000009778E+02 0.  0.
        -12    1    1    2    0    0 -0.13774985263E+02 -0.16695080304E+02  0.34419318569E+02  0.40659136933E+02  0.00000000000E+00 0.  1.
         11    1    3    3    0    0  0.16774605599E+01  0.18724150050E+02 -0.99038815977E+01  0.21248400881E+02  0.51100000000E-03 0. -1.
        -11    1    3    3    0    0  0.39215668429E+01  0.34236898096E+01 -0.41130370022E+01  0.66345619341E+01  0.51100000000E-03 0.  1.
         12    1    3    3    0    0  0.81759578605E+01 -0.54527595557E+01 -0.20402399970E+02  0.22645900252E+02  0.00000000000E+00 0. -1.
</event>
<event>
 7    1  0.1024956E-012  0.5052886E+02  0.7816164E-02  0.1300439E+00
        -11   -1    0    0    0    0  0.00000000000E+00  0.00000000000E+00  0.45593999997E+02  0.45594000000E+02  0.51100000000E-03 0. -1.
         11   -1    0    0    0    0 -0.00000000000E+00 -0.00000000000E+00 -0.45593999997E+02  0.45594000000E+02  0.51100000000E-03 0.  1.
    9900012    2    1    2    0    0  0.27265175799E+02  0.14758771776E+02  0.26305027137E+02  0.50528860704E+02  0.30000002595E+02 0.  0.
        -12    1    1    2    0    0 -0.27265175799E+02 -0.14758771776E+02 -0.26305027137E+02  0.40659139296E+02  0.00000000000E+00 0.  1.
         11    1    3    3    0    0  0.11163015121E+02  0.21259509483E+02  0.18385758078E+02  0.30242614807E+02  0.51100000000E-03 0. -1.
        -11    1    3    3    0    0  0.12252076126E+02 -0.27359370855E+01  0.28127081997E+01  0.12865070882E+02  0.51100000000E-03 0.  1.
         12    1    3    3    0    0  0.38500845521E+01 -0.37648006214E+01  0.51065608593E+01  0.74211750139E+01  0.00000000000E+00 0. -1.
</event>
<event>
 7    1  0.1024956E-012  0.5052886E+02  0.7816164E-02  0.1300439E+00
        -11   -1    0    0    0    0  0.00000000000E+00  0.00000000000E+00  0.45593999997E+02  0.45594000000E+02  0.51100000000E-03 0.  1.
         11   -1    0    0    0    0 -0.00000000000E+00 -0.00000000000E+00 -0.45593999997E+02  0.45594000000E+02  0.51100000000E-03 0. -1.
    9900012    2    1    2    0    0  0.43318023668E+01  0.31874542725E+02 -0.24867950788E+02  0.50528856354E+02  0.29999989373E+02 0.  0.
        -12    1    1    2    0    0 -0.43318023668E+01 -0.31874542725E+02  0.24867950788E+02  0.40659143646E+02  0.00000000000E+00 0.  1.
         11    1    3    3    0    0  0.59222064622E+01 -0.11837488673E+01 -0.94711495320E+01  0.11232829763E+02  0.51100000000E-03 0. -1.
        -11    1    3    3    0    0 -0.67487054636E+01  0.27769789015E+02 -0.10563937005E+02  0.30468064801E+02  0.51100000000E-03 0.  1.
        -12    1    3    3    0    0  0.51583013682E+01  0.52885025767E+01 -0.48328642505E+01  0.88279617904E+01  0.00000000000E+00 0.  1.
</event>
<event>
 7    1  0.1024956E-012  0.5052886E+02  0.7816164E-02  0.1300439E+00
        -11   -1    0    0    0    0  0.00000000000E+00  0.00000000000E+00  0.45593999997E+02  0.45594000000E+02  0.51100000000E-03 0. -1.
         11   -1    0    0    0    0 -0.00000000000E+00 -0.00000000000E+00 -0.45593999997E+02  0.45594000000E+02  0.51100000000E-03 0.  1.
    9900012    2    1    2    0    0  0.22854334521E+02 -0.26660361500E+02  0.20495619108E+02  0.50528857309E+02  0.29999992277E+02 0.  0.
        -12    1    1    2    0    0 -0.22854334521E+02  0.26660361500E+02 -0.20495619108E+02  0.40659142691E+02  0.00000000000E+00 0.  1.
         11    1    3    3    0    0  0.27673126217E+02 -0.21710775749E+02  0.18675669678E+02  0.39823866417E+02  0.51100000000E-03 0. -1.
        -11    1    3    3    0    0 -0.34129083964E+01 -0.47634891232E+01 -0.23400715948E+01  0.63098896725E+01  0.51100000000E-03 0.  1.
         12    1    3    3    0    0 -0.14058832988E+01 -0.18609662824E+00  0.41600210249E+01  0.43951012198E+01  0.00000000000E+00 0. -1.
</event>
<event>
 7    1  0.1024956E-012  0.5052886E+02  0.7816164E-02  0.1300439E+00
        -11   -1    0    0    0    0  0.00000000000E+00  0.00000000000E+00  0.45593999997E+02  0.45594000000E+02  0.51100000000E-03 0.  1.
         11   -1    0    0    0    0 -0.00000000000E+00 -0.00000000000E+00 -0.45593999997E+02  0.45594000000E+02  0.51100000000E-03 0. -1.
    9900012    2    1    2    0    0  0.76700134379E+01  0.32036630564E+02 -0.23832559345E+02  0.50528859712E+02  0.29999999580E+02 0.  0.
        -12    1    1    2    0    0 -0.76700134379E+01 -0.32036630564E+02  0.23832559345E+02  0.40659140288E+02  0.00000000000E+00 0.  1.
         11    1    3    3    0    0  0.12229042666E+02  0.60420316128E+01 -0.63256562736E+01  0.15035609668E+02  0.51100000000E-03 0. -1.
        -11    1    3    3    0    0 -0.95986173604E+01  0.21826570968E+02 -0.10969398839E+02  0.26246149558E+02  0.51100000000E-03 0.  1.
        -12    1    3    3    0    0  0.50395881327E+01  0.41680279835E+01 -0.65375042320E+01  0.92471004862E+01  0.00000000000E+00 0.  1.
</event>
<event>
 7    1  0.1024956E-012  0.5052886E+02  0.7816164E-02  0.1300439E+00
        -11   -1    0    0    0    0  0.00000000000E+00  0.00000000000E+00  0.45593999997E+02  0.45594000000E+02  0.51100000000E-03 0.  1.
         11   -1    0    0    0    0 -0.00000000000E+00 -0.00000000000E+00 -0.45593999997E+02  0.45594000000E+02  0.51100000000E-03 0. -1.
    9900012    2    1    2    0    0 -0.23977073610E+00 -0.15742601676E+02 -0.37487042825E+02  0.50528863545E+02  0.30000011230E+02 0.  0.
        -12    1    1    2    0    0  0.23977073610E+00  0.15742601676E+02  0.37487042825E+02  0.40659136455E+02  0.00000000000E+00 0.  1.
         11    1    3    3    0    0  0.38274413089E+01 -0.14748129917E+01 -0.52854763431E+01  0.66903393612E+01  0.51100000000E-03 0. -1.
        -11    1    3    3    0    0 -0.67428436291E+01  0.54977264019E+01 -0.47694218416E+01  0.99216087788E+01  0.51100000000E-03 0.  1.
        -12    1    3    3    0    0  0.26756315841E+01 -0.19765515086E+02 -0.27432144640E+02  0.33916915405E+02  0.00000000000E+00 0.  1.
</event>
<event>
 7    1  0.1024956E-012  0.5052886E+02  0.7816164E-02  0.1300439E+00
        -11   -1    0    0    0    0  0.00000000000E+00  0.00000000000E+00  0.45593999997E+02  0.45594000000E+02  0.51100000000E-03 0. -1.
         11   -1    0    0    0    0 -0.00000000000E+00 -0.00000000000E+00 -0.45593999997E+02  0.45594000000E+02  0.51100000000E-03 0.  1.
    9900012    2    1    2    0    0 -0.36691532939E+02 -0.13522180814E+01  0.17466219564E+02  0.50528857006E+02  0.29999991357E+02 0.  0.
        -12    1    1    2    0    0  0.36691532939E+02  0.13522180814E+01 -0.17466219564E+02  0.40659142994E+02  0.00000000000E+00 0.  1.
         11    1    3    3    0    0 -0.34059595187E+02 -0.41844787449E+00  0.97424376650E+01  0.35428042775E+02  0.51100000000E-03 0. -1.
        -11    1    3    3    0    0  0.50210688045E+01  0.21354024030E+00  0.17387292798E+01  0.53178859656E+01  0.51100000000E-03 0.  1.
        -12    1    3    3    0    0 -0.76530065557E+01 -0.11473104472E+01  0.59850526189E+01  0.97829282659E+01  0.00000000000E+00 0.  1.
</event>
<event>
 7    1  0.1024956E-012  0.5052886E+02  0.7816164E-02  0.1300439E+00
        -11   -1    0    0    0    0  0.00000000000E+00  0.00000000000E+00  0.45593999997E+02  0.45594000000E+02  0.51100000000E-03 0.  1.
         11   -1    0    0    0    0 -0.00000000000E+00 -0.00000000000E+00 -0.45593999997E+02  0.45594000000E+02  0.51100000000E-03 0. -1.
    9900012    2    1    2    0    0  0.14525348496E+02 -0.13725438452E+02 -0.35408927989E+02  0.50528860917E+02  0.30000003243E+02 0.  0.
        -12    1    1    2    0    0 -0.14525348496E+02  0.13725438452E+02  0.35408927989E+02  0.40659139083E+02  0.00000000000E+00 0.  1.
         11    1    3    3    0    0  0.10569471277E+02 -0.19773562707E+02 -0.33622188311E+02  0.40412362617E+02  0.51100000000E-03 0. -1.
        -11    1    3    3    0    0  0.43330533836E+01  0.37524048980E+01  0.16514324526E+01  0.59651591387E+01  0.51100000000E-03 0.  1.
         12    1    3    3    0    0 -0.37717616524E+00  0.22957193571E+01 -0.34381721314E+01  0.41513391612E+01  0.00000000000E+00 0. -1.
</event>
<event>
 7    1  0.1024956E-012  0.5052880E+02  0.7816164E-02  0.1300439E+00
        -11   -1    0    0    0    0  0.00000000000E+00  0.00000000000E+00  0.45593999997E+02  0.45594000000E+02  0.51100000000E-03 0.  1.
         11   -1    0    0    0    0 -0.00000000000E+00 -0.00000000000E+00 -0.45593999997E+02  0.45594000000E+02  0.51100000000E-03 0. -1.
    9900012    2    1    2    0    0 -0.80507677595E+01 -0.43258721811E+01 -0.39618709088E+02  0.50528804958E+02  0.29999833150E+02 0.  0.
        -12    1    1    2    0    0  0.80507677595E+01  0.43258721811E+01  0.39618709088E+02  0.40659195042E+02  0.00000000000E+00 0.  1.
         11    1    3    3    0    0  0.52604740647E+01  0.77353138285E+00 -0.13288076841E+02  0.14312369636E+02  0.51100000000E-03 0. -1.
        -11    1    3    3    0    0 -0.15973066165E+02 -0.84252069282E+01 -0.13080789180E+02  0.22298654675E+02  0.51100000000E-03 0.  1.
        -12    1    3    3    0    0  0.26618243409E+01  0.33258033642E+01 -0.13249843067E+02  0.13917780647E+02  0.00000000000E+00 0.  1.
</event>
<event>
 7    1  0.1024956E-012  0.5052880E+02  0.7816164E-02  0.1300439E+00
        -11   -1    0    0    0    0  0.00000000000E+00  0.00000000000E+00  0.45593999997E+02  0.45594000000E+02  0.51100000000E-03 0.  1.
         11   -1    0    0    0    0 -0.00000000000E+00 -0.00000000000E+00 -0.45593999997E+02  0.45594000000E+02  0.51100000000E-03 0. -1.
    9900012    2    1    2    0    0 -0.18501472704E+02  0.35382820230E+02 -0.76760673084E+01  0.50528800930E+02  0.29999820907E+02 0.  0.
        -12    1    1    2    0    0  0.18501472704E+02 -0.35382820230E+02  0.76760673084E+01  0.40659199070E+02  0.00000000000E+00 0.  1.
         11    1    3    3    0    0 -0.23032551210E+02  0.24063483765E+02 -0.43468036228E+01  0.33592326031E+02  0.51100000000E-03 0. -1.
        -11    1    3    3    0    0  0.12671669509E+01 -0.18675265938E+01  0.12756565584E+01  0.25924250377E+01  0.51100000000E-03 0.  1.
         12    1    3    3    0    0  0.32639115552E+01  0.13186863059E+02 -0.46049202440E+01  0.14344049862E+02  0.00000000000E+00 0. -1.
</event>
<event>
 7    1  0.1024956E-012  0.5052887E+02  0.7816164E-02  0.1300439E+00
        -11   -1    0    0    0    0  0.00000000000E+00  0.00000000000E+00  0.45593999997E+02  0.45594000000E+02  0.51100000000E-03 0.  1.
         11   -1    0    0    0    0 -0.00000000000E+00 -0.00000000000E+00 -0.45593999997E+02  0.45594000000E+02  0.51100000000E-03 0. -1.
    9900012    2    1    2    0    0  0.16324614672E+02  0.91491376087E+00 -0.37226797761E+02  0.50528873313E+02  0.30000040922E+02 0.  0.
        -12    1    1    2    0    0 -0.16324614672E+02 -0.91491376087E+00  0.37226797761E+02  0.40659126687E+02  0.00000000000E+00 0.  1.
         11    1    3    3    0    0  0.21447057544E+02  0.73388404559E+01 -0.16025117311E+02  0.27760389796E+02  0.51100000000E-03 0. -1.
        -11    1    3    3    0    0 -0.33026909080E+01 -0.34636504769E+01 -0.13361370422E+02  0.14192634064E+02  0.51100000000E-03 0.  1.
         12    1    3    3    0    0 -0.18197519634E+01 -0.29602762182E+01 -0.78403100284E+01  0.85758494528E+01  0.00000000000E+00 0. -1.
</event>
<event>
 7    1  0.1024956E-012  0.5052887E+02  0.7816164E-02  0.1300439E+00
        -11   -1    0    0    0    0  0.00000000000E+00  0.00000000000E+00  0.45593999997E+02  0.45594000000E+02  0.51100000000E-03 0.  1.
         11   -1    0    0    0    0 -0.00000000000E+00 -0.00000000000E+00 -0.45593999997E+02  0.45594000000E+02  0.51100000000E-03 0. -1.
    9900012    2    1    2    0    0 -0.36332382462E+02  0.17533833949E+02  0.50682692601E+01  0.50528871853E+02  0.30000036486E+02 0.  0.
        -12    1    1    2    0    0  0.36332382462E+02 -0.17533833949E+02 -0.50682692601E+01  0.40659128147E+02  0.00000000000E+00 0.  1.
         11    1    3    3    0    0 -0.24719881003E+02  0.10238131843E+02  0.97826297730E+01  0.28488448641E+02  0.51100000000E-03 0. -1.
        -11    1    3    3    0    0  0.28572120965E+01 -0.22057733656E+01 -0.29094480917E+01  0.46361606491E+01  0.51100000000E-03 0.  1.
         12    1    3    3    0    0 -0.14469713556E+02  0.95014754721E+01 -0.18049124212E+01  0.17404262564E+02  0.00000000000E+00 0. -1.
</event>
<event>
 7    1  0.1024956E-012  0.5052886E+02  0.7816164E-02  0.1300439E+00
        -11   -1    0    0    0    0  0.00000000000E+00  0.00000000000E+00  0.45593999997E+02  0.45594000000E+02  0.51100000000E-03 0. -1.
         11   -1    0    0    0    0 -0.00000000000E+00 -0.00000000000E+00 -0.45593999997E+02  0.45594000000E+02  0.51100000000E-03 0.  1.
    9900012    2    1    2    0    0  0.33925776642E+02 -0.17796923619E+02  0.13618979880E+02  0.50528862970E+02  0.30000009483E+02 0.  0.
        -12    1    1    2    0    0 -0.33925776642E+02  0.17796923619E+02 -0.13618979880E+02  0.40659137030E+02  0.00000000000E+00 0.  1.
         11    1    3    3    0    0  0.98400347352E+01 -0.12861564960E+02  0.32362497152E+01  0.16514219609E+02  0.51100000000E-03 0. -1.
        -11    1    3    3    0    0  0.59519174517E+01  0.76919649181E+01  0.31204028284E+00  0.97308280764E+01  0.51100000000E-03 0.  1.
         12    1    3    3    0    0  0.18133824455E+02 -0.12627323577E+02  0.10070689882E+02  0.24283815285E+02  0.00000000000E+00 0. -1.
</event>
<event>
 7    1  0.1024956E-012  0.5052886E+02  0.7816164E-02  0.1300439E+00
        -11   -1    0    0    0    0  0.00000000000E+00  0.00000000000E+00  0.45593999997E+02  0.45594000000E+02  0.51100000000E-03 0.  1.
         11   -1    0    0    0    0 -0.00000000000E+00 -0.00000000000E+00 -0.45593999997E+02  0.45594000000E+02  0.51100000000E-03 0. -1.
    9900012    2    1    2    0    0  0.16860353728E+02 -0.36952405047E+02  0.18477278813E+01  0.50528857549E+02  0.29999993004E+02 0.  0.
        -12    1    1    2    0    0 -0.16860353728E+02  0.36952405047E+02 -0.18477278813E+01  0.40659142451E+02  0.00000000000E+00 0.  1.
         11    1    3    3    0    0  0.46951862708E+01 -0.20288489974E+02  0.96869096798E+01  0.22967451294E+02  0.51100000000E-03 0. -1.
        -11    1    3    3    0    0  0.55161001574E+01 -0.16254549238E+01 -0.94265615017E+01  0.11042170378E+02  0.51100000000E-03 0.  1.
        -12    1    3    3    0    0  0.66490673001E+01 -0.15038460149E+02  0.15873797032E+01  0.16519235876E+02  0.00000000000E+00 0.  1.
</event>
<event>
 7    1  0.1024956E-012  0.5052889E+02  0.7816164E-02  0.1300439E+00
        -11   -1    0    0    0    0  0.00000000000E+00  0.00000000000E+00  0.45593999997E+02  0.45594000000E+02  0.51100000000E-03 0. -1.
         11   -1    0    0    0    0 -0.00000000000E+00 -0.00000000000E+00 -0.45593999997E+02  0.45594000000E+02  0.51100000000E-03 0.  1.
    9900012    2    1    2    0    0  0.17492574854E+02  0.27727428005E+02  0.24049175335E+02  0.50528889421E+02  0.30000089884E+02 0.  0.
        -12    1    1    2    0    0 -0.17492574854E+02 -0.27727428005E+02 -0.24049175335E+02  0.40659110579E+02  0.00000000000E+00 0.  1.
         11    1    3    3    0    0 -0.38641705026E+01  0.12004091274E+02  0.83820599003E+01  0.15142290099E+02  0.51100000000E-03 0. -1.
        -11    1    3    3    0    0  0.20108490649E+02  0.14275126009E+02  0.57963280869E+01  0.25332351614E+02  0.51100000000E-03 0.  1.
        -12    1    3    3    0    0  0.12482547071E+01  0.14482107213E+01  0.98707873478E+01  0.10054247708E+02  0.00000000000E+00 0.  1.
</event>
<event>
 7    1  0.1024956E-012  0.5052885E+02  0.7816164E-02  0.1300439E+00
        -11   -1    0    0    0    0  0.00000000000E+00  0.00000000000E+00  0.45593999997E+02  0.45594000000E+02  0.51100000000E-03 0.  1.
         11   -1    0    0    0    0 -0.00000000000E+00 -0.00000000000E+00 -0.45593999997E+02  0.45594000000E+02  0.51100000000E-03 0. -1.
    9900012    2    1    2    0    0  0.15765798923E+01 -0.24770011452E+02 -0.32204458506E+02  0.50528853192E+02  0.29999979762E+02 0.  0.
        -12    1    1    2    0    0 -0.15765798923E+01  0.24770011452E+02  0.32204458506E+02  0.40659146808E+02  0.00000000000E+00 0.  1.
         11    1    3    3    0    0  0.15727008620E+01 -0.17468232465E+01 -0.79254892274E+01  0.82666897371E+01  0.51100000000E-03 0. -1.
        -11    1    3    3    0    0 -0.83818180216E+01 -0.26524805257E+01  0.86394981300E+00  0.88338516983E+01  0.51100000000E-03 0.  1.
        -12    1    3    3    0    0  0.83856970519E+01 -0.20370707680E+02 -0.25142919092E+02  0.33428311756E+02  0.00000000000E+00 0.  1.
</event>
<event>
 7    1  0.1024956E-012  0.5052886E+02  0.7816164E-02  0.1300439E+00
        -11   -1    0    0    0    0  0.00000000000E+00  0.00000000000E+00  0.45593999997E+02  0.45594000000E+02  0.51100000000E-03 0.  1.
         11   -1    0    0    0    0 -0.00000000000E+00 -0.00000000000E+00 -0.45593999997E+02  0.45594000000E+02  0.51100000000E-03 0. -1.
    9900012    2    1    2    0    0  0.17231158462E+02 -0.26648466129E+02 -0.25418729165E+02  0.50528863740E+02  0.30000011825E+02 0.  0.
        -12    1    1    2    0    0 -0.17231158462E+02  0.26648466129E+02  0.25418729165E+02  0.40659136260E+02  0.00000000000E+00 0.  1.
         11    1    3    3    0    0  0.24487273669E+01 -0.82657615064E+01 -0.69643738174E+01  0.11082489879E+02  0.51100000000E-03 0. -1.
        -11    1    3    3    0    0  0.15103036008E+02 -0.11788805087E+02  0.71447684083E+00  0.19172587187E+02  0.51100000000E-03 0.  1.
        -12    1    3    3    0    0 -0.32060491261E+00 -0.65938995357E+01 -0.19168832189E+02  0.20273786673E+02  0.00000000000E+00 0.  1.
</event>
<event>
 7    1  0.1024956E-012  0.5052887E+02  0.7816164E-02  0.1300439E+00
        -11   -1    0    0    0    0  0.00000000000E+00  0.00000000000E+00  0.45593999997E+02  0.45594000000E+02  0.51100000000E-03 0.  1.
         11   -1    0    0    0    0 -0.00000000000E+00 -0.00000000000E+00 -0.45593999997E+02  0.45594000000E+02  0.51100000000E-03 0. -1.
    9900012    2    1    2    0    0  0.25854911699E+02  0.23526206765E+02 -0.20765505854E+02  0.50528866991E+02  0.30000021705E+02 0.  0.
        -12    1    1    2    0    0 -0.25854911699E+02 -0.23526206765E+02  0.20765505854E+02  0.40659133009E+02  0.00000000000E+00 0.  1.
         11    1    3    3    0    0  0.19792884002E+02  0.11165033379E+02 -0.18718156565E+02  0.29441223020E+02  0.51100000000E-03 0. -1.
        -11    1    3    3    0    0 -0.34246301439E+01  0.94100471909E+01 -0.43038202838E+01  0.10899538938E+02  0.51100000000E-03 0.  1.
        -12    1    3    3    0    0  0.94866578410E+01  0.29511261944E+01  0.22564709947E+01  0.10188105033E+02  0.00000000000E+00 0.  1.
</event>
<event>
 7    1  0.1024956E-012  0.5052886E+02  0.7816164E-02  0.1300439E+00
        -11   -1    0    0    0    0  0.00000000000E+00  0.00000000000E+00  0.45593999997E+02  0.45594000000E+02  0.51100000000E-03 0.  1.
         11   -1    0    0    0    0 -0.00000000000E+00 -0.00000000000E+00 -0.45593999997E+02  0.45594000000E+02  0.51100000000E-03 0. -1.
    9900012    2    1    2    0    0 -0.20420444715E+02 -0.35095556972E+02 -0.21149927424E+01  0.50528857414E+02  0.29999992595E+02 0.  0.
        -12    1    1    2    0    0  0.20420444715E+02  0.35095556972E+02  0.21149927424E+01  0.40659142586E+02  0.00000000000E+00 0.  1.
         11    1    3    3    0    0 -0.15756036617E+02 -0.10383386649E+02 -0.10658128892E+02  0.21671712436E+02  0.51100000000E-03 0. -1.
        -11    1    3    3    0    0  0.27722438109E+01 -0.85258212400E+01  0.61782774060E+01  0.10887886642E+02  0.51100000000E-03 0.  1.
        -12    1    3    3    0    0 -0.74366519091E+01 -0.16186349083E+02  0.23648587438E+01  0.17969258335E+02  0.00000000000E+00 0.  1.
</event>
<event>
 7    1  0.1024956E-012  0.5052886E+02  0.7816164E-02  0.1300439E+00
        -11   -1    0    0    0    0  0.00000000000E+00  0.00000000000E+00  0.45593999997E+02  0.45594000000E+02  0.51100000000E-03 0. -1.
         11   -1    0    0    0    0 -0.00000000000E+00 -0.00000000000E+00 -0.45593999997E+02  0.45594000000E+02  0.51100000000E-03 0.  1.
    9900012    2    1    2    0    0  0.27179468657E+02 -0.18586355136E+02  0.23853504594E+02  0.50528858407E+02  0.29999995613E+02 0.  0.
        -12    1    1    2    0    0 -0.27179468657E+02  0.18586355136E+02 -0.23853504594E+02  0.40659141593E+02  0.00000000000E+00 0.  1.
         11    1    3    3    0    0  0.40725498181E+01 -0.15398436166E+02  0.64094775929E+00  0.15940775159E+02  0.51100000000E-03 0. -1.
        -11    1    3    3    0    0  0.11299009015E+02 -0.42657023935E+01  0.54941443876E+01  0.13268362538E+02  0.51100000000E-03 0.  1.
         12    1    3    3    0    0  0.11807909824E+02  0.10777834237E+01  0.17718412447E+02  0.21319720710E+02  0.00000000000E+00 0. -1.
</event>
<event>
 7    1  0.1024956E-012  0.5052893E+02  0.7816164E-02  0.1300439E+00
        -11   -1    0    0    0    0  0.00000000000E+00  0.00000000000E+00  0.45593999997E+02  0.45594000000E+02  0.51100000000E-03 0.  1.
         11   -1    0    0    0    0 -0.00000000000E+00 -0.00000000000E+00 -0.45593999997E+02  0.45594000000E+02  0.51100000000E-03 0. -1.
    9900012    2    1    2    0    0  0.33032799173E+01  0.38130248450E+02 -0.13723424742E+02  0.50528931003E+02  0.30000216276E+02 0.  0.
        -12    1    1    2    0    0 -0.33032799173E+01 -0.38130248450E+02  0.13723424742E+02  0.40659068997E+02  0.00000000000E+00 0.  1.
         11    1    3    3    0    0 -0.16888206091E+01  0.26206069775E+02 -0.22581461513E+02  0.34634269336E+02  0.51100000000E-03 0. -1.
        -11    1    3    3    0    0  0.28278678991E+01  0.45696530089E+01  0.48737111869E+01  0.72547657764E+01  0.51100000000E-03 0.  1.
         12    1    3    3    0    0  0.21642326273E+01  0.73545256658E+01  0.39843255844E+01  0.86398958903E+01  0.00000000000E+00 0. -1.
</event>
<event>
 7    1  0.1024956E-012  0.5052887E+02  0.7816164E-02  0.1300439E+00
        -11   -1    0    0    0    0  0.00000000000E+00  0.00000000000E+00  0.45593999997E+02  0.45594000000E+02  0.51100000000E-03 0.  1.
         11   -1    0    0    0    0 -0.00000000000E+00 -0.00000000000E+00 -0.45593999997E+02  0.45594000000E+02  0.51100000000E-03 0. -1.
    9900012    2    1    2    0    0  0.11901750444E+02 -0.13271269350E+01 -0.38855529678E+02  0.50528866756E+02  0.30000020993E+02 0.  0.
        -12    1    1    2    0    0 -0.11901750444E+02  0.13271269350E+01  0.38855529678E+02  0.40659133244E+02  0.00000000000E+00 0.  1.
         11    1    3    3    0    0  0.13508778948E+02  0.10169076345E+02 -0.16731834407E+02  0.23787633453E+02  0.51100000000E-03 0. -1.
        -11    1    3    3    0    0  0.57112432806E+00 -0.59459068350E+01 -0.29502852654E+01  0.66621448871E+01  0.51100000000E-03 0.  1.
         12    1    3    3    0    0 -0.21781528326E+01 -0.55502964453E+01 -0.19173410006E+02  0.20079088416E+02  0.00000000000E+00 0. -1.
</event>
<event>
 7    1  0.1024956E-012  0.5052887E+02  0.7816164E-02  0.1300439E+00
        -11   -1    0    0    0    0  0.00000000000E+00  0.00000000000E+00  0.45593999997E+02  0.45594000000E+02  0.51100000000E-03 0.  1.
         11   -1    0    0    0    0 -0.00000000000E+00 -0.00000000000E+00 -0.45593999997E+02  0.45594000000E+02  0.51100000000E-03 0. -1.
    9900012    2    1    2    0    0 -0.13032251319E+02 -0.37972627046E+02  0.64346904749E+01  0.50528865470E+02  0.30000017083E+02 0.  0.
        -12    1    1    2    0    0  0.13032251319E+02  0.37972627046E+02 -0.64346904749E+01  0.40659134530E+02  0.00000000000E+00 0.  1.
         11    1    3    3    0    0 -0.10534568495E+02 -0.17745343465E+02  0.71333574300E+00  0.20649048313E+02  0.51100000000E-03 0. -1.
        -11    1    3    3    0    0  0.89375335858E+01 -0.11173122623E+02  0.53925086943E+01  0.15290432500E+02  0.51100000000E-03 0.  1.
        -12    1    3    3    0    0 -0.11435216409E+02 -0.90541609580E+01  0.32884603762E+00  0.14589384658E+02  0.00000000000E+00 0.  1.
</event>
<event>
 7    1  0.1024956E-012  0.5052886E+02  0.7816164E-02  0.1300439E+00
        -11   -1    0    0    0    0  0.00000000000E+00  0.00000000000E+00  0.45593999997E+02  0.45594000000E+02  0.51100000000E-03 0.  1.
         11   -1    0    0    0    0 -0.00000000000E+00 -0.00000000000E+00 -0.45593999997E+02  0.45594000000E+02  0.51100000000E-03 0. -1.
    9900012    2    1    2    0    0 -0.68949888001E+01 -0.22003838590E+02 -0.33488141811E+02  0.50528862956E+02  0.30000009440E+02 0.  0.
        -12    1    1    2    0    0  0.68949888001E+01  0.22003838590E+02  0.33488141811E+02  0.40659137044E+02  0.00000000000E+00 0.  1.
         11    1    3    3    0    0 -0.56322569039E+01 -0.11846301244E+02 -0.62264681211E+01  0.14519851119E+02  0.51100000000E-03 0. -1.
        -11    1    3    3    0    0 -0.96147161844E+00 -0.34889282246E+01 -0.28907947839E+02  0.29133597381E+02  0.51100000000E-03 0.  1.
        -12    1    3    3    0    0 -0.30126027783E+00 -0.66686091211E+01  0.16462741488E+01  0.68754144558E+01  0.00000000000E+00 0.  1.
</event>
<event>
 7    1  0.1024956E-012  0.5052885E+02  0.7816164E-02  0.1300439E+00
        -11   -1    0    0    0    0  0.00000000000E+00  0.00000000000E+00  0.45593999997E+02  0.45594000000E+02  0.51100000000E-03 0.  1.
         11   -1    0    0    0    0 -0.00000000000E+00 -0.00000000000E+00 -0.45593999997E+02  0.45594000000E+02  0.51100000000E-03 0. -1.
    9900012    2    1    2    0    0  0.24672001219E+02  0.11527997468E+02 -0.30192115833E+02  0.50528853081E+02  0.29999979424E+02 0.  0.
        -12    1    1    2    0    0 -0.24672001219E+02 -0.11527997468E+02  0.30192115833E+02  0.40659146919E+02  0.00000000000E+00 0.  1.
         11    1    3    3    0    0  0.25152587276E+01 -0.68101474077E+01 -0.86525169685E+01  0.11294719312E+02  0.51100000000E-03 0.  1.
        -11    1    3    3    0    0  0.12964051214E+02  0.19100927966E+02 -0.18296642606E+02  0.29456394959E+02  0.51100000000E-03 0. -1.
         12    1    3    3    0    0  0.91926912766E+01 -0.76278308988E+00 -0.32429562584E+01  0.97777388103E+01  0.00000000000E+00 0. -1.
</event>
<event>
 7    1  0.1024956E-012  0.5052885E+02  0.7816164E-02  0.1300439E+00
        -11   -1    0    0    0    0  0.00000000000E+00  0.00000000000E+00  0.45593999997E+02  0.45594000000E+02  0.51100000000E-03 0.  1.
         11   -1    0    0    0    0 -0.00000000000E+00 -0.00000000000E+00 -0.45593999997E+02  0.45594000000E+02  0.51100000000E-03 0. -1.
    9900012    2    1    2    0    0  0.14260842011E+02 -0.21194387112E+02 -0.31632145294E+02  0.50528852495E+02  0.29999977644E+02 0.  0.
        -12    1    1    2    0    0 -0.14260842011E+02  0.21194387112E+02  0.31632145294E+02  0.40659147505E+02  0.00000000000E+00 0.  1.
         11    1    3    3    0    0  0.48620938876E+01  0.14260038420E+01 -0.18865477063E+02  0.19534064323E+02  0.51100000000E-03 0. -1.
        -11    1    3    3    0    0  0.12109217618E+02 -0.14742990250E+02 -0.12198172807E+02  0.22644741838E+02  0.51100000000E-03 0.  1.
        -12    1    3    3    0    0 -0.27104694948E+01 -0.78774007034E+01 -0.56849542499E+00  0.83500463335E+01  0.00000000000E+00 0.  1.
</event>
<event>
 7    1  0.1024956E-012  0.5052888E+02  0.7816164E-02  0.1300439E+00
        -11   -1    0    0    0    0  0.00000000000E+00  0.00000000000E+00  0.45593999997E+02  0.45594000000E+02  0.51100000000E-03 0.  1.
         11   -1    0    0    0    0 -0.00000000000E+00 -0.00000000000E+00 -0.45593999997E+02  0.45594000000E+02  0.51100000000E-03 0. -1.
    9900012    2    1    2    0    0 -0.30356546107E+02 -0.24330823567E+02 -0.11817586186E+02  0.50528877896E+02  0.30000054853E+02 0.  0.
        -12    1    1    2    0    0  0.30356546107E+02  0.24330823567E+02  0.11817586186E+02  0.40659122104E+02  0.00000000000E+00 0.  1.
         11    1    3    3    0    0 -0.26051374768E+02 -0.15421076737E+02  0.28872422459E+01  0.30410851732E+02  0.51100000000E-03 0. -1.
        -11    1    3    3    0    0 -0.35120028438E+01 -0.10967135325E+02 -0.12601581616E+02  0.17070796136E+02  0.51100000000E-03 0.  1.
        -12    1    3    3    0    0 -0.79316849483E+00  0.20573884946E+01 -0.21032468154E+01  0.30472300283E+01  0.00000000000E+00 0.  1.
</event>
<event>
 7    1  0.1024956E-012  0.5052886E+02  0.7816164E-02  0.1300439E+00
        -11   -1    0    0    0    0  0.00000000000E+00  0.00000000000E+00  0.45593999997E+02  0.45594000000E+02  0.51100000000E-03 0.  1.
         11   -1    0    0    0    0 -0.00000000000E+00 -0.00000000000E+00 -0.45593999997E+02  0.45594000000E+02  0.51100000000E-03 0. -1.
    9900012    2    1    2    0    0  0.19650004525E+02  0.69472261775E+01 -0.34911018974E+02  0.50528857422E+02  0.29999992619E+02 0.  0.
        -12    1    1    2    0    0 -0.19650004525E+02 -0.69472261775E+01  0.34911018974E+02  0.40659142578E+02  0.00000000000E+00 0.  1.
         11    1    3    3    0    0  0.76758279612E+01 -0.71186495009E+01 -0.29360852280E+02  0.31171351471E+02  0.51100000000E-03 0. -1.
        -11    1    3    3    0    0  0.26182779110E+01  0.41499568498E+01 -0.16660444805E+01  0.51820097980E+01  0.51100000000E-03 0.  1.
         12    1    3    3    0    0  0.93558986531E+01  0.99159188286E+01 -0.38841222129E+01  0.14175496153E+02  0.00000000000E+00 0. -1.
</event>
<event>
 7    1  0.1024956E-012  0.5052885E+02  0.7816164E-02  0.1300439E+00
        -11   -1    0    0    0    0  0.00000000000E+00  0.00000000000E+00  0.45593999997E+02  0.45594000000E+02  0.51100000000E-03 0.  1.
         11   -1    0    0    0    0 -0.00000000000E+00 -0.00000000000E+00 -0.45593999997E+02  0.45594000000E+02  0.51100000000E-03 0. -1.
    9900012    2    1    2    0    0  0.90016461147E+01 -0.37943793203E+02 -0.11506739365E+02  0.50528854335E+02  0.29999983237E+02 0.  0.
        -12    1    1    2    0    0 -0.90016461147E+01  0.37943793203E+02  0.11506739365E+02  0.40659145665E+02  0.00000000000E+00 0.  1.
         11    1    3    3    0    0  0.11689055540E+02 -0.42286780124E+02 -0.10586204808E+02  0.45131735233E+02  0.51100000000E-03 0. -1.
        -11    1    3    3    0    0 -0.10690738896E+01  0.18437460313E+01  0.35017771360E+00  0.21598479348E+01  0.51100000000E-03 0.  1.
         12    1    3    3    0    0 -0.16183355361E+01  0.24992408899E+01 -0.12707122707E+01  0.32372711669E+01  0.00000000000E+00 0. -1.
</event>
<event>
 7    1  0.1024956E-012  0.5052887E+02  0.7816164E-02  0.1300439E+00
        -11   -1    0    0    0    0  0.00000000000E+00  0.00000000000E+00  0.45593999997E+02  0.45594000000E+02  0.51100000000E-03 0.  1.
         11   -1    0    0    0    0 -0.00000000000E+00 -0.00000000000E+00 -0.45593999997E+02  0.45594000000E+02  0.51100000000E-03 0. -1.
    9900012    2    1    2    0    0  0.37647896641E+02  0.14210885615E+02  0.58181996959E+01  0.50528870162E+02  0.30000031345E+02 0.  0.
        -12    1    1    2    0    0 -0.37647896641E+02 -0.14210885615E+02 -0.58181996959E+01  0.40659129838E+02  0.00000000000E+00 0.  1.
         11    1    3    3    0    0  0.11889875150E+02  0.11455151933E+02 -0.75320338434E+01  0.18147208351E+02  0.51100000000E-03 0. -1.
        -11    1    3    3    0    0  0.17271409593E+02  0.13786860017E+01  0.15792753011E+02  0.23443835274E+02  0.51100000000E-03 0.  1.
        -12    1    3    3    0    0  0.84866118982E+01  0.13770476808E+01 -0.24425194718E+01  0.89378265365E+01  0.00000000000E+00 0.  1.
</event>
<event>
 7    1  0.1024956E-012  0.5052885E+02  0.7816164E-02  0.1300439E+00
        -11   -1    0    0    0    0  0.00000000000E+00  0.00000000000E+00  0.45593999997E+02  0.45594000000E+02  0.51100000000E-03 0.  1.
         11   -1    0    0    0    0 -0.00000000000E+00 -0.00000000000E+00 -0.45593999997E+02  0.45594000000E+02  0.51100000000E-03 0. -1.
    9900012    2    1    2    0    0 -0.10346594861E+02  0.31261505376E+02 -0.23850208287E+02  0.50528853687E+02  0.29999981267E+02 0.  0.
        -12    1    1    2    0    0  0.10346594861E+02 -0.31261505376E+02  0.23850208287E+02  0.40659146313E+02  0.00000000000E+00 0.  1.
         11    1    3    3    0    0  0.34970954400E+01  0.22470626132E+02 -0.28451151147E+01  0.22918407352E+02  0.51100000000E-03 0. -1.
        -11    1    3    3    0    0 -0.53557519525E+01  0.38685726259E+01 -0.14223339942E+02  0.15682899365E+02  0.51100000000E-03 0.  1.
         12    1    3    3    0    0 -0.84879383480E+01  0.49223066178E+01 -0.67817532305E+01  0.11927546970E+02  0.00000000000E+00 0. -1.
</event>
<event>
 7    1  0.1024956E-012  0.5052886E+02  0.7816164E-02  0.1300439E+00
        -11   -1    0    0    0    0  0.00000000000E+00  0.00000000000E+00  0.45593999997E+02  0.45594000000E+02  0.51100000000E-03 0.  1.
         11   -1    0    0    0    0 -0.00000000000E+00 -0.00000000000E+00 -0.45593999997E+02  0.45594000000E+02  0.51100000000E-03 0. -1.
    9900012    2    1    2    0    0  0.15045317403E+02 -0.74759952886E+01 -0.37025851639E+02  0.50528858705E+02  0.29999996518E+02 0.  0.
        -12    1    1    2    0    0 -0.15045317403E+02  0.74759952886E+01  0.37025851639E+02  0.40659141295E+02  0.00000000000E+00 0.  1.
         11    1    3    3    0    0  0.10392171344E+02  0.27107036808E+01 -0.23134194217E+01  0.10986220887E+02  0.51100000000E-03 0. -1.
        -11    1    3    3    0    0  0.37287953236E+00 -0.10773796746E+02 -0.10859905483E+02  0.15302002576E+02  0.51100000000E-03 0.  1.
         12    1    3    3    0    0  0.42802665261E+01  0.58709777649E+00 -0.23852526734E+02  0.24240635242E+02  0.00000000000E+00 0. -1.
</event>
<event>
 7    1  0.1024956E-012  0.5052886E+02  0.7816164E-02  0.1300439E+00
        -11   -1    0    0    0    0  0.00000000000E+00  0.00000000000E+00  0.45593999997E+02  0.45594000000E+02  0.51100000000E-03 0. -1.
         11   -1    0    0    0    0 -0.00000000000E+00 -0.00000000000E+00 -0.45593999997E+02  0.45594000000E+02  0.51100000000E-03 0.  1.
    9900012    2    1    2    0    0  0.21985919267E+02  0.37229666349E+01  0.33998892129E+02  0.50528858437E+02  0.29999995706E+02 0.  0.
        -12    1    1    2    0    0 -0.21985919267E+02 -0.37229666349E+01 -0.33998892129E+02  0.40659141563E+02  0.00000000000E+00 0.  1.
         11    1    3    3    0    0  0.13959557028E+02  0.14040232395E+02  0.29480484507E+02  0.35511918072E+02  0.51100000000E-03 0. -1.
        -11    1    3    3    0    0  0.49085191607E+01 -0.99389714596E+01  0.27843363657E+01  0.11429315084E+02  0.51100000000E-03 0.  1.
         12    1    3    3    0    0  0.31178430785E+01 -0.37829430028E+00  0.17340712569E+01  0.35876252819E+01  0.00000000000E+00 0. -1.
</event>
<event>
 7    1  0.1024956E-012  0.5052886E+02  0.7816164E-02  0.1300439E+00
        -11   -1    0    0    0    0  0.00000000000E+00  0.00000000000E+00  0.45593999997E+02  0.45594000000E+02  0.51100000000E-03 0. -1.
         11   -1    0    0    0    0 -0.00000000000E+00 -0.00000000000E+00 -0.45593999997E+02  0.45594000000E+02  0.51100000000E-03 0.  1.
    9900012    2    1    2    0    0 -0.29066961744E+02  0.26280576591E+02  0.10844772492E+02  0.50528855132E+02  0.29999985659E+02 0.  0.
        -12    1    1    2    0    0  0.29066961744E+02 -0.26280576591E+02 -0.10844772492E+02  0.40659144868E+02  0.00000000000E+00 0.  1.
         11    1    3    3    0    0 -0.14604314247E+02  0.18624383796E+02  0.11925540005E+02  0.26502305015E+02  0.51100000000E-03 0. -1.
        -11    1    3    3    0    0 -0.13911897075E+02  0.13409810970E+00  0.45242269054E+01  0.14629678462E+02  0.51100000000E-03 0.  1.
         12    1    3    3    0    0 -0.55075042184E+00  0.75220946850E+01 -0.56049944184E+01  0.93968716553E+01  0.00000000000E+00 0. -1.
</event>
<event>
 7    1  0.1024956E-012  0.5052885E+02  0.7816164E-02  0.1300439E+00
        -11   -1    0    0    0    0  0.00000000000E+00  0.00000000000E+00  0.45593999997E+02  0.45594000000E+02  0.51100000000E-03 0.  1.
         11   -1    0    0    0    0 -0.00000000000E+00 -0.00000000000E+00 -0.45593999997E+02  0.45594000000E+02  0.51100000000E-03 0. -1.
    9900012    2    1    2    0    0 -0.39214867571E+02  0.90195558918E+00 -0.10702670684E+02  0.50528849464E+02  0.29999968432E+02 0.  0.
        -12    1    1    2    0    0  0.39214867571E+02 -0.90195558918E+00  0.10702670684E+02  0.40659150536E+02  0.00000000000E+00 0.  1.
         11    1    3    3    0    0 -0.30546686338E+02 -0.66959618595E+01  0.37297541937E+01  0.31493602812E+02  0.51100000000E-03 0. -1.
        -11    1    3    3    0    0 -0.77883056340E+01  0.80252322933E+01 -0.14112213965E+02  0.18006016807E+02  0.51100000000E-03 0.  1.
        -12    1    3    3    0    0 -0.87987559922E+00 -0.42731484465E+00 -0.32021091310E+00  0.10292298458E+01  0.00000000000E+00 0.  1.
</event>
<event>
 7    1  0.1024956E-012  0.5052887E+02  0.7816164E-02  0.1300439E+00
        -11   -1    0    0    0    0  0.00000000000E+00  0.00000000000E+00  0.45593999997E+02  0.45594000000E+02  0.51100000000E-03 0. -1.
         11   -1    0    0    0    0 -0.00000000000E+00 -0.00000000000E+00 -0.45593999997E+02  0.45594000000E+02  0.51100000000E-03 0.  1.
    9900012    2    1    2    0    0 -0.32253752958E+02  0.56317205266E+01  0.24106924497E+02  0.50528872308E+02  0.30000037869E+02 0.  0.
        -12    1    1    2    0    0  0.32253752958E+02 -0.56317205266E+01 -0.24106924497E+02  0.40659127692E+02  0.00000000000E+00 0.  1.
         11    1    3    3    0    0 -0.94102029662E+00  0.54457891945E+01  0.17518465309E+02  0.18369506422E+02  0.51100000000E-03 0. -1.
        -11    1    3    3    0    0 -0.17570057902E+02 -0.13542124031E+01  0.30376472191E+01  0.17882061592E+02  0.51100000000E-03 0.  1.
         12    1    3    3    0    0 -0.13742674759E+02  0.15401437353E+01  0.35508119688E+01  0.14277304294E+02  0.00000000000E+00 0. -1.
</event>
<event>
 7    1  0.1024956E-012  0.5052886E+02  0.7816164E-02  0.1300439E+00
        -11   -1    0    0    0    0  0.00000000000E+00  0.00000000000E+00  0.45593999997E+02  0.45594000000E+02  0.51100000000E-03 0. -1.
         11   -1    0    0    0    0 -0.00000000000E+00 -0.00000000000E+00 -0.45593999997E+02  0.45594000000E+02  0.51100000000E-03 0.  1.
    9900012    2    1    2    0    0 -0.28549014694E+02  0.14586833499E+02  0.25006875000E+02  0.50528858976E+02  0.29999997344E+02 0.  0.
        -12    1    1    2    0    0  0.28549014694E+02 -0.14586833499E+02 -0.25006875000E+02  0.40659141024E+02  0.00000000000E+00 0.  1.
         11    1    3    3    0    0 -0.26395209802E+02  0.20070493885E+02  0.17664635607E+02  0.37570882032E+02  0.51100000000E-03 0. -1.
        -11    1    3    3    0    0 -0.17185547144E+01 -0.35712517726E+01 -0.12414010064E+01  0.41531128385E+01  0.51100000000E-03 0.  1.
         12    1    3    3    0    0 -0.43525017794E+00 -0.19124086126E+01  0.85836403994E+01  0.88048641060E+01  0.00000000000E+00 0. -1.
</event>
<event>
 7    1  0.1024956E-012  0.5052886E+02  0.7816164E-02  0.1300439E+00
        -11   -1    0    0    0    0  0.00000000000E+00  0.00000000000E+00  0.45593999997E+02  0.45594000000E+02  0.51100000000E-03 0. -1.
         11   -1    0    0    0    0 -0.00000000000E+00 -0.00000000000E+00 -0.45593999997E+02  0.45594000000E+02  0.51100000000E-03 0.  1.
    9900012    2    1    2    0    0 -0.74542406140E+01  0.38390546420E+02  0.11125019479E+02  0.50528858150E+02  0.29999994834E+02 0.  0.
        -12    1    1    2    0    0  0.74542406140E+01 -0.38390546420E+02 -0.11125019479E+02  0.40659141850E+02  0.00000000000E+00 0.  1.
         11    1    3    3    0    0 -0.45539988651E+00  0.31299473270E+02 -0.26951757443E+01  0.31418599405E+02  0.51100000000E-03 0. -1.
        -11    1    3    3    0    0 -0.83764046632E+01  0.31775368168E+01  0.83685336860E+01  0.12259414816E+02  0.51100000000E-03 0.  1.
         12    1    3    3    0    0  0.13775639358E+01  0.39135363331E+01  0.54516615376E+01  0.68508439296E+01  0.00000000000E+00 0. -1.
</event>
<event>
 7    1  0.1024956E-012  0.5052886E+02  0.7816164E-02  0.1300439E+00
        -11   -1    0    0    0    0  0.00000000000E+00  0.00000000000E+00  0.45593999997E+02  0.45594000000E+02  0.51100000000E-03 0.  1.
         11   -1    0    0    0    0 -0.00000000000E+00 -0.00000000000E+00 -0.45593999997E+02  0.45594000000E+02  0.51100000000E-03 0. -1.
    9900012    2    1    2    0    0 -0.16714796220E+02 -0.18607172957E+02 -0.32055483819E+02  0.50528863991E+02  0.30000012586E+02 0.  0.
        -12    1    1    2    0    0  0.16714796220E+02  0.18607172957E+02  0.32055483819E+02  0.40659136009E+02  0.00000000000E+00 0.  1.
         11    1    3    3    0    0  0.13855518418E+01 -0.12027950401E+01 -0.14375279420E+02  0.14491898719E+02  0.51100000000E-03 0.  1.
        -11    1    3    3    0    0 -0.10378203341E+02 -0.24932570312E+01  0.12336362547E+01  0.10744547170E+02  0.51100000000E-03 0. -1.
        -12    1    3    3    0    0 -0.77221447205E+01 -0.14911120886E+02 -0.18913840654E+02  0.25292418102E+02  0.00000000000E+00 0.  1.
</event>
<event>
 7    1  0.1024956E-012  0.5052887E+02  0.7816164E-02  0.1300439E+00
        -11   -1    0    0    0    0  0.00000000000E+00  0.00000000000E+00  0.45593999997E+02  0.45594000000E+02  0.51100000000E-03 0. -1.
         11   -1    0    0    0    0 -0.00000000000E+00 -0.00000000000E+00 -0.45593999997E+02  0.45594000000E+02  0.51100000000E-03 0.  1.
    9900012    2    1    2    0    0 -0.33663532040E+02  0.19708858232E+02  0.11467029138E+02  0.50528865240E+02  0.30000016382E+02 0.  0.
        -12    1    1    2    0    0  0.33663532040E+02 -0.19708858232E+02 -0.11467029138E+02  0.40659134760E+02  0.00000000000E+00 0.  1.
         11    1    3    3    0    0 -0.20769454718E+02 -0.39652259825E+01  0.36935878498E+01  0.21464758508E+02  0.51100000000E-03 0. -1.
        -11    1    3    3    0    0  0.34890170905E+00  0.54829091718E+01  0.18400182922E+01  0.57939358786E+01  0.51100000000E-03 0.  1.
         12    1    3    3    0    0 -0.13242979031E+02  0.18191175043E+02  0.59334229962E+01  0.23270170853E+02  0.00000000000E+00 0. -1.
</event>
<event>
 7    1  0.1024956E-012  0.5052886E+02  0.7816164E-02  0.1300439E+00
        -11   -1    0    0    0    0  0.00000000000E+00  0.00000000000E+00  0.45593999997E+02  0.45594000000E+02  0.51100000000E-03 0. -1.
         11   -1    0    0    0    0 -0.00000000000E+00 -0.00000000000E+00 -0.45593999997E+02  0.45594000000E+02  0.51100000000E-03 0.  1.
    9900012    2    1    2    0    0 -0.19704483618E+02 -0.31874078686E+01  0.35422297515E+02  0.50528863207E+02  0.30000010203E+02 0.  0.
        -12    1    1    2    0    0  0.19704483618E+02  0.31874078686E+01 -0.35422297515E+02  0.40659136793E+02  0.00000000000E+00 0.  1.
         11    1    3    3    0    0 -0.44855506280E+01 -0.10250565161E+00  0.96038191148E+01  0.10600189324E+02  0.51100000000E-03 0. -1.
        -11    1    3    3    0    0 -0.63443041095E+01 -0.10961050997E+02  0.13519118277E+01  0.12736659666E+02  0.51100000000E-03 0.  1.
        -12    1    3    3    0    0 -0.88746288802E+01  0.78761487799E+01  0.24466566572E+02  0.27192014217E+02  0.00000000000E+00 0.  1.
</event>
<event>
 7    1  0.1024956E-012  0.5052886E+02  0.7816164E-02  0.1300439E+00
        -11   -1    0    0    0    0  0.00000000000E+00  0.00000000000E+00  0.45593999997E+02  0.45594000000E+02  0.51100000000E-03 0.  1.
         11   -1    0    0    0    0 -0.00000000000E+00 -0.00000000000E+00 -0.45593999997E+02  0.45594000000E+02  0.51100000000E-03 0. -1.
    9900012    2    1    2    0    0 -0.20660728049E+02 -0.24974939772E+02 -0.24546938353E+02  0.50528862249E+02  0.30000007292E+02 0.  0.
        -12    1    1    2    0    0  0.20660728049E+02  0.24974939772E+02  0.24546938353E+02  0.40659137751E+02  0.00000000000E+00 0.  1.
         11    1    3    3    0    0 -0.17748175535E+02 -0.15088629802E+02 -0.40231928925E-01  0.23295194847E+02  0.51100000000E-03 0. -1.
        -11    1    3    3    0    0  0.84614561615E+00  0.14574583613E+00 -0.40663998417E+01  0.41560572886E+01  0.51100000000E-03 0.  1.
         12    1    3    3    0    0 -0.37586981306E+01 -0.10032055806E+02 -0.20440306583E+02  0.23077610113E+02  0.00000000000E+00 0. -1.
</event>
<event>
 7    1  0.1024956E-012  0.5052886E+02  0.7816164E-02  0.1300439E+00
        -11   -1    0    0    0    0  0.00000000000E+00  0.00000000000E+00  0.45593999997E+02  0.45594000000E+02  0.51100000000E-03 0.  1.
         11   -1    0    0    0    0 -0.00000000000E+00 -0.00000000000E+00 -0.45593999997E+02  0.45594000000E+02  0.51100000000E-03 0. -1.
    9900012    2    1    2    0    0  0.63261748334E+01  0.40133901173E+02  0.15541581874E+01  0.50528856882E+02  0.29999990979E+02 0.  0.
        -12    1    1    2    0    0 -0.63261748334E+01 -0.40133901173E+02 -0.15541581874E+01  0.40659143118E+02  0.00000000000E+00 0.  1.
         11    1    3    3    0    0  0.16411285924E+02  0.18384530593E+02  0.31901718016E+01  0.24849516438E+02  0.51100000000E-03 0. -1.
        -11    1    3    3    0    0 -0.98186580056E+00  0.18591305347E+01  0.26563820014E+01  0.33877414886E+01  0.51100000000E-03 0.  1.
         12    1    3    3    0    0 -0.91032452900E+01  0.19890240045E+02 -0.42923956156E+01  0.22291598956E+02  0.00000000000E+00 0. -1.
</event>
<event>
 7    1  0.1024956E-012  0.5052886E+02  0.7816164E-02  0.1300439E+00
        -11   -1    0    0    0    0  0.00000000000E+00  0.00000000000E+00  0.45593999997E+02  0.45594000000E+02  0.51100000000E-03 0.  1.
         11   -1    0    0    0    0 -0.00000000000E+00 -0.00000000000E+00 -0.45593999997E+02  0.45594000000E+02  0.51100000000E-03 0. -1.
    9900012    2    1    2    0    0 -0.12822575853E+02 -0.29097835519E+02 -0.25338967595E+02  0.50528858812E+02  0.29999996845E+02 0.  0.
        -12    1    1    2    0    0  0.12822575853E+02  0.29097835519E+02  0.25338967595E+02  0.40659141188E+02  0.00000000000E+00 0.  1.
         11    1    3    3    0    0  0.39522950001E+01  0.35623637507E+01 -0.62829263934E+01  0.82332396774E+01  0.51100000000E-03 0. -1.
        -11    1    3    3    0    0 -0.46604530991E-01 -0.45889807913E+01 -0.25704871917E+00  0.45964106638E+01  0.51100000000E-03 0.  1.
         12    1    3    3    0    0 -0.16728266322E+02 -0.28071218478E+02 -0.18798992482E+02  0.37699208471E+02  0.00000000000E+00 0. -1.
</event>
<event>
 7    1  0.1024956E-012  0.5052885E+02  0.7816164E-02  0.1300439E+00
        -11   -1    0    0    0    0  0.00000000000E+00  0.00000000000E+00  0.45593999997E+02  0.45594000000E+02  0.51100000000E-03 0.  1.
         11   -1    0    0    0    0 -0.00000000000E+00 -0.00000000000E+00 -0.45593999997E+02  0.45594000000E+02  0.51100000000E-03 0. -1.
    9900012    2    1    2    0    0 -0.27688787262E+02 -0.29401487523E+02  0.46957246219E+01  0.50528852956E+02  0.29999979046E+02 0.  0.
        -12    1    1    2    0    0  0.27688787262E+02  0.29401487523E+02 -0.46957246219E+01  0.40659147044E+02  0.00000000000E+00 0.  1.
         11    1    3    3    0    0 -0.26459007630E+02 -0.19602018694E+02  0.10759931482E+02  0.34642377912E+02  0.51100000000E-03 0. -1.
        -11    1    3    3    0    0 -0.20749837357E+01 -0.72337613813E+01 -0.91093724458E+01  0.11815816850E+02  0.51100000000E-03 0.  1.
        -12    1    3    3    0    0  0.84520410424E+00 -0.25657074479E+01  0.30451655859E+01  0.40706581940E+01  0.00000000000E+00 0.  1.
</event>
<event>
 7    1  0.1024956E-012  0.5052887E+02  0.7816164E-02  0.1300439E+00
        -11   -1    0    0    0    0  0.00000000000E+00  0.00000000000E+00  0.45593999997E+02  0.45594000000E+02  0.51100000000E-03 0.  1.
         11   -1    0    0    0    0 -0.00000000000E+00 -0.00000000000E+00 -0.45593999997E+02  0.45594000000E+02  0.51100000000E-03 0. -1.
    9900012    2    1    2    0    0 -0.29140671852E+02 -0.23721308604E+02 -0.15533361024E+02  0.50528873809E+02  0.30000042431E+02 0.  0.
        -12    1    1    2    0    0  0.29140671852E+02  0.23721308604E+02  0.15533361024E+02  0.40659126191E+02  0.00000000000E+00 0.  1.
         11    1    3    3    0    0 -0.86640259517E+01 -0.72008434046E+01  0.13269533709E+01  0.11343645663E+02  0.51100000000E-03 0. -1.
        -11    1    3    3    0    0 -0.21020559806E+02 -0.53167311188E+01 -0.17624946876E+02  0.27942267570E+02  0.51100000000E-03 0.  1.
        -12    1    3    3    0    0  0.54391390499E+00 -0.11203734080E+02  0.76463248063E+00  0.11242960576E+02  0.00000000000E+00 0.  1.
</event>
<event>
 7    1  0.1024956E-012  0.5052886E+02  0.7816164E-02  0.1300439E+00
        -11   -1    0    0    0    0  0.00000000000E+00  0.00000000000E+00  0.45593999997E+02  0.45594000000E+02  0.51100000000E-03 0. -1.
         11   -1    0    0    0    0 -0.00000000000E+00 -0.00000000000E+00 -0.45593999997E+02  0.45594000000E+02  0.51100000000E-03 0.  1.
    9900012    2    1    2    0    0 -0.25093328536E+02 -0.28168944188E+02  0.15165792535E+02  0.50528858139E+02  0.29999994799E+02 0.  0.
        -12    1    1    2    0    0  0.25093328536E+02  0.28168944188E+02 -0.15165792535E+02  0.40659141861E+02  0.00000000000E+00 0.  1.
         11    1    3    3    0    0 -0.30515859129E+01 -0.26223335597E+00  0.62364582716E+01  0.69479748813E+01  0.51100000000E-03 0. -1.
        -11    1    3    3    0    0 -0.22190828486E+02 -0.23776672427E+02 -0.12989891950E+01  0.32549199587E+02  0.51100000000E-03 0.  1.
        -12    1    3    3    0    0  0.14908586324E+00 -0.41300384053E+01  0.10228323459E+02  0.11031683670E+02  0.00000000000E+00 0.  1.
</event>
<event>
 7    1  0.1024956E-012  0.5052889E+02  0.7816164E-02  0.1300439E+00
        -11   -1    0    0    0    0  0.00000000000E+00  0.00000000000E+00  0.45593999997E+02  0.45594000000E+02  0.51100000000E-03 0.  1.
         11   -1    0    0    0    0 -0.00000000000E+00 -0.00000000000E+00 -0.45593999997E+02  0.45594000000E+02  0.51100000000E-03 0. -1.
    9900012    2    1    2    0    0 -0.39108168181E+02  0.92920245187E-01  0.11122322529E+02  0.50528886494E+02  0.30000080988E+02 0.  0.
        -12    1    1    2    0    0  0.39108168181E+02 -0.92920245187E-01 -0.11122322529E+02  0.40659113506E+02  0.00000000000E+00 0.  1.
         11    1    3    3    0    0 -0.29785276522E+02  0.14402585508E+01  0.20494208637E+02  0.36183554692E+02  0.51100000000E-03 0. -1.
        -11    1    3    3    0    0 -0.96007066028E+01 -0.21025059435E+01 -0.76841175440E+01  0.12475566569E+02  0.51100000000E-03 0.  1.
         12    1    3    3    0    0  0.27781494384E+00  0.75516763788E+00 -0.16877685643E+01  0.18697652342E+01  0.00000000000E+00 0. -1.
</event>
<event>
 7    1  0.1024956E-012  0.5052886E+02  0.7816164E-02  0.1300439E+00
        -11   -1    0    0    0    0  0.00000000000E+00  0.00000000000E+00  0.45593999997E+02  0.45594000000E+02  0.51100000000E-03 0.  1.
         11   -1    0    0    0    0 -0.00000000000E+00 -0.00000000000E+00 -0.45593999997E+02  0.45594000000E+02  0.51100000000E-03 0. -1.
    9900012    2    1    2    0    0  0.16236437532E+02  0.29811465723E+02 -0.22379007628E+02  0.50528863576E+02  0.30000011326E+02 0.  0.
        -12    1    1    2    0    0 -0.16236437532E+02 -0.29811465723E+02  0.22379007628E+02  0.40659136424E+02  0.00000000000E+00 0.  1.
         11    1    3    3    0    0  0.13211191112E+02  0.30273818660E+02 -0.91347304663E+01  0.34270730483E+02  0.51100000000E-03 0. -1.
        -11    1    3    3    0    0  0.60385232971E+00 -0.70148216423E+00 -0.13743200782E+02  0.13774334207E+02  0.51100000000E-03 0.  1.
         12    1    3    3    0    0  0.24213940908E+01  0.23912922691E+00  0.49892361943E+00  0.24837988864E+01  0.00000000000E+00 0. -1.
</event>
<event>
 7    1  0.1024956E-012  0.5052886E+02  0.7816164E-02  0.1300439E+00
        -11   -1    0    0    0    0  0.00000000000E+00  0.00000000000E+00  0.45593999997E+02  0.45594000000E+02  0.51100000000E-03 0.  1.
         11   -1    0    0    0    0 -0.00000000000E+00 -0.00000000000E+00 -0.45593999997E+02  0.45594000000E+02  0.51100000000E-03 0. -1.
    9900012    2    1    2    0    0  0.25518708744E+00 -0.18015847802E+02 -0.36448999537E+02  0.50528862531E+02  0.30000008150E+02 0.  0.
        -12    1    1    2    0    0 -0.25518708744E+00  0.18015847802E+02  0.36448999537E+02  0.40659137469E+02  0.00000000000E+00 0.  1.
         11    1    3    3    0    0  0.10503089478E+02 -0.21273317517E+01 -0.65033585037E+01  0.12535314158E+02  0.51100000000E-03 0. -1.
        -11    1    3    3    0    0 -0.53367603508E+01 -0.60857387975E+01 -0.24398225222E+02  0.25705848011E+02  0.51100000000E-03 0.  1.
        -12    1    3    3    0    0 -0.49111420395E+01 -0.98027772523E+01 -0.55474158114E+01  0.12287700361E+02  0.00000000000E+00 0.  1.
</event>
<event>
 7    1  0.1024956E-012  0.5052886E+02  0.7816164E-02  0.1300439E+00
        -11   -1    0    0    0    0  0.00000000000E+00  0.00000000000E+00  0.45593999997E+02  0.45594000000E+02  0.51100000000E-03 0.  1.
         11   -1    0    0    0    0 -0.00000000000E+00 -0.00000000000E+00 -0.45593999997E+02  0.45594000000E+02  0.51100000000E-03 0. -1.
    9900012    2    1    2    0    0  0.69477654115E+01  0.10525800537E+02 -0.38653613777E+02  0.50528858603E+02  0.29999996208E+02 0.  0.
        -12    1    1    2    0    0 -0.69477654115E+01 -0.10525800537E+02  0.38653613777E+02  0.40659141397E+02  0.00000000000E+00 0.  1.
         11    1    3    3    0    0 -0.36951704917E+01 -0.75477362339E+00 -0.62312443550E+01  0.72837061074E+01  0.51100000000E-03 0. -1.
        -11    1    3    3    0    0  0.17159326239E+02  0.20159780057E+01 -0.18946163193E+02  0.25641055835E+02  0.51100000000E-03 0.  1.
        -12    1    3    3    0    0 -0.65163903359E+01  0.92645961549E+01 -0.13476206229E+02  0.17604096661E+02  0.00000000000E+00 0.  1.
</event>
<event>
 7    1  0.1024956E-012  0.5052884E+02  0.7816164E-02  0.1300439E+00
        -11   -1    0    0    0    0  0.00000000000E+00  0.00000000000E+00  0.45593999997E+02  0.45594000000E+02  0.51100000000E-03 0.  1.
         11   -1    0    0    0    0 -0.00000000000E+00 -0.00000000000E+00 -0.45593999997E+02  0.45594000000E+02  0.51100000000E-03 0. -1.
    9900012    2    1    2    0    0 -0.23730032678E+02 -0.23118060343E+02 -0.23571344410E+02  0.50528838151E+02  0.29999934045E+02 0.  0.
        -12    1    1    2    0    0  0.23730032678E+02  0.23118060343E+02  0.23571344410E+02  0.40659161849E+02  0.00000000000E+00 0.  1.
         11    1    3    3    0    0 -0.66880727839E+01 -0.14957583337E+02 -0.14203903386E+02  0.21684337401E+02  0.51100000000E-03 0. -1.
        -11    1    3    3    0    0 -0.78400328218E+01  0.30551020292E+01  0.38184094546E+01  0.92401306311E+01  0.51100000000E-03 0.  1.
        -12    1    3    3    0    0 -0.92019270726E+01 -0.11215579036E+02 -0.13185850478E+02  0.19604370120E+02  0.00000000000E+00 0.  1.
</event>
<event>
 7    1  0.1024956E-012  0.5052885E+02  0.7816164E-02  0.1300439E+00
        -11   -1    0    0    0    0  0.00000000000E+00  0.00000000000E+00  0.45593999997E+02  0.45594000000E+02  0.51100000000E-03 0. -1.
         11   -1    0    0    0    0 -0.00000000000E+00 -0.00000000000E+00 -0.45593999997E+02  0.45594000000E+02  0.51100000000E-03 0.  1.
    9900012    2    1    2    0    0 -0.40898373398E+01  0.40223346772E+02 -0.43036986246E+01  0.50528853220E+02  0.29999979848E+02 0.  0.
        -12    1    1    2    0    0  0.40898373398E+01 -0.40223346772E+02  0.43036986246E+01  0.40659146780E+02  0.00000000000E+00 0.  1.
         11    1    3    3    0    0  0.76133874578E+01  0.11612149190E+02 -0.11135437807E+02  0.17798978982E+02  0.51100000000E-03 0. -1.
        -11    1    3    3    0    0 -0.11446008164E+02  0.21230958157E+02  0.76404335687E+01  0.25301006156E+02  0.51100000000E-03 0.  1.
        -12    1    3    3    0    0 -0.25721663365E+00  0.73802394252E+01 -0.80869438665E+00  0.74288680821E+01  0.00000000000E+00 0.  1.
</event>
<event>
 7    1  0.1024956E-012  0.5052886E+02  0.7816164E-02  0.1300439E+00
        -11   -1    0    0    0    0  0.00000000000E+00  0.00000000000E+00  0.45593999997E+02  0.45594000000E+02  0.51100000000E-03 0.  1.
         11   -1    0    0    0    0 -0.00000000000E+00 -0.00000000000E+00 -0.45593999997E+02  0.45594000000E+02  0.51100000000E-03 0. -1.
    9900012    2    1    2    0    0 -0.34181846505E+02  0.21608845214E+02 -0.42219455018E+01  0.50528860243E+02  0.30000001194E+02 0.  0.
        -12    1    1    2    0    0  0.34181846505E+02 -0.21608845214E+02  0.42219455018E+01  0.40659139757E+02  0.00000000000E+00 0.  1.
         11    1    3    3    0    0 -0.50680450018E+01  0.25218432236E+01 -0.10609360471E+02  0.12025111362E+02  0.51100000000E-03 0. -1.
        -11    1    3    3    0    0 -0.77952977839E+01  0.18878756536E+01  0.76491193931E+01  0.11083310416E+02  0.51100000000E-03 0.  1.
         12    1    3    3    0    0 -0.21318503719E+02  0.17199126337E+02 -0.12617044235E+01  0.27420438465E+02  0.00000000000E+00 0. -1.
</event>
<event>
 7    1  0.1024956E-012  0.5052887E+02  0.7816164E-02  0.1300439E+00
        -11   -1    0    0    0    0  0.00000000000E+00  0.00000000000E+00  0.45593999997E+02  0.45594000000E+02  0.51100000000E-03 0. -1.
         11   -1    0    0    0    0 -0.00000000000E+00 -0.00000000000E+00 -0.45593999997E+02  0.45594000000E+02  0.51100000000E-03 0.  1.
    9900012    2    1    2    0    0 -0.39226779848E+02 -0.22724902725E+01  0.10452787519E+02  0.50528865279E+02  0.30000016503E+02 0.  0.
        -12    1    1    2    0    0  0.39226779848E+02  0.22724902725E+01 -0.10452787519E+02  0.40659134721E+02  0.00000000000E+00 0.  1.
         11    1    3    3    0    0 -0.13261025770E+02  0.11441929141E+02  0.69493994944E+01  0.18843213647E+02  0.51100000000E-03 0. -1.
        -11    1    3    3    0    0  0.43548749847E+00 -0.19422503719E+01 -0.13070008194E+01  0.23812260017E+01  0.51100000000E-03 0.  1.
         12    1    3    3    0    0 -0.26401241577E+02 -0.11772169041E+02  0.48103888436E+01  0.29304425631E+02  0.00000000000E+00 0. -1.
</event>
<event>
 7    1  0.1024956E-012  0.5052886E+02  0.7816164E-02  0.1300439E+00
        -11   -1    0    0    0    0  0.00000000000E+00  0.00000000000E+00  0.45593999997E+02  0.45594000000E+02  0.51100000000E-03 0.  1.
         11   -1    0    0    0    0 -0.00000000000E+00 -0.00000000000E+00 -0.45593999997E+02  0.45594000000E+02  0.51100000000E-03 0. -1.
    9900012    2    1    2    0    0  0.14911355417E+01 -0.17583307577E+02 -0.36630169116E+02  0.50528862282E+02  0.30000007391E+02 0.  0.
        -12    1    1    2    0    0 -0.14911355417E+01  0.17583307577E+02  0.36630169116E+02  0.40659137718E+02  0.00000000000E+00 0.  1.
         11    1    3    3    0    0 -0.18166551838E+01 -0.19938423395E+01 -0.13477685890E+01  0.30153148695E+01  0.51100000000E-03 0. -1.
        -11    1    3    3    0    0  0.69705482240E+01 -0.22379236107E+01 -0.32599141346E+02  0.33411088898E+02  0.51100000000E-03 0.  1.
        -12    1    3    3    0    0 -0.36627574985E+01 -0.13351541626E+02 -0.26832591811E+01  0.14102458514E+02  0.00000000000E+00 0.  1.
</event>
<event>
 7    1  0.1024956E-012  0.5052885E+02  0.7816164E-02  0.1300439E+00
        -11   -1    0    0    0    0  0.00000000000E+00  0.00000000000E+00  0.45593999997E+02  0.45594000000E+02  0.51100000000E-03 0.  1.
         11   -1    0    0    0    0 -0.00000000000E+00 -0.00000000000E+00 -0.45593999997E+02  0.45594000000E+02  0.51100000000E-03 0. -1.
    9900012    2    1    2    0    0  0.35764954525E+01 -0.23545447748E+02 -0.32954314710E+02  0.50528852353E+02  0.29999977212E+02 0.  0.
        -12    1    1    2    0    0 -0.35764954525E+01  0.23545447748E+02  0.32954314710E+02  0.40659147647E+02  0.00000000000E+00 0.  1.
         11    1    3    3    0    0  0.27360734524E+00 -0.27526683516E+02 -0.31037945641E+02  0.41486711562E+02  0.51100000000E-03 0. -1.
        -11    1    3    3    0    0  0.12054917223E+01  0.45840417666E+01 -0.38653908595E+01  0.61161994709E+01  0.51100000000E-03 0.  1.
         12    1    3    3    0    0  0.20973963850E+01 -0.60280599840E+00  0.19490217905E+01  0.29259413199E+01  0.00000000000E+00 0. -1.
</event>
<event>
 7    1  0.1024956E-012  0.5052880E+02  0.7816164E-02  0.1300439E+00
        -11   -1    0    0    0    0  0.00000000000E+00  0.00000000000E+00  0.45593999997E+02  0.45594000000E+02  0.51100000000E-03 0.  1.
         11   -1    0    0    0    0 -0.00000000000E+00 -0.00000000000E+00 -0.45593999997E+02  0.45594000000E+02  0.51100000000E-03 0. -1.
    9900012    2    1    2    0    0 -0.28135662482E+02  0.40571935196E+01 -0.29070504592E+02  0.50528799814E+02  0.29999817513E+02 0.  0.
        -12    1    1    2    0    0  0.28135662482E+02 -0.40571935196E+01  0.29070504592E+02  0.40659200186E+02  0.00000000000E+00 0.  1.
         11    1    3    3    0    0 -0.13305522527E+02  0.34844222522E+01 -0.12103138278E+02  0.18321137644E+02  0.51100000000E-03 0. -1.
        -11    1    3    3    0    0 -0.36903419795E+01  0.19151127233E+01  0.56177392578E+01  0.69889394974E+01  0.51100000000E-03 0.  1.
        -12    1    3    3    0    0 -0.11139797975E+02 -0.13423414559E+01 -0.22585105572E+02  0.25218722672E+02  0.00000000000E+00 0.  1.
</event>
<event>
 7    1  0.1024956E-012  0.5052885E+02  0.7816164E-02  0.1300439E+00
        -11   -1    0    0    0    0  0.00000000000E+00  0.00000000000E+00  0.45593999997E+02  0.45594000000E+02  0.51100000000E-03 0. -1.
         11   -1    0    0    0    0 -0.00000000000E+00 -0.00000000000E+00 -0.45593999997E+02  0.45594000000E+02  0.51100000000E-03 0.  1.
    9900012    2    1    2    0    0 -0.21855186979E+02 -0.80874267008E+00  0.34276272596E+02  0.50528854342E+02  0.29999983257E+02 0.  0.
        -12    1    1    2    0    0  0.21855186979E+02  0.80874267008E+00 -0.34276272596E+02  0.40659145658E+02  0.00000000000E+00 0.  1.
         11    1    3    3    0    0 -0.12896777715E+02  0.99168220827E+00  0.60586841476E+01  0.14283485670E+02  0.51100000000E-03 0. -1.
        -11    1    3    3    0    0  0.15133320390E+01 -0.88714803143E+01  0.64360738128E+01  0.11064193744E+02  0.51100000000E-03 0.  1.
        -12    1    3    3    0    0 -0.10471741304E+02  0.70710554360E+01  0.21781514635E+02  0.25181174927E+02  0.00000000000E+00 0.  1.
</event>
<event>
 7    1  0.1024956E-012  0.5052886E+02  0.7816164E-02  0.1300439E+00
        -11   -1    0    0    0    0  0.00000000000E+00  0.00000000000E+00  0.45593999997E+02  0.45594000000E+02  0.51100000000E-03 0.  1.
         11   -1    0    0    0    0 -0.00000000000E+00 -0.00000000000E+00 -0.45593999997E+02  0.45594000000E+02  0.51100000000E-03 0. -1.
    9900012    2    1    2    0    0 -0.17453599192E+02  0.33562095573E+02 -0.14903789901E+02  0.50528864035E+02  0.30000012722E+02 0.  0.
        -12    1    1    2    0    0  0.17453599192E+02 -0.33562095573E+02  0.14903789901E+02  0.40659135965E+02  0.00000000000E+00 0.  1.
         11    1    3    3    0    0 -0.16140966149E+02  0.16486742749E+02 -0.16548167521E+02  0.28393402812E+02  0.51100000000E-03 0. -1.
        -11    1    3    3    0    0  0.56288088471E+01  0.12614773048E+02  0.13451056153E+01  0.13878951598E+02  0.51100000000E-03 0.  1.
        -12    1    3    3    0    0 -0.69414418905E+01  0.44605797759E+01  0.29927200535E+00  0.82565096251E+01  0.00000000000E+00 0.  1.
</event>
<event>
 7    1  0.1024956E-012  0.5052883E+02  0.7816164E-02  0.1300439E+00
        -11   -1    0    0    0    0  0.00000000000E+00  0.00000000000E+00  0.45593999997E+02  0.45594000000E+02  0.51100000000E-03 0.  1.
         11   -1    0    0    0    0 -0.00000000000E+00 -0.00000000000E+00 -0.45593999997E+02  0.45594000000E+02  0.51100000000E-03 0. -1.
    9900012    2    1    2    0    0  0.10775343833E+02 -0.31335518444E+02 -0.23561525741E+02  0.50528828266E+02  0.29999903997E+02 0.  0.
        -12    1    1    2    0    0 -0.10775343833E+02  0.31335518444E+02  0.23561525741E+02  0.40659171734E+02  0.00000000000E+00 0.  1.
         11    1    3    3    0    0  0.10985790719E+02 -0.31599079491E+02 -0.19439505155E+02  0.38692166950E+02  0.51100000000E-03 0. -1.
        -11    1    3    3    0    0  0.30638964553E+01  0.44786745460E+01 -0.35136207155E+01  0.64646359504E+01  0.51100000000E-03 0.  1.
         12    1    3    3    0    0 -0.32743433407E+01 -0.42151134989E+01 -0.60839987035E+00  0.53720253651E+01  0.00000000000E+00 0. -1.
</event>
<event>
 7    1  0.1024956E-012  0.5052886E+02  0.7816164E-02  0.1300439E+00
        -11   -1    0    0    0    0  0.00000000000E+00  0.00000000000E+00  0.45593999997E+02  0.45594000000E+02  0.51100000000E-03 0. -1.
         11   -1    0    0    0    0 -0.00000000000E+00 -0.00000000000E+00 -0.45593999997E+02  0.45594000000E+02  0.51100000000E-03 0.  1.
    9900012    2    1    2    0    0  0.15472951308E+02 -0.24883266149E+02  0.28188229408E+02  0.50528862853E+02  0.30000009127E+02 0.  0.
        -12    1    1    2    0    0 -0.15472951308E+02  0.24883266149E+02 -0.28188229408E+02  0.40659137147E+02  0.00000000000E+00 0.  1.
         11    1    3    3    0    0  0.67106845085E+01 -0.12772962863E+02  0.26563557260E+02  0.30229198492E+02  0.51100000000E-03 0. -1.
        -11    1    3    3    0    0  0.75962217821E+01 -0.22972981699E+00 -0.19357749562E+01  0.78423584523E+01  0.51100000000E-03 0.  1.
         12    1    3    3    0    0  0.11660450177E+01 -0.11880573468E+02  0.35604471042E+01  0.12457305909E+02  0.00000000000E+00 0. -1.
</event>
<event>
 7    1  0.1024956E-012  0.5052887E+02  0.7816164E-02  0.1300439E+00
        -11   -1    0    0    0    0  0.00000000000E+00  0.00000000000E+00  0.45593999997E+02  0.45594000000E+02  0.51100000000E-03 0.  1.
         11   -1    0    0    0    0 -0.00000000000E+00 -0.00000000000E+00 -0.45593999997E+02  0.45594000000E+02  0.51100000000E-03 0. -1.
    9900012    2    1    2    0    0  0.38436762792E+02 -0.12602145129E+02 -0.41189661461E+01  0.50528872145E+02  0.30000037373E+02 0.  0.
        -12    1    1    2    0    0 -0.38436762792E+02  0.12602145129E+02  0.41189661461E+01  0.40659127855E+02  0.00000000000E+00 0.  1.
         11    1    3    3    0    0  0.17253217053E+02 -0.15477748496E+02  0.24206506038E+00  0.23179577065E+02  0.51100000000E-03 0. -1.
        -11    1    3    3    0    0  0.55448919016E+01  0.59980541889E+01  0.42689349349E+01  0.92166309459E+01  0.51100000000E-03 0.  1.
        -12    1    3    3    0    0  0.15638653838E+02 -0.31224508219E+01 -0.86299661413E+01  0.18132664134E+02  0.00000000000E+00 0.  1.
</event>
<event>
 7    1  0.1024956E-012  0.5052888E+02  0.7816164E-02  0.1300439E+00
        -11   -1    0    0    0    0  0.00000000000E+00  0.00000000000E+00  0.45593999997E+02  0.45594000000E+02  0.51100000000E-03 0.  1.
         11   -1    0    0    0    0 -0.00000000000E+00 -0.00000000000E+00 -0.45593999997E+02  0.45594000000E+02  0.51100000000E-03 0. -1.
    9900012    2    1    2    0    0 -0.29780537256E+02 -0.14600444062E+02 -0.23518305993E+02  0.50528879463E+02  0.30000059615E+02 0.  0.
        -12    1    1    2    0    0  0.29780537256E+02  0.14600444062E+02  0.23518305993E+02  0.40659120537E+02  0.00000000000E+00 0.  1.
         11    1    3    3    0    0 -0.28819017103E+01 -0.11985803927E+02  0.16878788779E+01  0.12442418922E+02  0.51100000000E-03 0. -1.
        -11    1    3    3    0    0  0.17105258913E+00  0.62039915280E+00  0.33796656423E+00  0.72689459807E+00  0.51100000000E-03 0.  1.
         12    1    3    3    0    0 -0.27069688135E+02 -0.32350392873E+01 -0.25544151435E+02  0.37359565943E+02  0.00000000000E+00 0. -1.
</event>
<event>
 7    1  0.1024956E-012  0.5052886E+02  0.7816164E-02  0.1300439E+00
        -11   -1    0    0    0    0  0.00000000000E+00  0.00000000000E+00  0.45593999997E+02  0.45594000000E+02  0.51100000000E-03 0.  1.
         11   -1    0    0    0    0 -0.00000000000E+00 -0.00000000000E+00 -0.45593999997E+02  0.45594000000E+02  0.51100000000E-03 0. -1.
    9900012    2    1    2    0    0 -0.15463750880E+02  0.36231366592E+02 -0.10066109218E+02  0.50528855012E+02  0.29999985293E+02 0.  0.
        -12    1    1    2    0    0  0.15463750880E+02 -0.36231366592E+02  0.10066109218E+02  0.40659144988E+02  0.00000000000E+00 0.  1.
         11    1    3    3    0    0 -0.16332602079E+02  0.76423694891E+01 -0.55273544575E+01  0.18860311493E+02  0.51100000000E-03 0. -1.
        -11    1    3    3    0    0  0.68648608186E+00  0.59514808975E+01 -0.66277452801E+01  0.89341141572E+01  0.51100000000E-03 0.  1.
         12    1    3    3    0    0  0.18236511634E+00  0.22637516205E+02  0.20889905201E+01  0.22734429361E+02  0.00000000000E+00 0. -1.
</event>
<event>
 7    1  0.1024956E-012  0.5052886E+02  0.7816164E-02  0.1300439E+00
        -11   -1    0    0    0    0  0.00000000000E+00  0.00000000000E+00  0.45593999997E+02  0.45594000000E+02  0.51100000000E-03 0.  1.
         11   -1    0    0    0    0 -0.00000000000E+00 -0.00000000000E+00 -0.45593999997E+02  0.45594000000E+02  0.51100000000E-03 0. -1.
    9900012    2    1    2    0    0 -0.40920168690E+01  0.33127861243E+00 -0.40451340045E+02  0.50528864999E+02  0.30000015650E+02 0.  0.
        -12    1    1    2    0    0  0.40920168690E+01 -0.33127861243E+00  0.40451340045E+02  0.40659135001E+02  0.00000000000E+00 0.  1.
         11    1    3    3    0    0  0.14937225957E+01  0.31187394724E+01 -0.21065844562E+02  0.21347776241E+02  0.51100000000E-03 0. -1.
        -11    1    3    3    0    0 -0.13518368648E+02 -0.21954851930E+01 -0.13933498232E+02  0.19537369818E+02  0.51100000000E-03 0.  1.
        -12    1    3    3    0    0  0.79326291837E+01 -0.59197566703E+00 -0.54519972513E+01  0.96437189395E+01  0.00000000000E+00 0.  1.
</event>
<event>
 7    1  0.1024956E-012  0.5052890E+02  0.7816164E-02  0.1300439E+00
        -11   -1    0    0    0    0  0.00000000000E+00  0.00000000000E+00  0.45593999997E+02  0.45594000000E+02  0.51100000000E-03 0.  1.
         11   -1    0    0    0    0 -0.00000000000E+00 -0.00000000000E+00 -0.45593999997E+02  0.45594000000E+02  0.51100000000E-03 0. -1.
    9900012    2    1    2    0    0 -0.12158564551E+02 -0.20598763251E+02 -0.32878914268E+02  0.50528895941E+02  0.30000109703E+02 0.  0.
        -12    1    1    2    0    0  0.12158564551E+02  0.20598763251E+02  0.32878914268E+02  0.40659104059E+02  0.00000000000E+00 0.  1.
         11    1    3    3    0    0 -0.83431175416E-01 -0.45549612598E+01 -0.41396715351E+01  0.61556082980E+01  0.51100000000E-03 0. -1.
        -11    1    3    3    0    0  0.58934592996E+01 -0.28997871704E+01  0.15825439966E+01  0.67561878239E+01  0.51100000000E-03 0.  1.
        -12    1    3    3    0    0 -0.17968592675E+02 -0.13144014821E+02 -0.30321786730E+02  0.37617099819E+02  0.00000000000E+00 0.  1.
</event>
<event>
 7    1  0.1024956E-012  0.5052886E+02  0.7816164E-02  0.1300439E+00
        -11   -1    0    0    0    0  0.00000000000E+00  0.00000000000E+00  0.45593999997E+02  0.45594000000E+02  0.51100000000E-03 0.  1.
         11   -1    0    0    0    0 -0.00000000000E+00 -0.00000000000E+00 -0.45593999997E+02  0.45594000000E+02  0.51100000000E-03 0. -1.
    9900012    2    1    2    0    0 -0.54252937624E+01  0.28511452881E+02 -0.28475060259E+02  0.50528858168E+02  0.29999994887E+02 0.  0.
        -12    1    1    2    0    0  0.54252937624E+01 -0.28511452881E+02  0.28475060259E+02  0.40659141832E+02  0.00000000000E+00 0.  1.
         11    1    3    3    0    0 -0.91686981252E+01  0.15534884683E+02 -0.99220601675E+01  0.20587494885E+02  0.51100000000E-03 0. -1.
        -11    1    3    3    0    0  0.58922771741E+01  0.57250194188E+01 -0.20539482239E+02  0.22121598237E+02  0.51100000000E-03 0.  1.
        -12    1    3    3    0    0 -0.21488728113E+01  0.72515487790E+01  0.19864821473E+01  0.78197650461E+01  0.00000000000E+00 0.  1.
</event>
<event>
 7    1  0.1024956E-012  0.5052886E+02  0.7816164E-02  0.1300439E+00
        -11   -1    0    0    0    0  0.00000000000E+00  0.00000000000E+00  0.45593999997E+02  0.45594000000E+02  0.51100000000E-03 0.  1.
         11   -1    0    0    0    0 -0.00000000000E+00 -0.00000000000E+00 -0.45593999997E+02  0.45594000000E+02  0.51100000000E-03 0. -1.
    9900012    2    1    2    0    0 -0.22430965801E+02 -0.26979026458E+02 -0.20546281292E+02  0.50528858712E+02  0.29999996540E+02 0.  0.
        -12    1    1    2    0    0  0.22430965801E+02  0.26979026458E+02  0.20546281292E+02  0.40659141288E+02  0.00000000000E+00 0.  1.
         11    1    3    3    0    0 -0.64417126449E+01  0.22218276265E+01 -0.53548809245E+01  0.86664254326E+01  0.51100000000E-03 0. -1.
        -11    1    3    3    0    0 -0.17207473559E+02 -0.30424005913E+02 -0.17411869791E+02  0.39049846248E+02  0.51100000000E-03 0.  1.
        -12    1    3    3    0    0  0.12182204035E+01  0.12231518287E+01  0.22204694236E+01  0.28125870313E+01  0.00000000000E+00 0.  1.
</event>
<event>
 7    1  0.1024956E-012  0.5052888E+02  0.7816164E-02  0.1300439E+00
        -11   -1    0    0    0    0  0.00000000000E+00  0.00000000000E+00  0.45593999997E+02  0.45594000000E+02  0.51100000000E-03 0.  1.
         11   -1    0    0    0    0 -0.00000000000E+00 -0.00000000000E+00 -0.45593999997E+02  0.45594000000E+02  0.51100000000E-03 0. -1.
    9900012    2    1    2    0    0  0.71128246090E+01 -0.21116057224E+02 -0.34010060332E+02  0.50528876173E+02  0.30000049614E+02 0.  0.
        -12    1    1    2    0    0 -0.71128246090E+01  0.21116057224E+02  0.34010060332E+02  0.40659123827E+02  0.00000000000E+00 0.  1.
         11    1    3    3    0    0 -0.19437592105E+01  0.42643515584E+01 -0.14906822002E+02  0.15626139528E+02  0.51100000000E-03 0.  1.
        -11    1    3    3    0    0  0.85703260336E+01 -0.11913208281E+02 -0.52770034988E+01  0.15595569436E+02  0.51100000000E-03 0. -1.
        -12    1    3    3    0    0  0.48625778589E+00 -0.13467200502E+02 -0.13826234831E+02  0.19307167208E+02  0.00000000000E+00 0.  1.
</event>
<event>
 7    1  0.1024956E-012  0.5052887E+02  0.7816164E-02  0.1300439E+00
        -11   -1    0    0    0    0  0.00000000000E+00  0.00000000000E+00  0.45593999997E+02  0.45594000000E+02  0.51100000000E-03 0.  1.
         11   -1    0    0    0    0 -0.00000000000E+00 -0.00000000000E+00 -0.45593999997E+02  0.45594000000E+02  0.51100000000E-03 0. -1.
    9900012    2    1    2    0    0  0.24213360778E+02 -0.70693411855E+01 -0.31888909044E+02  0.50528868861E+02  0.30000027391E+02 0.  0.
        -12    1    1    2    0    0 -0.24213360778E+02  0.70693411855E+01  0.31888909044E+02  0.40659131139E+02  0.00000000000E+00 0.  1.
         11    1    3    3    0    0  0.10274751288E+02 -0.89966646961E+01 -0.17250057970E+02  0.22001704250E+02  0.51100000000E-03 0. -1.
        -11    1    3    3    0    0  0.94848570751E+01 -0.28935871927E+01  0.24556877864E+01  0.10215956311E+02  0.51100000000E-03 0.  1.
        -12    1    3    3    0    0  0.44537524150E+01  0.48209107033E+01 -0.17094538860E+02  0.18311208300E+02  0.00000000000E+00 0.  1.
</event>
<event>
 7    1  0.1024956E-012  0.5052887E+02  0.7816164E-02  0.1300439E+00
        -11   -1    0    0    0    0  0.00000000000E+00  0.00000000000E+00  0.45593999997E+02  0.45594000000E+02  0.51100000000E-03 0. -1.
         11   -1    0    0    0    0 -0.00000000000E+00 -0.00000000000E+00 -0.45593999997E+02  0.45594000000E+02  0.51100000000E-03 0.  1.
    9900012    2    1    2    0    0  0.15909260617E+01  0.40517109269E+02  0.29995745365E+01  0.50528872652E+02  0.30000038914E+02 0.  0.
        -12    1    1    2    0    0 -0.15909260617E+01 -0.40517109269E+02 -0.29995745365E+01  0.40659127348E+02  0.00000000000E+00 0.  1.
         11    1    3    3    0    0 -0.69751946169E+01  0.26066709305E+02 -0.51375871557E+01  0.27468554312E+02  0.51100000000E-03 0. -1.
        -11    1    3    3    0    0  0.73477869346E+01  0.39841579653E+00  0.16805086205E+01  0.75480340134E+01  0.51100000000E-03 0.  1.
         12    1    3    3    0    0  0.12183337440E+01  0.14051984167E+02  0.64566530716E+01  0.15512284327E+02  0.00000000000E+00 0. -1.
</event>
<event>
 7    1  0.1024956E-012  0.5052887E+02  0.7816164E-02  0.1300439E+00
        -11   -1    0    0    0    0  0.00000000000E+00  0.00000000000E+00  0.45593999997E+02  0.45594000000E+02  0.51100000000E-03 0. -1.
         11   -1    0    0    0    0 -0.00000000000E+00 -0.00000000000E+00 -0.45593999997E+02  0.45594000000E+02  0.51100000000E-03 0.  1.
    9900012    2    1    2    0    0 -0.17101634858E+02  0.36815288268E+02 -0.23094715335E+01  0.50528867891E+02  0.30000024442E+02 0.  0.
        -12    1    1    2    0    0  0.17101634858E+02 -0.36815288268E+02  0.23094715335E+01  0.40659132109E+02  0.00000000000E+00 0.  1.
         11    1    3    3    0    0 -0.88992618931E+01  0.24620303085E+02 -0.10780414934E+02  0.28312073973E+02  0.51100000000E-03 0. -1.
        -11    1    3    3    0    0 -0.42852889414E+01  0.61730477399E+01  0.12041983159E+02  0.14194350227E+02  0.51100000000E-03 0.  1.
        -12    1    3    3    0    0 -0.39170840234E+01  0.60219374432E+01 -0.35710397587E+01  0.80224436910E+01  0.00000000000E+00 0.  1.
</event>
<event>
 7    1  0.1024956E-012  0.5052887E+02  0.7816164E-02  0.1300439E+00
        -11   -1    0    0    0    0  0.00000000000E+00  0.00000000000E+00  0.45593999997E+02  0.45594000000E+02  0.51100000000E-03 0. -1.
         11   -1    0    0    0    0 -0.00000000000E+00 -0.00000000000E+00 -0.45593999997E+02  0.45594000000E+02  0.51100000000E-03 0.  1.
    9900012    2    1    2    0    0  0.32130704705E+02 -0.18686179299E+02 -0.16480580663E+02  0.50528867931E+02  0.30000024563E+02 0.  0.
        -12    1    1    2    0    0 -0.32130704705E+02  0.18686179299E+02  0.16480580663E+02  0.40659132069E+02  0.00000000000E+00 0.  1.
         11    1    3    3    0    0  0.25730866116E+02 -0.24187722013E+02 -0.60677640573E+01  0.35832124249E+02  0.51100000000E-03 0.  1.
        -11    1    3    3    0    0  0.55476454581E+01  0.66595342208E+01 -0.75565043333E+01  0.11498979266E+02  0.51100000000E-03 0. -1.
        -12    1    3    3    0    0  0.85219313095E+00 -0.11579915063E+01 -0.28563122728E+01  0.31977644161E+01  0.00000000000E+00 0.  1.
</event>
<event>
 7    1  0.1024956E-012  0.5052888E+02  0.7816164E-02  0.1300439E+00
        -11   -1    0    0    0    0  0.00000000000E+00  0.00000000000E+00  0.45593999997E+02  0.45594000000E+02  0.51100000000E-03 0.  1.
         11   -1    0    0    0    0 -0.00000000000E+00 -0.00000000000E+00 -0.45593999997E+02  0.45594000000E+02  0.51100000000E-03 0. -1.
    9900012    2    1    2    0    0  0.29394187349E+02 -0.61639441019E+01 -0.27407150576E+02  0.50528876062E+02  0.30000049277E+02 0.  0.
        -12    1    1    2    0    0 -0.29394187349E+02  0.61639441019E+01  0.27407150576E+02  0.40659123938E+02  0.00000000000E+00 0.  1.
         11    1    3    3    0    0  0.58802815040E+01 -0.73389608089E+01 -0.19227031235E+02  0.21403662927E+02  0.51100000000E-03 0. -1.
        -11    1    3    3    0    0  0.24244853194E+02 -0.12881014570E+01 -0.96943332410E+01  0.26142918908E+02  0.51100000000E-03 0.  1.
         12    1    3    3    0    0 -0.73094734981E+00  0.24631181639E+01  0.15142139005E+01  0.29822942266E+01  0.00000000000E+00 0. -1.
</event>
<event>
 7    1  0.1024956E-012  0.5052885E+02  0.7816164E-02  0.1300439E+00
        -11   -1    0    0    0    0  0.00000000000E+00  0.00000000000E+00  0.45593999997E+02  0.45594000000E+02  0.51100000000E-03 0.  1.
         11   -1    0    0    0    0 -0.00000000000E+00 -0.00000000000E+00 -0.45593999997E+02  0.45594000000E+02  0.51100000000E-03 0. -1.
    9900012    2    1    2    0    0 -0.61571672404E+01 -0.10057066550E+02 -0.38911579778E+02  0.50528851745E+02  0.29999975364E+02 0.  0.
        -12    1    1    2    0    0  0.61571672404E+01  0.10057066550E+02  0.38911579778E+02  0.40659148255E+02  0.00000000000E+00 0.  1.
         11    1    3    3    0    0 -0.11268765580E+02 -0.15650639394E+02 -0.15145422791E+02  0.24521652125E+02  0.51100000000E-03 0. -1.
        -11    1    3    3    0    0  0.57060251439E+01  0.86735278541E+00 -0.12099424292E+02  0.13405487393E+02  0.51100000000E-03 0.  1.
         12    1    3    3    0    0 -0.59442680419E+00  0.47262200591E+01 -0.11666732695E+02  0.12601712227E+02  0.00000000000E+00 0. -1.
</event>
<event>
 7    1  0.1024956E-012  0.5052886E+02  0.7816164E-02  0.1300439E+00
        -11   -1    0    0    0    0  0.00000000000E+00  0.00000000000E+00  0.45593999997E+02  0.45594000000E+02  0.51100000000E-03 0. -1.
         11   -1    0    0    0    0 -0.00000000000E+00 -0.00000000000E+00 -0.45593999997E+02  0.45594000000E+02  0.51100000000E-03 0.  1.
    9900012    2    1    2    0    0  0.33536461192E+02  0.37950001569E+01 -0.22673094781E+02  0.50528862252E+02  0.30000007300E+02 0.  0.
        -12    1    1    2    0    0 -0.33536461192E+02 -0.37950001569E+01  0.22673094781E+02  0.40659137748E+02  0.00000000000E+00 0.  1.
         11    1    3    3    0    0  0.18440822161E+02  0.32748069365E+01 -0.39630084834E+01  0.19144025673E+02  0.51100000000E-03 0. -1.
        -11    1    3    3    0    0 -0.76779569297E+00  0.57561909962E+01 -0.12096272935E+02  0.13418012677E+02  0.51100000000E-03 0.  1.
        -12    1    3    3    0    0  0.15863434724E+02 -0.52359977757E+01 -0.66138133629E+01  0.17966823902E+02  0.00000000000E+00 0.  1.
</event>
<event>
 7    1  0.1024956E-012  0.5052885E+02  0.7816164E-02  0.1300439E+00
        -11   -1    0    0    0    0  0.00000000000E+00  0.00000000000E+00  0.45593999997E+02  0.45594000000E+02  0.51100000000E-03 0. -1.
         11   -1    0    0    0    0 -0.00000000000E+00 -0.00000000000E+00 -0.45593999997E+02  0.45594000000E+02  0.51100000000E-03 0.  1.
    9900012    2    1    2    0    0  0.50651529896E+01  0.13870693525E+02  0.37882902578E+02  0.50528853164E+02  0.29999979677E+02 0.  0.
        -12    1    1    2    0    0 -0.50651529896E+01 -0.13870693525E+02 -0.37882902578E+02  0.40659146836E+02  0.00000000000E+00 0.  1.
         11    1    3    3    0    0 -0.55115713410E+01  0.12352697368E+02  0.45974055705E+01  0.14286451244E+02  0.51100000000E-03 0. -1.
        -11    1    3    3    0    0  0.47702140500E+01  0.10921989976E+01  0.27852347445E+02  0.28278986884E+02  0.51100000000E-03 0.  1.
         12    1    3    3    0    0  0.58065102806E+01  0.42579715964E+00  0.54331495627E+01  0.79634150357E+01  0.00000000000E+00 0. -1.
</event>
<event>
 7    1  0.1024956E-012  0.5052887E+02  0.7816164E-02  0.1300439E+00
        -11   -1    0    0    0    0  0.00000000000E+00  0.00000000000E+00  0.45593999997E+02  0.45594000000E+02  0.51100000000E-03 0.  1.
         11   -1    0    0    0    0 -0.00000000000E+00 -0.00000000000E+00 -0.45593999997E+02  0.45594000000E+02  0.51100000000E-03 0. -1.
    9900012    2    1    2    0    0  0.12621210186E+02 -0.24500930008E+02 -0.29892711902E+02  0.50528871349E+02  0.30000034953E+02 0.  0.
        -12    1    1    2    0    0 -0.12621210186E+02  0.24500930008E+02  0.29892711902E+02  0.40659128651E+02  0.00000000000E+00 0.  1.
         11    1    3    3    0    0 -0.36764295575E+01 -0.54130551824E+01 -0.71707719517E+01  0.97075883382E+01  0.51100000000E-03 0. -1.
        -11    1    3    3    0    0  0.20510084832E+02 -0.97679683963E+01 -0.10924186332E+02  0.25207432112E+02  0.51100000000E-03 0.  1.
        -12    1    3    3    0    0 -0.42124450879E+01 -0.93199064289E+01 -0.11797753618E+02  0.15613850899E+02  0.00000000000E+00 0.  1.
</event>
<event>
 7    1  0.1024956E-012  0.5052886E+02  0.7816164E-02  0.1300439E+00
        -11   -1    0    0    0    0  0.00000000000E+00  0.00000000000E+00  0.45593999997E+02  0.45594000000E+02  0.51100000000E-03 0.  1.
         11   -1    0    0    0    0 -0.00000000000E+00 -0.00000000000E+00 -0.45593999997E+02  0.45594000000E+02  0.51100000000E-03 0. -1.
    9900012    2    1    2    0    0  0.43215516746E+01  0.40427528865E+02 -0.32334520978E+00  0.50528862637E+02  0.30000008470E+02 0.  0.
        -12    1    1    2    0    0 -0.43215516746E+01 -0.40427528865E+02  0.32334520978E+00  0.40659137363E+02  0.00000000000E+00 0.  1.
         11    1    3    3    0    0  0.13670065469E+01 -0.16307771039E+01 -0.26686600941E+01  0.34131932000E+01  0.51100000000E-03 0. -1.
        -11    1    3    3    0    0  0.55119533726E+01  0.36679904029E+02  0.90175634384E+01  0.38172155299E+02  0.51100000000E-03 0.  1.
        -12    1    3    3    0    0 -0.25574082449E+01  0.53784019400E+01 -0.66722485541E+01  0.89435141375E+01  0.00000000000E+00 0.  1.
</event>
<event>
 7    1  0.1024956E-012  0.5052883E+02  0.7816164E-02  0.1300439E+00
        -11   -1    0    0    0    0  0.00000000000E+00  0.00000000000E+00  0.45593999997E+02  0.45594000000E+02  0.51100000000E-03 0. -1.
         11   -1    0    0    0    0 -0.00000000000E+00 -0.00000000000E+00 -0.45593999997E+02  0.45594000000E+02  0.51100000000E-03 0.  1.
    9900012    2    1    2    0    0  0.12482161124E+02 -0.19322539453E+02  0.33526155989E+02  0.50528831137E+02  0.29999912725E+02 0.  0.
        -12    1    1    2    0    0 -0.12482161124E+02  0.19322539453E+02 -0.33526155989E+02  0.40659168863E+02  0.00000000000E+00 0.  1.
         11    1    3    3    0    0  0.34554727814E+01 -0.18625597359E+02  0.32353413622E+02  0.37491286219E+02  0.51100000000E-03 0. -1.
        -11    1    3    3    0    0  0.64294334032E+01 -0.38811676135E+00 -0.37571080640E+01  0.74568163296E+01  0.51100000000E-03 0.  1.
         12    1    3    3    0    0  0.25972549398E+01 -0.30882533206E+00  0.49298504306E+01  0.55807285883E+01  0.00000000000E+00 0. -1.
</event>
<event>
 7    1  0.1024956E-012  0.5052884E+02  0.7816164E-02  0.1300439E+00
        -11   -1    0    0    0    0  0.00000000000E+00  0.00000000000E+00  0.45593999997E+02  0.45594000000E+02  0.51100000000E-03 0.  1.
         11   -1    0    0    0    0 -0.00000000000E+00 -0.00000000000E+00 -0.45593999997E+02  0.45594000000E+02  0.51100000000E-03 0. -1.
    9900012    2    1    2    0    0 -0.67608954610E+01 -0.10647501226E+02 -0.38653436574E+02  0.50528841761E+02  0.29999945015E+02 0.  0.
        -12    1    1    2    0    0  0.67608954610E+01  0.10647501226E+02  0.38653436574E+02  0.40659158239E+02  0.00000000000E+00 0.  1.
         11    1    3    3    0    0 -0.44254312877E+01 -0.14863613367E+01 -0.21027285147E+02  0.21539276520E+02  0.51100000000E-03 0. -1.
        -11    1    3    3    0    0 -0.39975588519E+00 -0.14911343589E+02 -0.64060626706E+01  0.16234087951E+02  0.51100000000E-03 0.  1.
        -12    1    3    3    0    0 -0.19357082881E+01  0.57502037003E+01 -0.11220088756E+02  0.12755477289E+02  0.00000000000E+00 0.  1.
</event>
<event>
 7    1  0.1024956E-012  0.5052883E+02  0.7816164E-02  0.1300439E+00
        -11   -1    0    0    0    0  0.00000000000E+00  0.00000000000E+00  0.45593999997E+02  0.45594000000E+02  0.51100000000E-03 0.  1.
         11   -1    0    0    0    0 -0.00000000000E+00 -0.00000000000E+00 -0.45593999997E+02  0.45594000000E+02  0.51100000000E-03 0. -1.
    9900012    2    1    2    0    0 -0.31965515583E+02  0.15541823039E+01 -0.25079038950E+02  0.50528832967E+02  0.29999918287E+02 0.  0.
        -12    1    1    2    0    0  0.31965515583E+02 -0.15541823039E+01  0.25079038950E+02  0.40659167033E+02  0.00000000000E+00 0.  1.
         11    1    3    3    0    0 -0.24621661067E+02 -0.43028231473E+01 -0.25963087749E+02  0.36039178771E+02  0.51100000000E-03 0. -1.
        -11    1    3    3    0    0 -0.52120928184E+01  0.87730215969E+01  0.25402421592E+01  0.10515923639E+02  0.51100000000E-03 0.  1.
        -12    1    3    3    0    0 -0.21317616973E+01 -0.29160161457E+01 -0.16561933604E+01  0.39737305574E+01  0.00000000000E+00 0.  1.
</event>
<event>
 7    1  0.1024956E-012  0.5052885E+02  0.7816164E-02  0.1300439E+00
        -11   -1    0    0    0    0  0.00000000000E+00  0.00000000000E+00  0.45593999997E+02  0.45594000000E+02  0.51100000000E-03 0. -1.
         11   -1    0    0    0    0 -0.00000000000E+00 -0.00000000000E+00 -0.45593999997E+02  0.45594000000E+02  0.51100000000E-03 0.  1.
    9900012    2    1    2    0    0 -0.36668398432E+01  0.36316702826E+02  0.17911380483E+02  0.50528853804E+02  0.29999981624E+02 0.  0.
        -12    1    1    2    0    0  0.36668398432E+01 -0.36316702826E+02 -0.17911380483E+02  0.40659146196E+02  0.00000000000E+00 0.  1.
         11    1    3    3    0    0  0.81003565780E+01  0.26270985656E+01  0.57160354482E+01  0.10256241274E+02  0.51100000000E-03 0. -1.
        -11    1    3    3    0    0 -0.72774727450E+01  0.13341850557E+02 -0.16015726940E+01  0.15281741432E+02  0.51100000000E-03 0.  1.
         12    1    3    3    0    0 -0.44897236763E+01  0.20347753703E+02  0.13796917729E+02  0.24990871099E+02  0.00000000000E+00 0. -1.
</event>
<event>
 7    1  0.1024956E-012  0.5052885E+02  0.7816164E-02  0.1300439E+00
        -11   -1    0    0    0    0  0.00000000000E+00  0.00000000000E+00  0.45593999997E+02  0.45594000000E+02  0.51100000000E-03 0.  1.
         11   -1    0    0    0    0 -0.00000000000E+00 -0.00000000000E+00 -0.45593999997E+02  0.45594000000E+02  0.51100000000E-03 0. -1.
    9900012    2    1    2    0    0 -0.27698368341E+01  0.30893932906E+02 -0.26288006293E+02  0.50528851443E+02  0.29999974447E+02 0.  0.
        -12    1    1    2    0    0  0.27698368341E+01 -0.30893932906E+02  0.26288006293E+02  0.40659148557E+02  0.00000000000E+00 0.  1.
         11    1    3    3    0    0 -0.45470504916E+01  0.31992719316E+01 -0.15708508091E+02  0.16663380082E+02  0.51100000000E-03 0. -1.
        -11    1    3    3    0    0  0.60389634887E+01  0.25264069566E+02 -0.12200677376E+02  0.28698411449E+02  0.51100000000E-03 0.  1.
         12    1    3    3    0    0 -0.42617498312E+01  0.24305914088E+01  0.16211791730E+01  0.51670599117E+01  0.00000000000E+00 0. -1.
</event>
<event>
 7    1  0.1024956E-012  0.5052883E+02  0.7816164E-02  0.1300439E+00
        -11   -1    0    0    0    0  0.00000000000E+00  0.00000000000E+00  0.45593999997E+02  0.45594000000E+02  0.51100000000E-03 0.  1.
         11   -1    0    0    0    0 -0.00000000000E+00 -0.00000000000E+00 -0.45593999997E+02  0.45594000000E+02  0.51100000000E-03 0. -1.
    9900012    2    1    2    0    0  0.33331926027E+02 -0.18962391866E+02 -0.13512173018E+02  0.50528826157E+02  0.29999897585E+02 0.  0.
        -12    1    1    2    0    0 -0.33331926027E+02  0.18962391866E+02  0.13512173018E+02  0.40659173843E+02  0.00000000000E+00 0.  1.
         11    1    3    3    0    0  0.13662551500E+02 -0.43717369595E+01 -0.12358344957E+02  0.18934256993E+02  0.51100000000E-03 0. -1.
        -11    1    3    3    0    0  0.23093084658E+02 -0.10726284719E+02  0.20060123716E+01  0.25541492297E+02  0.51100000000E-03 0.  1.
        -12    1    3    3    0    0 -0.34237101297E+01 -0.38643701875E+01 -0.31598404323E+01  0.60530768668E+01  0.00000000000E+00 0.  1.
</event>
<event>
 7    1  0.1024956E-012  0.5052884E+02  0.7816164E-02  0.1300439E+00
        -11   -1    0    0    0    0  0.00000000000E+00  0.00000000000E+00  0.45593999997E+02  0.45594000000E+02  0.51100000000E-03 0. -1.
         11   -1    0    0    0    0 -0.00000000000E+00 -0.00000000000E+00 -0.45593999997E+02  0.45594000000E+02  0.51100000000E-03 0.  1.
    9900012    2    1    2    0    0 -0.85816805027E+00 -0.17981381810E+02  0.36456838922E+02  0.50528835616E+02  0.29999926340E+02 0.  0.
        -12    1    1    2    0    0  0.85816805027E+00  0.17981381810E+02 -0.36456838922E+02  0.40659164384E+02  0.00000000000E+00 0.  1.
         11    1    3    3    0    0  0.86428607768E+01 -0.88754161948E+01  0.25656996465E+02  0.28491288544E+02  0.51100000000E-03 0. -1.
        -11    1    3    3    0    0 -0.39307040923E+00 -0.37619070424E+01 -0.28814042115E+01  0.47548858486E+01  0.51100000000E-03 0.  1.
         12    1    3    3    0    0 -0.91079584179E+01 -0.53440585725E+01  0.13681246668E+02  0.17282661223E+02  0.00000000000E+00 0. -1.
</event>
<event>
 7    1  0.1024956E-012  0.5052886E+02  0.7816164E-02  0.1300439E+00
        -11   -1    0    0    0    0  0.00000000000E+00  0.00000000000E+00  0.45593999997E+02  0.45594000000E+02  0.51100000000E-03 0.  1.
         11   -1    0    0    0    0 -0.00000000000E+00 -0.00000000000E+00 -0.45593999997E+02  0.45594000000E+02  0.51100000000E-03 0. -1.
    9900012    2    1    2    0    0  0.34077271308E+02  0.16307487383E+02 -0.15032338631E+02  0.50528858725E+02  0.29999996579E+02 0.  0.
        -12    1    1    2    0    0 -0.34077271308E+02 -0.16307487383E+02  0.15032338631E+02  0.40659141275E+02  0.00000000000E+00 0.  1.
         11    1    3    3    0    0  0.18310887685E+02  0.14665628754E+01 -0.13807011451E+02  0.22979838553E+02  0.51100000000E-03 0. -1.
        -11    1    3    3    0    0  0.12041805255E+02  0.34975965721E+01  0.56699329593E+01  0.13761772982E+02  0.51100000000E-03 0.  1.
         12    1    3    3    0    0  0.37245783678E+01  0.11343327935E+02 -0.68952601396E+01  0.13787247189E+02  0.00000000000E+00 0. -1.
</event>
<event>
 7    1  0.1024956E-012  0.5052886E+02  0.7816164E-02  0.1300439E+00
        -11   -1    0    0    0    0  0.00000000000E+00  0.00000000000E+00  0.45593999997E+02  0.45594000000E+02  0.51100000000E-03 0.  1.
         11   -1    0    0    0    0 -0.00000000000E+00 -0.00000000000E+00 -0.45593999997E+02  0.45594000000E+02  0.51100000000E-03 0. -1.
    9900012    2    1    2    0    0 -0.15496367306E+01 -0.16616236624E+02 -0.37076470902E+02  0.50528863412E+02  0.30000010828E+02 0.  0.
        -12    1    1    2    0    0  0.15496367306E+01  0.16616236624E+02  0.37076470902E+02  0.40659136588E+02  0.00000000000E+00 0.  1.
         11    1    3    3    0    0  0.90383956310E+01 -0.52326263023E+01 -0.18326746422E+02  0.21093662752E+02  0.51100000000E-03 0.  1.
        -11    1    3    3    0    0 -0.83564664435E+01 -0.47998655512E+01 -0.21451914625E+00  0.96392561672E+01  0.51100000000E-03 0. -1.
         12    1    3    3    0    0 -0.22315659180E+01 -0.65837447703E+01 -0.18535205333E+02  0.19795944493E+02  0.00000000000E+00 0. -1.
</event>
<event>
 7    1  0.1024956E-012  0.5052887E+02  0.7816164E-02  0.1300439E+00
        -11   -1    0    0    0    0  0.00000000000E+00  0.00000000000E+00  0.45593999997E+02  0.45594000000E+02  0.51100000000E-03 0.  1.
         11   -1    0    0    0    0 -0.00000000000E+00 -0.00000000000E+00 -0.45593999997E+02  0.45594000000E+02  0.51100000000E-03 0. -1.
    9900012    2    1    2    0    0 -0.10746803327E+02  0.13196410544E+02 -0.36925949267E+02  0.50528871108E+02  0.30000034219E+02 0.  0.
        -12    1    1    2    0    0  0.10746803327E+02 -0.13196410544E+02  0.36925949267E+02  0.40659128892E+02  0.00000000000E+00 0.  1.
         11    1    3    3    0    0 -0.69718888020E+01  0.93017605739E+01 -0.23095446745E+02  0.25855940204E+02  0.51100000000E-03 0. -1.
        -11    1    3    3    0    0  0.77151275360E+01  0.23141879888E+01 -0.24385671722E+01  0.84157750123E+01  0.51100000000E-03 0.  1.
        -12    1    3    3    0    0 -0.11490042061E+02  0.15804619817E+01 -0.11391935350E+02  0.16257155891E+02  0.00000000000E+00 0.  1.
</event>
<event>
 7    1  0.1024956E-012  0.5052886E+02  0.7816164E-02  0.1300439E+00
        -11   -1    0    0    0    0  0.00000000000E+00  0.00000000000E+00  0.45593999997E+02  0.45594000000E+02  0.51100000000E-03 0.  1.
         11   -1    0    0    0    0 -0.00000000000E+00 -0.00000000000E+00 -0.45593999997E+02  0.45594000000E+02  0.51100000000E-03 0. -1.
    9900012    2    1    2    0    0 -0.13173897199E+02  0.36232861782E+01 -0.38294726939E+02  0.50528857345E+02  0.29999992386E+02 0.  0.
        -12    1    1    2    0    0  0.13173897199E+02 -0.36232861782E+01  0.38294726939E+02  0.40659142655E+02  0.00000000000E+00 0.  1.
         11    1    3    3    0    0 -0.69268701714E+01 -0.81598509778E+00 -0.22747945034E+02  0.23793199986E+02  0.51100000000E-03 0. -1.
        -11    1    3    3    0    0 -0.96474041679E+01  0.75479661794E+01 -0.19804184699E+01  0.12408314076E+02  0.51100000000E-03 0.  1.
        -12    1    3    3    0    0  0.34003771407E+01 -0.31086949034E+01 -0.13566363435E+02  0.14327343283E+02  0.00000000000E+00 0.  1.
</event>
<event>
 7    1  0.1024956E-012  0.5052885E+02  0.7816164E-02  0.1300439E+00
        -11   -1    0    0    0    0  0.00000000000E+00  0.00000000000E+00  0.45593999997E+02  0.45594000000E+02  0.51100000000E-03 0. -1.
         11   -1    0    0    0    0 -0.00000000000E+00 -0.00000000000E+00 -0.45593999997E+02  0.45594000000E+02  0.51100000000E-03 0.  1.
    9900012    2    1    2    0    0  0.14826620884E+02 -0.24749810345E+02  0.28649339409E+02  0.50528850383E+02  0.29999971225E+02 0.  0.
        -12    1    1    2    0    0 -0.14826620884E+02  0.24749810345E+02 -0.28649339409E+02  0.40659149617E+02  0.00000000000E+00 0.  1.
         11    1    3    3    0    0 -0.40098478017E+01 -0.71284485936E+01 -0.15255860579E+01  0.83199201815E+01  0.51100000000E-03 0. -1.
        -11    1    3    3    0    0  0.11707521503E+02 -0.18523370680E+02  0.25566522859E+02  0.33672368679E+02  0.51100000000E-03 0.  1.
        -12    1    3    3    0    0  0.71289471826E+01  0.90200892818E+00  0.46084026078E+01  0.85365615229E+01  0.00000000000E+00 0.  1.
</event>
<event>
 7    1  0.1024956E-012  0.5052887E+02  0.7816164E-02  0.1300439E+00
        -11   -1    0    0    0    0  0.00000000000E+00  0.00000000000E+00  0.45593999997E+02  0.45594000000E+02  0.51100000000E-03 0.  1.
         11   -1    0    0    0    0 -0.00000000000E+00 -0.00000000000E+00 -0.45593999997E+02  0.45594000000E+02  0.51100000000E-03 0. -1.
    9900012    2    1    2    0    0  0.52295715917E+01 -0.10921362459E+02 -0.38814178232E+02  0.50528868076E+02  0.30000025002E+02 0.  0.
        -12    1    1    2    0    0 -0.52295715917E+01  0.10921362459E+02  0.38814178232E+02  0.40659131924E+02  0.00000000000E+00 0.  1.
         11    1    3    3    0    0 -0.54253216038E+01 -0.16027863702E+02 -0.20841648021E+02  0.26845871597E+02  0.51100000000E-03 0. -1.
        -11    1    3    3    0    0 -0.62819418846E+00  0.38281378450E+01 -0.62980311932E+01  0.73969226352E+01  0.51100000000E-03 0.  1.
         12    1    3    3    0    0  0.11283087384E+02  0.12783633974E+01 -0.11674499018E+02  0.16286073843E+02  0.00000000000E+00 0. -1.
</event>
<event>
 7    1  0.1024956E-012  0.5052886E+02  0.7816164E-02  0.1300439E+00
        -11   -1    0    0    0    0  0.00000000000E+00  0.00000000000E+00  0.45593999997E+02  0.45594000000E+02  0.51100000000E-03 0.  1.
         11   -1    0    0    0    0 -0.00000000000E+00 -0.00000000000E+00 -0.45593999997E+02  0.45594000000E+02  0.51100000000E-03 0. -1.
    9900012    2    1    2    0    0  0.93023080481E+01  0.27534796298E+02 -0.28433566377E+02  0.50528860326E+02  0.30000001446E+02 0.  0.
        -12    1    1    2    0    0 -0.93023080481E+01 -0.27534796298E+02  0.28433566377E+02  0.40659139674E+02  0.00000000000E+00 0.  1.
         11    1    3    3    0    0 -0.21785187844E+01 -0.15508342537E+01 -0.48195153072E+01  0.55116929372E+01  0.51100000000E-03 0. -1.
        -11    1    3    3    0    0  0.18152781471E+02  0.19679047678E+02 -0.15814193988E+02  0.31094647841E+02  0.51100000000E-03 0.  1.
        -12    1    3    3    0    0 -0.66719546381E+01  0.94065828737E+01 -0.77998570811E+01  0.13922519547E+02  0.00000000000E+00 0.  1.
</event>
<event>
 7    1  0.1033227E-012  0.5052886E+02  0.7816164E-02  0.1300439E+00
        -11   -1    0    0    0    0  0.00000000000E+00  0.00000000000E+00  0.45593999997E+02  0.45594000000E+02  0.51100000000E-03 0.  1.
         11   -1    0    0    0    0 -0.00000000000E+00 -0.00000000000E+00 -0.45593999997E+02  0.45594000000E+02  0.51100000000E-03 0. -1.
    9900012    2    1    2    0    0  0.13925608136E+02 -0.33998965614E+02 -0.17415895774E+02  0.50528860187E+02  0.30000001023E+02 0.  0.
        -12    1    1    2    0    0 -0.13925608136E+02  0.33998965614E+02  0.17415895774E+02  0.40659139813E+02  0.00000000000E+00 0.  1.
         11    1    3    3    0    0  0.20483223899E+01 -0.23688928357E+02 -0.10452399671E+02  0.25973324979E+02  0.51100000000E-03 0. -1.
        -11    1    3    3    0    0  0.22232309189E+01 -0.32793361100E+01  0.58333071399E+01  0.70515440501E+01  0.51100000000E-03 0.  1.
        -12    1    3    3    0    0  0.96540548271E+01 -0.70307011468E+01 -0.12796803242E+02  0.17503991158E+02  0.00000000000E+00 0.  1.
</event>
<event>
 7    1  0.1024956E-012  0.5052886E+02  0.7816164E-02  0.1300439E+00
        -11   -1    0    0    0    0  0.00000000000E+00  0.00000000000E+00  0.45593999997E+02  0.45594000000E+02  0.51100000000E-03 0.  1.
         11   -1    0    0    0    0 -0.00000000000E+00 -0.00000000000E+00 -0.45593999997E+02  0.45594000000E+02  0.51100000000E-03 0. -1.
    9900012    2    1    2    0    0 -0.20435111501E+02  0.34931694402E+02  0.39177448881E+01  0.50528858582E+02  0.29999996146E+02 0.  0.
        -12    1    1    2    0    0  0.20435111501E+02 -0.34931694402E+02 -0.39177448881E+01  0.40659141418E+02  0.00000000000E+00 0.  1.
         11    1    3    3    0    0  0.85660524601E+00  0.14763888178E+02 -0.29077247455E+01  0.15071862198E+02  0.51100000000E-03 0. -1.
        -11    1    3    3    0    0 -0.11680626588E+02  0.13380669472E+02  0.13149170142E+02  0.22099321905E+02  0.51100000000E-03 0.  1.
         12    1    3    3    0    0 -0.96110901591E+01  0.67871367525E+01 -0.63237005083E+01  0.13357674478E+02  0.00000000000E+00 0. -1.
</event>
<event>
 7    1  0.1024956E-012  0.5052884E+02  0.7816164E-02  0.1300439E+00
        -11   -1    0    0    0    0  0.00000000000E+00  0.00000000000E+00  0.45593999997E+02  0.45594000000E+02  0.51100000000E-03 0. -1.
         11   -1    0    0    0    0 -0.00000000000E+00 -0.00000000000E+00 -0.45593999997E+02  0.45594000000E+02  0.51100000000E-03 0.  1.
    9900012    2    1    2    0    0 -0.21444095137E+02  0.17420501408E+02 -0.29830262114E+02  0.50528835925E+02  0.29999927277E+02 0.  0.
        -12    1    1    2    0    0  0.21444095137E+02 -0.17420501408E+02  0.29830262114E+02  0.40659164075E+02  0.00000000000E+00 0.  1.
         11    1    3    3    0    0 -0.46874784045E+01  0.19927637494E+02 -0.84081448687E+01  0.22130975809E+02  0.51100000000E-03 0. -1.
        -11    1    3    3    0    0 -0.16683660839E+02 -0.39811657854E+01 -0.20011700146E+02  0.26356448224E+02  0.51100000000E-03 0.  1.
        -12    1    3    3    0    0 -0.72955893497E-01  0.14740296992E+01 -0.14104170987E+01  0.20414118910E+01  0.00000000000E+00 0.  1.
</event>
<event>
 7    1  0.1024956E-012  0.5052885E+02  0.7816164E-02  0.1300439E+00
        -11   -1    0    0    0    0  0.00000000000E+00  0.00000000000E+00  0.45593999997E+02  0.45594000000E+02  0.51100000000E-03 0. -1.
         11   -1    0    0    0    0 -0.00000000000E+00 -0.00000000000E+00 -0.45593999997E+02  0.45594000000E+02  0.51100000000E-03 0.  1.
    9900012    2    1    2    0    0 -0.31714360484E+02  0.12821738209E+02  0.21976550350E+02  0.50528851006E+02  0.29999973119E+02 0.  0.
        -12    1    1    2    0    0  0.31714360484E+02 -0.12821738209E+02 -0.21976550350E+02  0.40659148994E+02  0.00000000000E+00 0.  1.
         11    1    3    3    0    0 -0.31869075621E+01 -0.15160338545E+01  0.13673918682E+02  0.14121996701E+02  0.51100000000E-03 0. -1.
        -11    1    3    3    0    0 -0.15264811383E+02 -0.80681921152E+00  0.43311225945E+01  0.15887858477E+02  0.51100000000E-03 0.  1.
         12    1    3    3    0    0 -0.13262641539E+02  0.15144591275E+02  0.39715090734E+01  0.20518995828E+02  0.00000000000E+00 0. -1.
</event>
<event>
 7    1  0.1024956E-012  0.5052886E+02  0.7816164E-02  0.1300439E+00
        -11   -1    0    0    0    0  0.00000000000E+00  0.00000000000E+00  0.45593999997E+02  0.45594000000E+02  0.51100000000E-03 0. -1.
         11   -1    0    0    0    0 -0.00000000000E+00 -0.00000000000E+00 -0.45593999997E+02  0.45594000000E+02  0.51100000000E-03 0.  1.
    9900012    2    1    2    0    0 -0.96804248667E+01  0.69113685004E+01  0.38880436073E+02  0.50528856510E+02  0.29999989848E+02 0.  0.
        -12    1    1    2    0    0  0.96804248667E+01 -0.69113685004E+01 -0.38880436073E+02  0.40659143490E+02  0.00000000000E+00 0.  1.
         11    1    3    3    0    0 -0.78302003259E+01  0.44479830593E+01  0.13392977297E+02  0.16139034407E+02  0.51100000000E-03 0. -1.
        -11    1    3    3    0    0  0.51592600857E+01  0.93959889706E+01  0.53757279670E+01  0.11991706501E+02  0.51100000000E-03 0.  1.
        -12    1    3    3    0    0 -0.70094846265E+01 -0.69326035295E+01  0.20111730809E+02  0.22398115602E+02  0.00000000000E+00 0.  1.
</event>
<event>
 7    1  0.1024956E-012  0.5052885E+02  0.7816164E-02  0.1300439E+00
        -11   -1    0    0    0    0  0.00000000000E+00  0.00000000000E+00  0.45593999997E+02  0.45594000000E+02  0.51100000000E-03 0.  1.
         11   -1    0    0    0    0 -0.00000000000E+00 -0.00000000000E+00 -0.45593999997E+02  0.45594000000E+02  0.51100000000E-03 0. -1.
    9900012    2    1    2    0    0  0.11995445331E+02 -0.18722703734E+01 -0.38804253737E+02  0.50528853266E+02  0.29999979987E+02 0.  0.
        -12    1    1    2    0    0 -0.11995445331E+02  0.18722703734E+01  0.38804253737E+02  0.40659146734E+02  0.00000000000E+00 0.  1.
         11    1    3    3    0    0 -0.36963904932E+01 -0.35958426993E+01 -0.89966008677E+01  0.10369774097E+02  0.51100000000E-03 0. -1.
        -11    1    3    3    0    0  0.11080923862E+02 -0.49006227426E+01 -0.34564951458E+01  0.12599616496E+02  0.51100000000E-03 0.  1.
        -12    1    3    3    0    0  0.46109119623E+01  0.66241950685E+01 -0.26351157724E+02  0.27559462673E+02  0.00000000000E+00 0.  1.
</event>
<event>
 7    1  0.1024956E-012  0.5052887E+02  0.7816164E-02  0.1300439E+00
        -11   -1    0    0    0    0  0.00000000000E+00  0.00000000000E+00  0.45593999997E+02  0.45594000000E+02  0.51100000000E-03 0.  1.
         11   -1    0    0    0    0 -0.00000000000E+00 -0.00000000000E+00 -0.45593999997E+02  0.45594000000E+02  0.51100000000E-03 0. -1.
    9900012    2    1    2    0    0 -0.14768637709E+02 -0.64765039158E+01 -0.37324354479E+02  0.50528865724E+02  0.30000017856E+02 0.  0.
        -12    1    1    2    0    0  0.14768637709E+02  0.64765039158E+01  0.37324354479E+02  0.40659134276E+02  0.00000000000E+00 0.  1.
         11    1    3    3    0    0  0.18754167124E+01 -0.70058313845E+01 -0.73115866105E+01  0.10298454265E+02  0.51100000000E-03 0. -1.
        -11    1    3    3    0    0 -0.66696666499E+01  0.25894063937E+01 -0.29143040525E+02  0.30008436980E+02  0.51100000000E-03 0.  1.
        -12    1    3    3    0    0 -0.99743877714E+01 -0.20600789250E+01 -0.86972734397E+00  0.10221974479E+02  0.00000000000E+00 0.  1.
</event>
<event>
 7    1  0.1024956E-012  0.5052886E+02  0.7816164E-02  0.1300439E+00
        -11   -1    0    0    0    0  0.00000000000E+00  0.00000000000E+00  0.45593999997E+02  0.45594000000E+02  0.51100000000E-03 0.  1.
         11   -1    0    0    0    0 -0.00000000000E+00 -0.00000000000E+00 -0.45593999997E+02  0.45594000000E+02  0.51100000000E-03 0. -1.
    9900012    2    1    2    0    0 -0.32073085527E+01  0.76521729845E+01 -0.39803554440E+02  0.50528861721E+02  0.30000005686E+02 0.  0.
        -12    1    1    2    0    0  0.32073085527E+01 -0.76521729845E+01  0.39803554440E+02  0.40659138279E+02  0.00000000000E+00 0.  1.
         11    1    3    3    0    0  0.17609917869E+01  0.50198773164E+01 -0.37993779514E+02  0.38364404627E+02  0.51100000000E-03 0. -1.
        -11    1    3    3    0    0 -0.34367709914E+01 -0.38311355483E+01 -0.19939631577E+01  0.55195003191E+01  0.51100000000E-03 0.  1.
         12    1    3    3    0    0 -0.15315293481E+01  0.64634312165E+01  0.18418823164E+00  0.66449567748E+01  0.00000000000E+00 0. -1.
</event>
<event>
 7    1  0.1024956E-012  0.5052886E+02  0.7816164E-02  0.1300439E+00
        -11   -1    0    0    0    0  0.00000000000E+00  0.00000000000E+00  0.45593999997E+02  0.45594000000E+02  0.51100000000E-03 0.  1.
         11   -1    0    0    0    0 -0.00000000000E+00 -0.00000000000E+00 -0.45593999997E+02  0.45594000000E+02  0.51100000000E-03 0. -1.
    9900012    2    1    2    0    0 -0.15075145455E+02 -0.14275227294E+02 -0.34958886229E+02  0.50528857718E+02  0.29999993520E+02 0.  0.
        -12    1    1    2    0    0  0.15075145455E+02  0.14275227294E+02  0.34958886229E+02  0.40659142282E+02  0.00000000000E+00 0.  1.
         11    1    3    3    0    0 -0.26422693486E+01 -0.33126626448E+01 -0.61101171945E+01  0.74356474836E+01  0.51100000000E-03 0. -1.
        -11    1    3    3    0    0  0.43153613903E+01 -0.77532761962E+01 -0.23658691079E+02  0.25267950046E+02  0.51100000000E-03 0.  1.
        -12    1    3    3    0    0 -0.16748237496E+02 -0.32092884525E+01 -0.51900779553E+01  0.17825260188E+02  0.00000000000E+00 0.  1.
</event>
<event>
 7    1  0.1024956E-012  0.5052885E+02  0.7816164E-02  0.1300439E+00
        -11   -1    0    0    0    0  0.00000000000E+00  0.00000000000E+00  0.45593999997E+02  0.45594000000E+02  0.51100000000E-03 0.  1.
         11   -1    0    0    0    0 -0.00000000000E+00 -0.00000000000E+00 -0.45593999997E+02  0.45594000000E+02  0.51100000000E-03 0. -1.
    9900012    2    1    2    0    0  0.11854199809E+02 -0.18836202502E+02 -0.34027077377E+02  0.50528848845E+02  0.29999966550E+02 0.  0.
        -12    1    1    2    0    0 -0.11854199809E+02  0.18836202502E+02  0.34027077377E+02  0.40659151155E+02  0.00000000000E+00 0.  1.
         11    1    3    3    0    0 -0.23323434374E+01 -0.36318783072E+01 -0.50544985453E+01  0.66466774973E+01  0.51100000000E-03 0. -1.
        -11    1    3    3    0    0  0.99940266376E+01 -0.15047562938E+01 -0.27715087729E+02  0.29500355049E+02  0.51100000000E-03 0.  1.
        -12    1    3    3    0    0  0.41925166083E+01 -0.13699567901E+02 -0.12574911026E+01  0.14381816299E+02  0.00000000000E+00 0.  1.
</event>
<event>
 7    1  0.1024956E-012  0.5052887E+02  0.7816164E-02  0.1300439E+00
        -11   -1    0    0    0    0  0.00000000000E+00  0.00000000000E+00  0.45593999997E+02  0.45594000000E+02  0.51100000000E-03 0.  1.
         11   -1    0    0    0    0 -0.00000000000E+00 -0.00000000000E+00 -0.45593999997E+02  0.45594000000E+02  0.51100000000E-03 0. -1.
    9900012    2    1    2    0    0  0.28062541303E+02 -0.65654502775E+01 -0.28680194933E+02  0.50528868884E+02  0.30000027459E+02 0.  0.
        -12    1    1    2    0    0 -0.28062541303E+02  0.65654502775E+01  0.28680194933E+02  0.40659131116E+02  0.00000000000E+00 0.  1.
         11    1    3    3    0    0  0.16946207704E+02 -0.12486173092E+02 -0.30502974091E+01  0.21269292150E+02  0.51100000000E-03 0. -1.
        -11    1    3    3    0    0  0.21381625941E+01  0.45335369693E+01 -0.98250715375E+01  0.11029810865E+02  0.51100000000E-03 0.  1.
         12    1    3    3    0    0  0.89781710051E+01  0.13871858452E+01 -0.15804825986E+02  0.18229765869E+02  0.00000000000E+00 0. -1.
</event>
<event>
 7    1  0.1024956E-012  0.5052887E+02  0.7816164E-02  0.1300439E+00
        -11   -1    0    0    0    0  0.00000000000E+00  0.00000000000E+00  0.45593999997E+02  0.45594000000E+02  0.51100000000E-03 0.  1.
         11   -1    0    0    0    0 -0.00000000000E+00 -0.00000000000E+00 -0.45593999997E+02  0.45594000000E+02  0.51100000000E-03 0. -1.
    9900012    2    1    2    0    0 -0.25774545079E+02  0.10688919048E+02 -0.29573382570E+02  0.50528866695E+02  0.30000020808E+02 0.  0.
        -12    1    1    2    0    0  0.25774545079E+02 -0.10688919048E+02  0.29573382570E+02  0.40659133305E+02  0.00000000000E+00 0.  1.
         11    1    3    3    0    0 -0.48690627540E+01  0.15289915334E+02 -0.11720006693E+02  0.19870778550E+02  0.51100000000E-03 0. -1.
        -11    1    3    3    0    0 -0.16435903208E+02  0.17463265537E+01 -0.87758068010E+01  0.18713721062E+02  0.51100000000E-03 0.  1.
         12    1    3    3    0    0 -0.44695791165E+01 -0.63473228396E+01 -0.90775690754E+01  0.11944367084E+02  0.00000000000E+00 0. -1.
</event>
<event>
 7    1  0.1024956E-012  0.5052883E+02  0.7816164E-02  0.1300439E+00
        -11   -1    0    0    0    0  0.00000000000E+00  0.00000000000E+00  0.45593999997E+02  0.45594000000E+02  0.51100000000E-03 0. -1.
         11   -1    0    0    0    0 -0.00000000000E+00 -0.00000000000E+00 -0.45593999997E+02  0.45594000000E+02  0.51100000000E-03 0.  1.
    9900012    2    1    2    0    0 -0.19648151719E+02  0.56758668897E+00  0.35592083813E+02  0.50528825749E+02  0.29999896345E+02 0.  0.
        -12    1    1    2    0    0  0.19648151719E+02 -0.56758668897E+00 -0.35592083813E+02  0.40659174251E+02  0.00000000000E+00 0.  1.
         11    1    3    3    0    0 -0.98063739854E+01 -0.52373088363E+01  0.22114627364E+02  0.24751790204E+02  0.51100000000E-03 0. -1.
        -11    1    3    3    0    0 -0.11544168853E+02  0.96304678180E+01  0.15079930066E+02  0.21293614910E+02  0.51100000000E-03 0.  1.
        -12    1    3    3    0    0  0.17023911195E+01 -0.38255722927E+01 -0.16024736165E+01  0.44834206341E+01  0.00000000000E+00 0.  1.
</event>
<event>
 7    1  0.1024956E-012  0.5052891E+02  0.7816164E-02  0.1300439E+00
        -11   -1    0    0    0    0  0.00000000000E+00  0.00000000000E+00  0.45593999997E+02  0.45594000000E+02  0.51100000000E-03 0. -1.
         11   -1    0    0    0    0 -0.00000000000E+00 -0.00000000000E+00 -0.45593999997E+02  0.45594000000E+02  0.51100000000E-03 0.  1.
    9900012    2    1    2    0    0  0.29337236484E+02 -0.28071281005E+02 -0.21192597539E+01  0.50528910934E+02  0.30000155274E+02 0.  0.
        -12    1    1    2    0    0 -0.29337236484E+02  0.28071281005E+02  0.21192597539E+01  0.40659089066E+02  0.00000000000E+00 0.  1.
         11    1    3    3    0    0  0.20140370069E+02 -0.12036048713E+02 -0.35407485488E+01  0.23728419157E+02  0.51100000000E-03 0. -1.
        -11    1    3    3    0    0 -0.22178587804E+01 -0.59232390716E+01 -0.69558037873E+01  0.94014288944E+01  0.51100000000E-03 0.  1.
        -12    1    3    3    0    0  0.11414725195E+02 -0.10111993221E+02  0.83772925822E+01  0.17399062883E+02  0.00000000000E+00 0.  1.
</event>
<event>
 7    1  0.1024956E-012  0.5052886E+02  0.7816164E-02  0.1300439E+00
        -11   -1    0    0    0    0  0.00000000000E+00  0.00000000000E+00  0.45593999997E+02  0.45594000000E+02  0.51100000000E-03 0.  1.
         11   -1    0    0    0    0 -0.00000000000E+00 -0.00000000000E+00 -0.45593999997E+02  0.45594000000E+02  0.51100000000E-03 0. -1.
    9900012    2    1    2    0    0 -0.11275806607E+02  0.36392935283E+02 -0.14197745207E+02  0.50528861764E+02  0.30000005818E+02 0.  0.
        -12    1    1    2    0    0  0.11275806607E+02 -0.36392935283E+02  0.14197745207E+02  0.40659138236E+02  0.00000000000E+00 0.  1.
         11    1    3    3    0    0  0.19718991653E+01  0.11480894007E+02 -0.17938686291E+02  0.21389150980E+02  0.51100000000E-03 0. -1.
        -11    1    3    3    0    0 -0.52368085585E+01  0.47844287045E+01  0.21781383868E+01  0.74201892833E+01  0.51100000000E-03 0.  1.
         12    1    3    3    0    0 -0.80108972135E+01  0.20127612571E+02  0.15628026967E+01  0.21719521501E+02  0.00000000000E+00 0. -1.
</event>
<event>
 7    1  0.1024956E-012  0.5052888E+02  0.7816164E-02  0.1300439E+00
        -11   -1    0    0    0    0  0.00000000000E+00  0.00000000000E+00  0.45593999997E+02  0.45594000000E+02  0.51100000000E-03 0. -1.
         11   -1    0    0    0    0 -0.00000000000E+00 -0.00000000000E+00 -0.45593999997E+02  0.45594000000E+02  0.51100000000E-03 0.  1.
    9900012    2    1    2    0    0  0.13001665886E+02 -0.27104864152E+02  0.27376036033E+02  0.50528876480E+02  0.30000050548E+02 0.  0.
        -12    1    1    2    0    0 -0.13001665886E+02  0.27104864152E+02 -0.27376036033E+02  0.40659123520E+02  0.00000000000E+00 0.  1.
         11    1    3    3    0    0 -0.10469254235E+01 -0.15612370971E+02  0.34450426506E+01  0.16022187719E+02  0.51100000000E-03 0.  1.
        -11    1    3    3    0    0 -0.41738000971E+00  0.36260778860E+01  0.56213178602E+01  0.67023773136E+01  0.51100000000E-03 0. -1.
        -12    1    3    3    0    0  0.14465971319E+02 -0.15118571067E+02  0.18309675522E+02  0.27804311447E+02  0.00000000000E+00 0.  1.
</event>
<event>
 7    1  0.1024956E-012  0.5052887E+02  0.7816164E-02  0.1300439E+00
        -11   -1    0    0    0    0  0.00000000000E+00  0.00000000000E+00  0.45593999997E+02  0.45594000000E+02  0.51100000000E-03 0.  1.
         11   -1    0    0    0    0 -0.00000000000E+00 -0.00000000000E+00 -0.45593999997E+02  0.45594000000E+02  0.51100000000E-03 0. -1.
    9900012    2    1    2    0    0  0.11529770019E+02  0.38366921736E+02 -0.69432181809E+01  0.50528873609E+02  0.30000041822E+02 0.  0.
        -12    1    1    2    0    0 -0.11529770019E+02 -0.38366921736E+02  0.69432181809E+01  0.40659126391E+02  0.00000000000E+00 0.  1.
         11    1    3    3    0    0  0.67152774839E+01  0.33374398604E+02 -0.10891590376E+02  0.35743141650E+02  0.51100000000E-03 0. -1.
        -11    1    3    3    0    0 -0.31414904226E+00 -0.22776619852E+01 -0.27969609117E+01  0.36206939034E+01  0.51100000000E-03 0.  1.
        -12    1    3    3    0    0  0.51286415769E+01  0.72701851173E+01  0.67453331065E+01  0.11165038056E+02  0.00000000000E+00 0.  1.
</event>
<event>
 7    1  0.1024956E-012  0.5052886E+02  0.7816164E-02  0.1300439E+00
        -11   -1    0    0    0    0  0.00000000000E+00  0.00000000000E+00  0.45593999997E+02  0.45594000000E+02  0.51100000000E-03 0.  1.
         11   -1    0    0    0    0 -0.00000000000E+00 -0.00000000000E+00 -0.45593999997E+02  0.45594000000E+02  0.51100000000E-03 0. -1.
    9900012    2    1    2    0    0  0.28182426178E+02  0.55281135241E+01 -0.28781187414E+02  0.50528856706E+02  0.29999990445E+02 0.  0.
        -12    1    1    2    0    0 -0.28182426178E+02 -0.55281135241E+01  0.28781187414E+02  0.40659143294E+02  0.00000000000E+00 0.  1.
         11    1    3    3    0    0  0.23918543730E+02  0.51921158304E+00 -0.33213995328E+02  0.40933309183E+02  0.51100000000E-03 0. -1.
        -11    1    3    3    0    0  0.28439999731E+01  0.59250331025E+01  0.25086755113E+01  0.70347570103E+01  0.51100000000E-03 0.  1.
         12    1    3    3    0    0  0.14198824751E+01 -0.91613116143E+00  0.19241324023E+01  0.25607905127E+01  0.00000000000E+00 0. -1.
</event>
<event>
 7    1  0.1024956E-012  0.5052885E+02  0.7816164E-02  0.1300439E+00
        -11   -1    0    0    0    0  0.00000000000E+00  0.00000000000E+00  0.45593999997E+02  0.45594000000E+02  0.51100000000E-03 0. -1.
         11   -1    0    0    0    0 -0.00000000000E+00 -0.00000000000E+00 -0.45593999997E+02  0.45594000000E+02  0.51100000000E-03 0.  1.
    9900012    2    1    2    0    0  0.18806904205E+00  0.39655926823E+02 -0.89743132037E+01  0.50528853432E+02  0.29999980491E+02 0.  0.
        -12    1    1    2    0    0 -0.18806904205E+00 -0.39655926823E+02  0.89743132037E+01  0.40659146568E+02  0.00000000000E+00 0.  1.
         11    1    3    3    0    0  0.21847940108E+01  0.35579847184E+02 -0.32083879202E+01  0.35790957011E+02  0.51100000000E-03 0. -1.
        -11    1    3    3    0    0  0.51364051557E+01 -0.84471863398E-01 -0.33538840105E+01  0.61350086907E+01  0.51100000000E-03 0.  1.
         12    1    3    3    0    0 -0.71331301244E+01  0.41605515031E+01 -0.24120412731E+01  0.86028877294E+01  0.00000000000E+00 0. -1.
</event>
<event>
 7    1  0.1024956E-012  0.5052886E+02  0.7816164E-02  0.1300439E+00
        -11   -1    0    0    0    0  0.00000000000E+00  0.00000000000E+00  0.45593999997E+02  0.45594000000E+02  0.51100000000E-03 0. -1.
         11   -1    0    0    0    0 -0.00000000000E+00 -0.00000000000E+00 -0.45593999997E+02  0.45594000000E+02  0.51100000000E-03 0.  1.
    9900012    2    1    2    0    0 -0.85635409895E+01  0.17729333110E+00  0.39746698069E+02  0.50528859889E+02  0.30000000119E+02 0.  0.
        -12    1    1    2    0    0  0.85635409895E+01 -0.17729333110E+00 -0.39746698069E+02  0.40659140111E+02  0.00000000000E+00 0.  1.
         11    1    3    3    0    0  0.12164433678E+01  0.75028081708E+01  0.20174649304E+02  0.21558950339E+02  0.51100000000E-03 0. -1.
        -11    1    3    3    0    0 -0.12566974282E+02 -0.11030083723E+02  0.15476514651E+02  0.22784075482E+02  0.51100000000E-03 0.  1.
        -12    1    3    3    0    0  0.27869899249E+01  0.37045688829E+01  0.40955341134E+01  0.61858340685E+01  0.00000000000E+00 0.  1.
</event>
<event>
 7    1  0.1024956E-012  0.5052887E+02  0.7816164E-02  0.1300439E+00
        -11   -1    0    0    0    0  0.00000000000E+00  0.00000000000E+00  0.45593999997E+02  0.45594000000E+02  0.51100000000E-03 0.  1.
         11   -1    0    0    0    0 -0.00000000000E+00 -0.00000000000E+00 -0.45593999997E+02  0.45594000000E+02  0.51100000000E-03 0. -1.
    9900012    2    1    2    0    0 -0.32218874773E+02  0.13397385931E+02 -0.20871481486E+02  0.50528873339E+02  0.30000041002E+02 0.  0.
        -12    1    1    2    0    0  0.32218874773E+02 -0.13397385931E+02  0.20871481486E+02  0.40659126661E+02  0.00000000000E+00 0.  1.
         11    1    3    3    0    0 -0.24286257171E+02  0.10227028722E+02 -0.24045311695E+02  0.35673399314E+02  0.51100000000E-03 0. -1.
        -11    1    3    3    0    0  0.84753945599E+00 -0.34230136430E+01  0.95460313948E+00  0.36533016498E+01  0.51100000000E-03 0.  1.
        -12    1    3    3    0    0 -0.87801570581E+01  0.65933708515E+01  0.22192270690E+01  0.11202172376E+02  0.00000000000E+00 0.  1.
</event>
<event>
 7    1  0.1024956E-012  0.5052886E+02  0.7816164E-02  0.1300439E+00
        -11   -1    0    0    0    0  0.00000000000E+00  0.00000000000E+00  0.45593999997E+02  0.45594000000E+02  0.51100000000E-03 0.  1.
         11   -1    0    0    0    0 -0.00000000000E+00 -0.00000000000E+00 -0.45593999997E+02  0.45594000000E+02  0.51100000000E-03 0. -1.
    9900012    2    1    2    0    0  0.31227226700E+02  0.51237578958E+01 -0.25529854167E+02  0.50528855442E+02  0.29999986602E+02 0.  0.
        -12    1    1    2    0    0 -0.31227226700E+02 -0.51237578958E+01  0.25529854167E+02  0.40659144558E+02  0.00000000000E+00 0.  1.
         11    1    3    3    0    0  0.23993924132E+01  0.18931664935E+01 -0.70864632005E+00  0.31374102685E+01  0.51100000000E-03 0. -1.
        -11    1    3    3    0    0  0.12095570454E+02  0.15439086104E+02 -0.10944673118E+02  0.22460055081E+02  0.51100000000E-03 0.  1.
        -12    1    3    3    0    0  0.16732263833E+02 -0.12208494701E+02 -0.13876534730E+02  0.24931390093E+02  0.00000000000E+00 0.  1.
</event>
<event>
 7    1  0.1024956E-012  0.5052890E+02  0.7816164E-02  0.1300439E+00
        -11   -1    0    0    0    0  0.00000000000E+00  0.00000000000E+00  0.45593999997E+02  0.45594000000E+02  0.51100000000E-03 0. -1.
         11   -1    0    0    0    0 -0.00000000000E+00 -0.00000000000E+00 -0.45593999997E+02  0.45594000000E+02  0.51100000000E-03 0.  1.
    9900012    2    1    2    0    0 -0.53696078971E+00 -0.30504986871E+02 -0.26876005941E+02  0.50528902049E+02  0.30000128268E+02 0.  0.
        -12    1    1    2    0    0  0.53696078971E+00  0.30504986871E+02  0.26876005941E+02  0.40659097951E+02  0.00000000000E+00 0.  1.
         11    1    3    3    0    0 -0.57867828819E+01 -0.11340138306E+02 -0.35634998644E+00  0.12736270195E+02  0.51100000000E-03 0. -1.
        -11    1    3    3    0    0  0.41031464049E+01 -0.15974657068E+02 -0.29156290050E+02  0.33497980963E+02  0.51100000000E-03 0.  1.
        -12    1    3    3    0    0  0.11466756873E+01 -0.31901914973E+01  0.26366340956E+01  0.42946508910E+01  0.00000000000E+00 0.  1.
</event>
<event>
 7    1  0.1024956E-012  0.5052886E+02  0.7816164E-02  0.1300439E+00
        -11   -1    0    0    0    0  0.00000000000E+00  0.00000000000E+00  0.45593999997E+02  0.45594000000E+02  0.51100000000E-03 0.  1.
         11   -1    0    0    0    0 -0.00000000000E+00 -0.00000000000E+00 -0.45593999997E+02  0.45594000000E+02  0.51100000000E-03 0. -1.
    9900012    2    1    2    0    0  0.14555304335E+02 -0.31414021995E+02 -0.21318249936E+02  0.50528862743E+02  0.30000008793E+02 0.  0.
        -12    1    1    2    0    0 -0.14555304335E+02  0.31414021995E+02  0.21318249936E+02  0.40659137257E+02  0.00000000000E+00 0.  1.
         11    1    3    3    0    0 -0.46529068396E+01 -0.89703976412E+01 -0.12064541705E+01  0.10177087394E+02  0.51100000000E-03 0. -1.
        -11    1    3    3    0    0  0.15762237854E+02 -0.17181053565E+02 -0.48093504926E+01  0.23806860276E+02  0.51100000000E-03 0.  1.
        -12    1    3    3    0    0  0.34459733203E+01 -0.52625707880E+01 -0.15302445273E+02  0.16544915072E+02  0.00000000000E+00 0.  1.
</event>
<event>
 7    1  0.1024956E-012  0.5052887E+02  0.7816164E-02  0.1300439E+00
        -11   -1    0    0    0    0  0.00000000000E+00  0.00000000000E+00  0.45593999997E+02  0.45594000000E+02  0.51100000000E-03 0.  1.
         11   -1    0    0    0    0 -0.00000000000E+00 -0.00000000000E+00 -0.45593999997E+02  0.45594000000E+02  0.51100000000E-03 0. -1.
    9900012    2    1    2    0    0 -0.20429411976E+02 -0.12107052158E+02 -0.33003381167E+02  0.50528871208E+02  0.30000034524E+02 0.  0.
        -12    1    1    2    0    0  0.20429411976E+02  0.12107052158E+02  0.33003381167E+02  0.40659128792E+02  0.00000000000E+00 0.  1.
         11    1    3    3    0    0 -0.17745901220E+02 -0.14000423244E+02 -0.10088750621E+02  0.24753014977E+02  0.51100000000E-03 0. -1.
        -11    1    3    3    0    0 -0.18055242050E+01  0.66612350082E+01 -0.14649053962E+02  0.16193416926E+02  0.51100000000E-03 0.  1.
         12    1    3    3    0    0 -0.87798655137E+00 -0.47678639219E+01 -0.82655765844E+01  0.95824393050E+01  0.00000000000E+00 0. -1.
</event>
<event>
 7    1  0.1024956E-012  0.5052886E+02  0.7816164E-02  0.1300439E+00
        -11   -1    0    0    0    0  0.00000000000E+00  0.00000000000E+00  0.45593999997E+02  0.45594000000E+02  0.51100000000E-03 0. -1.
         11   -1    0    0    0    0 -0.00000000000E+00 -0.00000000000E+00 -0.45593999997E+02  0.45594000000E+02  0.51100000000E-03 0.  1.
    9900012    2    1    2    0    0  0.38661894594E+02  0.34004362317E+01  0.12118611374E+02  0.50528858325E+02  0.29999995364E+02 0.  0.
        -12    1    1    2    0    0 -0.38661894594E+02 -0.34004362317E+01 -0.12118611374E+02  0.40659141675E+02  0.00000000000E+00 0.  1.
         11    1    3    3    0    0  0.15883061887E+02 -0.64646689107E+01  0.22061569058E+01  0.17289613286E+02  0.51100000000E-03 0. -1.
        -11    1    3    3    0    0  0.11230571716E+02  0.10814870676E+02 -0.30136638405E+01  0.15879840642E+02  0.51100000000E-03 0.  1.
        -12    1    3    3    0    0  0.11548260991E+02 -0.94976553402E+00  0.12926118309E+02  0.17359404397E+02  0.00000000000E+00 0.  1.
</event>
<event>
 7    1  0.1024956E-012  0.5052886E+02  0.7816164E-02  0.1300439E+00
        -11   -1    0    0    0    0  0.00000000000E+00  0.00000000000E+00  0.45593999997E+02  0.45594000000E+02  0.51100000000E-03 0. -1.
         11   -1    0    0    0    0 -0.00000000000E+00 -0.00000000000E+00 -0.45593999997E+02  0.45594000000E+02  0.51100000000E-03 0.  1.
    9900012    2    1    2    0    0  0.33680626544E+02  0.22252677474E+02  0.48579581421E+01  0.50528855684E+02  0.29999987338E+02 0.  0.
        -12    1    1    2    0    0 -0.33680626544E+02 -0.22252677474E+02 -0.48579581421E+01  0.40659144316E+02  0.00000000000E+00 0.  1.
         11    1    3    3    0    0  0.21375769265E+02 -0.27435122382E+01  0.17590392231E+01  0.21622779431E+02  0.51100000000E-03 0. -1.
        -11    1    3    3    0    0  0.91787689679E+00  0.65506893243E+01 -0.14139801669E+01  0.67641236531E+01  0.51100000000E-03 0.  1.
         12    1    3    3    0    0  0.11386980382E+02  0.18445500388E+02  0.45128990859E+01  0.22141952600E+02  0.00000000000E+00 0. -1.
</event>
<event>
 7    1  0.1024956E-012  0.5052886E+02  0.7816164E-02  0.1300439E+00
        -11   -1    0    0    0    0  0.00000000000E+00  0.00000000000E+00  0.45593999997E+02  0.45594000000E+02  0.51100000000E-03 0.  1.
         11   -1    0    0    0    0 -0.00000000000E+00 -0.00000000000E+00 -0.45593999997E+02  0.45594000000E+02  0.51100000000E-03 0. -1.
    9900012    2    1    2    0    0 -0.71488197731E+01 -0.74735305330E+01 -0.39321835645E+02  0.50528855380E+02  0.29999986412E+02 0.  0.
        -12    1    1    2    0    0  0.71488197731E+01  0.74735305330E+01  0.39321835645E+02  0.40659144620E+02  0.00000000000E+00 0.  1.
         11    1    3    3    0    0  0.28439451511E+01 -0.70906974659E+01 -0.29203501737E+02  0.30186263905E+02  0.51100000000E-03 0. -1.
        -11    1    3    3    0    0 -0.50090382671E+01 -0.73167209130E+01 -0.68285402376E+01  0.11191685812E+02  0.51100000000E-03 0.  1.
         12    1    3    3    0    0 -0.49837266571E+01  0.69338878459E+01 -0.32897936698E+01  0.91509056624E+01  0.00000000000E+00 0. -1.
</event>
<event>
 7    1  0.1024956E-012  0.5052883E+02  0.7816164E-02  0.1300439E+00
        -11   -1    0    0    0    0  0.00000000000E+00  0.00000000000E+00  0.45593999997E+02  0.45594000000E+02  0.51100000000E-03 0.  1.
         11   -1    0    0    0    0 -0.00000000000E+00 -0.00000000000E+00 -0.45593999997E+02  0.45594000000E+02  0.51100000000E-03 0. -1.
    9900012    2    1    2    0    0 -0.25652728403E+02  0.29125259131E+02 -0.12117131274E+02  0.50528830502E+02  0.29999910794E+02 0.  0.
        -12    1    1    2    0    0  0.25652728403E+02 -0.29125259131E+02  0.12117131274E+02  0.40659169498E+02  0.00000000000E+00 0.  1.
         11    1    3    3    0    0 -0.21729452912E+02  0.17031996841E+02 -0.17799491472E+02  0.32849352157E+02  0.51100000000E-03 0. -1.
        -11    1    3    3    0    0 -0.44576301802E+01  0.13240106707E+02  0.71894185610E+01  0.15711735485E+02  0.51100000000E-03 0.  1.
        -12    1    3    3    0    0  0.53435468889E+00 -0.11468444175E+01 -0.15070583636E+01  0.19677428599E+01  0.00000000000E+00 0.  1.
</event>
<event>
 7    1  0.1024956E-012  0.5052887E+02  0.7816164E-02  0.1300439E+00
        -11   -1    0    0    0    0  0.00000000000E+00  0.00000000000E+00  0.45593999997E+02  0.45594000000E+02  0.51100000000E-03 0.  1.
         11   -1    0    0    0    0 -0.00000000000E+00 -0.00000000000E+00 -0.45593999997E+02  0.45594000000E+02  0.51100000000E-03 0. -1.
    9900012    2    1    2    0    0  0.26099064962E+02  0.28946104793E+02 -0.11581321716E+02  0.50528865881E+02  0.30000018333E+02 0.  0.
        -12    1    1    2    0    0 -0.26099064962E+02 -0.28946104793E+02  0.11581321716E+02  0.40659134119E+02  0.00000000000E+00 0.  1.
         11    1    3    3    0    0  0.20824517648E+02  0.29250470388E+02 -0.10617428984E+02  0.37443028079E+02  0.51100000000E-03 0. -1.
        -11    1    3    3    0    0  0.71195547268E+01 -0.43943862853E-01  0.37285986757E+01  0.80369421372E+01  0.51100000000E-03 0.  1.
         12    1    3    3    0    0 -0.18450074124E+01 -0.26042173259E+00 -0.46924914075E+01  0.50488956654E+01  0.00000000000E+00 0. -1.
</event>
<event>
 7    1  0.1024956E-012  0.5052885E+02  0.7816164E-02  0.1300439E+00
        -11   -1    0    0    0    0  0.00000000000E+00  0.00000000000E+00  0.45593999997E+02  0.45594000000E+02  0.51100000000E-03 0. -1.
         11   -1    0    0    0    0 -0.00000000000E+00 -0.00000000000E+00 -0.45593999997E+02  0.45594000000E+02  0.51100000000E-03 0.  1.
    9900012    2    1    2    0    0  0.26512311583E+01  0.17861937265E+02  0.36429223610E+02  0.50528853890E+02  0.29999981886E+02 0.  0.
        -12    1    1    2    0    0 -0.26512311583E+01 -0.17861937265E+02 -0.36429223610E+02  0.40659146110E+02  0.00000000000E+00 0.  1.
         11    1    3    3    0    0 -0.94790886911E+01  0.10339204954E+02  0.26082743226E+02  0.29615228784E+02  0.51100000000E-03 0. -1.
        -11    1    3    3    0    0  0.11903944165E+02  0.97508243509E+01  0.10561838315E+02  0.18663731970E+02  0.51100000000E-03 0.  1.
        -12    1    3    3    0    0  0.22637568473E+00 -0.22280920393E+01 -0.21535793093E+00  0.22498931363E+01  0.00000000000E+00 0.  1.
</event>
<event>
 7    1  0.1024956E-012  0.5052889E+02  0.7816164E-02  0.1300439E+00
        -11   -1    0    0    0    0  0.00000000000E+00  0.00000000000E+00  0.45593999997E+02  0.45594000000E+02  0.51100000000E-03 0. -1.
         11   -1    0    0    0    0 -0.00000000000E+00 -0.00000000000E+00 -0.45593999997E+02  0.45594000000E+02  0.51100000000E-03 0.  1.
    9900012    2    1    2    0    0  0.49475803595E+01 -0.39447972122E+02 -0.85171482978E+01  0.50528894364E+02  0.30000104910E+02 0.  0.
        -12    1    1    2    0    0 -0.49475803595E+01  0.39447972122E+02  0.85171482978E+01  0.40659105636E+02  0.00000000000E+00 0.  1.
         11    1    3    3    0    0 -0.82310821921E+00 -0.28823259499E+02  0.68425623557E+01  0.29635763110E+02  0.51100000000E-03 0. -1.
        -11    1    3    3    0    0  0.31151814653E+01 -0.79010932984E+00 -0.70462581481E+01  0.77445711609E+01  0.51100000000E-03 0.  1.
        -12    1    3    3    0    0  0.26555071134E+01 -0.98346032934E+01 -0.83134525054E+01  0.13148560093E+02  0.00000000000E+00 0.  1.
</event>
<event>
 7    1  0.1024956E-012  0.5052886E+02  0.7816164E-02  0.1300439E+00
        -11   -1    0    0    0    0  0.00000000000E+00  0.00000000000E+00  0.45593999997E+02  0.45594000000E+02  0.51100000000E-03 0. -1.
         11   -1    0    0    0    0 -0.00000000000E+00 -0.00000000000E+00 -0.45593999997E+02  0.45594000000E+02  0.51100000000E-03 0.  1.
    9900012    2    1    2    0    0 -0.26320009007E+02  0.32223088568E+01  0.30822713691E+02  0.50528858005E+02  0.29999994393E+02 0.  0.
        -12    1    1    2    0    0  0.26320009007E+02 -0.32223088568E+01 -0.30822713691E+02  0.40659141995E+02  0.00000000000E+00 0.  1.
         11    1    3    3    0    0 -0.22453455725E+02 -0.14717423792E+01  0.23199436793E+02  0.32319306419E+02  0.51100000000E-03 0. -1.
        -11    1    3    3    0    0 -0.77893941474E+01  0.57264782966E+01  0.10688933884E+00  0.96684352641E+01  0.51100000000E-03 0.  1.
         12    1    3    3    0    0  0.39228408659E+01 -0.10324270606E+01  0.75163875592E+01  0.85411163225E+01  0.00000000000E+00 0. -1.
</event>
<event>
 7    1  0.1024956E-012  0.5052886E+02  0.7816164E-02  0.1300439E+00
        -11   -1    0    0    0    0  0.00000000000E+00  0.00000000000E+00  0.45593999997E+02  0.45594000000E+02  0.51100000000E-03 0.  1.
         11   -1    0    0    0    0 -0.00000000000E+00 -0.00000000000E+00 -0.45593999997E+02  0.45594000000E+02  0.51100000000E-03 0. -1.
    9900012    2    1    2    0    0 -0.78083674167E+01 -0.24218199757E+02 -0.31712358282E+02  0.50528862417E+02  0.30000007803E+02 0.  0.
        -12    1    1    2    0    0  0.78083674167E+01  0.24218199757E+02  0.31712358282E+02  0.40659137583E+02  0.00000000000E+00 0.  1.
         11    1    3    3    0    0 -0.72943147067E+01 -0.32241532777E+00 -0.10054259312E+01  0.73703365085E+01  0.51100000000E-03 0. -1.
        -11    1    3    3    0    0  0.35041978952E+00 -0.26335274529E+02 -0.30853688618E+02  0.40566236949E+02  0.51100000000E-03 0.  1.
         12    1    3    3    0    0 -0.86447249951E+00  0.24394900999E+01  0.14675626775E+00  0.25922889600E+01  0.00000000000E+00 0. -1.
</event>
<event>
 7    1  0.1024956E-012  0.5052886E+02  0.7816164E-02  0.1300439E+00
        -11   -1    0    0    0    0  0.00000000000E+00  0.00000000000E+00  0.45593999997E+02  0.45594000000E+02  0.51100000000E-03 0.  1.
         11   -1    0    0    0    0 -0.00000000000E+00 -0.00000000000E+00 -0.45593999997E+02  0.45594000000E+02  0.51100000000E-03 0. -1.
    9900012    2    1    2    0    0 -0.73504105178E+01  0.39588206892E+02 -0.56490005069E+01  0.50528857529E+02  0.29999992946E+02 0.  0.
        -12    1    1    2    0    0  0.73504105178E+01 -0.39588206892E+02  0.56490005069E+01  0.40659142471E+02  0.00000000000E+00 0.  1.
         11    1    3    3    0    0  0.51507965650E+01  0.16947335750E+02 -0.79117535192E+01  0.19399452010E+02  0.51100000000E-03 0. -1.
        -11    1    3    3    0    0 -0.14775029273E+02  0.13773549198E+02 -0.32267313817E+01  0.20455413542E+02  0.51100000000E-03 0.  1.
        -12    1    3    3    0    0  0.22738221899E+01  0.88673219442E+01  0.54894843939E+01  0.10673991977E+02  0.00000000000E+00 0.  1.
</event>
<event>
 7    1  0.1024956E-012  0.5052887E+02  0.7816164E-02  0.1300439E+00
        -11   -1    0    0    0    0  0.00000000000E+00  0.00000000000E+00  0.45593999997E+02  0.45594000000E+02  0.51100000000E-03 0.  1.
         11   -1    0    0    0    0 -0.00000000000E+00 -0.00000000000E+00 -0.45593999997E+02  0.45594000000E+02  0.51100000000E-03 0. -1.
    9900012    2    1    2    0    0  0.39240662789E+01  0.19275389676E+02 -0.35584071754E+02  0.50528866882E+02  0.30000021374E+02 0.  0.
        -12    1    1    2    0    0 -0.39240662789E+01 -0.19275389676E+02  0.35584071754E+02  0.40659133118E+02  0.00000000000E+00 0.  1.
         11    1    3    3    0    0 -0.18002686500E+01  0.51329445512E+01 -0.13893246688E+02  0.14920133739E+02  0.51100000000E-03 0. -1.
        -11    1    3    3    0    0  0.13408197321E+02  0.14951136513E+02 -0.12732637567E+02  0.23778904476E+02  0.51100000000E-03 0.  1.
        -12    1    3    3    0    0 -0.76838623920E+01 -0.80869138809E+00 -0.89581874988E+01  0.11829828667E+02  0.00000000000E+00 0.  1.
</event>
<event>
 7    1  0.1024956E-012  0.5052885E+02  0.7816164E-02  0.1300439E+00
        -11   -1    0    0    0    0  0.00000000000E+00  0.00000000000E+00  0.45593999997E+02  0.45594000000E+02  0.51100000000E-03 0.  1.
         11   -1    0    0    0    0 -0.00000000000E+00 -0.00000000000E+00 -0.45593999997E+02  0.45594000000E+02  0.51100000000E-03 0. -1.
    9900012    2    1    2    0    0  0.79707515266E+01 -0.28489425466E+02 -0.27892405735E+02  0.50528849235E+02  0.29999967733E+02 0.  0.
        -12    1    1    2    0    0 -0.79707515266E+01  0.28489425466E+02  0.27892405735E+02  0.40659150765E+02  0.00000000000E+00 0.  1.
         11    1    3    3    0    0  0.17760517536E+02 -0.12356583208E+02 -0.18455722141E+02  0.28438263162E+02  0.51100000000E-03 0. -1.
        -11    1    3    3    0    0 -0.27615308959E+01 -0.46527449899E+00 -0.14132209691E+01  0.31368339160E+01  0.51100000000E-03 0.  1.
         12    1    3    3    0    0 -0.70282351131E+01 -0.15667567759E+02 -0.80234626255E+01  0.18953752156E+02  0.00000000000E+00 0. -1.
</event>
<event>
 7    1  0.1024956E-012  0.5052886E+02  0.7816164E-02  0.1300439E+00
        -11   -1    0    0    0    0  0.00000000000E+00  0.00000000000E+00  0.45593999997E+02  0.45594000000E+02  0.51100000000E-03 0.  1.
         11   -1    0    0    0    0 -0.00000000000E+00 -0.00000000000E+00 -0.45593999997E+02  0.45594000000E+02  0.51100000000E-03 0. -1.
    9900012    2    1    2    0    0  0.14282802354E+02  0.22291913078E+02 -0.30858354573E+02  0.50528857379E+02  0.29999992488E+02 0.  0.
        -12    1    1    2    0    0 -0.14282802354E+02 -0.22291913078E+02  0.30858354573E+02  0.40659142621E+02  0.00000000000E+00 0.  1.
         11    1    3    3    0    0  0.17263610126E+01  0.94245003380E+01 -0.44029889019E+01  0.10544564500E+02  0.51100000000E-03 0. -1.
        -11    1    3    3    0    0  0.49433388500E+01 -0.67267291684E+01 -0.11392379253E+02  0.14123448219E+02  0.51100000000E-03 0.  1.
        -12    1    3    3    0    0  0.76131024917E+01  0.19594141908E+02 -0.15062986419E+02  0.25860844660E+02  0.00000000000E+00 0.  1.
</event>
<event>
 7    1  0.1024956E-012  0.5052886E+02  0.7816164E-02  0.1300439E+00
        -11   -1    0    0    0    0  0.00000000000E+00  0.00000000000E+00  0.45593999997E+02  0.45594000000E+02  0.51100000000E-03 0. -1.
         11   -1    0    0    0    0 -0.00000000000E+00 -0.00000000000E+00 -0.45593999997E+02  0.45594000000E+02  0.51100000000E-03 0.  1.
    9900012    2    1    2    0    0 -0.16971949152E+02 -0.86137672575E+01  0.35929397095E+02  0.50528860561E+02  0.30000002160E+02 0.  0.
        -12    1    1    2    0    0  0.16971949152E+02  0.86137672575E+01 -0.35929397095E+02  0.40659139439E+02  0.00000000000E+00 0.  1.
         11    1    3    3    0    0 -0.36943994932E+01 -0.84487760845E+01  0.10082755908E+02  0.13663541704E+02  0.51100000000E-03 0. -1.
        -11    1    3    3    0    0 -0.16835930919E+02  0.59447477390E+00  0.79961923265E+01  0.18647816552E+02  0.51100000000E-03 0.  1.
        -12    1    3    3    0    0  0.35583812601E+01 -0.75946594691E+00  0.17850448860E+02  0.18217502305E+02  0.00000000000E+00 0.  1.
</event>
<event>
 7    1  0.1117463E-012  0.5052886E+02  0.7816164E-02  0.1300439E+00
        -11   -1    0    0    0    0  0.00000000000E+00  0.00000000000E+00  0.45593999997E+02  0.45594000000E+02  0.51100000000E-03 0. -1.
         11   -1    0    0    0    0 -0.00000000000E+00 -0.00000000000E+00 -0.45593999997E+02  0.45594000000E+02  0.51100000000E-03 0.  1.
    9900012    2    1    2    0    0  0.26328633123E+02 -0.30155024935E+02 -0.71164244804E+01  0.50528856522E+02  0.29999989885E+02 0.  0.
        -12    1    1    2    0    0 -0.26328633123E+02  0.30155024935E+02  0.71164244804E+01  0.40659143478E+02  0.00000000000E+00 0.  1.
         11    1    3    3    0    0  0.17158397006E+02 -0.34657572357E+01  0.11452426633E+01  0.17542338557E+02  0.51100000000E-03 0. -1.
        -11    1    3    3    0    0 -0.36312989457E+01 -0.86981025665E+01 -0.49887820801E+01  0.10664486260E+02  0.51100000000E-03 0.  1.
        -12    1    3    3    0    0  0.12801535062E+02 -0.17991165133E+02 -0.32728850636E+01  0.22322031705E+02  0.00000000000E+00 0.  1.
</event>
<event>
 7    1  0.1024956E-012  0.5052886E+02  0.7816164E-02  0.1300439E+00
        -11   -1    0    0    0    0  0.00000000000E+00  0.00000000000E+00  0.45593999997E+02  0.45594000000E+02  0.51100000000E-03 0.  1.
         11   -1    0    0    0    0 -0.00000000000E+00 -0.00000000000E+00 -0.45593999997E+02  0.45594000000E+02  0.51100000000E-03 0. -1.
    9900012    2    1    2    0    0  0.96620226869E+01  0.39163388903E+02 -0.51029155179E+01  0.50528862533E+02  0.30000008156E+02 0.  0.
        -12    1    1    2    0    0 -0.96620226869E+01 -0.39163388903E+02  0.51029155179E+01  0.40659137467E+02  0.00000000000E+00 0.  1.
         11    1    3    3    0    0  0.34464084175E+01  0.68845068813E+01 -0.90833924279E+01  0.11907232434E+02  0.51100000000E-03 0. -1.
        -11    1    3    3    0    0 -0.57645826184E+00  0.14664593393E+02  0.11146398823E+02  0.18428912352E+02  0.51100000000E-03 0.  1.
        -12    1    3    3    0    0  0.67920725312E+01  0.17614288629E+02 -0.71659219126E+01  0.20192717747E+02  0.00000000000E+00 0.  1.
</event>
<event>
 7    1  0.1024956E-012  0.5052886E+02  0.7816164E-02  0.1300439E+00
        -11   -1    0    0    0    0  0.00000000000E+00  0.00000000000E+00  0.45593999997E+02  0.45594000000E+02  0.51100000000E-03 0.  1.
         11   -1    0    0    0    0 -0.00000000000E+00 -0.00000000000E+00 -0.45593999997E+02  0.45594000000E+02  0.51100000000E-03 0. -1.
    9900012    2    1    2    0    0  0.35667990623E+02  0.18634223686E+02 -0.58073828013E+01  0.50528861514E+02  0.30000005056E+02 0.  0.
        -12    1    1    2    0    0 -0.35667990623E+02 -0.18634223686E+02  0.58073828013E+01  0.40659138486E+02  0.00000000000E+00 0.  1.
         11    1    3    3    0    0  0.19231089138E+02  0.21797126307E+02  0.25014537093E+00  0.29069091448E+02  0.51100000000E-03 0. -1.
        -11    1    3    3    0    0  0.41101576857E-01  0.12715886185E+01 -0.41824573757E+01  0.43716789583E+01  0.51100000000E-03 0.  1.
         12    1    3    3    0    0  0.16395799908E+02 -0.44344912395E+01 -0.18750707965E+01  0.17088091107E+02  0.00000000000E+00 0. -1.
</event>
<event>
 7    1  0.1024956E-012  0.5052886E+02  0.7816164E-02  0.1300439E+00
        -11   -1    0    0    0    0  0.00000000000E+00  0.00000000000E+00  0.45593999997E+02  0.45594000000E+02  0.51100000000E-03 0.  1.
         11   -1    0    0    0    0 -0.00000000000E+00 -0.00000000000E+00 -0.45593999997E+02  0.45594000000E+02  0.51100000000E-03 0. -1.
    9900012    2    1    2    0    0  0.20047003820E+02  0.31727302392E+02 -0.15641653348E+02  0.50528863282E+02  0.30000010432E+02 0.  0.
        -12    1    1    2    0    0 -0.20047003820E+02 -0.31727302392E+02  0.15641653348E+02  0.40659136718E+02  0.00000000000E+00 0.  1.
         11    1    3    3    0    0  0.13898178590E+02  0.51263999972E+01  0.65423504721E+00  0.14827925303E+02  0.51100000000E-03 0.  1.
        -11    1    3    3    0    0  0.30541926217E+01  0.24796331342E+02 -0.73159971775E+01  0.26032862992E+02  0.51100000000E-03 0. -1.
         12    1    3    3    0    0  0.30946326084E+01  0.18045710522E+01 -0.89798912174E+01  0.96680749862E+01  0.00000000000E+00 0. -1.
</event>
<event>
 7    1  0.1024956E-012  0.5052887E+02  0.7816164E-02  0.1300439E+00
        -11   -1    0    0    0    0  0.00000000000E+00  0.00000000000E+00  0.45593999997E+02  0.45594000000E+02  0.51100000000E-03 0. -1.
         11   -1    0    0    0    0 -0.00000000000E+00 -0.00000000000E+00 -0.45593999997E+02  0.45594000000E+02  0.51100000000E-03 0.  1.
    9900012    2    1    2    0    0  0.15284563548E+02 -0.64043339890E+01  0.37128585459E+02  0.50528865295E+02  0.30000016552E+02 0.  0.
        -12    1    1    2    0    0 -0.15284563548E+02  0.64043339890E+01 -0.37128585459E+02  0.40659134705E+02  0.00000000000E+00 0.  1.
         11    1    3    3    0    0  0.13117289171E+02 -0.10465945877E+02  0.15779315698E+02  0.23034454681E+02  0.51100000000E-03 0. -1.
        -11    1    3    3    0    0 -0.18017292861E+01  0.80842495563E+01  0.39037488691E+01  0.91564499018E+01  0.51100000000E-03 0.  1.
         12    1    3    3    0    0  0.39690036631E+01 -0.40226376682E+01  0.17445520892E+02  0.18337960712E+02  0.00000000000E+00 0. -1.
</event>
<event>
 7    1  0.1024956E-012  0.5052885E+02  0.7816164E-02  0.1300439E+00
        -11   -1    0    0    0    0  0.00000000000E+00  0.00000000000E+00  0.45593999997E+02  0.45594000000E+02  0.51100000000E-03 0.  1.
         11   -1    0    0    0    0 -0.00000000000E+00 -0.00000000000E+00 -0.45593999997E+02  0.45594000000E+02  0.51100000000E-03 0. -1.
    9900012    2    1    2    0    0 -0.12998983506E+02  0.71515657622E+01 -0.37855620627E+02  0.50528850007E+02  0.29999970083E+02 0.  0.
        -12    1    1    2    0    0  0.12998983506E+02 -0.71515657622E+01  0.37855620627E+02  0.40659149993E+02  0.00000000000E+00 0.  1.
         11    1    3    3    0    0 -0.11196999153E+02 -0.54864776398E+01 -0.17181571869E+02  0.21229240191E+02  0.51100000000E-03 0. -1.
        -11    1    3    3    0    0  0.50434936556E+00  0.16039491877E+02 -0.18979319902E+02  0.24854260242E+02  0.51100000000E-03 0.  1.
         12    1    3    3    0    0 -0.23063337184E+01 -0.34014484749E+01 -0.16947288561E+01  0.44453495750E+01  0.00000000000E+00 0. -1.
</event>
<event>
 7    1  0.1253458E-012  0.5052886E+02  0.7816164E-02  0.1300439E+00
        -11   -1    0    0    0    0  0.00000000000E+00  0.00000000000E+00  0.45593999997E+02  0.45594000000E+02  0.51100000000E-03 0. -1.
         11   -1    0    0    0    0 -0.00000000000E+00 -0.00000000000E+00 -0.45593999997E+02  0.45594000000E+02  0.51100000000E-03 0.  1.
    9900012    2    1    2    0    0  0.25796803374E+02 -0.30398756223E+01  0.31280176908E+02  0.50528863567E+02  0.30000011297E+02 0.  0.
        -12    1    1    2    0    0 -0.25796803374E+02  0.30398756223E+01 -0.31280176908E+02  0.40659136433E+02  0.00000000000E+00 0.  1.
         11    1    3    3    0    0  0.37568090677E+01 -0.24177542978E+01  0.80542030721E+01  0.92102843390E+01  0.51100000000E-03 0. -1.
        -11    1    3    3    0    0  0.10190707303E+01  0.86218523161E+01  0.35027536436E-01  0.86819392824E+01  0.51100000000E-03 0.  1.
        -12    1    3    3    0    0  0.21020923576E+02 -0.92439736406E+01  0.23190946299E+02  0.32636639945E+02  0.00000000000E+00 0.  1.
</event>
<event>
 7    1  0.1024956E-012  0.5052888E+02  0.7816164E-02  0.1300439E+00
        -11   -1    0    0    0    0  0.00000000000E+00  0.00000000000E+00  0.45593999997E+02  0.45594000000E+02  0.51100000000E-03 0.  1.
         11   -1    0    0    0    0 -0.00000000000E+00 -0.00000000000E+00 -0.45593999997E+02  0.45594000000E+02  0.51100000000E-03 0. -1.
    9900012    2    1    2    0    0 -0.30962820402E+01  0.30829436738E+02 -0.26327221869E+02  0.50528883637E+02  0.30000072303E+02 0.  0.
        -12    1    1    2    0    0  0.30962820402E+01 -0.30829436738E+02  0.26327221869E+02  0.40659116363E+02  0.00000000000E+00 0.  1.
         11    1    3    3    0    0  0.76618367675E+01 -0.14612333630E+01 -0.51808720140E+01  0.93637802559E+01  0.51100000000E-03 0. -1.
        -11    1    3    3    0    0 -0.91158354458E+01  0.15786493063E+02 -0.75992462837E+01  0.19749945910E+02  0.51100000000E-03 0.  1.
         12    1    3    3    0    0 -0.16422833619E+01  0.16504177038E+02 -0.13547103572E+02  0.21415157472E+02  0.00000000000E+00 0. -1.
</event>
<event>
 7    1  0.1024956E-012  0.5052885E+02  0.7816164E-02  0.1300439E+00
        -11   -1    0    0    0    0  0.00000000000E+00  0.00000000000E+00  0.45593999997E+02  0.45594000000E+02  0.51100000000E-03 0. -1.
         11   -1    0    0    0    0 -0.00000000000E+00 -0.00000000000E+00 -0.45593999997E+02  0.45594000000E+02  0.51100000000E-03 0.  1.
    9900012    2    1    2    0    0 -0.34614321992E+02 -0.19438854046E+02  0.87832932064E+01  0.50528848839E+02  0.29999966532E+02 0.  0.
        -12    1    1    2    0    0  0.34614321992E+02  0.19438854046E+02 -0.87832932064E+01  0.40659151161E+02  0.00000000000E+00 0.  1.
         11    1    3    3    0    0 -0.68464781336E+00 -0.11401176765E+02  0.53641899834E+01  0.12618641317E+02  0.51100000000E-03 0. -1.
        -11    1    3    3    0    0 -0.25529600296E+02  0.32924975126E+00  0.47831984094E+01  0.25975909685E+02  0.51100000000E-03 0.  1.
        -12    1    3    3    0    0 -0.84000738828E+01 -0.83669270318E+01 -0.13640951865E+01  0.11934297837E+02  0.00000000000E+00 0.  1.
</event>
<event>
 7    1  0.1233184E-012  0.5052885E+02  0.7816164E-02  0.1300439E+00
        -11   -1    0    0    0    0  0.00000000000E+00  0.00000000000E+00  0.45593999997E+02  0.45594000000E+02  0.51100000000E-03 0.  1.
         11   -1    0    0    0    0 -0.00000000000E+00 -0.00000000000E+00 -0.45593999997E+02  0.45594000000E+02  0.51100000000E-03 0. -1.
    9900012    2    1    2    0    0  0.28155107314E+02 -0.29280336070E+02 -0.17657817082E+01  0.50528854248E+02  0.29999982972E+02 0.  0.
        -12    1    1    2    0    0 -0.28155107314E+02  0.29280336070E+02  0.17657817082E+01  0.40659145752E+02  0.00000000000E+00 0.  1.
         11    1    3    3    0    0  0.75818117577E+01 -0.13852900205E+02 -0.92320842112E+00  0.15818945213E+02  0.51100000000E-03 0. -1.
        -11    1    3    3    0    0 -0.22908077110E+01  0.30574085847E+01 -0.35093270216E+01  0.51875739637E+01  0.51100000000E-03 0.  1.
        -12    1    3    3    0    0  0.22864103268E+02 -0.18484844450E+02  0.26667537346E+01  0.29522335071E+02  0.00000000000E+00 0.  1.
</event>
<event>
 7    1  0.1024956E-012  0.5052886E+02  0.7816164E-02  0.1300439E+00
        -11   -1    0    0    0    0  0.00000000000E+00  0.00000000000E+00  0.45593999997E+02  0.45594000000E+02  0.51100000000E-03 0. -1.
         11   -1    0    0    0    0 -0.00000000000E+00 -0.00000000000E+00 -0.45593999997E+02  0.45594000000E+02  0.51100000000E-03 0.  1.
    9900012    2    1    2    0    0  0.34753265306E+02 -0.20673897109E+02 -0.42386600884E+01  0.50528859448E+02  0.29999998777E+02 0.  0.
        -12    1    1    2    0    0 -0.34753265306E+02  0.20673897109E+02  0.42386600884E+01  0.40659140552E+02  0.00000000000E+00 0.  1.
         11    1    3    3    0    0  0.21397797155E+02 -0.60535544439E+01  0.59042111406E+00  0.22245445418E+02  0.51100000000E-03 0. -1.
        -11    1    3    3    0    0  0.18802738747E+01 -0.12369459451E+02 -0.94811977287E+01  0.15698154910E+02  0.51100000000E-03 0.  1.
        -12    1    3    3    0    0  0.11475194277E+02 -0.22508832141E+01  0.46521165263E+01  0.12585259120E+02  0.00000000000E+00 0.  1.
</event>
<event>
 7    1  0.1024956E-012  0.5052887E+02  0.7816164E-02  0.1300439E+00
        -11   -1    0    0    0    0  0.00000000000E+00  0.00000000000E+00  0.45593999997E+02  0.45594000000E+02  0.51100000000E-03 0. -1.
         11   -1    0    0    0    0 -0.00000000000E+00 -0.00000000000E+00 -0.45593999997E+02  0.45594000000E+02  0.51100000000E-03 0.  1.
    9900012    2    1    2    0    0  0.19529025367E+02  0.30177788116E+02 -0.19002194814E+02  0.50528866523E+02  0.30000020284E+02 0.  0.
        -12    1    1    2    0    0 -0.19529025367E+02 -0.30177788116E+02  0.19002194814E+02  0.40659133477E+02  0.00000000000E+00 0.  1.
         11    1    3    3    0    0  0.44476085809E+01  0.12289133818E+01 -0.36730137549E+01  0.58976673773E+01  0.51100000000E-03 0. -1.
        -11    1    3    3    0    0  0.77295136310E+01  0.31097616031E+02 -0.60685187357E+01  0.32613402516E+02  0.51100000000E-03 0.  1.
        -12    1    3    3    0    0  0.73519031551E+01 -0.21487412970E+01 -0.92606623231E+01  0.12017796629E+02  0.00000000000E+00 0.  1.
</event>
<event>
 7    1  0.1024956E-012  0.5052886E+02  0.7816164E-02  0.1300439E+00
        -11   -1    0    0    0    0  0.00000000000E+00  0.00000000000E+00  0.45593999997E+02  0.45594000000E+02  0.51100000000E-03 0.  1.
         11   -1    0    0    0    0 -0.00000000000E+00 -0.00000000000E+00 -0.45593999997E+02  0.45594000000E+02  0.51100000000E-03 0. -1.
    9900012    2    1    2    0    0 -0.12046499026E+01  0.24946770273E+02 -0.32083846460E+02  0.50528859181E+02  0.29999997967E+02 0.  0.
        -12    1    1    2    0    0  0.12046499026E+01 -0.24946770273E+02  0.32083846460E+02  0.40659140819E+02  0.00000000000E+00 0.  1.
         11    1    3    3    0    0 -0.58834051434E+01  0.23077321367E+02 -0.20939519613E+02  0.31711838474E+02  0.51100000000E-03 0. -1.
        -11    1    3    3    0    0 -0.12364635403E+01 -0.46953907748E+01 -0.35158365286E+00  0.48681770654E+01  0.51100000000E-03 0.  1.
        -12    1    3    3    0    0  0.59152187811E+01  0.65648396809E+01 -0.10792743195E+02  0.13948843641E+02  0.00000000000E+00 0.  1.
</event>
<event>
 7    1  0.1024956E-012  0.5052885E+02  0.7816164E-02  0.1300439E+00
        -11   -1    0    0    0    0  0.00000000000E+00  0.00000000000E+00  0.45593999997E+02  0.45594000000E+02  0.51100000000E-03 0. -1.
         11   -1    0    0    0    0 -0.00000000000E+00 -0.00000000000E+00 -0.45593999997E+02  0.45594000000E+02  0.51100000000E-03 0.  1.
    9900012    2    1    2    0    0 -0.84409099230E+01  0.38645771502E+02 -0.94032791082E+01  0.50528852526E+02  0.29999977737E+02 0.  0.
        -12    1    1    2    0    0  0.84409099230E+01 -0.38645771502E+02  0.94032791082E+01  0.40659147474E+02  0.00000000000E+00 0.  1.
         11    1    3    3    0    0 -0.41026672111E+01  0.22205321874E+00  0.38969285061E+01  0.56627941795E+01  0.51100000000E-03 0. -1.
        -11    1    3    3    0    0  0.39379368173E+01  0.21740266116E+02 -0.14126791984E+02  0.26224278240E+02  0.51100000000E-03 0.  1.
        -12    1    3    3    0    0 -0.82761795292E+01  0.16683452168E+02  0.82658436932E+00  0.18641780107E+02  0.00000000000E+00 0.  1.
</event>
<event>
 7    1  0.1024956E-012  0.5052885E+02  0.7816164E-02  0.1300439E+00
        -11   -1    0    0    0    0  0.00000000000E+00  0.00000000000E+00  0.45593999997E+02  0.45594000000E+02  0.51100000000E-03 0.  1.
         11   -1    0    0    0    0 -0.00000000000E+00 -0.00000000000E+00 -0.45593999997E+02  0.45594000000E+02  0.51100000000E-03 0. -1.
    9900012    2    1    2    0    0 -0.21293363833E+02  0.14142432770E+02 -0.31618831563E+02  0.50528852722E+02  0.29999978333E+02 0.  0.
        -12    1    1    2    0    0  0.21293363833E+02 -0.14142432770E+02  0.31618831563E+02  0.40659147278E+02  0.00000000000E+00 0.  1.
         11    1    3    3    0    0 -0.21941890007E+02  0.56134789881E+01 -0.10267371495E+02  0.24867179195E+02  0.51100000000E-03 0. -1.
        -11    1    3    3    0    0  0.86484835740E+00 -0.27432932884E+01 -0.32888512471E+01  0.43692291694E+01  0.51100000000E-03 0.  1.
         12    1    3    3    0    0 -0.21632218272E+00  0.11272247071E+02 -0.18062608820E+02  0.21292444357E+02  0.00000000000E+00 0. -1.
</event>
<event>
 7    1  0.1024956E-012  0.5052887E+02  0.7816164E-02  0.1300439E+00
        -11   -1    0    0    0    0  0.00000000000E+00  0.00000000000E+00  0.45593999997E+02  0.45594000000E+02  0.51100000000E-03 0.  1.
         11   -1    0    0    0    0 -0.00000000000E+00 -0.00000000000E+00 -0.45593999997E+02  0.45594000000E+02  0.51100000000E-03 0. -1.
    9900012    2    1    2    0    0 -0.25068823978E+02  0.19820440346E+02 -0.25137013317E+02  0.50528865360E+02  0.30000016748E+02 0.  0.
        -12    1    1    2    0    0  0.25068823978E+02 -0.19820440346E+02  0.25137013317E+02  0.40659134640E+02  0.00000000000E+00 0.  1.
         11    1    3    3    0    0 -0.21017919779E+02  0.78581293751E+01 -0.89188755297E+01  0.24146417748E+02  0.51100000000E-03 0. -1.
        -11    1    3    3    0    0  0.21827751346E+01 -0.15520876597E+01 -0.98269094668E+01  0.10185363681E+02  0.51100000000E-03 0.  1.
        -12    1    3    3    0    0 -0.62336793339E+01  0.13514398631E+02 -0.63912283207E+01  0.16197083930E+02  0.00000000000E+00 0.  1.
</event>
<event>
 7    1  0.1024956E-012  0.5052886E+02  0.7816164E-02  0.1300439E+00
        -11   -1    0    0    0    0  0.00000000000E+00  0.00000000000E+00  0.45593999997E+02  0.45594000000E+02  0.51100000000E-03 0.  1.
         11   -1    0    0    0    0 -0.00000000000E+00 -0.00000000000E+00 -0.45593999997E+02  0.45594000000E+02  0.51100000000E-03 0. -1.
    9900012    2    1    2    0    0  0.26731626437E+02 -0.29990831951E+02 -0.62558912946E+01  0.50528855530E+02  0.29999986870E+02 0.  0.
        -12    1    1    2    0    0 -0.26731626437E+02  0.29990831951E+02  0.62558912946E+01  0.40659144470E+02  0.00000000000E+00 0.  1.
         11    1    3    3    0    0  0.24930763689E+02 -0.20862949306E+02  0.36653718238E+01  0.32714531676E+02  0.51100000000E-03 0. -1.
        -11    1    3    3    0    0  0.19162088149E+01 -0.94908080982E+01 -0.12159732514E+02  0.15543692922E+02  0.51100000000E-03 0.  1.
         12    1    3    3    0    0 -0.11534606671E+00  0.36292545343E+00  0.22384693954E+01  0.22706309330E+01  0.00000000000E+00 0. -1.
</event>
<event>
 7    1  0.1024956E-012  0.5052889E+02  0.7816164E-02  0.1300439E+00
        -11   -1    0    0    0    0  0.00000000000E+00  0.00000000000E+00  0.45593999997E+02  0.45594000000E+02  0.51100000000E-03 0.  1.
         11   -1    0    0    0    0 -0.00000000000E+00 -0.00000000000E+00 -0.45593999997E+02  0.45594000000E+02  0.51100000000E-03 0. -1.
    9900012    2    1    2    0    0 -0.60139391696E+01 -0.10727248238E+02 -0.38754641257E+02  0.50528886163E+02  0.30000079980E+02 0.  0.
        -12    1    1    2    0    0  0.60139391696E+01  0.10727248238E+02  0.38754641257E+02  0.40659113837E+02  0.00000000000E+00 0.  1.
         11    1    3    3    0    0 -0.23942996789E+00 -0.82344498487E+01 -0.25566902482E+02  0.26861310351E+02  0.51100000000E-03 0. -1.
        -11    1    3    3    0    0 -0.89001143958E+01  0.53867781506E+01 -0.10484702724E+02  0.14770186410E+02  0.51100000000E-03 0.  1.
         12    1    3    3    0    0  0.31256051941E+01 -0.78795765396E+01 -0.27030360510E+01  0.88973894018E+01  0.00000000000E+00 0. -1.
</event>
<event>
 7    1  0.1024956E-012  0.5052886E+02  0.7816164E-02  0.1300439E+00
        -11   -1    0    0    0    0  0.00000000000E+00  0.00000000000E+00  0.45593999997E+02  0.45594000000E+02  0.51100000000E-03 0.  1.
         11   -1    0    0    0    0 -0.00000000000E+00 -0.00000000000E+00 -0.45593999997E+02  0.45594000000E+02  0.51100000000E-03 0. -1.
    9900012    2    1    2    0    0 -0.91444733165E+01  0.39068987956E+02 -0.65695137133E+01  0.50528859299E+02  0.29999998324E+02 0.  0.
        -12    1    1    2    0    0  0.91444733165E+01 -0.39068987956E+02  0.65695137133E+01  0.40659140701E+02  0.00000000000E+00 0.  1.
         11    1    3    3    0    0 -0.36014991887E+01  0.22817062442E+02  0.23938303883E+01  0.23223254705E+02  0.51100000000E-03 0. -1.
        -11    1    3    3    0    0 -0.97866986502E+01  0.11929162974E+02 -0.12873920455E+02  0.20095328509E+02  0.51100000000E-03 0.  1.
        -12    1    3    3    0    0  0.42437245224E+01  0.43227625398E+01  0.39105763538E+01  0.72102760846E+01  0.00000000000E+00 0.  1.
</event>
<event>
 7    1  0.1024956E-012  0.5052887E+02  0.7816164E-02  0.1300439E+00
        -11   -1    0    0    0    0  0.00000000000E+00  0.00000000000E+00  0.45593999997E+02  0.45594000000E+02  0.51100000000E-03 0.  1.
         11   -1    0    0    0    0 -0.00000000000E+00 -0.00000000000E+00 -0.45593999997E+02  0.45594000000E+02  0.51100000000E-03 0. -1.
    9900012    2    1    2    0    0 -0.30096322927E+02 -0.26942373623E+02  0.46351186085E+01  0.50528874644E+02  0.30000044968E+02 0.  0.
        -12    1    1    2    0    0  0.30096322927E+02  0.26942373623E+02 -0.46351186085E+01  0.40659125356E+02  0.00000000000E+00 0.  1.
         11    1    3    3    0    0 -0.36531783172E+01 -0.37433561768E+01  0.64666478772E+00  0.52703513063E+01  0.51100000000E-03 0. -1.
        -11    1    3    3    0    0 -0.18570084576E+02 -0.28736716578E+02  0.74736300393E+01  0.35021451528E+02  0.51100000000E-03 0.  1.
        -12    1    3    3    0    0 -0.78730600338E+01  0.55376991319E+01 -0.34851762185E+01  0.10237071810E+02  0.00000000000E+00 0.  1.
</event>
<event>
 7    1  0.1024956E-012  0.5052885E+02  0.7816164E-02  0.1300439E+00
        -11   -1    0    0    0    0  0.00000000000E+00  0.00000000000E+00  0.45593999997E+02  0.45594000000E+02  0.51100000000E-03 0. -1.
         11   -1    0    0    0    0 -0.00000000000E+00 -0.00000000000E+00 -0.45593999997E+02  0.45594000000E+02  0.51100000000E-03 0.  1.
    9900012    2    1    2    0    0 -0.30509789613E+02 -0.20352537670E+02  0.17552579765E+02  0.50528854556E+02  0.29999983909E+02 0.  0.
        -12    1    1    2    0    0  0.30509789613E+02  0.20352537670E+02 -0.17552579765E+02  0.40659145444E+02  0.00000000000E+00 0.  1.
         11    1    3    3    0    0 -0.11917054017E+02 -0.13708621377E+02  0.57977543448E+01  0.19067155850E+02  0.51100000000E-03 0. -1.
        -11    1    3    3    0    0  0.38480043553E+01 -0.40620297747E+00  0.65315604439E+01  0.75916678320E+01  0.51100000000E-03 0.  1.
        -12    1    3    3    0    0 -0.22440739950E+02 -0.62377133156E+01  0.52232649763E+01  0.23870030874E+02  0.00000000000E+00 0.  1.
</event>
<event>
 7    1  0.1024956E-012  0.5052886E+02  0.7816164E-02  0.1300439E+00
        -11   -1    0    0    0    0  0.00000000000E+00  0.00000000000E+00  0.45593999997E+02  0.45594000000E+02  0.51100000000E-03 0.  1.
         11   -1    0    0    0    0 -0.00000000000E+00 -0.00000000000E+00 -0.45593999997E+02  0.45594000000E+02  0.51100000000E-03 0. -1.
    9900012    2    1    2    0    0  0.39476227956E+02 -0.31858986975E+00 -0.97309753622E+01  0.50528856445E+02  0.29999989650E+02 0.  0.
        -12    1    1    2    0    0 -0.39476227956E+02  0.31858986975E+00  0.97309753622E+01  0.40659143555E+02  0.00000000000E+00 0.  1.
         11    1    3    3    0    0  0.36782079797E+02 -0.50932860576E+01 -0.63868949254E+01  0.37678314507E+02  0.51100000000E-03 0. -1.
        -11    1    3    3    0    0 -0.17332145936E+01  0.63635984442E+01 -0.45278224791E+01  0.80000371655E+01  0.51100000000E-03 0.  1.
        -12    1    3    3    0    0  0.44273627526E+01 -0.15889022563E+01  0.11837420423E+01  0.48505047723E+01  0.00000000000E+00 0.  1.
</event>
<event>
 7    1  0.1024956E-012  0.5052884E+02  0.7816164E-02  0.1300439E+00
        -11   -1    0    0    0    0  0.00000000000E+00  0.00000000000E+00  0.45593999997E+02  0.45594000000E+02  0.51100000000E-03 0.  1.
         11   -1    0    0    0    0 -0.00000000000E+00 -0.00000000000E+00 -0.45593999997E+02  0.45594000000E+02  0.51100000000E-03 0. -1.
    9900012    2    1    2    0    0 -0.32342396921E+02 -0.24528165367E+02 -0.23463878500E+01  0.50528842719E+02  0.29999947928E+02 0.  0.
        -12    1    1    2    0    0  0.32342396921E+02  0.24528165367E+02  0.23463878500E+01  0.40659157281E+02  0.00000000000E+00 0.  1.
         11    1    3    3    0    0 -0.25901024014E+02 -0.19207434611E+02  0.10382098007E+01  0.32262462230E+02  0.51100000000E-03 0. -1.
        -11    1    3    3    0    0  0.20961031962E+01  0.40916466625E+01 -0.31200948059E+01  0.55560969105E+01  0.51100000000E-03 0.  1.
        -12    1    3    3    0    0 -0.85374761031E+01 -0.94123774183E+01 -0.26450284484E+00  0.12710283578E+02  0.00000000000E+00 0.  1.
</event>
<event>
 7    1  0.1024956E-012  0.5052887E+02  0.7816164E-02  0.1300439E+00
        -11   -1    0    0    0    0  0.00000000000E+00  0.00000000000E+00  0.45593999997E+02  0.45594000000E+02  0.51100000000E-03 0.  1.
         11   -1    0    0    0    0 -0.00000000000E+00 -0.00000000000E+00 -0.45593999997E+02  0.45594000000E+02  0.51100000000E-03 0. -1.
    9900012    2    1    2    0    0  0.27428724936E+02 -0.71019887635E+01 -0.29161476382E+02  0.50528869405E+02  0.30000029042E+02 0.  0.
        -12    1    1    2    0    0 -0.27428724936E+02  0.71019887635E+01  0.29161476382E+02  0.40659130595E+02  0.00000000000E+00 0.  1.
         11    1    3    3    0    0  0.20942467574E+02 -0.18813277243E+01 -0.14240644358E+02  0.25395320319E+02  0.51100000000E-03 0. -1.
        -11    1    3    3    0    0 -0.64241203428E+01 -0.13651143935E+01 -0.65256329146E+01  0.92583337963E+01  0.51100000000E-03 0.  1.
         12    1    3    3    0    0  0.12910377704E+02 -0.38555466457E+01 -0.83951991097E+01  0.15875215290E+02  0.00000000000E+00 0. -1.
</event>
<event>
 7    1  0.1024956E-012  0.5052885E+02  0.7816164E-02  0.1300439E+00
        -11   -1    0    0    0    0  0.00000000000E+00  0.00000000000E+00  0.45593999997E+02  0.45594000000E+02  0.51100000000E-03 0. -1.
         11   -1    0    0    0    0 -0.00000000000E+00 -0.00000000000E+00 -0.45593999997E+02  0.45594000000E+02  0.51100000000E-03 0.  1.
    9900012    2    1    2    0    0 -0.21908264132E+02  0.20697739826E+02  0.27290985316E+02  0.50528851574E+02  0.29999974845E+02 0.  0.
        -12    1    1    2    0    0  0.21908264132E+02 -0.20697739826E+02 -0.27290985316E+02  0.40659148426E+02  0.00000000000E+00 0.  1.
         11    1    3    3    0    0  0.25578507444E+01  0.61401255332E+01  0.91716962399E+00  0.67145321784E+01  0.51100000000E-03 0. -1.
        -11    1    3    3    0    0 -0.13797534323E+02 -0.89291328974E+00  0.35786517550E+01  0.14282016530E+02  0.51100000000E-03 0.  1.
        -12    1    3    3    0    0 -0.10668580554E+02  0.15450527583E+02  0.22795163937E+02  0.29532302866E+02  0.00000000000E+00 0.  1.
</event>
<event>
 7    1  0.1024956E-012  0.5052886E+02  0.7816164E-02  0.1300439E+00
        -11   -1    0    0    0    0  0.00000000000E+00  0.00000000000E+00  0.45593999997E+02  0.45594000000E+02  0.51100000000E-03 0.  1.
         11   -1    0    0    0    0 -0.00000000000E+00 -0.00000000000E+00 -0.45593999997E+02  0.45594000000E+02  0.51100000000E-03 0. -1.
    9900012    2    1    2    0    0  0.30857674235E+02  0.22625741069E+02  0.13749381473E+02  0.50528859465E+02  0.29999998831E+02 0.  0.
        -12    1    1    2    0    0 -0.30857674235E+02 -0.22625741069E+02 -0.13749381473E+02  0.40659140535E+02  0.00000000000E+00 0.  1.
         11    1    3    3    0    0  0.11784540604E-01 -0.41599107675E+01 -0.15396051285E+01  0.44356939346E+01  0.51100000000E-03 0. -1.
        -11    1    3    3    0    0  0.10912773245E+02  0.16135869531E+02  0.12908458590E+02  0.23368423329E+02  0.51100000000E-03 0.  1.
         12    1    3    3    0    0  0.19933116450E+02  0.10649782305E+02  0.23805280112E+01  0.22724742202E+02  0.00000000000E+00 0. -1.
</event>
<event>
 7    1  0.1024956E-012  0.5052886E+02  0.7816164E-02  0.1300439E+00
        -11   -1    0    0    0    0  0.00000000000E+00  0.00000000000E+00  0.45593999997E+02  0.45594000000E+02  0.51100000000E-03 0. -1.
         11   -1    0    0    0    0 -0.00000000000E+00 -0.00000000000E+00 -0.45593999997E+02  0.45594000000E+02  0.51100000000E-03 0.  1.
    9900012    2    1    2    0    0 -0.76861656342E+01  0.39924827384E+02 -0.31120284645E+00  0.50528857965E+02  0.29999994270E+02 0.  0.
        -12    1    1    2    0    0  0.76861656342E+01 -0.39924827384E+02  0.31120284645E+00  0.40659142035E+02  0.00000000000E+00 0.  1.
         11    1    3    3    0    0 -0.14316215652E+02  0.20161678126E+02 -0.19264484987E+01  0.24802388989E+02  0.51100000000E-03 0. -1.
        -11    1    3    3    0    0  0.39891647508E+01  0.14335950294E+02 -0.59694871685E+01  0.16033330395E+02  0.51100000000E-03 0.  1.
        -12    1    3    3    0    0  0.26408852671E+01  0.54271989647E+01  0.75847328208E+01  0.96931385815E+01  0.00000000000E+00 0.  1.
</event>
<event>
 7    1  0.1024956E-012  0.5052886E+02  0.7816164E-02  0.1300439E+00
        -11   -1    0    0    0    0  0.00000000000E+00  0.00000000000E+00  0.45593999997E+02  0.45594000000E+02  0.51100000000E-03 0.  1.
         11   -1    0    0    0    0 -0.00000000000E+00 -0.00000000000E+00 -0.45593999997E+02  0.45594000000E+02  0.51100000000E-03 0. -1.
    9900012    2    1    2    0    0  0.12962631425E+02  0.49260062958E+01 -0.38221335002E+02  0.50528858337E+02  0.29999995400E+02 0.  0.
        -12    1    1    2    0    0 -0.12962631425E+02 -0.49260062958E+01  0.38221335002E+02  0.40659141663E+02  0.00000000000E+00 0.  1.
         11    1    3    3    0    0 -0.44273314758E+01  0.84174113226E+01 -0.10567507672E+02  0.14217112788E+02  0.51100000000E-03 0. -1.
        -11    1    3    3    0    0  0.54091197592E+01 -0.14765571882E+01  0.51899588046E+00  0.56309994392E+01  0.51100000000E-03 0.  1.
         12    1    3    3    0    0  0.11980843141E+02 -0.20148478386E+01 -0.28172823210E+02  0.30680746109E+02  0.00000000000E+00 0. -1.
</event>
<event>
 7    1  0.1024956E-012  0.5052884E+02  0.7816164E-02  0.1300439E+00
        -11   -1    0    0    0    0  0.00000000000E+00  0.00000000000E+00  0.45593999997E+02  0.45594000000E+02  0.51100000000E-03 0.  1.
         11   -1    0    0    0    0 -0.00000000000E+00 -0.00000000000E+00 -0.45593999997E+02  0.45594000000E+02  0.51100000000E-03 0. -1.
    9900012    2    1    2    0    0  0.10355193745E+02 -0.19244540730E+02 -0.34286800486E+02  0.50528842692E+02  0.29999947847E+02 0.  0.
        -12    1    1    2    0    0 -0.10355193745E+02  0.19244540730E+02  0.34286800486E+02  0.40659157308E+02  0.00000000000E+00 0.  1.
         11    1    3    3    0    0  0.13202607524E+01 -0.22380607787E+02 -0.12187895220E+02  0.25518218659E+02  0.51100000000E-03 0. -1.
        -11    1    3    3    0    0  0.18028212719E+01  0.31736091918E+01 -0.12310989556E+02  0.12840655122E+02  0.51100000000E-03 0.  1.
         12    1    3    3    0    0  0.72321117207E+01 -0.37542134211E-01 -0.97879157097E+01  0.12169968911E+02  0.00000000000E+00 0. -1.
</event>
<event>
 7    1  0.1024956E-012  0.5052889E+02  0.7816164E-02  0.1300439E+00
        -11   -1    0    0    0    0  0.00000000000E+00  0.00000000000E+00  0.45593999997E+02  0.45594000000E+02  0.51100000000E-03 0. -1.
         11   -1    0    0    0    0 -0.00000000000E+00 -0.00000000000E+00 -0.45593999997E+02  0.45594000000E+02  0.51100000000E-03 0.  1.
    9900012    2    1    2    0    0  0.38563106053E+02 -0.12803116657E+02  0.14596487198E+01  0.50528886398E+02  0.30000080694E+02 0.  0.
        -12    1    1    2    0    0 -0.38563106053E+02  0.12803116657E+02 -0.14596487198E+01  0.40659113602E+02  0.00000000000E+00 0.  1.
         11    1    3    3    0    0  0.20705281543E+02 -0.33709594844E+01  0.81508012274E+00  0.20993723049E+02  0.51100000000E-03 0. -1.
        -11    1    3    3    0    0  0.39784782048E+01 -0.18970300022E+00  0.97527221998E+01  0.10534698222E+02  0.51100000000E-03 0.  1.
        -12    1    3    3    0    0  0.13879346305E+02 -0.92424541719E+01 -0.91081536027E+01  0.19000465127E+02  0.00000000000E+00 0.  1.
</event>
<event>
 7    1  0.1024956E-012  0.5052884E+02  0.7816164E-02  0.1300439E+00
        -11   -1    0    0    0    0  0.00000000000E+00  0.00000000000E+00  0.45593999997E+02  0.45594000000E+02  0.51100000000E-03 0.  1.
         11   -1    0    0    0    0 -0.00000000000E+00 -0.00000000000E+00 -0.45593999997E+02  0.45594000000E+02  0.51100000000E-03 0. -1.
    9900012    2    1    2    0    0 -0.18839795010E+02 -0.34398022646E+02 -0.10724043498E+02  0.50528844242E+02  0.29999952558E+02 0.  0.
        -12    1    1    2    0    0  0.18839795010E+02  0.34398022646E+02  0.10724043498E+02  0.40659155758E+02  0.00000000000E+00 0.  1.
         11    1    3    3    0    0 -0.18987173217E+02 -0.82810605649E+01 -0.46705089876E+01  0.21234461738E+02  0.51100000000E-03 0.  1.
        -11    1    3    3    0    0  0.15801431751E+01 -0.23820232067E+02 -0.14035002752E+01  0.23913806085E+02  0.51100000000E-03 0. -1.
        -12    1    3    3    0    0 -0.14327649687E+01 -0.22967300140E+01 -0.46500342349E+01  0.53805764188E+01  0.00000000000E+00 0.  1.
</event>
<event>
 7    1  0.1024956E-012  0.5052888E+02  0.7816164E-02  0.1300439E+00
        -11   -1    0    0    0    0  0.00000000000E+00  0.00000000000E+00  0.45593999997E+02  0.45594000000E+02  0.51100000000E-03 0.  1.
         11   -1    0    0    0    0 -0.00000000000E+00 -0.00000000000E+00 -0.45593999997E+02  0.45594000000E+02  0.51100000000E-03 0. -1.
    9900012    2    1    2    0    0 -0.14709924469E+02 -0.31377905610E+02  0.21265203564E+02  0.50528883913E+02  0.30000073142E+02 0.  0.
        -12    1    1    2    0    0  0.14709924469E+02  0.31377905610E+02 -0.21265203564E+02  0.40659116087E+02  0.00000000000E+00 0.  1.
         11    1    3    3    0    0 -0.11438803946E+01 -0.18506427812E+02  0.25121443004E+02  0.31223120144E+02  0.51100000000E-03 0. -1.
        -11    1    3    3    0    0 -0.33464927871E+01 -0.25219086100E+01 -0.19992362309E+01  0.46428421015E+01  0.51100000000E-03 0.  1.
         12    1    3    3    0    0 -0.10219551288E+02 -0.10349569188E+02 -0.18570032086E+01  0.14662921667E+02  0.00000000000E+00 0. -1.
</event>
<event>
 7    1  0.1024956E-012  0.5052886E+02  0.7816164E-02  0.1300439E+00
        -11   -1    0    0    0    0  0.00000000000E+00  0.00000000000E+00  0.45593999997E+02  0.45594000000E+02  0.51100000000E-03 0. -1.
         11   -1    0    0    0    0 -0.00000000000E+00 -0.00000000000E+00 -0.45593999997E+02  0.45594000000E+02  0.51100000000E-03 0.  1.
    9900012    2    1    2    0    0 -0.24692904264E+02 -0.95142302164E+01  0.30869171449E+02  0.50528857811E+02  0.29999993802E+02 0.  0.
        -12    1    1    2    0    0  0.24692904264E+02  0.95142302164E+01 -0.30869171449E+02  0.40659142189E+02  0.00000000000E+00 0.  1.
         11    1    3    3    0    0 -0.26012711434E+02 -0.13869746361E+02  0.15934169652E+02  0.33510129559E+02  0.51100000000E-03 0. -1.
        -11    1    3    3    0    0  0.47018003353E+00  0.58606502955E+01  0.83607650296E+01  0.10221090122E+02  0.51100000000E-03 0.  1.
         12    1    3    3    0    0  0.84962713587E+00 -0.15051341504E+01  0.65742367668E+01  0.67976381300E+01  0.00000000000E+00 0. -1.
</event>
<event>
 7    1  0.1024956E-012  0.5052886E+02  0.7816164E-02  0.1300439E+00
        -11   -1    0    0    0    0  0.00000000000E+00  0.00000000000E+00  0.45593999997E+02  0.45594000000E+02  0.51100000000E-03 0.  1.
         11   -1    0    0    0    0 -0.00000000000E+00 -0.00000000000E+00 -0.45593999997E+02  0.45594000000E+02  0.51100000000E-03 0. -1.
    9900012    2    1    2    0    0  0.34869511662E+01 -0.37510249941E+02 -0.15296672082E+02  0.50528857660E+02  0.29999993343E+02 0.  0.
        -12    1    1    2    0    0 -0.34869511662E+01  0.37510249941E+02  0.15296672082E+02  0.40659142340E+02  0.00000000000E+00 0.  1.
         11    1    3    3    0    0  0.12798175312E+01 -0.10626088636E+02 -0.17298051964E+02  0.20341442786E+02  0.51100000000E-03 0. -1.
        -11    1    3    3    0    0  0.51086144004E+01 -0.24252290312E+02 -0.16404686474E+01  0.24838733142E+02  0.51100000000E-03 0.  1.
        -12    1    3    3    0    0 -0.29014807654E+01 -0.26318709928E+01  0.36418485291E+01  0.53486817314E+01  0.00000000000E+00 0.  1.
</event>
<event>
 7    1  0.1024956E-012  0.5052886E+02  0.7816164E-02  0.1300439E+00
        -11   -1    0    0    0    0  0.00000000000E+00  0.00000000000E+00  0.45593999997E+02  0.45594000000E+02  0.51100000000E-03 0.  1.
         11   -1    0    0    0    0 -0.00000000000E+00 -0.00000000000E+00 -0.45593999997E+02  0.45594000000E+02  0.51100000000E-03 0. -1.
    9900012    2    1    2    0    0  0.30288836827E+02 -0.20165658195E+02 -0.18141057422E+02  0.50528863620E+02  0.30000011458E+02 0.  0.
        -12    1    1    2    0    0 -0.30288836827E+02  0.20165658195E+02  0.18141057422E+02  0.40659136380E+02  0.00000000000E+00 0.  1.
         11    1    3    3    0    0  0.57579204371E+01 -0.35963639608E+01 -0.63999168352E+01  0.93298669474E+01  0.51100000000E-03 0. -1.
        -11    1    3    3    0    0  0.22109627122E+02 -0.34300948216E+01  0.14535998167E+01  0.22421287087E+02  0.51100000000E-03 0.  1.
        -12    1    3    3    0    0  0.24212892683E+01 -0.13139199413E+02 -0.13194740404E+02  0.18777709585E+02  0.00000000000E+00 0.  1.
</event>
<event>
 7    1  0.1024956E-012  0.5052886E+02  0.7816164E-02  0.1300439E+00
        -11   -1    0    0    0    0  0.00000000000E+00  0.00000000000E+00  0.45593999997E+02  0.45594000000E+02  0.51100000000E-03 0.  1.
         11   -1    0    0    0    0 -0.00000000000E+00 -0.00000000000E+00 -0.45593999997E+02  0.45594000000E+02  0.51100000000E-03 0. -1.
    9900012    2    1    2    0    0  0.43801157582E+01  0.32769499648E+01 -0.40289479343E+02  0.50528856368E+02  0.29999989416E+02 0.  0.
        -12    1    1    2    0    0 -0.43801157582E+01 -0.32769499648E+01  0.40289479343E+02  0.40659143632E+02  0.00000000000E+00 0.  1.
         11    1    3    3    0    0  0.23626241193E+01 -0.97997045400E+01 -0.25204089276E+02  0.27145208017E+02  0.51100000000E-03 0. -1.
        -11    1    3    3    0    0  0.30492725309E+01 -0.11966227696E-01  0.40689382228E+00  0.30763239429E+01  0.51100000000E-03 0.  1.
         12    1    3    3    0    0 -0.10317808920E+01  0.13088620733E+02 -0.15492283890E+02  0.20307324408E+02  0.00000000000E+00 0. -1.
</event>
<event>
 7    1  0.1024956E-012  0.5052884E+02  0.7816164E-02  0.1300439E+00
        -11   -1    0    0    0    0  0.00000000000E+00  0.00000000000E+00  0.45593999997E+02  0.45594000000E+02  0.51100000000E-03 0. -1.
         11   -1    0    0    0    0 -0.00000000000E+00 -0.00000000000E+00 -0.45593999997E+02  0.45594000000E+02  0.51100000000E-03 0.  1.
    9900012    2    1    2    0    0 -0.25215135006E+02  0.82162944860E+01  0.30819740392E+02  0.50528844496E+02  0.29999953330E+02 0.  0.
        -12    1    1    2    0    0  0.25215135006E+02 -0.82162944860E+01 -0.30819740392E+02  0.40659155504E+02  0.00000000000E+00 0.  1.
         11    1    3    3    0    0 -0.22473767892E+02  0.42438900016E+01  0.17506142036E+02  0.28801837700E+02  0.51100000000E-03 0.  1.
        -11    1    3    3    0    0  0.30127084594E+01 -0.11192636016E+01 -0.25486956590E+01  0.41018304566E+01  0.51100000000E-03 0. -1.
         12    1    3    3    0    0 -0.57540755735E+01  0.50916680860E+01  0.15862294015E+02  0.17625176340E+02  0.00000000000E+00 0. -1.
</event>
<event>
 7    1  0.1024956E-012  0.5052886E+02  0.7816164E-02  0.1300439E+00
        -11   -1    0    0    0    0  0.00000000000E+00  0.00000000000E+00  0.45593999997E+02  0.45594000000E+02  0.51100000000E-03 0.  1.
         11   -1    0    0    0    0 -0.00000000000E+00 -0.00000000000E+00 -0.45593999997E+02  0.45594000000E+02  0.51100000000E-03 0. -1.
    9900012    2    1    2    0    0 -0.24637969124E+02  0.18574605367E+02 -0.26478674780E+02  0.50528859512E+02  0.29999998973E+02 0.  0.
        -12    1    1    2    0    0  0.24637969124E+02 -0.18574605367E+02  0.26478674780E+02  0.40659140488E+02  0.00000000000E+00 0.  1.
         11    1    3    3    0    0 -0.36851616813E+01  0.17481583358E+02 -0.59478397292E+01  0.18829842565E+02  0.51100000000E-03 0. -1.
        -11    1    3    3    0    0 -0.48454159659E+01 -0.49260813718E+01 -0.67949959252E+01  0.96910424336E+01  0.51100000000E-03 0.  1.
        -12    1    3    3    0    0 -0.16107391477E+02  0.60191033809E+01 -0.13735839126E+02  0.22007974514E+02  0.00000000000E+00 0.  1.
</event>
<event>
 7    1  0.1024956E-012  0.5052886E+02  0.7816164E-02  0.1300439E+00
        -11   -1    0    0    0    0  0.00000000000E+00  0.00000000000E+00  0.45593999997E+02  0.45594000000E+02  0.51100000000E-03 0.  1.
         11   -1    0    0    0    0 -0.00000000000E+00 -0.00000000000E+00 -0.45593999997E+02  0.45594000000E+02  0.51100000000E-03 0. -1.
    9900012    2    1    2    0    0  0.35489201699E+02 -0.88173410534E+01 -0.17774619129E+02  0.50528855572E+02  0.29999986996E+02 0.  0.
        -12    1    1    2    0    0 -0.35489201699E+02  0.88173410534E+01  0.17774619129E+02  0.40659144428E+02  0.00000000000E+00 0.  1.
         11    1    3    3    0    0  0.12917052180E+02  0.41443069941E+01 -0.18333723615E+02  0.22806817826E+02  0.51100000000E-03 0. -1.
        -11    1    3    3    0    0  0.43150071310E+01 -0.44233626874E+00  0.32524658410E+01  0.54215756218E+01  0.51100000000E-03 0.  1.
         12    1    3    3    0    0  0.18257142387E+02 -0.12519311779E+02 -0.26933613555E+01  0.22300462124E+02  0.00000000000E+00 0. -1.
</event>
<event>
 7    1  0.1024956E-012  0.5052885E+02  0.7816164E-02  0.1300439E+00
        -11   -1    0    0    0    0  0.00000000000E+00  0.00000000000E+00  0.45593999997E+02  0.45594000000E+02  0.51100000000E-03 0. -1.
         11   -1    0    0    0    0 -0.00000000000E+00 -0.00000000000E+00 -0.45593999997E+02  0.45594000000E+02  0.51100000000E-03 0.  1.
    9900012    2    1    2    0    0 -0.13515588541E+02 -0.30148508587E+02  0.23697309131E+02  0.50528853875E+02  0.29999981837E+02 0.  0.
        -12    1    1    2    0    0  0.13515588541E+02  0.30148508587E+02 -0.23697309131E+02  0.40659146125E+02  0.00000000000E+00 0.  1.
         11    1    3    3    0    0 -0.16558168118E+02 -0.42590317517E+01  0.13388136341E+02  0.21715305152E+02  0.51100000000E-03 0. -1.
        -11    1    3    3    0    0  0.33376875708E+01 -0.70408984057E+01  0.48896630127E+01  0.91990876351E+01  0.51100000000E-03 0.  1.
         12    1    3    3    0    0 -0.29510799346E+00 -0.18848578429E+02  0.54195097771E+01  0.19614461087E+02  0.00000000000E+00 0. -1.
</event>
<event>
 7    1  0.1024956E-012  0.5052887E+02  0.7816164E-02  0.1300439E+00
        -11   -1    0    0    0    0  0.00000000000E+00  0.00000000000E+00  0.45593999997E+02  0.45594000000E+02  0.51100000000E-03 0.  1.
         11   -1    0    0    0    0 -0.00000000000E+00 -0.00000000000E+00 -0.45593999997E+02  0.45594000000E+02  0.51100000000E-03 0. -1.
    9900012    2    1    2    0    0  0.30760723323E+02  0.15285323859E+01 -0.26544425420E+02  0.50528867798E+02  0.30000024158E+02 0.  0.
        -12    1    1    2    0    0 -0.30760723323E+02 -0.15285323859E+01  0.26544425420E+02  0.40659132202E+02  0.00000000000E+00 0.  1.
         11    1    3    3    0    0  0.85097843630E+01  0.78918560507E+01 -0.18562373665E+02  0.21891997126E+02  0.51100000000E-03 0.  1.
        -11    1    3    3    0    0  0.17710877693E+02 -0.37533887379E+01  0.11167882579E+01  0.18138641954E+02  0.51100000000E-03 0. -1.
         12    1    3    3    0    0  0.45400612671E+01 -0.26099349269E+01 -0.90988400122E+01  0.10498228717E+02  0.00000000000E+00 0. -1.
</event>
<event>
 7    1  0.1024956E-012  0.5052886E+02  0.7816164E-02  0.1300439E+00
        -11   -1    0    0    0    0  0.00000000000E+00  0.00000000000E+00  0.45593999997E+02  0.45594000000E+02  0.51100000000E-03 0.  1.
         11   -1    0    0    0    0 -0.00000000000E+00 -0.00000000000E+00 -0.45593999997E+02  0.45594000000E+02  0.51100000000E-03 0. -1.
    9900012    2    1    2    0    0  0.23798384470E+02  0.27857500850E+02 -0.17628441623E+02  0.50528863130E+02  0.30000009969E+02 0.  0.
        -12    1    1    2    0    0 -0.23798384470E+02 -0.27857500850E+02  0.17628441623E+02  0.40659136870E+02  0.00000000000E+00 0.  1.
         11    1    3    3    0    0 -0.27391138100E+00  0.18673690657E+02 -0.14448509262E+02  0.23612309721E+02  0.51100000000E-03 0. -1.
        -11    1    3    3    0    0  0.55374746901E+01  0.54879969103E+01 -0.33053820966E+00  0.78032680206E+01  0.51100000000E-03 0.  1.
         12    1    3    3    0    0  0.18534821161E+02  0.36958132819E+01 -0.28493941516E+01  0.19113285388E+02  0.00000000000E+00 0. -1.
</event>
<event>
 7    1  0.1024956E-012  0.5052886E+02  0.7816164E-02  0.1300439E+00
        -11   -1    0    0    0    0  0.00000000000E+00  0.00000000000E+00  0.45593999997E+02  0.45594000000E+02  0.51100000000E-03 0.  1.
         11   -1    0    0    0    0 -0.00000000000E+00 -0.00000000000E+00 -0.45593999997E+02  0.45594000000E+02  0.51100000000E-03 0. -1.
    9900012    2    1    2    0    0  0.99449067353E+01 -0.82755297396E+01 -0.38545820918E+02  0.50528857453E+02  0.29999992714E+02 0.  0.
        -12    1    1    2    0    0 -0.99449067353E+01  0.82755297396E+01  0.38545820918E+02  0.40659142547E+02  0.00000000000E+00 0.  1.
         11    1    3    3    0    0  0.67222394570E+01  0.11125709230E+01 -0.20622887312E+02  0.21719341581E+02  0.51100000000E-03 0. -1.
        -11    1    3    3    0    0  0.86215203044E+01 -0.13299893758E+02 -0.11832983942E+02  0.19779719300E+02  0.51100000000E-03 0.  1.
        -12    1    3    3    0    0 -0.53988530261E+01  0.39117930958E+01 -0.60899496645E+01  0.90297965723E+01  0.00000000000E+00 0.  1.
</event>
<event>
 7    1  0.1024956E-012  0.5052885E+02  0.7816164E-02  0.1300439E+00
        -11   -1    0    0    0    0  0.00000000000E+00  0.00000000000E+00  0.45593999997E+02  0.45594000000E+02  0.51100000000E-03 0. -1.
         11   -1    0    0    0    0 -0.00000000000E+00 -0.00000000000E+00 -0.45593999997E+02  0.45594000000E+02  0.51100000000E-03 0.  1.
    9900012    2    1    2    0    0 -0.47224686816E+01  0.32137308419E+02  0.24455226939E+02  0.50528850630E+02  0.29999971976E+02 0.  0.
        -12    1    1    2    0    0  0.47224686816E+01 -0.32137308419E+02 -0.24455226939E+02  0.40659149370E+02  0.00000000000E+00 0.  1.
         11    1    3    3    0    0 -0.74107467362E+01  0.84066544408E+01  0.14251819289E+02  0.18130233297E+02  0.51100000000E-03 0.  1.
        -11    1    3    3    0    0  0.84158442669E+01  0.28661680073E+01  0.47750109196E+01  0.10091683869E+02  0.51100000000E-03 0. -1.
         12    1    3    3    0    0 -0.57275662124E+01  0.20864485970E+02  0.54283967301E+01  0.22306933464E+02  0.00000000000E+00 0. -1.
</event>
<event>
 7    1  0.1024956E-012  0.5052886E+02  0.7816164E-02  0.1300439E+00
        -11   -1    0    0    0    0  0.00000000000E+00  0.00000000000E+00  0.45593999997E+02  0.45594000000E+02  0.51100000000E-03 0. -1.
         11   -1    0    0    0    0 -0.00000000000E+00 -0.00000000000E+00 -0.45593999997E+02  0.45594000000E+02  0.51100000000E-03 0.  1.
    9900012    2    1    2    0    0 -0.16580997966E+02  0.27748587311E+02  0.24662763715E+02  0.50528861970E+02  0.30000006444E+02 0.  0.
        -12    1    1    2    0    0  0.16580997966E+02 -0.27748587311E+02 -0.24662763715E+02  0.40659138030E+02  0.00000000000E+00 0.  1.
         11    1    3    3    0    0 -0.27063486702E+01  0.36347854076E+01  0.43261840569E+01  0.62651302332E+01  0.51100000000E-03 0. -1.
        -11    1    3    3    0    0 -0.13163261777E+02 -0.14149767674E+01  0.10495169609E+02  0.16894443029E+02  0.51100000000E-03 0.  1.
        -12    1    3    3    0    0 -0.71138751818E+00  0.25528778671E+02  0.98414100487E+01  0.27369288708E+02  0.00000000000E+00 0.  1.
</event>
<event>
 7    1  0.1444329E-012  0.5052883E+02  0.7816164E-02  0.1300439E+00
        -11   -1    0    0    0    0  0.00000000000E+00  0.00000000000E+00  0.45593999997E+02  0.45594000000E+02  0.51100000000E-03 0. -1.
         11   -1    0    0    0    0 -0.00000000000E+00 -0.00000000000E+00 -0.45593999997E+02  0.45594000000E+02  0.51100000000E-03 0.  1.
    9900012    2    1    2    0    0 -0.30350869504E+02 -0.17022176379E+02  0.21029456151E+02  0.50528833822E+02  0.29999920885E+02 0.  0.
        -12    1    1    2    0    0  0.30350869504E+02  0.17022176379E+02 -0.21029456151E+02  0.40659166178E+02  0.00000000000E+00 0.  1.
         11    1    3    3    0    0 -0.19880111621E+02 -0.24238063045E+01  0.21775119535E+02  0.29584616038E+02  0.51100000000E-03 0. -1.
        -11    1    3    3    0    0 -0.12660582298E+02 -0.13340074300E+02 -0.90347086604E+00  0.18413695619E+02  0.51100000000E-03 0.  1.
        -12    1    3    3    0    0  0.21898244160E+01 -0.12582957744E+01  0.15780748147E+00  0.25305221655E+01  0.00000000000E+00 0.  1.
</event>
<event>
 7    1  0.1024956E-012  0.5052885E+02  0.7816164E-02  0.1300439E+00
        -11   -1    0    0    0    0  0.00000000000E+00  0.00000000000E+00  0.45593999997E+02  0.45594000000E+02  0.51100000000E-03 0.  1.
         11   -1    0    0    0    0 -0.00000000000E+00 -0.00000000000E+00 -0.45593999997E+02  0.45594000000E+02  0.51100000000E-03 0. -1.
    9900012    2    1    2    0    0  0.26651272911E+02  0.19182696171E+02 -0.23977071530E+02  0.50528854174E+02  0.29999982747E+02 0.  0.
        -12    1    1    2    0    0 -0.26651272911E+02 -0.19182696171E+02  0.23977071530E+02  0.40659145826E+02  0.00000000000E+00 0.  1.
         11    1    3    3    0    0  0.29636578064E+02  0.12409659045E+02 -0.20348576859E+02  0.38031447217E+02  0.51100000000E-03 0. -1.
        -11    1    3    3    0    0 -0.31102391297E+01 -0.15600208185E+01 -0.19859346027E+00  0.34852104702E+01  0.51100000000E-03 0.  1.
        -12    1    3    3    0    0  0.12493397667E+00  0.83330579445E+01 -0.34299012108E+01  0.90121964870E+01  0.00000000000E+00 0.  1.
</event>
<event>
 7    1  0.1024956E-012  0.5052886E+02  0.7816164E-02  0.1300439E+00
        -11   -1    0    0    0    0  0.00000000000E+00  0.00000000000E+00  0.45593999997E+02  0.45594000000E+02  0.51100000000E-03 0.  1.
         11   -1    0    0    0    0 -0.00000000000E+00 -0.00000000000E+00 -0.45593999997E+02  0.45594000000E+02  0.51100000000E-03 0. -1.
    9900012    2    1    2    0    0  0.27209340425E+02 -0.12414179123E+02 -0.27544612407E+02  0.50528859302E+02  0.29999998333E+02 0.  0.
        -12    1    1    2    0    0 -0.27209340425E+02  0.12414179123E+02  0.27544612407E+02  0.40659140698E+02  0.00000000000E+00 0.  1.
         11    1    3    3    0    0  0.19684220317E+02 -0.16473144347E+02 -0.16969027748E+02  0.30769805283E+02  0.51100000000E-03 0. -1.
        -11    1    3    3    0    0  0.20224463636E+01  0.33640026970E+01 -0.13092556914E+02  0.13668278979E+02  0.51100000000E-03 0.  1.
        -12    1    3    3    0    0  0.55026737449E+01  0.69496252624E+00  0.25169722554E+01  0.60907750402E+01  0.00000000000E+00 0.  1.
</event>
<event>
 7    1  0.1268458E-012  0.5052884E+02  0.7816164E-02  0.1300439E+00
        -11   -1    0    0    0    0  0.00000000000E+00  0.00000000000E+00  0.45593999997E+02  0.45594000000E+02  0.51100000000E-03 0. -1.
         11   -1    0    0    0    0 -0.00000000000E+00 -0.00000000000E+00 -0.45593999997E+02  0.45594000000E+02  0.51100000000E-03 0.  1.
    9900012    2    1    2    0    0  0.36607702558E+01 -0.32872428933E+02  0.23646764953E+02  0.50528839709E+02  0.29999938781E+02 0.  0.
        -12    1    1    2    0    0 -0.36607702558E+01  0.32872428933E+02 -0.23646764953E+02  0.40659160291E+02  0.00000000000E+00 0.  1.
         11    1    3    3    0    0 -0.42911155918E+00 -0.74632626091E+01  0.15748644821E+02  0.17432849436E+02  0.51100000000E-03 0. -1.
        -11    1    3    3    0    0  0.11311878134E+02 -0.18948969240E+02  0.77977848985E+01  0.23405714511E+02  0.51100000000E-03 0.  1.
        -12    1    3    3    0    0 -0.72219963194E+01 -0.64601970836E+01  0.10033523337E+00  0.96902757626E+01  0.00000000000E+00 0.  1.
</event>
<event>
 7    1  0.1024956E-012  0.5052887E+02  0.7816164E-02  0.1300439E+00
        -11   -1    0    0    0    0  0.00000000000E+00  0.00000000000E+00  0.45593999997E+02  0.45594000000E+02  0.51100000000E-03 0. -1.
         11   -1    0    0    0    0 -0.00000000000E+00 -0.00000000000E+00 -0.45593999997E+02  0.45594000000E+02  0.51100000000E-03 0.  1.
    9900012    2    1    2    0    0 -0.35447096821E+02  0.50759038541E+01  0.19258859972E+02  0.50528866212E+02  0.30000019338E+02 0.  0.
        -12    1    1    2    0    0  0.35447096821E+02 -0.50759038541E+01 -0.19258859972E+02  0.40659133788E+02  0.00000000000E+00 0.  1.
         11    1    3    3    0    0 -0.77746280906E+01 -0.81105382949E+00  0.17605183323E+02  0.19262531775E+02  0.51100000000E-03 0. -1.
        -11    1    3    3    0    0 -0.20291303198E+01  0.43121567582E+01 -0.22666756185E+01  0.52772989666E+01  0.51100000000E-03 0.  1.
         12    1    3    3    0    0 -0.25643338411E+02  0.15748009254E+01  0.39203522674E+01  0.25989035471E+02  0.00000000000E+00 0. -1.
</event>
<event>
 7    1  0.1024956E-012  0.5052885E+02  0.7816164E-02  0.1300439E+00
        -11   -1    0    0    0    0  0.00000000000E+00  0.00000000000E+00  0.45593999997E+02  0.45594000000E+02  0.51100000000E-03 0.  1.
         11   -1    0    0    0    0 -0.00000000000E+00 -0.00000000000E+00 -0.45593999997E+02  0.45594000000E+02  0.51100000000E-03 0. -1.
    9900012    2    1    2    0    0  0.15478352578E+02 -0.35557640433E+02 -0.12216423282E+02  0.50528853557E+02  0.29999980871E+02 0.  0.
        -12    1    1    2    0    0 -0.15478352578E+02  0.35557640433E+02  0.12216423282E+02  0.40659146443E+02  0.00000000000E+00 0.  1.
         11    1    3    3    0    0  0.60534543658E+00 -0.26936092245E+02 -0.13925891680E+02  0.30329028469E+02  0.51100000000E-03 0. -1.
        -11    1    3    3    0    0  0.16270817049E+02 -0.83893826829E+01  0.46225698390E+00  0.18312152004E+02  0.51100000000E-03 0.  1.
        -12    1    3    3    0    0 -0.13978099077E+01 -0.23216550494E+00  0.12472114137E+01  0.18876730835E+01  0.00000000000E+00 0.  1.
</event>
<event>
 7    1  0.1024956E-012  0.5052886E+02  0.7816164E-02  0.1300439E+00
        -11   -1    0    0    0    0  0.00000000000E+00  0.00000000000E+00  0.45593999997E+02  0.45594000000E+02  0.51100000000E-03 0.  1.
         11   -1    0    0    0    0 -0.00000000000E+00 -0.00000000000E+00 -0.45593999997E+02  0.45594000000E+02  0.51100000000E-03 0. -1.
    9900012    2    1    2    0    0 -0.31336529000E+02  0.17430565799E+02 -0.19166707348E+02  0.50528863949E+02  0.30000012460E+02 0.  0.
        -12    1    1    2    0    0  0.31336529000E+02 -0.17430565799E+02  0.19166707348E+02  0.40659136051E+02  0.00000000000E+00 0.  1.
         11    1    3    3    0    0 -0.69763854458E+00  0.62704066773E+01 -0.16535281791E+02  0.17698029371E+02  0.51100000000E-03 0. -1.
        -11    1    3    3    0    0 -0.11035073790E+02  0.26386765547E+01 -0.11321337048E+01  0.11402508255E+02  0.51100000000E-03 0.  1.
         12    1    3    3    0    0 -0.19603816665E+02  0.85214825667E+01 -0.14992918528E+01  0.21428326323E+02  0.00000000000E+00 0. -1.
</event>
<event>
 7    1  0.1024956E-012  0.5052885E+02  0.7816164E-02  0.1300439E+00
        -11   -1    0    0    0    0  0.00000000000E+00  0.00000000000E+00  0.45593999997E+02  0.45594000000E+02  0.51100000000E-03 0.  1.
         11   -1    0    0    0    0 -0.00000000000E+00 -0.00000000000E+00 -0.45593999997E+02  0.45594000000E+02  0.51100000000E-03 0. -1.
    9900012    2    1    2    0    0 -0.11345029065E+02 -0.38101550425E+02 -0.85280879135E+01  0.50528854500E+02  0.29999983740E+02 0.  0.
        -12    1    1    2    0    0  0.11345029065E+02  0.38101550425E+02  0.85280879135E+01  0.40659145500E+02  0.00000000000E+00 0.  1.
         11    1    3    3    0    0 -0.48563970958E+01 -0.75116474204E+01  0.59841247887E+00  0.89647943354E+01  0.51100000000E-03 0. -1.
        -11    1    3    3    0    0 -0.41609311017E+01  0.31139019657E+01 -0.55303657313E+01  0.75891157896E+01  0.51100000000E-03 0.  1.
        -12    1    3    3    0    0 -0.23277008674E+01 -0.33703804970E+02 -0.35961346610E+01  0.33974944375E+02  0.00000000000E+00 0.  1.
</event>
<event>
 7    1  0.1024956E-012  0.5052889E+02  0.7816164E-02  0.1300439E+00
        -11   -1    0    0    0    0  0.00000000000E+00  0.00000000000E+00  0.45593999997E+02  0.45594000000E+02  0.51100000000E-03 0.  1.
         11   -1    0    0    0    0 -0.00000000000E+00 -0.00000000000E+00 -0.45593999997E+02  0.45594000000E+02  0.51100000000E-03 0. -1.
    9900012    2    1    2    0    0 -0.18134163485E+02 -0.36007537279E+01 -0.36212564271E+02  0.50528891257E+02  0.30000095465E+02 0.  0.
        -12    1    1    2    0    0  0.18134163485E+02  0.36007537279E+01  0.36212564271E+02  0.40659108743E+02  0.00000000000E+00 0.  1.
         11    1    3    3    0    0 -0.14279614384E+02  0.79009744371E+01 -0.25348326651E+02  0.30147478307E+02  0.51100000000E-03 0. -1.
        -11    1    3    3    0    0 -0.77388493331E+01 -0.38120127104E+01 -0.56120901645E+01  0.10291588127E+02  0.51100000000E-03 0.  1.
         12    1    3    3    0    0  0.38843002323E+01 -0.76897154546E+01 -0.52521474553E+01  0.10089824823E+02  0.00000000000E+00 0. -1.
</event>
<event>
 7    1  0.1024956E-012  0.5052886E+02  0.7816164E-02  0.1300439E+00
        -11   -1    0    0    0    0  0.00000000000E+00  0.00000000000E+00  0.45593999997E+02  0.45594000000E+02  0.51100000000E-03 0. -1.
         11   -1    0    0    0    0 -0.00000000000E+00 -0.00000000000E+00 -0.45593999997E+02  0.45594000000E+02  0.51100000000E-03 0.  1.
    9900012    2    1    2    0    0 -0.24182891539E+02  0.28521226149E+02  0.15965376329E+02  0.50528858032E+02  0.29999994474E+02 0.  0.
        -12    1    1    2    0    0  0.24182891539E+02 -0.28521226149E+02 -0.15965376329E+02  0.40659141968E+02  0.00000000000E+00 0.  1.
         11    1    3    3    0    0 -0.26943206065E+01  0.62995985272E+01 -0.50146594057E+00  0.68699180115E+01  0.51100000000E-03 0. -1.
        -11    1    3    3    0    0 -0.12213961854E+02  0.19117795254E+01  0.17361976194E+02  0.21313704107E+02  0.51100000000E-03 0.  1.
        -12    1    3    3    0    0 -0.92746090784E+01  0.20309848097E+02 -0.89513392527E+00  0.22345235913E+02  0.00000000000E+00 0.  1.
</event>
<event>
 7    1  0.1024956E-012  0.5052886E+02  0.7816164E-02  0.1300439E+00
        -11   -1    0    0    0    0  0.00000000000E+00  0.00000000000E+00  0.45593999997E+02  0.45594000000E+02  0.51100000000E-03 0. -1.
         11   -1    0    0    0    0 -0.00000000000E+00 -0.00000000000E+00 -0.45593999997E+02  0.45594000000E+02  0.51100000000E-03 0.  1.
    9900012    2    1    2    0    0 -0.29286521879E+01 -0.92313806248E+01  0.39488865760E+02  0.50528856983E+02  0.29999991286E+02 0.  0.
        -12    1    1    2    0    0  0.29286521879E+01  0.92313806248E+01 -0.39488865760E+02  0.40659143017E+02  0.00000000000E+00 0.  1.
         11    1    3    3    0    0 -0.78571579937E+01 -0.15448935491E+02  0.25768681665E+02  0.31055265167E+02  0.51100000000E-03 0. -1.
        -11    1    3    3    0    0  0.66000536632E+00  0.74057022439E+01  0.13012247477E+02  0.14986614611E+02  0.51100000000E-03 0.  1.
        -12    1    3    3    0    0  0.42685004396E+01 -0.11881473778E+01  0.70793661691E+00  0.44869772060E+01  0.00000000000E+00 0.  1.
</event>
<event>
 7    1  0.1024956E-012  0.5052884E+02  0.7816164E-02  0.1300439E+00
        -11   -1    0    0    0    0  0.00000000000E+00  0.00000000000E+00  0.45593999997E+02  0.45594000000E+02  0.51100000000E-03 0.  1.
         11   -1    0    0    0    0 -0.00000000000E+00 -0.00000000000E+00 -0.45593999997E+02  0.45594000000E+02  0.51100000000E-03 0. -1.
    9900012    2    1    2    0    0  0.41685591276E+01 -0.73433647668E+01 -0.39772672266E+02  0.50528839280E+02  0.29999937474E+02 0.  0.
        -12    1    1    2    0    0 -0.41685591276E+01  0.73433647668E+01  0.39772672266E+02  0.40659160720E+02  0.00000000000E+00 0.  1.
         11    1    3    3    0    0  0.51608159600E+01  0.79808381437E+01 -0.51857690890E+01  0.10826818561E+02  0.51100000000E-03 0. -1.
        -11    1    3    3    0    0  0.57765987631E+00 -0.11478677625E+02 -0.33488161621E+02  0.35405517931E+02  0.51100000000E-03 0.  1.
        -12    1    3    3    0    0 -0.15699167087E+01 -0.38455252855E+01 -0.10987415560E+01  0.42965027872E+01  0.00000000000E+00 0.  1.
</event>
<event>
 7    1  0.1024956E-012  0.5052887E+02  0.7816164E-02  0.1300439E+00
        -11   -1    0    0    0    0  0.00000000000E+00  0.00000000000E+00  0.45593999997E+02  0.45594000000E+02  0.51100000000E-03 0. -1.
         11   -1    0    0    0    0 -0.00000000000E+00 -0.00000000000E+00 -0.45593999997E+02  0.45594000000E+02  0.51100000000E-03 0.  1.
    9900012    2    1    2    0    0  0.28171837220E+02  0.18530772143E+02  0.22718340400E+02  0.50528869180E+02  0.30000028359E+02 0.  0.
        -12    1    1    2    0    0 -0.28171837220E+02 -0.18530772143E+02 -0.22718340400E+02  0.40659130820E+02  0.00000000000E+00 0.  1.
         11    1    3    3    0    0  0.11901056105E+02 -0.57249731390E+01  0.76273135424E+00  0.13228462240E+02  0.51100000000E-03 0. -1.
        -11    1    3    3    0    0  0.10683307625E+02  0.16368427914E+02  0.18832154881E+02  0.27142375576E+02  0.51100000000E-03 0.  1.
         12    1    3    3    0    0  0.55874734896E+01  0.78873173679E+01  0.31234541642E+01  0.10158031363E+02  0.00000000000E+00 0. -1.
</event>
<event>
 7    1  0.1024956E-012  0.5052886E+02  0.7816164E-02  0.1300439E+00
        -11   -1    0    0    0    0  0.00000000000E+00  0.00000000000E+00  0.45593999997E+02  0.45594000000E+02  0.51100000000E-03 0. -1.
         11   -1    0    0    0    0 -0.00000000000E+00 -0.00000000000E+00 -0.45593999997E+02  0.45594000000E+02  0.51100000000E-03 0.  1.
    9900012    2    1    2    0    0  0.35769509179E+02 -0.14360014691E+02  0.12942086782E+02  0.50528863030E+02  0.30000009666E+02 0.  0.
        -12    1    1    2    0    0 -0.35769509179E+02  0.14360014691E+02 -0.12942086782E+02  0.40659136970E+02  0.00000000000E+00 0.  1.
         11    1    3    3    0    0  0.12664094467E+02 -0.12043281580E+01  0.12498442953E+02  0.17833697639E+02  0.51100000000E-03 0. -1.
        -11    1    3    3    0    0  0.80879156349E+01 -0.42689438438E+01 -0.90191853876E+01  0.12844608448E+02  0.51100000000E-03 0.  1.
         12    1    3    3    0    0  0.15017499077E+02 -0.88867426890E+01  0.94628292174E+01  0.19850556943E+02  0.00000000000E+00 0. -1.
</event>
<event>
 7    1  0.1024956E-012  0.5052886E+02  0.7816164E-02  0.1300439E+00
        -11   -1    0    0    0    0  0.00000000000E+00  0.00000000000E+00  0.45593999997E+02  0.45594000000E+02  0.51100000000E-03 0.  1.
         11   -1    0    0    0    0 -0.00000000000E+00 -0.00000000000E+00 -0.45593999997E+02  0.45594000000E+02  0.51100000000E-03 0. -1.
    9900012    2    1    2    0    0 -0.18675881575E+01  0.23148259290E+02 -0.33374179272E+02  0.50528860367E+02  0.30000001571E+02 0.  0.
        -12    1    1    2    0    0  0.18675881575E+01 -0.23148259290E+02  0.33374179272E+02  0.40659139633E+02  0.00000000000E+00 0.  1.
         11    1    3    3    0    0  0.10971924358E+02  0.13779241365E+02 -0.16475804369E+02  0.24118514602E+02  0.51100000000E-03 0. -1.
        -11    1    3    3    0    0 -0.54361306778E+01  0.69366159302E+01 -0.12132526650E+01  0.88960743927E+01  0.51100000000E-03 0.  1.
         12    1    3    3    0    0 -0.74033818379E+01  0.24324019940E+01 -0.15685122238E+02  0.17514271372E+02  0.00000000000E+00 0. -1.
</event>
<event>
 7    1  0.1024956E-012  0.5052886E+02  0.7816164E-02  0.1300439E+00
        -11   -1    0    0    0    0  0.00000000000E+00  0.00000000000E+00  0.45593999997E+02  0.45594000000E+02  0.51100000000E-03 0.  1.
         11   -1    0    0    0    0 -0.00000000000E+00 -0.00000000000E+00 -0.45593999997E+02  0.45594000000E+02  0.51100000000E-03 0. -1.
    9900012    2    1    2    0    0  0.32284312899E+02  0.13572449115E+00 -0.24715789249E+02  0.50528861806E+02  0.30000005945E+02 0.  0.
        -12    1    1    2    0    0 -0.32284312899E+02 -0.13572449115E+00  0.24715789249E+02  0.40659138194E+02  0.00000000000E+00 0.  1.
         11    1    3    3    0    0  0.25759015466E+02 -0.10244510743E+02 -0.21089821597E+02  0.34831845391E+02  0.51100000000E-03 0. -1.
        -11    1    3    3    0    0  0.81963053340E+01  0.93478187775E+01 -0.10766982977E+01  0.12478798681E+02  0.51100000000E-03 0.  1.
         12    1    3    3    0    0 -0.16710079007E+01  0.10324164565E+01 -0.25492693540E+01  0.32182177339E+01  0.00000000000E+00 0. -1.
</event>
<event>
 7    1  0.1024956E-012  0.5052885E+02  0.7816164E-02  0.1300439E+00
        -11   -1    0    0    0    0  0.00000000000E+00  0.00000000000E+00  0.45593999997E+02  0.45594000000E+02  0.51100000000E-03 0.  1.
         11   -1    0    0    0    0 -0.00000000000E+00 -0.00000000000E+00 -0.45593999997E+02  0.45594000000E+02  0.51100000000E-03 0. -1.
    9900012    2    1    2    0    0 -0.90658696578E+01  0.39057946499E+02  0.67419187013E+01  0.50528847954E+02  0.29999963840E+02 0.  0.
        -12    1    1    2    0    0  0.90658696578E+01 -0.39057946499E+02 -0.67419187013E+01  0.40659152046E+02  0.00000000000E+00 0.  1.
         11    1    3    3    0    0  0.78955461165E+01  0.17070568710E+02  0.58255040912E+00  0.18817102056E+02  0.51100000000E-03 0. -1.
        -11    1    3    3    0    0 -0.16732306775E+02  0.14354919735E+02  0.86463256047E+01  0.23681063264E+02  0.51100000000E-03 0.  1.
         12    1    3    3    0    0 -0.22910899954E+00  0.76324580538E+01 -0.24869573125E+01  0.80306826330E+01  0.00000000000E+00 0. -1.
</event>
<event>
 7    1  0.1024956E-012  0.5052887E+02  0.7816164E-02  0.1300439E+00
        -11   -1    0    0    0    0  0.00000000000E+00  0.00000000000E+00  0.45593999997E+02  0.45594000000E+02  0.51100000000E-03 0.  1.
         11   -1    0    0    0    0 -0.00000000000E+00 -0.00000000000E+00 -0.45593999997E+02  0.45594000000E+02  0.51100000000E-03 0. -1.
    9900012    2    1    2    0    0  0.36760083744E+02  0.17257230725E+02 -0.20121846057E+01  0.50528872414E+02  0.30000038189E+02 0.  0.
        -12    1    1    2    0    0 -0.36760083744E+02 -0.17257230725E+02  0.20121846057E+01  0.40659127586E+02  0.00000000000E+00 0.  1.
         11    1    3    3    0    0  0.21621236649E+02  0.14078784985E+02  0.10367369522E+02  0.27805977989E+02  0.51100000000E-03 0. -1.
        -11    1    3    3    0    0  0.10097692363E+02 -0.34632037482E+01 -0.62048686034E+01  0.12347370809E+02  0.51100000000E-03 0.  1.
         12    1    3    3    0    0  0.50411547322E+01  0.66416494882E+01 -0.61746855242E+01  0.10375523615E+02  0.00000000000E+00 0. -1.
</event>
<event>
 7    1  0.1024956E-012  0.5052886E+02  0.7816164E-02  0.1300439E+00
        -11   -1    0    0    0    0  0.00000000000E+00  0.00000000000E+00  0.45593999997E+02  0.45594000000E+02  0.51100000000E-03 0.  1.
         11   -1    0    0    0    0 -0.00000000000E+00 -0.00000000000E+00 -0.45593999997E+02  0.45594000000E+02  0.51100000000E-03 0. -1.
    9900012    2    1    2    0    0  0.29511773536E+02  0.21411226028E+02 -0.17993900493E+02  0.50528857951E+02  0.29999994227E+02 0.  0.
        -12    1    1    2    0    0 -0.29511773536E+02 -0.21411226028E+02  0.17993900493E+02  0.40659142049E+02  0.00000000000E+00 0.  1.
         11    1    3    3    0    0  0.25809713243E+02  0.40940680127E+01 -0.86391973536E+01  0.27523415881E+02  0.51100000000E-03 0. -1.
        -11    1    3    3    0    0 -0.39826652322E+01  0.47477745786E+01 -0.18240083420E+01  0.64598755788E+01  0.51100000000E-03 0.  1.
         12    1    3    3    0    0  0.76847255246E+01  0.12569383436E+02 -0.75306947975E+01  0.16545566490E+02  0.00000000000E+00 0. -1.
</event>
<event>
 7    1  0.1024956E-012  0.5052885E+02  0.7816164E-02  0.1300439E+00
        -11   -1    0    0    0    0  0.00000000000E+00  0.00000000000E+00  0.45593999997E+02  0.45594000000E+02  0.51100000000E-03 0.  1.
         11   -1    0    0    0    0 -0.00000000000E+00 -0.00000000000E+00 -0.45593999997E+02  0.45594000000E+02  0.51100000000E-03 0. -1.
    9900012    2    1    2    0    0 -0.62961854030E+01 -0.13859206416E+02 -0.37702076327E+02  0.50528854503E+02  0.29999983749E+02 0.  0.
        -12    1    1    2    0    0  0.62961854030E+01  0.13859206416E+02  0.37702076327E+02  0.40659145497E+02  0.00000000000E+00 0.  1.
         11    1    3    3    0    0 -0.11888930429E+02 -0.12179169816E+02 -0.29644971809E+02  0.34183376047E+02  0.51100000000E-03 0. -1.
        -11    1    3    3    0    0  0.94081310700E+01 -0.34065405116E+01 -0.61413146825E+01  0.11740238276E+02  0.51100000000E-03 0.  1.
        -12    1    3    3    0    0 -0.38153860440E+01  0.17265039119E+01 -0.19157898358E+01  0.46052401803E+01  0.00000000000E+00 0.  1.
</event>
<event>
 7    1  0.1024956E-012  0.5052886E+02  0.7816164E-02  0.1300439E+00
        -11   -1    0    0    0    0  0.00000000000E+00  0.00000000000E+00  0.45593999997E+02  0.45594000000E+02  0.51100000000E-03 0. -1.
         11   -1    0    0    0    0 -0.00000000000E+00 -0.00000000000E+00 -0.45593999997E+02  0.45594000000E+02  0.51100000000E-03 0.  1.
    9900012    2    1    2    0    0  0.50063688874E+01  0.34396841975E+02  0.21094057389E+02  0.50528859276E+02  0.29999998256E+02 0.  0.
        -12    1    1    2    0    0 -0.50063688874E+01 -0.34396841975E+02 -0.21094057389E+02  0.40659140724E+02  0.00000000000E+00 0.  1.
         11    1    3    3    0    0  0.66067852928E+00  0.27188720837E+02  0.10031356450E+02  0.28987775861E+02  0.51100000000E-03 0. -1.
        -11    1    3    3    0    0  0.22155533087E+01 -0.41808362092E+01 -0.97741167906E+00  0.48315009803E+01  0.51100000000E-03 0.  1.
        -12    1    3    3    0    0  0.21301370494E+01  0.11388957347E+02  0.12040112618E+02  0.16709582435E+02  0.00000000000E+00 0.  1.
</event>
<event>
 7    1  0.1024956E-012  0.5052888E+02  0.7816164E-02  0.1300439E+00
        -11   -1    0    0    0    0  0.00000000000E+00  0.00000000000E+00  0.45593999997E+02  0.45594000000E+02  0.51100000000E-03 0.  1.
         11   -1    0    0    0    0 -0.00000000000E+00 -0.00000000000E+00 -0.45593999997E+02  0.45594000000E+02  0.51100000000E-03 0. -1.
    9900012    2    1    2    0    0 -0.39691104409E+02 -0.50247830477E+00 -0.88049962596E+01  0.50528877865E+02  0.30000054757E+02 0.  0.
        -12    1    1    2    0    0  0.39691104409E+02  0.50247830477E+00  0.88049962596E+01  0.40659122135E+02  0.00000000000E+00 0.  1.
         11    1    3    3    0    0 -0.13054662869E+02 -0.81455060848E+01  0.76203186094E+01  0.17170985643E+02  0.51100000000E-03 0. -1.
        -11    1    3    3    0    0 -0.12084269211E+02  0.78390274231E+01 -0.69638599983E+01  0.15999226845E+02  0.51100000000E-03 0.  1.
         12    1    3    3    0    0 -0.14552172330E+02 -0.19599964305E+00 -0.94614548707E+01  0.17358665376E+02  0.00000000000E+00 0. -1.
</event>
<event>
 7    1  0.1024956E-012  0.5052886E+02  0.7816164E-02  0.1300439E+00
        -11   -1    0    0    0    0  0.00000000000E+00  0.00000000000E+00  0.45593999997E+02  0.45594000000E+02  0.51100000000E-03 0. -1.
         11   -1    0    0    0    0 -0.00000000000E+00 -0.00000000000E+00 -0.45593999997E+02  0.45594000000E+02  0.51100000000E-03 0.  1.
    9900012    2    1    2    0    0 -0.28689398664E+02  0.11850841708E+02  0.26261027951E+02  0.50528860389E+02  0.30000001639E+02 0.  0.
        -12    1    1    2    0    0  0.28689398664E+02 -0.11850841708E+02 -0.26261027951E+02  0.40659139611E+02  0.00000000000E+00 0.  1.
         11    1    3    3    0    0 -0.60516170282E+01 -0.48344329919E+01  0.14294471830E+02  0.16258097556E+02  0.51100000000E-03 0. -1.
        -11    1    3    3    0    0 -0.83804056691E+01  0.85910466081E+01 -0.26678766214E+01  0.12294504745E+02  0.51100000000E-03 0.  1.
         12    1    3    3    0    0 -0.14257375966E+02  0.80942280914E+01  0.14634432743E+02  0.21976258088E+02  0.00000000000E+00 0. -1.
</event>
<event>
 7    1  0.1024956E-012  0.5052885E+02  0.7816164E-02  0.1300439E+00
        -11   -1    0    0    0    0  0.00000000000E+00  0.00000000000E+00  0.45593999997E+02  0.45594000000E+02  0.51100000000E-03 0. -1.
         11   -1    0    0    0    0 -0.00000000000E+00 -0.00000000000E+00 -0.45593999997E+02  0.45594000000E+02  0.51100000000E-03 0.  1.
    9900012    2    1    2    0    0  0.37173455963E+00  0.27997133321E+02  0.29482002416E+02  0.50528854322E+02  0.29999983198E+02 0.  0.
        -12    1    1    2    0    0 -0.37173455963E+00 -0.27997133321E+02 -0.29482002416E+02  0.40659145678E+02  0.00000000000E+00 0.  1.
         11    1    3    3    0    0 -0.74018470246E+01  0.16503581939E+02  0.17498725076E+02  0.25166663182E+02  0.51100000000E-03 0.  1.
        -11    1    3    3    0    0  0.10960823099E+02  0.59077946860E+01  0.81949624421E+00  0.12478511747E+02  0.51100000000E-03 0. -1.
         12    1    3    3    0    0 -0.31872415148E+01  0.55857566965E+01  0.11163781096E+02  0.12883679393E+02  0.00000000000E+00 0. -1.
</event>
<event>
 7    1  0.1024956E-012  0.5052886E+02  0.7816164E-02  0.1300439E+00
        -11   -1    0    0    0    0  0.00000000000E+00  0.00000000000E+00  0.45593999997E+02  0.45594000000E+02  0.51100000000E-03 0.  1.
         11   -1    0    0    0    0 -0.00000000000E+00 -0.00000000000E+00 -0.45593999997E+02  0.45594000000E+02  0.51100000000E-03 0. -1.
    9900012    2    1    2    0    0  0.17332424925E+02  0.22731462706E+02 -0.28914246741E+02  0.50528855700E+02  0.29999987387E+02 0.  0.
        -12    1    1    2    0    0 -0.17332424925E+02 -0.22731462706E+02  0.28914246741E+02  0.40659144300E+02  0.00000000000E+00 0.  1.
         11    1    3    3    0    0 -0.49490356148E+01  0.32312864647E+01 -0.35125940869E+01  0.68754987610E+01  0.51100000000E-03 0. -1.
        -11    1    3    3    0    0  0.19563142341E+02  0.23490872629E+02 -0.20739361130E+02  0.36941287680E+02  0.51100000000E-03 0.  1.
        -12    1    3    3    0    0  0.27183181988E+01 -0.39906963872E+01 -0.46622915242E+01  0.67120692593E+01  0.00000000000E+00 0.  1.
</event>
<event>
 7    1  0.1024956E-012  0.5052886E+02  0.7816164E-02  0.1300439E+00
        -11   -1    0    0    0    0  0.00000000000E+00  0.00000000000E+00  0.45593999997E+02  0.45594000000E+02  0.51100000000E-03 0.  1.
         11   -1    0    0    0    0 -0.00000000000E+00 -0.00000000000E+00 -0.45593999997E+02  0.45594000000E+02  0.51100000000E-03 0. -1.
    9900012    2    1    2    0    0 -0.33889624545E+02 -0.10421984163E+02 -0.19900788370E+02  0.50528858550E+02  0.29999996049E+02 0.  0.
        -12    1    1    2    0    0  0.33889624545E+02  0.10421984163E+02  0.19900788370E+02  0.40659141450E+02  0.00000000000E+00 0.  1.
         11    1    3    3    0    0 -0.13666814301E+02 -0.50956979317E+01 -0.10924950060E+02  0.18223679228E+02  0.51100000000E-03 0. -1.
        -11    1    3    3    0    0 -0.38344250443E+01 -0.12165565762E+02 -0.87213800728E+00  0.12785320907E+02  0.51100000000E-03 0.  1.
        -12    1    3    3    0    0 -0.16388385200E+02  0.68392795308E+01 -0.81037003028E+01  0.19519858416E+02  0.00000000000E+00 0.  1.
</event>
<event>
 7    1  0.1024956E-012  0.5052886E+02  0.7816164E-02  0.1300439E+00
        -11   -1    0    0    0    0  0.00000000000E+00  0.00000000000E+00  0.45593999997E+02  0.45594000000E+02  0.51100000000E-03 0.  1.
         11   -1    0    0    0    0 -0.00000000000E+00 -0.00000000000E+00 -0.45593999997E+02  0.45594000000E+02  0.51100000000E-03 0. -1.
    9900012    2    1    2    0    0 -0.99038163743E+00  0.38974109152E+02 -0.11541404013E+02  0.50528855314E+02  0.29999986212E+02 0.  0.
        -12    1    1    2    0    0  0.99038163743E+00 -0.38974109152E+02  0.11541404013E+02  0.40659144686E+02  0.00000000000E+00 0.  1.
         11    1    3    3    0    0 -0.90234696536E+01  0.26463481612E+02 -0.17327591980E+02  0.32893529876E+02  0.51100000000E-03 0. -1.
        -11    1    3    3    0    0  0.26583482574E+01  0.59434634987E+01  0.63964473933E+01  0.91272182693E+01  0.51100000000E-03 0.  1.
         12    1    3    3    0    0  0.53747397588E+01  0.65671640420E+01 -0.61025942669E+00  0.85081071689E+01  0.00000000000E+00 0. -1.
</event>
<event>
 7    1  0.1024956E-012  0.5052892E+02  0.7816164E-02  0.1300439E+00
        -11   -1    0    0    0    0  0.00000000000E+00  0.00000000000E+00  0.45593999997E+02  0.45594000000E+02  0.51100000000E-03 0. -1.
         11   -1    0    0    0    0 -0.00000000000E+00 -0.00000000000E+00 -0.45593999997E+02  0.45594000000E+02  0.51100000000E-03 0.  1.
    9900012    2    1    2    0    0 -0.40414858853E+02 -0.44465511511E+01 -0.16865401056E+00  0.50528916422E+02  0.30000171955E+02 0.  0.
        -12    1    1    2    0    0  0.40414858853E+02  0.44465511511E+01  0.16865401056E+00  0.40659083578E+02  0.00000000000E+00 0.  1.
         11    1    3    3    0    0 -0.20047994704E+02  0.98636825510E+01  0.46134079498E+01  0.22814422156E+02  0.51100000000E-03 0. -1.
        -11    1    3    3    0    0 -0.43945201236E+01 -0.43296130322E+01  0.35521849066E+01  0.71186637789E+01  0.51100000000E-03 0.  1.
         12    1    3    3    0    0 -0.15972344025E+02 -0.99806206699E+01 -0.83342468670E+01  0.20595830487E+02  0.00000000000E+00 0. -1.
</event>
<event>
 7    1  0.1024956E-012  0.5052885E+02  0.7816164E-02  0.1300439E+00
        -11   -1    0    0    0    0  0.00000000000E+00  0.00000000000E+00  0.45593999997E+02  0.45594000000E+02  0.51100000000E-03 0.  1.
         11   -1    0    0    0    0 -0.00000000000E+00 -0.00000000000E+00 -0.45593999997E+02  0.45594000000E+02  0.51100000000E-03 0. -1.
    9900012    2    1    2    0    0  0.35434046077E+02 -0.17837355694E+02  0.89119801743E+01  0.50528852565E+02  0.29999977857E+02 0.  0.
        -12    1    1    2    0    0 -0.35434046077E+02  0.17837355694E+02 -0.89119801743E+01  0.40659147435E+02  0.00000000000E+00 0.  1.
         11    1    3    3    0    0  0.23951734043E+01 -0.61173258057E+01 -0.73862921513E+01  0.98851324045E+01  0.51100000000E-03 0. -1.
        -11    1    3    3    0    0  0.28065102554E+02 -0.14398672767E+02  0.14490310642E+02  0.34712258088E+02  0.51100000000E-03 0.  1.
         12    1    3    3    0    0  0.49737701188E+01  0.26786428793E+01  0.18079616831E+01  0.59314620724E+01  0.00000000000E+00 0. -1.
</event>
<event>
 7    1  0.1024956E-012  0.5052885E+02  0.7816164E-02  0.1300439E+00
        -11   -1    0    0    0    0  0.00000000000E+00  0.00000000000E+00  0.45593999997E+02  0.45594000000E+02  0.51100000000E-03 0.  1.
         11   -1    0    0    0    0 -0.00000000000E+00 -0.00000000000E+00 -0.45593999997E+02  0.45594000000E+02  0.51100000000E-03 0. -1.
    9900012    2    1    2    0    0  0.38918014247E+02  0.11670318315E+02 -0.15357285925E+01  0.50528848203E+02  0.29999964599E+02 0.  0.
        -12    1    1    2    0    0 -0.38918014247E+02 -0.11670318315E+02  0.15357285925E+01  0.40659151797E+02  0.00000000000E+00 0.  1.
         11    1    3    3    0    0  0.35553545420E+02  0.11694284019E+02 -0.94972936303E+01  0.38613591612E+02  0.51100000000E-03 0. -1.
        -11    1    3    3    0    0 -0.15624721610E+01  0.18223265350E+01  0.57065390907E+01  0.61908627759E+01  0.51100000000E-03 0.  1.
         12    1    3    3    0    0  0.49269409880E+01 -0.18462922382E+01  0.22550259471E+01  0.57243938150E+01  0.00000000000E+00 0. -1.
</event>
<event>
 7    1  0.1024956E-012  0.5052885E+02  0.7816164E-02  0.1300439E+00
        -11   -1    0    0    0    0  0.00000000000E+00  0.00000000000E+00  0.45593999997E+02  0.45594000000E+02  0.51100000000E-03 0. -1.
         11   -1    0    0    0    0 -0.00000000000E+00 -0.00000000000E+00 -0.45593999997E+02  0.45594000000E+02  0.51100000000E-03 0.  1.
    9900012    2    1    2    0    0 -0.12453573045E+02  0.38508695274E+02  0.38929629429E+01  0.50528852766E+02  0.29999978467E+02 0.  0.
        -12    1    1    2    0    0  0.12453573045E+02 -0.38508695274E+02 -0.38929629429E+01  0.40659147234E+02  0.00000000000E+00 0.  1.
         11    1    3    3    0    0 -0.65362260570E+01  0.26152643807E+02  0.12300184425E+02  0.29630686228E+02  0.51100000000E-03 0. -1.
        -11    1    3    3    0    0 -0.95263707554E+01  0.47184966934E+01 -0.39007180957E+01  0.11323937157E+02  0.51100000000E-03 0.  1.
         12    1    3    3    0    0  0.36090237673E+01  0.76375547735E+01 -0.45065033861E+01  0.95742293810E+01  0.00000000000E+00 0. -1.
</event>
<event>
 7    1  0.1024956E-012  0.5052886E+02  0.7816164E-02  0.1300439E+00
        -11   -1    0    0    0    0  0.00000000000E+00  0.00000000000E+00  0.45593999997E+02  0.45594000000E+02  0.51100000000E-03 0. -1.
         11   -1    0    0    0    0 -0.00000000000E+00 -0.00000000000E+00 -0.45593999997E+02  0.45594000000E+02  0.51100000000E-03 0.  1.
    9900012    2    1    2    0    0  0.79292819780E+01 -0.23375650627E+02  0.32308990859E+02  0.50528862709E+02  0.30000008691E+02 0.  0.
        -12    1    1    2    0    0 -0.79292819780E+01  0.23375650627E+02 -0.32308990859E+02  0.40659137291E+02  0.00000000000E+00 0.  1.
         11    1    3    3    0    0  0.84769784087E+01 -0.68888399969E+01  0.83681767551E+01  0.13760147598E+02  0.51100000000E-03 0.  1.
        -11    1    3    3    0    0 -0.81151450990E+01 -0.18320931596E+02  0.18477248556E+02  0.27256574051E+02  0.51100000000E-03 0. -1.
         12    1    3    3    0    0  0.75674486682E+01  0.18341209666E+01  0.54635655482E+01  0.95121410611E+01  0.00000000000E+00 0. -1.
</event>
<event>
 7    1  0.1024956E-012  0.5052886E+02  0.7816164E-02  0.1300439E+00
        -11   -1    0    0    0    0  0.00000000000E+00  0.00000000000E+00  0.45593999997E+02  0.45594000000E+02  0.51100000000E-03 0.  1.
         11   -1    0    0    0    0 -0.00000000000E+00 -0.00000000000E+00 -0.45593999997E+02  0.45594000000E+02  0.51100000000E-03 0. -1.
    9900012    2    1    2    0    0  0.16989726652E+02 -0.36579418570E+02 -0.51440446906E+01  0.50528857480E+02  0.29999992797E+02 0.  0.
        -12    1    1    2    0    0 -0.16989726652E+02  0.36579418570E+02  0.51440446906E+01  0.40659142520E+02  0.00000000000E+00 0.  1.
         11    1    3    3    0    0  0.12936259186E+02 -0.33022739602E+02 -0.33886128360E+01  0.35627669440E+02  0.51100000000E-03 0. -1.
        -11    1    3    3    0    0  0.41779158469E+01  0.12687920654E+01 -0.66960838649E+01  0.79938947651E+01  0.51100000000E-03 0.  1.
        -12    1    3    3    0    0 -0.12444838115E+00 -0.48254710341E+01  0.49406520103E+01  0.69072932751E+01  0.00000000000E+00 0.  1.
</event>
<event>
 7    1  0.1024956E-012  0.5052886E+02  0.7816164E-02  0.1300439E+00
        -11   -1    0    0    0    0  0.00000000000E+00  0.00000000000E+00  0.45593999997E+02  0.45594000000E+02  0.51100000000E-03 0.  1.
         11   -1    0    0    0    0 -0.00000000000E+00 -0.00000000000E+00 -0.45593999997E+02  0.45594000000E+02  0.51100000000E-03 0. -1.
    9900012    2    1    2    0    0  0.77495078438E+01  0.24120545561E+02 -0.31801100774E+02  0.50528860801E+02  0.30000002891E+02 0.  0.
        -12    1    1    2    0    0 -0.77495078438E+01 -0.24120545561E+02  0.31801100774E+02  0.40659139199E+02  0.00000000000E+00 0.  1.
         11    1    3    3    0    0  0.62319476424E+01  0.19760657222E+01 -0.19220771477E+02  0.20302218193E+02  0.51100000000E-03 0. -1.
        -11    1    3    3    0    0  0.29630217442E+01  0.23710710230E+02 -0.13972958324E+02  0.27680694392E+02  0.51100000000E-03 0.  1.
        -12    1    3    3    0    0 -0.14454615428E+01 -0.15662303913E+01  0.13926290264E+01  0.25459482154E+01  0.00000000000E+00 0.  1.
</event>
<event>
 7    1  0.1024956E-012  0.5052887E+02  0.7816164E-02  0.1300439E+00
        -11   -1    0    0    0    0  0.00000000000E+00  0.00000000000E+00  0.45593999997E+02  0.45594000000E+02  0.51100000000E-03 0.  1.
         11   -1    0    0    0    0 -0.00000000000E+00 -0.00000000000E+00 -0.45593999997E+02  0.45594000000E+02  0.51100000000E-03 0. -1.
    9900012    2    1    2    0    0 -0.19015062782E+02 -0.22919783796E+02 -0.27681679667E+02  0.50528874443E+02  0.30000044357E+02 0.  0.
        -12    1    1    2    0    0  0.19015062782E+02  0.22919783796E+02  0.27681679667E+02  0.40659125557E+02  0.00000000000E+00 0.  1.
         11    1    3    3    0    0 -0.13631552079E+01  0.26012824158E+01  0.20786580046E+01  0.35980107961E+01  0.51100000000E-03 0. -1.
        -11    1    3    3    0    0 -0.14173687444E+02 -0.22000864517E+02 -0.12552922116E+02  0.29025976455E+02  0.51100000000E-03 0.  1.
         12    1    3    3    0    0 -0.34782201302E+01 -0.35202016951E+01 -0.17207415556E+02  0.17904887192E+02  0.00000000000E+00 0. -1.
</event>
<event>
 7    1  0.1024956E-012  0.5052884E+02  0.7816164E-02  0.1300439E+00
        -11   -1    0    0    0    0  0.00000000000E+00  0.00000000000E+00  0.45593999997E+02  0.45594000000E+02  0.51100000000E-03 0.  1.
         11   -1    0    0    0    0 -0.00000000000E+00 -0.00000000000E+00 -0.45593999997E+02  0.45594000000E+02  0.51100000000E-03 0. -1.
    9900012    2    1    2    0    0 -0.10100478030E+02 -0.25748863166E+02 -0.29801736779E+02  0.50528842042E+02  0.29999945871E+02 0.  0.
        -12    1    1    2    0    0  0.10100478030E+02  0.25748863166E+02  0.29801736779E+02  0.40659157958E+02  0.00000000000E+00 0.  1.
         11    1    3    3    0    0 -0.13781924697E+02 -0.19222090619E+02 -0.29707455173E+02  0.37973189347E+02  0.51100000000E-03 0. -1.
        -11    1    3    3    0    0 -0.18332341591E+01 -0.19284707277E+00  0.30701477643E+01  0.35810256954E+01  0.51100000000E-03 0.  1.
         12    1    3    3    0    0  0.55146808262E+01 -0.63339254747E+01 -0.31644293708E+01  0.89746269993E+01  0.00000000000E+00 0. -1.
</event>
<event>
 7    1  0.1024956E-012  0.5052887E+02  0.7816164E-02  0.1300439E+00
        -11   -1    0    0    0    0  0.00000000000E+00  0.00000000000E+00  0.45593999997E+02  0.45594000000E+02  0.51100000000E-03 0.  1.
         11   -1    0    0    0    0 -0.00000000000E+00 -0.00000000000E+00 -0.45593999997E+02  0.45594000000E+02  0.51100000000E-03 0. -1.
    9900012    2    1    2    0    0  0.90532178889E+01  0.16289882130E+00 -0.39638086354E+02  0.50528865971E+02  0.30000018607E+02 0.  0.
        -12    1    1    2    0    0 -0.90532178889E+01 -0.16289882130E+00  0.39638086354E+02  0.40659134029E+02  0.00000000000E+00 0.  1.
         11    1    3    3    0    0  0.93263017352E+01 -0.94888786738E+01 -0.14533917096E+02  0.19704148521E+02  0.51100000000E-03 0. -1.
        -11    1    3    3    0    0  0.62534362651E+01  0.94711019666E+01 -0.16394001698E+02  0.19939170733E+02  0.51100000000E-03 0.  1.
        -12    1    3    3    0    0 -0.65265201114E+01  0.18067552854E+00 -0.87101675594E+01  0.10885546717E+02  0.00000000000E+00 0.  1.
</event>
<event>
 7    1  0.1024956E-012  0.5052884E+02  0.7816164E-02  0.1300439E+00
        -11   -1    0    0    0    0  0.00000000000E+00  0.00000000000E+00  0.45593999997E+02  0.45594000000E+02  0.51100000000E-03 0. -1.
         11   -1    0    0    0    0 -0.00000000000E+00 -0.00000000000E+00 -0.45593999997E+02  0.45594000000E+02  0.51100000000E-03 0.  1.
    9900012    2    1    2    0    0  0.23491008061E+02  0.12684366429E+02  0.30666702152E+02  0.50528840733E+02  0.29999941892E+02 0.  0.
        -12    1    1    2    0    0 -0.23491008061E+02 -0.12684366429E+02 -0.30666702152E+02  0.40659159267E+02  0.00000000000E+00 0.  1.
         11    1    3    3    0    0  0.54618077444E+01  0.55634740185E+00 -0.28590364315E+01  0.61899075797E+01  0.51100000000E-03 0. -1.
        -11    1    3    3    0    0  0.15949734664E+02 -0.66302106432E+00  0.20267990920E+02  0.25799711025E+02  0.51100000000E-03 0.  1.
        -12    1    3    3    0    0  0.20794656532E+01  0.12791040092E+02  0.13257747663E+02  0.18539222128E+02  0.00000000000E+00 0.  1.
</event>
<event>
 7    1  0.1024956E-012  0.5052884E+02  0.7816164E-02  0.1300439E+00
        -11   -1    0    0    0    0  0.00000000000E+00  0.00000000000E+00  0.45593999997E+02  0.45594000000E+02  0.51100000000E-03 0.  1.
         11   -1    0    0    0    0 -0.00000000000E+00 -0.00000000000E+00 -0.45593999997E+02  0.45594000000E+02  0.51100000000E-03 0. -1.
    9900012    2    1    2    0    0  0.19346202977E+02  0.33715488797E+02  0.11922992428E+02  0.50528837405E+02  0.29999931777E+02 0.  0.
        -12    1    1    2    0    0 -0.19346202977E+02 -0.33715488797E+02 -0.11922992428E+02  0.40659162595E+02  0.00000000000E+00 0.  1.
         11    1    3    3    0    0  0.85756287570E+01  0.68744870634E+01  0.21123787380E+01  0.11192056342E+02  0.51100000000E-03 0. -1.
        -11    1    3    3    0    0 -0.29829281712E+01  0.13379656200E+02 -0.54739707325E+01  0.14760671270E+02  0.51100000000E-03 0.  1.
        -12    1    3    3    0    0  0.13753502392E+02  0.13461345534E+02  0.15284584423E+02  0.24576109794E+02  0.00000000000E+00 0.  1.
</event>
<event>
 7    1  0.1024956E-012  0.5052886E+02  0.7816164E-02  0.1300439E+00
        -11   -1    0    0    0    0  0.00000000000E+00  0.00000000000E+00  0.45593999997E+02  0.45594000000E+02  0.51100000000E-03 0. -1.
         11   -1    0    0    0    0 -0.00000000000E+00 -0.00000000000E+00 -0.45593999997E+02  0.45594000000E+02  0.51100000000E-03 0.  1.
    9900012    2    1    2    0    0 -0.28682291273E+02 -0.17345949292E+02  0.23013260605E+02  0.50528856462E+02  0.29999989703E+02 0.  0.
        -12    1    1    2    0    0  0.28682291273E+02  0.17345949292E+02 -0.23013260605E+02  0.40659143538E+02  0.00000000000E+00 0.  1.
         11    1    3    3    0    0  0.13014984265E+01 -0.37784087633E+01  0.61155950096E+00  0.40428054889E+01  0.51100000000E-03 0. -1.
        -11    1    3    3    0    0 -0.26588992598E+02  0.14655193814E+00  0.14029063362E+02  0.30063443314E+02  0.51100000000E-03 0.  1.
        -12    1    3    3    0    0 -0.33947971018E+01 -0.13714092467E+02  0.83726377422E+01  0.16422607659E+02  0.00000000000E+00 0.  1.
</event>
<event>
 7    1  0.1024956E-012  0.5052886E+02  0.7816164E-02  0.1300439E+00
        -11   -1    0    0    0    0  0.00000000000E+00  0.00000000000E+00  0.45593999997E+02  0.45594000000E+02  0.51100000000E-03 0. -1.
         11   -1    0    0    0    0 -0.00000000000E+00 -0.00000000000E+00 -0.45593999997E+02  0.45594000000E+02  0.51100000000E-03 0.  1.
    9900012    2    1    2    0    0 -0.29648528227E+02 -0.18193984887E+02  0.21050161515E+02  0.50528860660E+02  0.30000002461E+02 0.  0.
        -12    1    1    2    0    0  0.29648528227E+02  0.18193984887E+02 -0.21050161515E+02  0.40659139340E+02  0.00000000000E+00 0.  1.
         11    1    3    3    0    0 -0.23358537884E+02 -0.20747623081E+01  0.18759903059E+02  0.30030982232E+02  0.51100000000E-03 0. -1.
        -11    1    3    3    0    0 -0.28609959960E+00  0.10414921591E+01 -0.15760699797E+01  0.19106427559E+01  0.51100000000E-03 0.  1.
         12    1    3    3    0    0 -0.60038907425E+01 -0.17160714738E+02  0.38663284357E+01  0.18587235672E+02  0.00000000000E+00 0. -1.
</event>
<event>
 7    1  0.1024956E-012  0.5052883E+02  0.7816164E-02  0.1300439E+00
        -11   -1    0    0    0    0  0.00000000000E+00  0.00000000000E+00  0.45593999997E+02  0.45594000000E+02  0.51100000000E-03 0. -1.
         11   -1    0    0    0    0 -0.00000000000E+00 -0.00000000000E+00 -0.45593999997E+02  0.45594000000E+02  0.51100000000E-03 0.  1.
    9900012    2    1    2    0    0  0.17505969428E+00  0.39752119167E+02 -0.85385231203E+01  0.50528831277E+02  0.29999913149E+02 0.  0.
        -12    1    1    2    0    0 -0.17505969428E+00 -0.39752119167E+02  0.85385231203E+01  0.40659168723E+02  0.00000000000E+00 0.  1.
         11    1    3    3    0    0 -0.34804223443E+01  0.23460076730E+02  0.13369120076E+01  0.23754491657E+02  0.51100000000E-03 0. -1.
        -11    1    3    3    0    0  0.19772668112E+00  0.12805406335E+02 -0.14968508893E+02  0.19699588472E+02  0.51100000000E-03 0.  1.
         12    1    3    3    0    0  0.34577553575E+01  0.34866361025E+01  0.50930737654E+01  0.70747511478E+01  0.00000000000E+00 0. -1.
</event>
<event>
 7    1  0.1024956E-012  0.5052886E+02  0.7816164E-02  0.1300439E+00
        -11   -1    0    0    0    0  0.00000000000E+00  0.00000000000E+00  0.45593999997E+02  0.45594000000E+02  0.51100000000E-03 0.  1.
         11   -1    0    0    0    0 -0.00000000000E+00 -0.00000000000E+00 -0.45593999997E+02  0.45594000000E+02  0.51100000000E-03 0. -1.
    9900012    2    1    2    0    0 -0.18849866211E+02  0.18866767825E+02 -0.30690277049E+02  0.50528862162E+02  0.30000007029E+02 0.  0.
        -12    1    1    2    0    0  0.18849866211E+02 -0.18866767825E+02  0.30690277049E+02  0.40659137838E+02  0.00000000000E+00 0.  1.
         11    1    3    3    0    0 -0.52751663574E+01  0.49259709029E+01 -0.20846643507E+02  0.22060714295E+02  0.51100000000E-03 0. -1.
        -11    1    3    3    0    0 -0.58798244047E+01  0.32069691218E+00  0.43690896493E+01  0.73324024824E+01  0.51100000000E-03 0.  1.
        -12    1    3    3    0    0 -0.76948754492E+01  0.13620100010E+02 -0.14212723191E+02  0.21135745385E+02  0.00000000000E+00 0.  1.
</event>
<event>
 7    1  0.1024956E-012  0.5052886E+02  0.7816164E-02  0.1300439E+00
        -11   -1    0    0    0    0  0.00000000000E+00  0.00000000000E+00  0.45593999997E+02  0.45594000000E+02  0.51100000000E-03 0.  1.
         11   -1    0    0    0    0 -0.00000000000E+00 -0.00000000000E+00 -0.45593999997E+02  0.45594000000E+02  0.51100000000E-03 0. -1.
    9900012    2    1    2    0    0 -0.64762288465E+00 -0.21429299403E+02 -0.34547526595E+02  0.50528857337E+02  0.29999992360E+02 0.  0.
        -12    1    1    2    0    0  0.64762288465E+00  0.21429299403E+02  0.34547526595E+02  0.40659142663E+02  0.00000000000E+00 0.  1.
         11    1    3    3    0    0  0.17619284922E+01 -0.24429664639E+02 -0.23217011124E+02  0.33748222356E+02  0.51100000000E-03 0. -1.
        -11    1    3    3    0    0  0.70803176765E+00  0.78819358714E+00  0.23490791437E+01  0.25769616216E+01  0.51100000000E-03 0.  1.
         12    1    3    3    0    0 -0.31175831445E+01  0.22121716491E+01 -0.13679594615E+02  0.14203673359E+02  0.00000000000E+00 0. -1.
</event>
<event>
 7    1  0.1024956E-012  0.5052886E+02  0.7816164E-02  0.1300439E+00
        -11   -1    0    0    0    0  0.00000000000E+00  0.00000000000E+00  0.45593999997E+02  0.45594000000E+02  0.51100000000E-03 0.  1.
         11   -1    0    0    0    0 -0.00000000000E+00 -0.00000000000E+00 -0.45593999997E+02  0.45594000000E+02  0.51100000000E-03 0. -1.
    9900012    2    1    2    0    0  0.23113282537E+02 -0.14613459324E+02 -0.30089679369E+02  0.50528858008E+02  0.29999994400E+02 0.  0.
        -12    1    1    2    0    0 -0.23113282537E+02  0.14613459324E+02  0.30089679369E+02  0.40659141992E+02  0.00000000000E+00 0.  1.
         11    1    3    3    0    0  0.10727187551E+02  0.63327361441E+01 -0.12912551863E+02  0.17941853185E+02  0.51100000000E-03 0. -1.
        -11    1    3    3    0    0  0.51965414396E+01 -0.32216213687E+01  0.10057686479E+01  0.61963261705E+01  0.51100000000E-03 0.  1.
         12    1    3    3    0    0  0.71895535462E+01 -0.17724574100E+02 -0.18182896153E+02  0.26390678652E+02  0.00000000000E+00 0. -1.
</event>
<event>
 7    1  0.1024956E-012  0.5052886E+02  0.7816164E-02  0.1300439E+00
        -11   -1    0    0    0    0  0.00000000000E+00  0.00000000000E+00  0.45593999997E+02  0.45594000000E+02  0.51100000000E-03 0.  1.
         11   -1    0    0    0    0 -0.00000000000E+00 -0.00000000000E+00 -0.45593999997E+02  0.45594000000E+02  0.51100000000E-03 0. -1.
    9900012    2    1    2    0    0 -0.12588953331E+02 -0.22234010913E+02 -0.31628034998E+02  0.50528860989E+02  0.30000003463E+02 0.  0.
        -12    1    1    2    0    0  0.12588953331E+02  0.22234010913E+02  0.31628034998E+02  0.40659139011E+02  0.00000000000E+00 0.  1.
         11    1    3    3    0    0 -0.81567762057E+01 -0.43918419208E+01 -0.14682754451E+02  0.17361006655E+02  0.51100000000E-03 0. -1.
        -11    1    3    3    0    0  0.44702851519E+01  0.29404746133E+01 -0.85697663096E+00  0.54188789891E+01  0.51100000000E-03 0.  1.
        -12    1    3    3    0    0 -0.89024622770E+01 -0.20782643606E+02 -0.16088303916E+02  0.27748975346E+02  0.00000000000E+00 0.  1.
</event>
<event>
 7    1  0.1024956E-012  0.5052887E+02  0.7816164E-02  0.1300439E+00
        -11   -1    0    0    0    0  0.00000000000E+00  0.00000000000E+00  0.45593999997E+02  0.45594000000E+02  0.51100000000E-03 0. -1.
         11   -1    0    0    0    0 -0.00000000000E+00 -0.00000000000E+00 -0.45593999997E+02  0.45594000000E+02  0.51100000000E-03 0.  1.
    9900012    2    1    2    0    0 -0.14459625142E+02  0.37964313356E+02  0.16719011126E+01  0.50528866940E+02  0.30000021551E+02 0.  0.
        -12    1    1    2    0    0  0.14459625142E+02 -0.37964313356E+02 -0.16719011126E+01  0.40659133060E+02  0.00000000000E+00 0.  1.
         11    1    3    3    0    0 -0.68276877281E+01  0.17475696332E+02 -0.10602710024E+02  0.21550748064E+02  0.51100000000E-03 0. -1.
        -11    1    3    3    0    0 -0.96945349540E+00  0.10397402754E+02  0.13222587501E+02  0.16848817305E+02  0.51100000000E-03 0.  1.
         12    1    3    3    0    0 -0.66624839185E+01  0.10091214271E+02 -0.94797636410E+00  0.12129301571E+02  0.00000000000E+00 0. -1.
</event>
<event>
 7    1 -0.1024956E-012  0.5052887E+02  0.7816164E-02  0.1300439E+00
        -11   -1    0    0    0    0  0.00000000000E+00  0.00000000000E+00  0.45593999997E+02  0.45594000000E+02  0.51100000000E-03 0. -1.
         11   -1    0    0    0    0 -0.00000000000E+00 -0.00000000000E+00 -0.45593999997E+02  0.45594000000E+02  0.51100000000E-03 0.  1.
    9900012    2    1    2    0    0 -0.66219226169E+01  0.27864198598E+02  0.28860028409E+02  0.50528872336E+02  0.30000037951E+02 0.  0.
        -12    1    1    2    0    0  0.66219226169E+01 -0.27864198598E+02 -0.28860028409E+02  0.40659127664E+02  0.00000000000E+00 0.  1.
         11    1    3    3    0    0 -0.83679177120E+01  0.61276454289E+01  0.24310650826E+02  0.26430622943E+02  0.51100000000E-03 0. -1.
        -11    1    3    3    0    0  0.96098190967E+00  0.52966357342E+01  0.53905386874E+01  0.76181194486E+01  0.51100000000E-03 0.  1.
         12    1    3    3    0    0  0.78501318546E+00  0.16439917435E+02 -0.84116110391E+00  0.16480129944E+02  0.00000000000E+00 0. -1.
</event>
<event>
 7    1  0.1024956E-012  0.5052886E+02  0.7816164E-02  0.1300439E+00
        -11   -1    0    0    0    0  0.00000000000E+00  0.00000000000E+00  0.45593999997E+02  0.45594000000E+02  0.51100000000E-03 0.  1.
         11   -1    0    0    0    0 -0.00000000000E+00 -0.00000000000E+00 -0.45593999997E+02  0.45594000000E+02  0.51100000000E-03 0. -1.
    9900012    2    1    2    0    0 -0.14040545092E+01  0.10600465574E+02 -0.39227855587E+02  0.50528857197E+02  0.29999991937E+02 0.  0.
        -12    1    1    2    0    0  0.14040545092E+01 -0.10600465574E+02  0.39227855587E+02  0.40659142803E+02  0.00000000000E+00 0.  1.
         11    1    3    3    0    0  0.52472404620E+01  0.42484997330E+00 -0.25733855111E+02  0.26266810409E+02  0.51100000000E-03 0. -1.
        -11    1    3    3    0    0 -0.11965731753E+02  0.60558539992E+01 -0.95858751539E+01  0.16484571780E+02  0.51100000000E-03 0.  1.
         12    1    3    3    0    0  0.53144367819E+01  0.41197616014E+01 -0.39081253230E+01  0.77774750081E+01  0.00000000000E+00 0. -1.
</event>
<event>
 7    1  0.1024956E-012  0.5052886E+02  0.7816164E-02  0.1300439E+00
        -11   -1    0    0    0    0  0.00000000000E+00  0.00000000000E+00  0.45593999997E+02  0.45594000000E+02  0.51100000000E-03 0.  1.
         11   -1    0    0    0    0 -0.00000000000E+00 -0.00000000000E+00 -0.45593999997E+02  0.45594000000E+02  0.51100000000E-03 0. -1.
    9900012    2    1    2    0    0 -0.17189399304E+02  0.21918124577E+02 -0.29619010375E+02  0.50528863155E+02  0.30000010045E+02 0.  0.
        -12    1    1    2    0    0  0.17189399304E+02 -0.21918124577E+02  0.29619010375E+02  0.40659136845E+02  0.00000000000E+00 0.  1.
         11    1    3    3    0    0 -0.22487232888E+02  0.18804087847E+02 -0.17170398483E+02  0.33971928809E+02  0.51100000000E-03 0. -1.
        -11    1    3    3    0    0  0.15455387548E+01  0.59834406961E+01 -0.74495986911E+01  0.96791928138E+01  0.51100000000E-03 0.  1.
         12    1    3    3    0    0  0.37522948289E+01 -0.28694039654E+01 -0.49990132008E+01  0.68777415320E+01  0.00000000000E+00 0. -1.
</event>
<event>
 7    1  0.1024956E-012  0.5052886E+02  0.7816164E-02  0.1300439E+00
        -11   -1    0    0    0    0  0.00000000000E+00  0.00000000000E+00  0.45593999997E+02  0.45594000000E+02  0.51100000000E-03 0.  1.
         11   -1    0    0    0    0 -0.00000000000E+00 -0.00000000000E+00 -0.45593999997E+02  0.45594000000E+02  0.51100000000E-03 0. -1.
    9900012    2    1    2    0    0  0.22956058609E+02  0.17915165489E+02 -0.28376605536E+02  0.50528861752E+02  0.30000005782E+02 0.  0.
        -12    1    1    2    0    0 -0.22956058609E+02 -0.17915165489E+02  0.28376605536E+02  0.40659138248E+02  0.00000000000E+00 0.  1.
         11    1    3    3    0    0 -0.66056243258E+00  0.90558747973E+01  0.18830409793E+01  0.92731361827E+01  0.51100000000E-03 0.  1.
        -11    1    3    3    0    0  0.76647934051E+01  0.89021824247E+01 -0.16071400240E+02  0.19906979072E+02  0.51100000000E-03 0. -1.
         12    1    3    3    0    0  0.15951827636E+02 -0.42891733430E-01 -0.14188246275E+02  0.21348746497E+02  0.00000000000E+00 0. -1.
</event>
<event>
 7    1  0.1024956E-012  0.5052886E+02  0.7816164E-02  0.1300439E+00
        -11   -1    0    0    0    0  0.00000000000E+00  0.00000000000E+00  0.45593999997E+02  0.45594000000E+02  0.51100000000E-03 0. -1.
         11   -1    0    0    0    0 -0.00000000000E+00 -0.00000000000E+00 -0.45593999997E+02  0.45594000000E+02  0.51100000000E-03 0.  1.
    9900012    2    1    2    0    0  0.31626307916E+02  0.51951557099E+01  0.25019051098E+02  0.50528856956E+02  0.29999991203E+02 0.  0.
        -12    1    1    2    0    0 -0.31626307916E+02 -0.51951557099E+01 -0.25019051098E+02  0.40659143044E+02  0.00000000000E+00 0.  1.
         11    1    3    3    0    0  0.14071819290E+02 -0.76726806974E+01  0.18551842955E+02  0.24516463948E+02  0.51100000000E-03 0. -1.
        -11    1    3    3    0    0 -0.15149294434E+00 -0.91467267894E+00  0.32076744251E+01  0.33389746480E+01  0.51100000000E-03 0.  1.
         12    1    3    3    0    0  0.17705981570E+02  0.13782509086E+02  0.32595337182E+01  0.22673418360E+02  0.00000000000E+00 0. -1.
</event>
<event>
 7    1  0.1024956E-012  0.5052892E+02  0.7816164E-02  0.1300439E+00
        -11   -1    0    0    0    0  0.00000000000E+00  0.00000000000E+00  0.45593999997E+02  0.45594000000E+02  0.51100000000E-03 0. -1.
         11   -1    0    0    0    0 -0.00000000000E+00 -0.00000000000E+00 -0.45593999997E+02  0.45594000000E+02  0.51100000000E-03 0.  1.
    9900012    2    1    2    0    0  0.28377676395E+02 -0.64845570642E+01  0.28386940510E+02  0.50528924882E+02  0.30000197671E+02 0.  0.
        -12    1    1    2    0    0 -0.28377676395E+02  0.64845570642E+01 -0.28386940510E+02  0.40659075118E+02  0.00000000000E+00 0.  1.
         11    1    3    3    0    0  0.54133238261E+01  0.37352715793E+01 -0.40862031420E+01  0.77429571222E+01  0.51100000000E-03 0. -1.
        -11    1    3    3    0    0  0.19425973365E+02 -0.32396089006E+01  0.26080003916E+02  0.32680729973E+02  0.51100000000E-03 0.  1.
         12    1    3    3    0    0  0.35383792041E+01 -0.69802197429E+01  0.63931397357E+01  0.10105237787E+02  0.00000000000E+00 0. -1.
</event>
<event>
 7    1  0.1084917E-012  0.5052886E+02  0.7816164E-02  0.1300439E+00
        -11   -1    0    0    0    0  0.00000000000E+00  0.00000000000E+00  0.45593999997E+02  0.45594000000E+02  0.51100000000E-03 0.  1.
         11   -1    0    0    0    0 -0.00000000000E+00 -0.00000000000E+00 -0.45593999997E+02  0.45594000000E+02  0.51100000000E-03 0. -1.
    9900012    2    1    2    0    0 -0.60992737888E+01  0.31417187852E+02 -0.25078368621E+02  0.50528863192E+02  0.30000010158E+02 0.  0.
        -12    1    1    2    0    0  0.60992737888E+01 -0.31417187852E+02  0.25078368621E+02  0.40659136808E+02  0.00000000000E+00 0.  1.
         11    1    3    3    0    0 -0.18562687628E+00  0.18926720093E+02 -0.20572027858E+02  0.27954669043E+02  0.51100000000E-03 0. -1.
        -11    1    3    3    0    0 -0.11826515217E+02  0.67097127999E+01 -0.11363913448E+01  0.13644709362E+02  0.51100000000E-03 0.  1.
        -12    1    3    3    0    0  0.59128683044E+01  0.57807549590E+01 -0.33699494180E+01  0.89294847870E+01  0.00000000000E+00 0.  1.
</event>
<event>
 7    1  0.1024956E-012  0.5052885E+02  0.7816164E-02  0.1300439E+00
        -11   -1    0    0    0    0  0.00000000000E+00  0.00000000000E+00  0.45593999997E+02  0.45594000000E+02  0.51100000000E-03 0. -1.
         11   -1    0    0    0    0 -0.00000000000E+00 -0.00000000000E+00 -0.45593999997E+02  0.45594000000E+02  0.51100000000E-03 0.  1.
    9900012    2    1    2    0    0 -0.18722381485E+02  0.35984682998E+02  0.27822904212E+01  0.50528854425E+02  0.29999983509E+02 0.  0.
        -12    1    1    2    0    0  0.18722381485E+02 -0.35984682998E+02 -0.27822904212E+01  0.40659145575E+02  0.00000000000E+00 0.  1.
         11    1    3    3    0    0 -0.23170495134E+02  0.17220883961E+02 -0.13011035344E+01  0.28898504457E+02  0.51100000000E-03 0. -1.
        -11    1    3    3    0    0  0.12470195544E+01  0.15653095640E+02  0.18457105895E+00  0.15703774312E+02  0.51100000000E-03 0.  1.
         12    1    3    3    0    0  0.32010940954E+01  0.31107033966E+01  0.38988228966E+01  0.59265756562E+01  0.00000000000E+00 0. -1.
</event>
<event>
 7    1  0.1024956E-012  0.5052886E+02  0.7816164E-02  0.1300439E+00
        -11   -1    0    0    0    0  0.00000000000E+00  0.00000000000E+00  0.45593999997E+02  0.45594000000E+02  0.51100000000E-03 0. -1.
         11   -1    0    0    0    0 -0.00000000000E+00 -0.00000000000E+00 -0.45593999997E+02  0.45594000000E+02  0.51100000000E-03 0.  1.
    9900012    2    1    2    0    0  0.38777647178E+02 -0.35114598737E+00  0.12220329322E+02  0.50528859909E+02  0.30000000180E+02 0.  0.
        -12    1    1    2    0    0 -0.38777647178E+02  0.35114598737E+00 -0.12220329322E+02  0.40659140091E+02  0.00000000000E+00 0.  1.
         11    1    3    3    0    0  0.19119629009E+02 -0.62458210368E+01  0.15312540234E+02  0.25279327177E+02  0.51100000000E-03 0. -1.
        -11    1    3    3    0    0  0.14935755732E+02  0.10369288096E+00 -0.73528576499E+01  0.16647884772E+02  0.51100000000E-03 0.  1.
        -12    1    3    3    0    0  0.47222624376E+01  0.57909821685E+01  0.42606467380E+01  0.86016479602E+01  0.00000000000E+00 0.  1.
</event>
<event>
 7    1  0.1024956E-012  0.5052887E+02  0.7816164E-02  0.1300439E+00
        -11   -1    0    0    0    0  0.00000000000E+00  0.00000000000E+00  0.45593999997E+02  0.45594000000E+02  0.51100000000E-03 0. -1.
         11   -1    0    0    0    0 -0.00000000000E+00 -0.00000000000E+00 -0.45593999997E+02  0.45594000000E+02  0.51100000000E-03 0.  1.
    9900012    2    1    2    0    0  0.20001099821E+02 -0.16155173234E+02  0.31498109929E+02  0.50528873775E+02  0.30000042327E+02 0.  0.
        -12    1    1    2    0    0 -0.20001099821E+02  0.16155173234E+02 -0.31498109929E+02  0.40659126225E+02  0.00000000000E+00 0.  1.
         11    1    3    3    0    0  0.15389060636E+02 -0.60464945918E+01  0.33813566742E+02  0.37639614506E+02  0.51100000000E-03 0. -1.
        -11    1    3    3    0    0  0.51328284327E+01 -0.10633560722E+02 -0.26112946712E+01  0.12092865726E+02  0.51100000000E-03 0.  1.
         12    1    3    3    0    0 -0.52078924717E+00  0.52488207998E+00  0.29583785859E+00  0.79639354369E+00  0.00000000000E+00 0. -1.
</event>
<event>
 7    1  0.1024956E-012  0.5052886E+02  0.7816164E-02  0.1300439E+00
        -11   -1    0    0    0    0  0.00000000000E+00  0.00000000000E+00  0.45593999997E+02  0.45594000000E+02  0.51100000000E-03 0.  1.
         11   -1    0    0    0    0 -0.00000000000E+00 -0.00000000000E+00 -0.45593999997E+02  0.45594000000E+02  0.51100000000E-03 0. -1.
    9900012    2    1    2    0    0 -0.13141166642E+02 -0.22715442693E+02 -0.31056143158E+02  0.50528860495E+02  0.30000001961E+02 0.  0.
        -12    1    1    2    0    0  0.13141166642E+02  0.22715442693E+02  0.31056143158E+02  0.40659139505E+02  0.00000000000E+00 0.  1.
         11    1    3    3    0    0  0.43563577163E+01  0.30823027218E+01 -0.80691923920E+01  0.96742084298E+01  0.51100000000E-03 0. -1.
        -11    1    3    3    0    0 -0.94690777471E+01 -0.10130233127E+02 -0.29399859629E+01  0.14174927665E+02  0.51100000000E-03 0.  1.
         12    1    3    3    0    0 -0.80284466116E+01 -0.15667512287E+02 -0.20046964803E+02  0.26679724400E+02  0.00000000000E+00 0. -1.
</event>
<event>
 7    1  0.1024956E-012  0.5052886E+02  0.7816164E-02  0.1300439E+00
        -11   -1    0    0    0    0  0.00000000000E+00  0.00000000000E+00  0.45593999997E+02  0.45594000000E+02  0.51100000000E-03 0.  1.
         11   -1    0    0    0    0 -0.00000000000E+00 -0.00000000000E+00 -0.45593999997E+02  0.45594000000E+02  0.51100000000E-03 0. -1.
    9900012    2    1    2    0    0 -0.24244292888E+02  0.10838789295E+02 -0.30787993265E+02  0.50528860556E+02  0.30000002147E+02 0.  0.
        -12    1    1    2    0    0  0.24244292888E+02 -0.10838789295E+02  0.30787993265E+02  0.40659139444E+02  0.00000000000E+00 0.  1.
         11    1    3    3    0    0 -0.15950218148E+02  0.75732834074E+01 -0.16987851503E+02  0.24502064801E+02  0.51100000000E-03 0. -1.
        -11    1    3    3    0    0  0.18936982223E+01  0.97266800044E+01 -0.50366831854E+01  0.11115870395E+02  0.51100000000E-03 0.  1.
         12    1    3    3    0    0 -0.10187772962E+02 -0.64611741169E+01 -0.87634585766E+01  0.14910925361E+02  0.00000000000E+00 0. -1.
</event>
<event>
 7    1  0.1024956E-012  0.5052886E+02  0.7816164E-02  0.1300439E+00
        -11   -1    0    0    0    0  0.00000000000E+00  0.00000000000E+00  0.45593999997E+02  0.45594000000E+02  0.51100000000E-03 0.  1.
         11   -1    0    0    0    0 -0.00000000000E+00 -0.00000000000E+00 -0.45593999997E+02  0.45594000000E+02  0.51100000000E-03 0. -1.
    9900012    2    1    2    0    0  0.17683522155E+02  0.47703202165E+00 -0.36609170952E+02  0.50528856955E+02  0.29999991200E+02 0.  0.
        -12    1    1    2    0    0 -0.17683522155E+02 -0.47703202165E+00  0.36609170952E+02  0.40659143045E+02  0.00000000000E+00 0.  1.
         11    1    3    3    0    0  0.21663981410E+02  0.61825150207E+01 -0.22326201876E+02  0.31717674457E+02  0.51100000000E-03 0. -1.
        -11    1    3    3    0    0 -0.60383627314E+01 -0.41045298455E+01 -0.14459057428E+02  0.16197942206E+02  0.51100000000E-03 0.  1.
        -12    1    3    3    0    0  0.20579034763E+01 -0.16009531535E+01  0.17608835130E+00  0.26132402922E+01  0.00000000000E+00 0.  1.
</event>
<event>
 7    1  0.1024956E-012  0.5052886E+02  0.7816164E-02  0.1300439E+00
        -11   -1    0    0    0    0  0.00000000000E+00  0.00000000000E+00  0.45593999997E+02  0.45594000000E+02  0.51100000000E-03 0.  1.
         11   -1    0    0    0    0 -0.00000000000E+00 -0.00000000000E+00 -0.45593999997E+02  0.45594000000E+02  0.51100000000E-03 0. -1.
    9900012    2    1    2    0    0  0.10093040953E+02  0.10701208907E+02 -0.37904886788E+02  0.50528858468E+02  0.29999995799E+02 0.  0.
        -12    1    1    2    0    0 -0.10093040953E+02 -0.10701208907E+02  0.37904886788E+02  0.40659141532E+02  0.00000000000E+00 0.  1.
         11    1    3    3    0    0 -0.57718671710E+01 -0.26087379647E+01 -0.92357853921E+00  0.64010125752E+01  0.51100000000E-03 0.  1.
        -11    1    3    3    0    0  0.15841546668E+00 -0.18145739284E+01 -0.10624490474E+01  0.21086896977E+01  0.51100000000E-03 0. -1.
         12    1    3    3    0    0  0.15706492658E+02  0.15124520800E+02 -0.35918859201E+02  0.42019156195E+02  0.00000000000E+00 0. -1.
</event>
<event>
 7    1  0.1024956E-012  0.5052881E+02  0.7816164E-02  0.1300439E+00
        -11   -1    0    0    0    0  0.00000000000E+00  0.00000000000E+00  0.45593999997E+02  0.45594000000E+02  0.51100000000E-03 0.  1.
         11   -1    0    0    0    0 -0.00000000000E+00 -0.00000000000E+00 -0.45593999997E+02  0.45594000000E+02  0.51100000000E-03 0. -1.
    9900012    2    1    2    0    0  0.25345535457E+02 -0.64592291965E+01 -0.31129594617E+02  0.50528813209E+02  0.29999858231E+02 0.  0.
        -12    1    1    2    0    0 -0.25345535457E+02  0.64592291965E+01  0.31129594617E+02  0.40659186791E+02  0.00000000000E+00 0.  1.
         11    1    3    3    0    0  0.63989782080E+00 -0.43089528674E+01 -0.12428884996E+02  0.13170183239E+02  0.51100000000E-03 0. -1.
        -11    1    3    3    0    0  0.27429545880E+02  0.95695315534E+00 -0.13136770712E+02  0.30428120078E+02  0.51100000000E-03 0.  1.
        -12    1    3    3    0    0 -0.27239082429E+01 -0.31072294845E+01 -0.55639389091E+01  0.69305098924E+01  0.00000000000E+00 0.  1.
</event>
<event>
 7    1  0.1024956E-012  0.5052886E+02  0.7816164E-02  0.1300439E+00
        -11   -1    0    0    0    0  0.00000000000E+00  0.00000000000E+00  0.45593999997E+02  0.45594000000E+02  0.51100000000E-03 0.  1.
         11   -1    0    0    0    0 -0.00000000000E+00 -0.00000000000E+00 -0.45593999997E+02  0.45594000000E+02  0.51100000000E-03 0. -1.
    9900012    2    1    2    0    0 -0.16015774126E+02  0.26164579665E+02 -0.26684740042E+02  0.50528860793E+02  0.30000002867E+02 0.  0.
        -12    1    1    2    0    0  0.16015774126E+02 -0.26164579665E+02  0.26684740042E+02  0.40659139207E+02  0.00000000000E+00 0.  1.
         11    1    3    3    0    0 -0.87402913506E+01  0.19654927470E+02 -0.28608270963E+02  0.35793044499E+02  0.51100000000E-03 0. -1.
        -11    1    3    3    0    0 -0.21269355983E+01 -0.11752172219E+01 -0.33112168200E+01  0.41072067939E+01  0.51100000000E-03 0.  1.
         12    1    3    3    0    0 -0.51485471774E+01  0.76848694173E+01  0.52347477408E+01  0.10628609500E+02  0.00000000000E+00 0. -1.
</event>
<event>
 7    1  0.1024956E-012  0.5052889E+02  0.7816164E-02  0.1300439E+00
        -11   -1    0    0    0    0  0.00000000000E+00  0.00000000000E+00  0.45593999997E+02  0.45594000000E+02  0.51100000000E-03 0.  1.
         11   -1    0    0    0    0 -0.00000000000E+00 -0.00000000000E+00 -0.45593999997E+02  0.45594000000E+02  0.51100000000E-03 0. -1.
    9900012    2    1    2    0    0 -0.79470677716E+01  0.31823971669E+02 -0.24025864289E+02  0.50528890150E+02  0.30000092099E+02 0.  0.
        -12    1    1    2    0    0  0.79470677716E+01 -0.31823971669E+02  0.24025864289E+02  0.40659109850E+02  0.00000000000E+00 0.  1.
         11    1    3    3    0    0 -0.61924841683E+01  0.25334446571E+02 -0.15809383845E+02  0.30497830432E+02  0.51100000000E-03 0. -1.
        -11    1    3    3    0    0 -0.24977342735E+01  0.42769692053E+00 -0.12381916913E+02  0.12638570641E+02  0.51100000000E-03 0.  1.
         12    1    3    3    0    0  0.74315067014E+00  0.60618281777E+01  0.41654364684E+01  0.73924890765E+01  0.00000000000E+00 0. -1.
</event>
<event>
 7    1  0.1024956E-012  0.5052885E+02  0.7816164E-02  0.1300439E+00
        -11   -1    0    0    0    0  0.00000000000E+00  0.00000000000E+00  0.45593999997E+02  0.45594000000E+02  0.51100000000E-03 0. -1.
         11   -1    0    0    0    0 -0.00000000000E+00 -0.00000000000E+00 -0.45593999997E+02  0.45594000000E+02  0.51100000000E-03 0.  1.
    9900012    2    1    2    0    0 -0.19030870048E+02 -0.35595768211E+02 -0.48922171477E+01  0.50528849518E+02  0.29999968594E+02 0.  0.
        -12    1    1    2    0    0  0.19030870048E+02  0.35595768211E+02  0.48922171477E+01  0.40659150482E+02  0.00000000000E+00 0.  1.
         11    1    3    3    0    0 -0.16510167401E+02 -0.15948454004E+02  0.67523158018E+01  0.23927653075E+02  0.51100000000E-03 0. -1.
        -11    1    3    3    0    0 -0.47706079767E+01 -0.16905618464E+02 -0.13898182785E+02  0.22399065183E+02  0.51100000000E-03 0.  1.
        -12    1    3    3    0    0  0.22499053296E+01 -0.27416957439E+01  0.22536498354E+01  0.42021312598E+01  0.00000000000E+00 0.  1.
</event>
<event>
 7    1  0.1024956E-012  0.5052887E+02  0.7816164E-02  0.1300439E+00
        -11   -1    0    0    0    0  0.00000000000E+00  0.00000000000E+00  0.45593999997E+02  0.45594000000E+02  0.51100000000E-03 0.  1.
         11   -1    0    0    0    0 -0.00000000000E+00 -0.00000000000E+00 -0.45593999997E+02  0.45594000000E+02  0.51100000000E-03 0. -1.
    9900012    2    1    2    0    0 -0.47330297082E+01  0.36773891772E+02 -0.16686657211E+02  0.50528865538E+02  0.30000017290E+02 0.  0.
        -12    1    1    2    0    0  0.47330297082E+01 -0.36773891772E+02  0.16686657211E+02  0.40659134462E+02  0.00000000000E+00 0.  1.
         11    1    3    3    0    0  0.13415745997E+01  0.63110868342E-01  0.29310560545E+01  0.32241115433E+01  0.51100000000E-03 0.  1.
        -11    1    3    3    0    0 -0.33676558898E+01  0.36260466692E+02 -0.10672644534E+02  0.37948226474E+02  0.51100000000E-03 0. -1.
        -12    1    3    3    0    0 -0.27069484181E+01  0.45031421194E+00 -0.89450687324E+01  0.93565275212E+01  0.00000000000E+00 0.  1.
</event>
<event>
 7    1  0.1024956E-012  0.5052886E+02  0.7816164E-02  0.1300439E+00
        -11   -1    0    0    0    0  0.00000000000E+00  0.00000000000E+00  0.45593999997E+02  0.45594000000E+02  0.51100000000E-03 0. -1.
         11   -1    0    0    0    0 -0.00000000000E+00 -0.00000000000E+00 -0.45593999997E+02  0.45594000000E+02  0.51100000000E-03 0.  1.
    9900012    2    1    2    0    0  0.34199704222E+02  0.64639125593E+01  0.21018169274E+02  0.50528863584E+02  0.30000011351E+02 0.  0.
        -12    1    1    2    0    0 -0.34199704222E+02 -0.64639125593E+01 -0.21018169274E+02  0.40659136416E+02  0.00000000000E+00 0.  1.
         11    1    3    3    0    0  0.71339231170E+01  0.13272134792E+01  0.18662445018E+02  0.20023516399E+02  0.51100000000E-03 0. -1.
        -11    1    3    3    0    0  0.82631515347E+01  0.57986215790E+01 -0.36831533162E+01  0.10745664433E+02  0.51100000000E-03 0.  1.
         12    1    3    3    0    0  0.18802629570E+02 -0.66192249885E+00  0.60388775725E+01  0.19759682752E+02  0.00000000000E+00 0. -1.
</event>
<event>
 7    1  0.1024956E-012  0.5052887E+02  0.7816164E-02  0.1300439E+00
        -11   -1    0    0    0    0  0.00000000000E+00  0.00000000000E+00  0.45593999997E+02  0.45594000000E+02  0.51100000000E-03 0.  1.
         11   -1    0    0    0    0 -0.00000000000E+00 -0.00000000000E+00 -0.45593999997E+02  0.45594000000E+02  0.51100000000E-03 0. -1.
    9900012    2    1    2    0    0 -0.19017888275E+02  0.11114449294E+02 -0.34175341461E+02  0.50528867919E+02  0.30000024527E+02 0.  0.
        -12    1    1    2    0    0  0.19017888275E+02 -0.11114449294E+02  0.34175341461E+02  0.40659132081E+02  0.00000000000E+00 0.  1.
         11    1    3    3    0    0 -0.79013488461E+01 -0.39989976627E+01 -0.13671159580E+02  0.16288766080E+02  0.51100000000E-03 0.  1.
        -11    1    3    3    0    0 -0.71235508407E+01  0.18153537914E+02 -0.85845445032E+01  0.21307048598E+02  0.51100000000E-03 0. -1.
         12    1    3    3    0    0 -0.39929885886E+01 -0.30400909573E+01 -0.11919637378E+02  0.12933053241E+02  0.00000000000E+00 0. -1.
</event>
<event>
 7    1  0.1024956E-012  0.5052887E+02  0.7816164E-02  0.1300439E+00
        -11   -1    0    0    0    0  0.00000000000E+00  0.00000000000E+00  0.45593999997E+02  0.45594000000E+02  0.51100000000E-03 0.  1.
         11   -1    0    0    0    0 -0.00000000000E+00 -0.00000000000E+00 -0.45593999997E+02  0.45594000000E+02  0.51100000000E-03 0. -1.
    9900012    2    1    2    0    0 -0.30938866104E+02 -0.20222711973E+02 -0.16940877937E+02  0.50528869899E+02  0.30000030544E+02 0.  0.
        -12    1    1    2    0    0  0.30938866104E+02  0.20222711973E+02  0.16940877937E+02  0.40659130101E+02  0.00000000000E+00 0.  1.
         11    1    3    3    0    0  0.19284825423E+01 -0.67052248571E+00 -0.70241058316E+00  0.21591725749E+01  0.51100000000E-03 0. -1.
        -11    1    3    3    0    0 -0.30732965215E+02 -0.14755753987E+02 -0.31134031958E+01  0.34233619533E+02  0.51100000000E-03 0.  1.
        -12    1    3    3    0    0 -0.21343834312E+01 -0.47964354999E+01 -0.13125064158E+02  0.14136077790E+02  0.00000000000E+00 0.  1.
</event>
<event>
 7    1  0.1024956E-012  0.5052892E+02  0.7816164E-02  0.1300439E+00
        -11   -1    0    0    0    0  0.00000000000E+00  0.00000000000E+00  0.45593999997E+02  0.45594000000E+02  0.51100000000E-03 0.  1.
         11   -1    0    0    0    0 -0.00000000000E+00 -0.00000000000E+00 -0.45593999997E+02  0.45594000000E+02  0.51100000000E-03 0. -1.
    9900012    2    1    2    0    0  0.26653851818E+02  0.30579032845E+02 -0.27668443713E+01  0.50528923594E+02  0.30000193755E+02 0.  0.
        -12    1    1    2    0    0 -0.26653851818E+02 -0.30579032845E+02  0.27668443713E+01  0.40659076406E+02  0.00000000000E+00 0.  1.
         11    1    3    3    0    0  0.71297534296E+01  0.93700152716E+01 -0.14386716901E+02  0.18590540434E+02  0.51100000000E-03 0. -1.
        -11    1    3    3    0    0  0.54817807190E+01  0.10530096738E+02  0.66634132543E+01  0.13613740618E+02  0.51100000000E-03 0.  1.
         12    1    3    3    0    0  0.14042317669E+02  0.10678920835E+02  0.49564592757E+01  0.18324642542E+02  0.00000000000E+00 0. -1.
</event>
<event>
 7    1  0.1024956E-012  0.5052885E+02  0.7816164E-02  0.1300439E+00
        -11   -1    0    0    0    0  0.00000000000E+00  0.00000000000E+00  0.45593999997E+02  0.45594000000E+02  0.51100000000E-03 0. -1.
         11   -1    0    0    0    0 -0.00000000000E+00 -0.00000000000E+00 -0.45593999997E+02  0.45594000000E+02  0.51100000000E-03 0.  1.
    9900012    2    1    2    0    0  0.11981008416E+01  0.29811705149E+02  0.27622328361E+02  0.50528853015E+02  0.29999979223E+02 0.  0.
        -12    1    1    2    0    0 -0.11981008416E+01 -0.29811705149E+02 -0.27622328361E+02  0.40659146985E+02  0.00000000000E+00 0.  1.
         11    1    3    3    0    0 -0.27993960179E+01  0.87071007582E+01  0.16154277468E+02  0.18563698512E+02  0.51100000000E-03 0. -1.
        -11    1    3    3    0    0  0.25370955206E+01 -0.14290590672E+01 -0.37404203039E+01  0.47402328855E+01  0.51100000000E-03 0.  1.
         12    1    3    3    0    0  0.14604013389E+01  0.22533663458E+02  0.15208471197E+02  0.27224921617E+02  0.00000000000E+00 0. -1.
</event>
<event>
 7    1  0.1024956E-012  0.5052886E+02  0.7816164E-02  0.1300439E+00
        -11   -1    0    0    0    0  0.00000000000E+00  0.00000000000E+00  0.45593999997E+02  0.45594000000E+02  0.51100000000E-03 0.  1.
         11   -1    0    0    0    0 -0.00000000000E+00 -0.00000000000E+00 -0.45593999997E+02  0.45594000000E+02  0.51100000000E-03 0. -1.
    9900012    2    1    2    0    0 -0.28286601098E+01 -0.35643425553E+02 -0.19357440412E+02  0.50528860776E+02  0.30000002814E+02 0.  0.
        -12    1    1    2    0    0  0.28286601098E+01  0.35643425553E+02  0.19357440412E+02  0.40659139224E+02  0.00000000000E+00 0.  1.
         11    1    3    3    0    0  0.43854865818E+01 -0.81159331861E+01 -0.59007518786E+01  0.10950787051E+02  0.51100000000E-03 0. -1.
        -11    1    3    3    0    0 -0.12309243834E+02 -0.14720641134E+02 -0.16677628099E+02  0.25423572495E+02  0.51100000000E-03 0.  1.
        -12    1    3    3    0    0  0.50950971420E+01 -0.12806851233E+02  0.32209395654E+01  0.14154501230E+02  0.00000000000E+00 0.  1.
</event>
<event>
 7    1  0.1024956E-012  0.5052886E+02  0.7816164E-02  0.1300439E+00
        -11   -1    0    0    0    0  0.00000000000E+00  0.00000000000E+00  0.45593999997E+02  0.45594000000E+02  0.51100000000E-03 0.  1.
         11   -1    0    0    0    0 -0.00000000000E+00 -0.00000000000E+00 -0.45593999997E+02  0.45594000000E+02  0.51100000000E-03 0. -1.
    9900012    2    1    2    0    0  0.36702620202E+02 -0.13844800650E+02 -0.10696025117E+02  0.50528858494E+02  0.29999995878E+02 0.  0.
        -12    1    1    2    0    0 -0.36702620202E+02  0.13844800650E+02  0.10696025117E+02  0.40659141506E+02  0.00000000000E+00 0.  1.
         11    1    3    3    0    0  0.11844831740E+02  0.64852989053E+01 -0.32882181247E+01  0.13898615742E+02  0.51100000000E-03 0. -1.
        -11    1    3    3    0    0  0.15259431178E+02 -0.18232987443E+02 -0.10963447295E+02  0.26181849587E+02  0.51100000000E-03 0.  1.
         12    1    3    3    0    0  0.95983572842E+01 -0.20971121120E+01  0.35556403024E+01  0.10448393165E+02  0.00000000000E+00 0. -1.
</event>
<event>
 7    1  0.1024956E-012  0.5052886E+02  0.7816164E-02  0.1300439E+00
        -11   -1    0    0    0    0  0.00000000000E+00  0.00000000000E+00  0.45593999997E+02  0.45594000000E+02  0.51100000000E-03 0.  1.
         11   -1    0    0    0    0 -0.00000000000E+00 -0.00000000000E+00 -0.45593999997E+02  0.45594000000E+02  0.51100000000E-03 0. -1.
    9900012    2    1    2    0    0 -0.31178746664E+02  0.24075245294E+02 -0.10071456173E+02  0.50528857007E+02  0.29999991358E+02 0.  0.
        -12    1    1    2    0    0  0.31178746664E+02 -0.24075245294E+02  0.10071456173E+02  0.40659142993E+02  0.00000000000E+00 0.  1.
         11    1    3    3    0    0 -0.22297634624E+02  0.23901151918E+02 -0.16470798508E+02  0.36602414901E+02  0.51100000000E-03 0. -1.
        -11    1    3    3    0    0  0.17112034088E+01  0.39075085464E-01  0.14074641090E+01  0.22160098032E+01  0.51100000000E-03 0.  1.
         12    1    3    3    0    0 -0.10592315448E+02  0.13501829049E+00  0.49918782257E+01  0.11710432302E+02  0.00000000000E+00 0. -1.
</event>
<event>
 7    1  0.1024956E-012  0.5052886E+02  0.7816164E-02  0.1300439E+00
        -11   -1    0    0    0    0  0.00000000000E+00  0.00000000000E+00  0.45593999997E+02  0.45594000000E+02  0.51100000000E-03 0. -1.
         11   -1    0    0    0    0 -0.00000000000E+00 -0.00000000000E+00 -0.45593999997E+02  0.45594000000E+02  0.51100000000E-03 0.  1.
    9900012    2    1    2    0    0 -0.29665509469E+01 -0.10164849214E+02  0.39256101050E+02  0.50528855226E+02  0.29999985946E+02 0.  0.
        -12    1    1    2    0    0  0.29665509469E+01  0.10164849214E+02 -0.39256101050E+02  0.40659144774E+02  0.00000000000E+00 0.  1.
         11    1    3    3    0    0 -0.14677179396E+01 -0.65208061631E+01  0.42168778426E+02  0.42695210307E+02  0.51100000000E-03 0. -1.
        -11    1    3    3    0    0 -0.36224782634E+01 -0.34629994833E+01 -0.26978574231E+01  0.56914979687E+01  0.51100000000E-03 0.  1.
         12    1    3    3    0    0  0.21236452562E+01 -0.18104356738E+00 -0.21481995237E+00  0.21421469509E+01  0.00000000000E+00 0. -1.
</event>
<event>
 7    1  0.1024956E-012  0.5052886E+02  0.7816164E-02  0.1300439E+00
        -11   -1    0    0    0    0  0.00000000000E+00  0.00000000000E+00  0.45593999997E+02  0.45594000000E+02  0.51100000000E-03 0. -1.
         11   -1    0    0    0    0 -0.00000000000E+00 -0.00000000000E+00 -0.45593999997E+02  0.45594000000E+02  0.51100000000E-03 0.  1.
    9900012    2    1    2    0    0  0.29030800216E+02  0.22169590125E+02 -0.17857416494E+02  0.50528863126E+02  0.30000009958E+02 0.  0.
        -12    1    1    2    0    0 -0.29030800216E+02 -0.22169590125E+02  0.17857416494E+02  0.40659136874E+02  0.00000000000E+00 0.  1.
         11    1    3    3    0    0  0.15134221365E+02  0.69612283681E+01  0.30624597181E+00  0.16661246759E+02  0.51100000000E-03 0. -1.
        -11    1    3    3    0    0 -0.17560558305E+01  0.12547920624E+02 -0.89268742105E+01  0.15499133121E+02  0.51100000000E-03 0.  1.
        -12    1    3    3    0    0  0.15652634682E+02  0.26604411331E+01 -0.92367882556E+01  0.18368483246E+02  0.00000000000E+00 0.  1.
</event>
<event>
 7    1  0.1024956E-012  0.5052882E+02  0.7816164E-02  0.1300439E+00
        -11   -1    0    0    0    0  0.00000000000E+00  0.00000000000E+00  0.45593999997E+02  0.45594000000E+02  0.51100000000E-03 0.  1.
         11   -1    0    0    0    0 -0.00000000000E+00 -0.00000000000E+00 -0.45593999997E+02  0.45594000000E+02  0.51100000000E-03 0. -1.
    9900012    2    1    2    0    0 -0.15494167995E+02 -0.98958532573E+01 -0.36265299998E+02  0.50528817305E+02  0.29999870679E+02 0.  0.
        -12    1    1    2    0    0  0.15494167995E+02  0.98958532573E+01  0.36265299998E+02  0.40659182695E+02  0.00000000000E+00 0.  1.
         11    1    3    3    0    0  0.20527373373E+01 -0.82815965493E+01 -0.96622421049E+01  0.12890209259E+02  0.51100000000E-03 0.  1.
        -11    1    3    3    0    0 -0.21480062591E+02  0.13489659538E+01 -0.19833569473E+02  0.29267443968E+02  0.51100000000E-03 0. -1.
         12    1    3    3    0    0  0.39331572594E+01 -0.29632226618E+01 -0.67694884191E+01  0.83711640784E+01  0.00000000000E+00 0. -1.
</event>
<event>
 7    1  0.1024956E-012  0.5052886E+02  0.7816164E-02  0.1300439E+00
        -11   -1    0    0    0    0  0.00000000000E+00  0.00000000000E+00  0.45593999997E+02  0.45594000000E+02  0.51100000000E-03 0.  1.
         11   -1    0    0    0    0 -0.00000000000E+00 -0.00000000000E+00 -0.45593999997E+02  0.45594000000E+02  0.51100000000E-03 0. -1.
    9900012    2    1    2    0    0 -0.15446032816E+02 -0.79859437369E+01 -0.36753373038E+02  0.50528860108E+02  0.30000000783E+02 0.  0.
        -12    1    1    2    0    0  0.15446032816E+02  0.79859437369E+01  0.36753373038E+02  0.40659139892E+02  0.00000000000E+00 0.  1.
         11    1    3    3    0    0 -0.49264296624E+01  0.23550339406E+01 -0.11060868173E+02  0.12335262425E+02  0.51100000000E-03 0. -1.
        -11    1    3    3    0    0  0.47939936560E+01 -0.94507897115E+01 -0.33919695722E+01  0.11126781169E+02  0.51100000000E-03 0.  1.
        -12    1    3    3    0    0 -0.15313596809E+02 -0.89018796595E+00 -0.22300535293E+02  0.27066816514E+02  0.00000000000E+00 0.  1.
</event>
<event>
 7    1  0.1024956E-012  0.5052886E+02  0.7816164E-02  0.1300439E+00
        -11   -1    0    0    0    0  0.00000000000E+00  0.00000000000E+00  0.45593999997E+02  0.45594000000E+02  0.51100000000E-03 0.  1.
         11   -1    0    0    0    0 -0.00000000000E+00 -0.00000000000E+00 -0.45593999997E+02  0.45594000000E+02  0.51100000000E-03 0. -1.
    9900012    2    1    2    0    0 -0.90107001456E+01  0.31830598995E+02 -0.23638656302E+02  0.50528858085E+02  0.29999994635E+02 0.  0.
        -12    1    1    2    0    0  0.90107001456E+01 -0.31830598995E+02  0.23638656302E+02  0.40659141915E+02  0.00000000000E+00 0.  1.
         11    1    3    3    0    0 -0.50276387353E+01  0.26991517800E+02 -0.59239164961E+01  0.28087576815E+02  0.51100000000E-03 0. -1.
        -11    1    3    3    0    0 -0.25640450335E+01 -0.28166046762E+01 -0.90358339719E+00  0.39145947495E+01  0.51100000000E-03 0.  1.
        -12    1    3    3    0    0 -0.14190163768E+01  0.76556858711E+01 -0.16811156409E+02  0.18526686520E+02  0.00000000000E+00 0.  1.
</event>
<event>
 7    1  0.1024956E-012  0.5052886E+02  0.7816164E-02  0.1300439E+00
        -11   -1    0    0    0    0  0.00000000000E+00  0.00000000000E+00  0.45593999997E+02  0.45594000000E+02  0.51100000000E-03 0. -1.
         11   -1    0    0    0    0 -0.00000000000E+00 -0.00000000000E+00 -0.45593999997E+02  0.45594000000E+02  0.51100000000E-03 0.  1.
    9900012    2    1    2    0    0  0.28525569308E+02  0.28517323461E+02 -0.51204928883E+01  0.50528864629E+02  0.30000014525E+02 0.  0.
        -12    1    1    2    0    0 -0.28525569308E+02 -0.28517323461E+02  0.51204928883E+01  0.40659135371E+02  0.00000000000E+00 0.  1.
         11    1    3    3    0    0  0.46017674119E+01  0.50574425290E+01  0.76711699329E+01  0.10276226771E+02  0.51100000000E-03 0. -1.
        -11    1    3    3    0    0  0.14775576541E+02  0.73794246599E+01 -0.14085941669E+02  0.21706849689E+02  0.51100000000E-03 0.  1.
         12    1    3    3    0    0  0.91482253550E+01  0.16080456272E+02  0.12942788482E+01  0.18545788169E+02  0.00000000000E+00 0. -1.
</event>
<event>
 7    1  0.1024956E-012  0.5052885E+02  0.7816164E-02  0.1300439E+00
        -11   -1    0    0    0    0  0.00000000000E+00  0.00000000000E+00  0.45593999997E+02  0.45594000000E+02  0.51100000000E-03 0. -1.
         11   -1    0    0    0    0 -0.00000000000E+00 -0.00000000000E+00 -0.45593999997E+02  0.45594000000E+02  0.51100000000E-03 0.  1.
    9900012    2    1    2    0    0  0.38508005380E+02  0.86358357141E+01  0.97837908139E+01  0.50528847284E+02  0.29999961806E+02 0.  0.
        -12    1    1    2    0    0 -0.38508005380E+02 -0.86358357141E+01 -0.97837908139E+01  0.40659152716E+02  0.00000000000E+00 0.  1.
         11    1    3    3    0    0  0.28523655454E+01 -0.23716870282E+01  0.63665923308E+01  0.73684724829E+01  0.51100000000E-03 0. -1.
        -11    1    3    3    0    0  0.37973908387E+02  0.97034285483E+01  0.57609809840E+01  0.39615188324E+02  0.51100000000E-03 0.  1.
        -12    1    3    3    0    0 -0.23182685523E+01  0.13040941939E+01 -0.23437825009E+01  0.35451864773E+01  0.00000000000E+00 0.  1.
</event>
<event>
 7    1  0.1024956E-012  0.5052886E+02  0.7816164E-02  0.1300439E+00
        -11   -1    0    0    0    0  0.00000000000E+00  0.00000000000E+00  0.45593999997E+02  0.45594000000E+02  0.51100000000E-03 0.  1.
         11   -1    0    0    0    0 -0.00000000000E+00 -0.00000000000E+00 -0.45593999997E+02  0.45594000000E+02  0.51100000000E-03 0. -1.
    9900012    2    1    2    0    0 -0.37956315737E+02  0.11242979510E+02 -0.92778737296E+01  0.50528862853E+02  0.30000009128E+02 0.  0.
        -12    1    1    2    0    0  0.37956315737E+02 -0.11242979510E+02  0.92778737296E+01  0.40659137147E+02  0.00000000000E+00 0.  1.
         11    1    3    3    0    0 -0.14124197251E+02 -0.45196208386E+01 -0.80751993872E+01  0.16885756302E+02  0.51100000000E-03 0. -1.
        -11    1    3    3    0    0 -0.18859037161E+02  0.19553524233E+02 -0.24153875677E+01  0.27273387944E+02  0.51100000000E-03 0.  1.
        -12    1    3    3    0    0 -0.49730813253E+01 -0.37909238841E+01  0.12127132253E+01  0.63697186068E+01  0.00000000000E+00 0.  1.
</event>
<event>
 7    1  0.1024956E-012  0.5052885E+02  0.7816164E-02  0.1300439E+00
        -11   -1    0    0    0    0  0.00000000000E+00  0.00000000000E+00  0.45593999997E+02  0.45594000000E+02  0.51100000000E-03 0. -1.
         11   -1    0    0    0    0 -0.00000000000E+00 -0.00000000000E+00 -0.45593999997E+02  0.45594000000E+02  0.51100000000E-03 0.  1.
    9900012    2    1    2    0    0 -0.92832086342E+01  0.15801233519E+01  0.39553652823E+02  0.50528853379E+02  0.29999980330E+02 0.  0.
        -12    1    1    2    0    0  0.92832086342E+01 -0.15801233519E+01 -0.39553652823E+02  0.40659146621E+02  0.00000000000E+00 0.  1.
         11    1    3    3    0    0 -0.11709756164E+01  0.93120231724E+01  0.13397844961E+02  0.16358093083E+02  0.51100000000E-03 0. -1.
        -11    1    3    3    0    0  0.33340486180E+01 -0.97427404604E+01  0.13652370451E+02  0.17100412014E+02  0.51100000000E-03 0.  1.
        -12    1    3    3    0    0 -0.11446281636E+02  0.20108406399E+01  0.12503437410E+02  0.17070348281E+02  0.00000000000E+00 0.  1.
</event>
<event>
 7    1  0.1024956E-012  0.5052886E+02  0.7816164E-02  0.1300439E+00
        -11   -1    0    0    0    0  0.00000000000E+00  0.00000000000E+00  0.45593999997E+02  0.45594000000E+02  0.51100000000E-03 0.  1.
         11   -1    0    0    0    0 -0.00000000000E+00 -0.00000000000E+00 -0.45593999997E+02  0.45594000000E+02  0.51100000000E-03 0. -1.
    9900012    2    1    2    0    0 -0.15631151898E+02  0.11467684118E+01 -0.37516900143E+02  0.50528858546E+02  0.29999996035E+02 0.  0.
        -12    1    1    2    0    0  0.15631151898E+02 -0.11467684118E+01  0.37516900143E+02  0.40659141454E+02  0.00000000000E+00 0.  1.
         11    1    3    3    0    0 -0.33167141798E+01 -0.58727681402E+01 -0.58739524448E+01  0.89438982644E+01  0.51100000000E-03 0. -1.
        -11    1    3    3    0    0 -0.76871924415E+01  0.11520808275E+02 -0.59161902354E+01  0.15060652646E+02  0.51100000000E-03 0.  1.
        -12    1    3    3    0    0 -0.46272452768E+01 -0.45012717232E+01 -0.25726757463E+02  0.26524307636E+02  0.00000000000E+00 0.  1.
</event>
<event>
 7    1  0.1024956E-012  0.5052884E+02  0.7816164E-02  0.1300439E+00
        -11   -1    0    0    0    0  0.00000000000E+00  0.00000000000E+00  0.45593999997E+02  0.45594000000E+02  0.51100000000E-03 0.  1.
         11   -1    0    0    0    0 -0.00000000000E+00 -0.00000000000E+00 -0.45593999997E+02  0.45594000000E+02  0.51100000000E-03 0. -1.
    9900012    2    1    2    0    0  0.34182437007E+02  0.21648996678E+02 -0.40061800270E+01  0.50528837007E+02  0.29999930567E+02 0.  0.
        -12    1    1    2    0    0 -0.34182437007E+02 -0.21648996678E+02  0.40061800270E+01  0.40659162993E+02  0.00000000000E+00 0.  1.
         11    1    3    3    0    0  0.12144965680E+02  0.29101901328E+01  0.83283798396E+01  0.15011039571E+02  0.51100000000E-03 0. -1.
        -11    1    3    3    0    0  0.13893147198E+01  0.74719853598E+01 -0.89692715416E+01  0.11756215074E+02  0.51100000000E-03 0.  1.
         12    1    3    3    0    0  0.20648156606E+02  0.11266821185E+02 -0.33652883250E+01  0.23761582363E+02  0.00000000000E+00 0. -1.
</event>
<event>
 7    1  0.1024956E-012  0.5052886E+02  0.7816164E-02  0.1300439E+00
        -11   -1    0    0    0    0  0.00000000000E+00  0.00000000000E+00  0.45593999997E+02  0.45594000000E+02  0.51100000000E-03 0.  1.
         11   -1    0    0    0    0 -0.00000000000E+00 -0.00000000000E+00 -0.45593999997E+02  0.45594000000E+02  0.51100000000E-03 0. -1.
    9900012    2    1    2    0    0  0.16108397022E+02 -0.33328459098E+02 -0.16819603790E+02  0.50528859427E+02  0.29999998713E+02 0.  0.
        -12    1    1    2    0    0 -0.16108397022E+02  0.33328459098E+02  0.16819603790E+02  0.40659140573E+02  0.00000000000E+00 0.  1.
         11    1    3    3    0    0  0.75009784329E+01 -0.18040170070E+02  0.37147137695E+01  0.19887471239E+02  0.51100000000E-03 0. -1.
        -11    1    3    3    0    0  0.33490307904E+01 -0.83120480069E+01 -0.19968367473E+02  0.21887024674E+02  0.51100000000E-03 0.  1.
        -12    1    3    3    0    0  0.52583877988E+01 -0.69762410211E+01 -0.56595008695E+00  0.87543635136E+01  0.00000000000E+00 0.  1.
</event>
<event>
 7    1  0.1024956E-012  0.5052886E+02  0.7816164E-02  0.1300439E+00
        -11   -1    0    0    0    0  0.00000000000E+00  0.00000000000E+00  0.45593999997E+02  0.45594000000E+02  0.51100000000E-03 0.  1.
         11   -1    0    0    0    0 -0.00000000000E+00 -0.00000000000E+00 -0.45593999997E+02  0.45594000000E+02  0.51100000000E-03 0. -1.
    9900012    2    1    2    0    0  0.61432896184E+01  0.72629342532E+01 -0.39530687446E+02  0.50528862390E+02  0.30000007719E+02 0.  0.
        -12    1    1    2    0    0 -0.61432896184E+01 -0.72629342532E+01  0.39530687446E+02  0.40659137610E+02  0.00000000000E+00 0.  1.
         11    1    3    3    0    0  0.11478968712E+02  0.40242741658E+00 -0.19214500843E+02  0.22385837340E+02  0.51100000000E-03 0. -1.
        -11    1    3    3    0    0 -0.81743545259E+01  0.10529805082E+02 -0.94857186493E+01  0.16360798438E+02  0.51100000000E-03 0.  1.
         12    1    3    3    0    0  0.28386754324E+01 -0.36692982456E+01 -0.10830467953E+02  0.11782226611E+02  0.00000000000E+00 0. -1.
</event>
<event>
 7    1  0.1024956E-012  0.5052885E+02  0.7816164E-02  0.1300439E+00
        -11   -1    0    0    0    0  0.00000000000E+00  0.00000000000E+00  0.45593999997E+02  0.45594000000E+02  0.51100000000E-03 0.  1.
         11   -1    0    0    0    0 -0.00000000000E+00 -0.00000000000E+00 -0.45593999997E+02  0.45594000000E+02  0.51100000000E-03 0. -1.
    9900012    2    1    2    0    0 -0.33338260531E+02 -0.23977558104E+01 -0.23151183739E+02  0.50528853961E+02  0.29999982099E+02 0.  0.
        -12    1    1    2    0    0  0.33338260531E+02  0.23977558104E+01  0.23151183739E+02  0.40659146039E+02  0.00000000000E+00 0.  1.
         11    1    3    3    0    0 -0.26876833231E+02  0.92093803457E+01 -0.21637177166E+02  0.35711962797E+02  0.51100000000E-03 0. -1.
        -11    1    3    3    0    0  0.68348053817E+00 -0.30292806739E+01 -0.19105896497E+01  0.36460993017E+01  0.51100000000E-03 0.  1.
         12    1    3    3    0    0 -0.71449078378E+01 -0.85778554822E+01  0.39658307616E+00  0.11170791862E+02  0.00000000000E+00 0. -1.
</event>
<event>
 7    1  0.1024956E-012  0.5052886E+02  0.7816164E-02  0.1300439E+00
        -11   -1    0    0    0    0  0.00000000000E+00  0.00000000000E+00  0.45593999997E+02  0.45594000000E+02  0.51100000000E-03 0.  1.
         11   -1    0    0    0    0 -0.00000000000E+00 -0.00000000000E+00 -0.45593999997E+02  0.45594000000E+02  0.51100000000E-03 0. -1.
    9900012    2    1    2    0    0  0.13261838491E+02 -0.31574984884E+02 -0.21915974251E+02  0.50528856404E+02  0.29999989524E+02 0.  0.
        -12    1    1    2    0    0 -0.13261838491E+02  0.31574984884E+02  0.21915974251E+02  0.40659143596E+02  0.00000000000E+00 0.  1.
         11    1    3    3    0    0  0.42907890728E+01 -0.62035493335E+01 -0.21770523361E+02  0.23040194940E+02  0.51100000000E-03 0. -1.
        -11    1    3    3    0    0  0.65625360659E+01 -0.14306750519E+02  0.22904077573E+01  0.15905846660E+02  0.51100000000E-03 0.  1.
         12    1    3    3    0    0  0.24085133523E+01 -0.11064685032E+02 -0.24358586481E+01  0.11582814804E+02  0.00000000000E+00 0. -1.
</event>
<event>
 7    1  0.1024956E-012  0.5052885E+02  0.7816164E-02  0.1300439E+00
        -11   -1    0    0    0    0  0.00000000000E+00  0.00000000000E+00  0.45593999997E+02  0.45594000000E+02  0.51100000000E-03 0.  1.
         11   -1    0    0    0    0 -0.00000000000E+00 -0.00000000000E+00 -0.45593999997E+02  0.45594000000E+02  0.51100000000E-03 0. -1.
    9900012    2    1    2    0    0  0.30665439612E+02 -0.22039162908E+02 -0.15068923383E+02  0.50528851703E+02  0.29999975238E+02 0.  0.
        -12    1    1    2    0    0 -0.30665439612E+02  0.22039162908E+02  0.15068923383E+02  0.40659148297E+02  0.00000000000E+00 0.  1.
         11    1    3    3    0    0  0.35278218260E+01 -0.50785741654E+01 -0.10324340430E+02  0.12034510707E+02  0.51100000000E-03 0. -1.
        -11    1    3    3    0    0  0.29883824734E+02 -0.13051253685E+02 -0.67706897945E+01  0.33304961253E+02  0.51100000000E-03 0.  1.
        -12    1    3    3    0    0 -0.27462069480E+01 -0.39093350573E+01  0.20261068410E+01  0.51893797436E+01  0.00000000000E+00 0.  1.
</event>
<event>
 7    1  0.1024956E-012  0.5052886E+02  0.7816164E-02  0.1300439E+00
        -11   -1    0    0    0    0  0.00000000000E+00  0.00000000000E+00  0.45593999997E+02  0.45594000000E+02  0.51100000000E-03 0. -1.
         11   -1    0    0    0    0 -0.00000000000E+00 -0.00000000000E+00 -0.45593999997E+02  0.45594000000E+02  0.51100000000E-03 0.  1.
    9900012    2    1    2    0    0  0.32606935697E+01  0.37679104114E+02  0.14927099721E+02  0.50528864305E+02  0.30000013541E+02 0.  0.
        -12    1    1    2    0    0 -0.32606935697E+01 -0.37679104114E+02 -0.14927099721E+02  0.40659135695E+02  0.00000000000E+00 0.  1.
         11    1    3    3    0    0  0.14407723672E+02  0.13570858996E+02  0.65413911205E+01  0.20845635355E+02  0.51100000000E-03 0. -1.
        -11    1    3    3    0    0 -0.94989410499E+01  0.18518038600E+02  0.18013222155E+01  0.20890007100E+02  0.51100000000E-03 0.  1.
         12    1    3    3    0    0 -0.16480890520E+01  0.55902065176E+01  0.65843863853E+01  0.87932218501E+01  0.00000000000E+00 0. -1.
</event>
<event>
 7    1  0.1024956E-012  0.5052886E+02  0.7816164E-02  0.1300439E+00
        -11   -1    0    0    0    0  0.00000000000E+00  0.00000000000E+00  0.45593999997E+02  0.45594000000E+02  0.51100000000E-03 0. -1.
         11   -1    0    0    0    0 -0.00000000000E+00 -0.00000000000E+00 -0.45593999997E+02  0.45594000000E+02  0.51100000000E-03 0.  1.
    9900012    2    1    2    0    0  0.24290015658E+02 -0.13796411000E+02 -0.29543524450E+02  0.50528860141E+02  0.30000000885E+02 0.  0.
        -12    1    1    2    0    0 -0.24290015658E+02  0.13796411000E+02  0.29543524450E+02  0.40659139859E+02  0.00000000000E+00 0.  1.
         11    1    3    3    0    0  0.81637214356E-01  0.51281430615E+01 -0.15899643123E+01  0.53695905495E+01  0.51100000000E-03 0. -1.
        -11    1    3    3    0    0  0.19381380941E+01 -0.11960541863E+02 -0.88865854042E+01  0.15026055415E+02  0.51100000000E-03 0.  1.
         12    1    3    3    0    0  0.22270240350E+02 -0.69640121983E+01 -0.19066974733E+02  0.30133214177E+02  0.00000000000E+00 0. -1.
</event>
<event>
 7    1  0.1024956E-012  0.5052885E+02  0.7816164E-02  0.1300439E+00
        -11   -1    0    0    0    0  0.00000000000E+00  0.00000000000E+00  0.45593999997E+02  0.45594000000E+02  0.51100000000E-03 0.  1.
         11   -1    0    0    0    0 -0.00000000000E+00 -0.00000000000E+00 -0.45593999997E+02  0.45594000000E+02  0.51100000000E-03 0. -1.
    9900012    2    1    2    0    0 -0.79880014041E+01 -0.35878787620E+02 -0.17380179891E+02  0.50528853175E+02  0.29999979710E+02 0.  0.
        -12    1    1    2    0    0  0.79880014041E+01  0.35878787620E+02  0.17380179891E+02  0.40659146825E+02  0.00000000000E+00 0.  1.
         11    1    3    3    0    0 -0.14190344168E+02 -0.19699931233E+02 -0.11084127806E+02  0.26689155994E+02  0.51100000000E-03 0. -1.
        -11    1    3    3    0    0  0.98961032303E+01 -0.95611933204E+01 -0.82093248585E+01  0.16023179826E+02  0.51100000000E-03 0.  1.
        -12    1    3    3    0    0 -0.36937604664E+01 -0.66176630670E+01  0.19132727732E+01  0.78165173547E+01  0.00000000000E+00 0.  1.
</event>
<event>
 7    1  0.1024956E-012  0.5052881E+02  0.7816164E-02  0.1300439E+00
        -11   -1    0    0    0    0  0.00000000000E+00  0.00000000000E+00  0.45593999997E+02  0.45594000000E+02  0.51100000000E-03 0. -1.
         11   -1    0    0    0    0 -0.00000000000E+00 -0.00000000000E+00 -0.45593999997E+02  0.45594000000E+02  0.51100000000E-03 0.  1.
    9900012    2    1    2    0    0  0.15394973247E+02  0.21618785122E+02  0.30802480647E+02  0.50528808107E+02  0.29999842721E+02 0.  0.
        -12    1    1    2    0    0 -0.15394973247E+02 -0.21618785122E+02 -0.30802480647E+02  0.40659191893E+02  0.00000000000E+00 0.  1.
         11    1    3    3    0    0  0.10460730998E+02 -0.61845264903E+00  0.11993991223E+02  0.15926870452E+02  0.51100000000E-03 0. -1.
        -11    1    3    3    0    0 -0.59652016971E+01  0.10335419550E+02  0.12479473225E+02  0.17266782584E+02  0.51100000000E-03 0.  1.
        -12    1    3    3    0    0  0.10899443946E+02  0.11901818221E+02  0.63290161994E+01  0.17335155071E+02  0.00000000000E+00 0.  1.
</event>
<event>
 7    1  0.1024956E-012  0.5052886E+02  0.7816164E-02  0.1300439E+00
        -11   -1    0    0    0    0  0.00000000000E+00  0.00000000000E+00  0.45593999997E+02  0.45594000000E+02  0.51100000000E-03 0.  1.
         11   -1    0    0    0    0 -0.00000000000E+00 -0.00000000000E+00 -0.45593999997E+02  0.45594000000E+02  0.51100000000E-03 0. -1.
    9900012    2    1    2    0    0  0.66143165408E+01 -0.14954860381E+02 -0.37225913324E+02  0.50528860129E+02  0.30000000847E+02 0.  0.
        -12    1    1    2    0    0 -0.66143165408E+01  0.14954860381E+02  0.37225913324E+02  0.40659139871E+02  0.00000000000E+00 0.  1.
         11    1    3    3    0    0  0.43879008686E+00 -0.16659845395E+02 -0.93789556438E+01  0.19123488033E+02  0.51100000000E-03 0. -1.
        -11    1    3    3    0    0  0.14208236099E+01  0.71509275190E+01 -0.13884820770E+02  0.15682562041E+02  0.51100000000E-03 0.  1.
         12    1    3    3    0    0  0.47547028440E+01 -0.54459425047E+01 -0.13962136910E+02  0.15722810054E+02  0.00000000000E+00 0. -1.
</event>
<event>
 7    1  0.1024956E-012  0.5052885E+02  0.7816164E-02  0.1300439E+00
        -11   -1    0    0    0    0  0.00000000000E+00  0.00000000000E+00  0.45593999997E+02  0.45594000000E+02  0.51100000000E-03 0. -1.
         11   -1    0    0    0    0 -0.00000000000E+00 -0.00000000000E+00 -0.45593999997E+02  0.45594000000E+02  0.51100000000E-03 0.  1.
    9900012    2    1    2    0    0 -0.29609516795E+02  0.18447559517E+02  0.20883732755E+02  0.50528853049E+02  0.29999979327E+02 0.  0.
        -12    1    1    2    0    0  0.29609516795E+02 -0.18447559517E+02 -0.20883732755E+02  0.40659146951E+02  0.00000000000E+00 0.  1.
         11    1    3    3    0    0 -0.63860973701E+01 -0.11838788328E+01  0.82533596563E+01  0.10502464215E+02  0.51100000000E-03 0. -1.
        -11    1    3    3    0    0 -0.14633412646E+02  0.21342123083E+02  0.15792013491E+01  0.25925216692E+02  0.51100000000E-03 0.  1.
        -12    1    3    3    0    0 -0.85900067795E+01 -0.17106847332E+01  0.11051171750E+02  0.14101172142E+02  0.00000000000E+00 0.  1.
</event>
<event>
 7    1  0.1024956E-012  0.5052887E+02  0.7816164E-02  0.1300439E+00
        -11   -1    0    0    0    0  0.00000000000E+00  0.00000000000E+00  0.45593999997E+02  0.45594000000E+02  0.51100000000E-03 0.  1.
         11   -1    0    0    0    0 -0.00000000000E+00 -0.00000000000E+00 -0.45593999997E+02  0.45594000000E+02  0.51100000000E-03 0. -1.
    9900012    2    1    2    0    0 -0.28650821276E+02 -0.10890340461E+02 -0.26715077887E+02  0.50528874805E+02  0.30000045456E+02 0.  0.
        -12    1    1    2    0    0  0.28650821276E+02  0.10890340461E+02  0.26715077887E+02  0.40659125195E+02  0.00000000000E+00 0.  1.
         11    1    3    3    0    0  0.21985973922E+01 -0.57256137161E+00 -0.70040229664E+01  0.73632869693E+01  0.51100000000E-03 0. -1.
        -11    1    3    3    0    0 -0.20514786590E+02 -0.99993336667E+01 -0.23286225075E+01  0.22940480066E+02  0.51100000000E-03 0.  1.
        -12    1    3    3    0    0 -0.10334632078E+02 -0.31844542221E+00 -0.17382432413E+02  0.20225107769E+02  0.00000000000E+00 0.  1.
</event>
<event>
 7    1  0.1024956E-012  0.5052894E+02  0.7816164E-02  0.1300439E+00
        -11   -1    0    0    0    0  0.00000000000E+00  0.00000000000E+00  0.45593999997E+02  0.45594000000E+02  0.51100000000E-03 0.  1.
         11   -1    0    0    0    0 -0.00000000000E+00 -0.00000000000E+00 -0.45593999997E+02  0.45594000000E+02  0.51100000000E-03 0. -1.
    9900012    2    1    2    0    0  0.26981536102E+02 -0.22448743128E+02 -0.20523404976E+02  0.50528935694E+02  0.30000230534E+02 0.  0.
        -12    1    1    2    0    0 -0.26981536102E+02  0.22448743128E+02  0.20523404976E+02  0.40659064306E+02  0.00000000000E+00 0.  1.
         11    1    3    3    0    0  0.30194627130E+02 -0.10106492733E+02 -0.11264108722E+02  0.33774796053E+02  0.51100000000E-03 0. -1.
        -11    1    3    3    0    0 -0.23920143187E+01 -0.46402511826E+01 -0.79494266251E+00  0.52806815504E+01  0.51100000000E-03 0.  1.
         12    1    3    3    0    0 -0.82107670946E+00 -0.77019992120E+01 -0.84643535916E+01  0.11473458090E+02  0.00000000000E+00 0. -1.
</event>
<event>
 7    1  0.1024956E-012  0.5052886E+02  0.7816164E-02  0.1300439E+00
        -11   -1    0    0    0    0  0.00000000000E+00  0.00000000000E+00  0.45593999997E+02  0.45594000000E+02  0.51100000000E-03 0.  1.
         11   -1    0    0    0    0 -0.00000000000E+00 -0.00000000000E+00 -0.45593999997E+02  0.45594000000E+02  0.51100000000E-03 0. -1.
    9900012    2    1    2    0    0 -0.36761075293E+02 -0.42588061471E+00 -0.17366858377E+02  0.50528858335E+02  0.29999995397E+02 0.  0.
        -12    1    1    2    0    0  0.36761075293E+02  0.42588061471E+00  0.17366858377E+02  0.40659141665E+02  0.00000000000E+00 0.  1.
         11    1    3    3    0    0 -0.34402736045E+01 -0.23913599698E+01  0.53584340164E+01  0.68019776792E+01  0.51100000000E-03 0.  1.
        -11    1    3    3    0    0 -0.89495368769E+01  0.50999266041E+01 -0.14556912002E+02  0.17832754946E+02  0.51100000000E-03 0. -1.
        -12    1    3    3    0    0 -0.24371264812E+02 -0.31344472491E+01 -0.81683803914E+01  0.25894125710E+02  0.00000000000E+00 0.  1.
</event>
<event>
 7    1  0.1024956E-012  0.5052886E+02  0.7816164E-02  0.1300439E+00
        -11   -1    0    0    0    0  0.00000000000E+00  0.00000000000E+00  0.45593999997E+02  0.45594000000E+02  0.51100000000E-03 0.  1.
         11   -1    0    0    0    0 -0.00000000000E+00 -0.00000000000E+00 -0.45593999997E+02  0.45594000000E+02  0.51100000000E-03 0. -1.
    9900012    2    1    2    0    0 -0.20308668679E+02  0.32214258520E+01 -0.35076287547E+02  0.50528861346E+02  0.30000004547E+02 0.  0.
        -12    1    1    2    0    0  0.20308668679E+02 -0.32214258520E+01  0.35076287547E+02  0.40659138654E+02  0.00000000000E+00 0.  1.
         11    1    3    3    0    0 -0.11289263579E+02  0.11097539808E+02 -0.75228688114E+01  0.17527019637E+02  0.51100000000E-03 0. -1.
        -11    1    3    3    0    0 -0.57922561515E+01 -0.77773332579E+01 -0.28100934646E+02  0.29727086506E+02  0.51100000000E-03 0.  1.
        -12    1    3    3    0    0 -0.32271489492E+01 -0.98780697841E-01  0.54751591038E+00  0.32747552029E+01  0.00000000000E+00 0.  1.
</event>
<event>
 7    1  0.1024956E-012  0.5052886E+02  0.7816164E-02  0.1300439E+00
        -11   -1    0    0    0    0  0.00000000000E+00  0.00000000000E+00  0.45593999997E+02  0.45594000000E+02  0.51100000000E-03 0.  1.
         11   -1    0    0    0    0 -0.00000000000E+00 -0.00000000000E+00 -0.45593999997E+02  0.45594000000E+02  0.51100000000E-03 0. -1.
    9900012    2    1    2    0    0  0.48393225937E+01 -0.21797484085E+02 -0.33979643684E+02  0.50528861538E+02  0.30000005131E+02 0.  0.
        -12    1    1    2    0    0 -0.48393225937E+01  0.21797484085E+02  0.33979643684E+02  0.40659138462E+02  0.00000000000E+00 0.  1.
         11    1    3    3    0    0 -0.47072760876E+01 -0.14186550819E+02 -0.20358375085E+02  0.25256288497E+02  0.51100000000E-03 0. -1.
        -11    1    3    3    0    0  0.57953368716E+01 -0.58997509237E+01  0.24942608442E+01  0.86379585457E+01  0.51100000000E-03 0.  1.
        -12    1    3    3    0    0  0.37512618096E+01 -0.17111823425E+01 -0.16115529443E+02  0.16634614495E+02  0.00000000000E+00 0.  1.
</event>
<event>
 7    1  0.1024956E-012  0.5052886E+02  0.7816164E-02  0.1300439E+00
        -11   -1    0    0    0    0  0.00000000000E+00  0.00000000000E+00  0.45593999997E+02  0.45594000000E+02  0.51100000000E-03 0.  1.
         11   -1    0    0    0    0 -0.00000000000E+00 -0.00000000000E+00 -0.45593999997E+02  0.45594000000E+02  0.51100000000E-03 0. -1.
    9900012    2    1    2    0    0 -0.31950216292E+02 -0.10502620761E+02 -0.22848293360E+02  0.50528857444E+02  0.29999992686E+02 0.  0.
        -12    1    1    2    0    0  0.31950216292E+02  0.10502620761E+02  0.22848293360E+02  0.40659142556E+02  0.00000000000E+00 0.  1.
         11    1    3    3    0    0 -0.10644580401E+02 -0.80006996806E+00 -0.74913728201E+01  0.13041007279E+02  0.51100000000E-03 0. -1.
        -11    1    3    3    0    0 -0.92313501891E+01  0.78977561430E+01 -0.20085068546E+01  0.12313670389E+02  0.51100000000E-03 0.  1.
        -12    1    3    3    0    0 -0.12074285702E+02 -0.17600306936E+02 -0.13348413685E+02  0.25174179775E+02  0.00000000000E+00 0.  1.
</event>
<event>
 7    1  0.1024956E-012  0.5052887E+02  0.7816164E-02  0.1300439E+00
        -11   -1    0    0    0    0  0.00000000000E+00  0.00000000000E+00  0.45593999997E+02  0.45594000000E+02  0.51100000000E-03 0.  1.
         11   -1    0    0    0    0 -0.00000000000E+00 -0.00000000000E+00 -0.45593999997E+02  0.45594000000E+02  0.51100000000E-03 0. -1.
    9900012    2    1    2    0    0 -0.23833845809E+02 -0.69782761276E+01 -0.32193423630E+02  0.50528867339E+02  0.30000022762E+02 0.  0.
        -12    1    1    2    0    0  0.23833845809E+02  0.69782761276E+01  0.32193423630E+02  0.40659132661E+02  0.00000000000E+00 0.  1.
         11    1    3    3    0    0  0.42338367861E+00  0.78695350453E+01 -0.46439692201E+01  0.91474196333E+01  0.51100000000E-03 0. -1.
        -11    1    3    3    0    0 -0.17859604199E+02 -0.53871440762E+01 -0.12360705499E+02  0.22377976319E+02  0.51100000000E-03 0.  1.
         12    1    3    3    0    0 -0.63976252887E+01 -0.94606670967E+01 -0.15188748911E+02  0.19003471386E+02  0.00000000000E+00 0. -1.
</event>
<event>
 7    1  0.1024956E-012  0.5052885E+02  0.7816164E-02  0.1300439E+00
        -11   -1    0    0    0    0  0.00000000000E+00  0.00000000000E+00  0.45593999997E+02  0.45594000000E+02  0.51100000000E-03 0.  1.
         11   -1    0    0    0    0 -0.00000000000E+00 -0.00000000000E+00 -0.45593999997E+02  0.45594000000E+02  0.51100000000E-03 0. -1.
    9900012    2    1    2    0    0  0.10721330714E+02 -0.24371899199E+02 -0.30728329405E+02  0.50528848129E+02  0.29999964372E+02 0.  0.
        -12    1    1    2    0    0 -0.10721330714E+02  0.24371899199E+02  0.30728329405E+02  0.40659151871E+02  0.00000000000E+00 0.  1.
         11    1    3    3    0    0 -0.20582161992E+01  0.46708909095E+01 -0.14465136461E+00  0.51063098309E+01  0.51100000000E-03 0.  1.
        -11    1    3    3    0    0  0.13583114864E+02 -0.18195148401E+02 -0.20689129154E+02  0.30718146106E+02  0.51100000000E-03 0. -1.
         12    1    3    3    0    0 -0.80356795068E+00 -0.10847641708E+02 -0.98945488864E+01  0.14704392192E+02  0.00000000000E+00 0. -1.
</event>
<event>
 7    1  0.1024956E-012  0.5052886E+02  0.7816164E-02  0.1300439E+00
        -11   -1    0    0    0    0  0.00000000000E+00  0.00000000000E+00  0.45593999997E+02  0.45594000000E+02  0.51100000000E-03 0.  1.
         11   -1    0    0    0    0 -0.00000000000E+00 -0.00000000000E+00 -0.45593999997E+02  0.45594000000E+02  0.51100000000E-03 0. -1.
    9900012    2    1    2    0    0 -0.25652952658E+02  0.31360161075E+02  0.34105237783E+01  0.50528863817E+02  0.30000012057E+02 0.  0.
        -12    1    1    2    0    0  0.25652952658E+02 -0.31360161075E+02 -0.34105237783E+01  0.40659136183E+02  0.00000000000E+00 0.  1.
         11    1    3    3    0    0 -0.18662058469E+02  0.33121290929E+02 -0.38267315116E+01  0.38209111654E+02  0.51100000000E-03 0. -1.
        -11    1    3    3    0    0 -0.82343321845E+01 -0.22404870414E+01  0.68175334874E+01  0.10922580822E+02  0.51100000000E-03 0.  1.
        -12    1    3    3    0    0  0.12434379956E+01  0.47935718774E+00  0.41972180248E+00  0.13971713402E+01  0.00000000000E+00 0.  1.
</event>
<event>
 7    1  0.1024956E-012  0.5052886E+02  0.7816164E-02  0.1300439E+00
        -11   -1    0    0    0    0  0.00000000000E+00  0.00000000000E+00  0.45593999997E+02  0.45594000000E+02  0.51100000000E-03 0.  1.
         11   -1    0    0    0    0 -0.00000000000E+00 -0.00000000000E+00 -0.45593999997E+02  0.45594000000E+02  0.51100000000E-03 0. -1.
    9900012    2    1    2    0    0  0.11734694983E+02  0.11598569107E+02 -0.37160949835E+02  0.50528855096E+02  0.29999985551E+02 0.  0.
        -12    1    1    2    0    0 -0.11734694983E+02 -0.11598569107E+02  0.37160949835E+02  0.40659144904E+02  0.00000000000E+00 0.  1.
         11    1    3    3    0    0  0.45861088401E+01  0.18307393447E+02 -0.22742664934E+02  0.29553711402E+02  0.51100000000E-03 0. -1.
        -11    1    3    3    0    0  0.11503422946E+01 -0.85229776549E+01 -0.60257767208E+01  0.10501162833E+02  0.51100000000E-03 0.  1.
        -12    1    3    3    0    0  0.59982438479E+01  0.18141533146E+01 -0.83925081807E+01  0.10473980861E+02  0.00000000000E+00 0.  1.
</event>
<event>
 7    1  0.1024956E-012  0.5052887E+02  0.7816164E-02  0.1300439E+00
        -11   -1    0    0    0    0  0.00000000000E+00  0.00000000000E+00  0.45593999997E+02  0.45594000000E+02  0.51100000000E-03 0.  1.
         11   -1    0    0    0    0 -0.00000000000E+00 -0.00000000000E+00 -0.45593999997E+02  0.45594000000E+02  0.51100000000E-03 0. -1.
    9900012    2    1    2    0    0 -0.52391947162E+01 -0.40153661265E+02  0.36605224726E+01  0.50528866967E+02  0.30000021633E+02 0.  0.
        -12    1    1    2    0    0  0.52391947162E+01  0.40153661265E+02 -0.36605224726E+01  0.40659133033E+02  0.00000000000E+00 0.  1.
         11    1    3    3    0    0  0.71712075003E+00 -0.11676559468E+02  0.32733749581E+01  0.12147892289E+02  0.51100000000E-03 0. -1.
        -11    1    3    3    0    0 -0.15277036511E+02 -0.22864803105E+02  0.22200060990E+00  0.27499751819E+02  0.51100000000E-03 0.  1.
        -12    1    3    3    0    0  0.93207210452E+01 -0.56122986921E+01  0.16514690462E+00  0.10881222859E+02  0.00000000000E+00 0.  1.
</event>
<event>
 7    1  0.1024956E-012  0.5052886E+02  0.7816164E-02  0.1300439E+00
        -11   -1    0    0    0    0  0.00000000000E+00  0.00000000000E+00  0.45593999997E+02  0.45594000000E+02  0.51100000000E-03 0.  1.
         11   -1    0    0    0    0 -0.00000000000E+00 -0.00000000000E+00 -0.45593999997E+02  0.45594000000E+02  0.51100000000E-03 0. -1.
    9900012    2    1    2    0    0 -0.39267243775E+02  0.80882090164E+01 -0.67697931201E+01  0.50528860097E+02  0.30000000751E+02 0.  0.
        -12    1    1    2    0    0  0.39267243775E+02 -0.80882090164E+01  0.67697931201E+01  0.40659139903E+02  0.00000000000E+00 0.  1.
         11    1    3    3    0    0  0.32995583115E+01  0.36252293714E+01 -0.44150517256E+01  0.65971247560E+01  0.51100000000E-03 0. -1.
        -11    1    3    3    0    0 -0.16304746635E+01 -0.18269644011E+01 -0.25191851750E+00  0.24616477717E+01  0.51100000000E-03 0.  1.
         12    1    3    3    0    0 -0.40936327423E+02  0.62899440461E+01 -0.21028228770E+01  0.41470087569E+02  0.00000000000E+00 0. -1.
</event>
<event>
 7    1  0.1024956E-012  0.5052886E+02  0.7816164E-02  0.1300439E+00
        -11   -1    0    0    0    0  0.00000000000E+00  0.00000000000E+00  0.45593999997E+02  0.45594000000E+02  0.51100000000E-03 0.  1.
         11   -1    0    0    0    0 -0.00000000000E+00 -0.00000000000E+00 -0.45593999997E+02  0.45594000000E+02  0.51100000000E-03 0. -1.
    9900012    2    1    2    0    0  0.22847997317E+02  0.28551542289E+02 -0.17774822392E+02  0.50528857614E+02  0.29999993204E+02 0.  0.
        -12    1    1    2    0    0 -0.22847997317E+02 -0.28551542289E+02  0.17774822392E+02  0.40659142386E+02  0.00000000000E+00 0.  1.
         11    1    3    3    0    0  0.56095283973E+01  0.30647949228E+01 -0.16849352618E+02  0.18021111527E+02  0.51100000000E-03 0. -1.
        -11    1    3    3    0    0  0.43934861170E+01  0.61319470316E+01  0.43209292930E+01  0.86933264563E+01  0.51100000000E-03 0.  1.
         12    1    3    3    0    0  0.12844982803E+02  0.19354800334E+02 -0.52463990673E+01  0.23814419631E+02  0.00000000000E+00 0. -1.
</event>
<event>
 7    1  0.1024956E-012  0.5052886E+02  0.7816164E-02  0.1300439E+00
        -11   -1    0    0    0    0  0.00000000000E+00  0.00000000000E+00  0.45593999997E+02  0.45594000000E+02  0.51100000000E-03 0. -1.
         11   -1    0    0    0    0 -0.00000000000E+00 -0.00000000000E+00 -0.45593999997E+02  0.45594000000E+02  0.51100000000E-03 0.  1.
    9900012    2    1    2    0    0 -0.30102435892E+02 -0.26849108450E+02 -0.51121614364E+01  0.50528862457E+02  0.30000007924E+02 0.  0.
        -12    1    1    2    0    0  0.30102435892E+02  0.26849108450E+02  0.51121614364E+01  0.40659137543E+02  0.00000000000E+00 0.  1.
         11    1    3    3    0    0 -0.10290102624E+01  0.67897983539E-01  0.12162603827E+01  0.15946039746E+01  0.51100000000E-03 0. -1.
        -11    1    3    3    0    0  0.47118596788E+01  0.51266660199E+00 -0.21856158612E+01  0.52193261664E+01  0.51100000000E-03 0.  1.
        -12    1    3    3    0    0 -0.33785285308E+02 -0.27429673036E+02 -0.41428059579E+01  0.43714932316E+02  0.00000000000E+00 0.  1.
</event>
<event>
 7    1  0.1024956E-012  0.5052886E+02  0.7816164E-02  0.1300439E+00
        -11   -1    0    0    0    0  0.00000000000E+00  0.00000000000E+00  0.45593999997E+02  0.45594000000E+02  0.51100000000E-03 0.  1.
         11   -1    0    0    0    0 -0.00000000000E+00 -0.00000000000E+00 -0.45593999997E+02  0.45594000000E+02  0.51100000000E-03 0. -1.
    9900012    2    1    2    0    0 -0.10417889943E+02  0.91203223417E+00 -0.39291242087E+02  0.50528856644E+02  0.29999990256E+02 0.  0.
        -12    1    1    2    0    0  0.10417889943E+02 -0.91203223417E+00  0.39291242087E+02  0.40659143356E+02  0.00000000000E+00 0.  1.
         11    1    3    3    0    0 -0.11499291136E+02 -0.41148327906E+01 -0.37334111020E+02  0.39281056394E+02  0.51100000000E-03 0. -1.
        -11    1    3    3    0    0 -0.24033210921E+01  0.31058007007E+01  0.29633506413E+01  0.49196948634E+01  0.51100000000E-03 0.  1.
         12    1    3    3    0    0  0.34847222851E+01  0.19210643240E+01 -0.49204817088E+01  0.63281053869E+01  0.00000000000E+00 0. -1.
</event>
<event>
 7    1  0.1024956E-012  0.5052887E+02  0.7816164E-02  0.1300439E+00
        -11   -1    0    0    0    0  0.00000000000E+00  0.00000000000E+00  0.45593999997E+02  0.45594000000E+02  0.51100000000E-03 0. -1.
         11   -1    0    0    0    0 -0.00000000000E+00 -0.00000000000E+00 -0.45593999997E+02  0.45594000000E+02  0.51100000000E-03 0.  1.
    9900012    2    1    2    0    0 -0.33205835583E+02  0.12034420262E+02  0.20142241840E+02  0.50528871945E+02  0.30000036765E+02 0.  0.
        -12    1    1    2    0    0  0.33205835583E+02 -0.12034420262E+02 -0.20142241840E+02  0.40659128055E+02  0.00000000000E+00 0.  1.
         11    1    3    3    0    0 -0.20663058407E+02 -0.57760418777E+01  0.15216119075E+02  0.26303135221E+02  0.51100000000E-03 0. -1.
        -11    1    3    3    0    0 -0.90996396089E+01  0.12164881497E+02 -0.11635479843E+01  0.15236194637E+02  0.51100000000E-03 0.  1.
         12    1    3    3    0    0 -0.34431375675E+01  0.56455806427E+01  0.60896707486E+01  0.89895420867E+01  0.00000000000E+00 0. -1.
</event>
<event>
 7    1  0.1024956E-012  0.5052886E+02  0.7816164E-02  0.1300439E+00
        -11   -1    0    0    0    0  0.00000000000E+00  0.00000000000E+00  0.45593999997E+02  0.45594000000E+02  0.51100000000E-03 0.  1.
         11   -1    0    0    0    0 -0.00000000000E+00 -0.00000000000E+00 -0.45593999997E+02  0.45594000000E+02  0.51100000000E-03 0. -1.
    9900012    2    1    2    0    0 -0.15069705497E+02  0.24748486482E+02 -0.28523354012E+02  0.50528864114E+02  0.30000012961E+02 0.  0.
        -12    1    1    2    0    0  0.15069705497E+02 -0.24748486482E+02  0.28523354012E+02  0.40659135886E+02  0.00000000000E+00 0.  1.
         11    1    3    3    0    0 -0.13321307022E+02  0.90468729169E+01 -0.25861522522E+02  0.30465086210E+02  0.51100000000E-03 0. -1.
        -11    1    3    3    0    0 -0.31886233753E+01  0.17221222793E+02 -0.34055025383E+01  0.17841952844E+02  0.51100000000E-03 0.  1.
         12    1    3    3    0    0  0.14402249006E+01 -0.15196092272E+01  0.74367104838E+00  0.22218250598E+01  0.00000000000E+00 0. -1.
</event>
<event>
 7    1  0.1024956E-012  0.5052887E+02  0.7816164E-02  0.1300439E+00
        -11   -1    0    0    0    0  0.00000000000E+00  0.00000000000E+00  0.45593999997E+02  0.45594000000E+02  0.51100000000E-03 0. -1.
         11   -1    0    0    0    0 -0.00000000000E+00 -0.00000000000E+00 -0.45593999997E+02  0.45594000000E+02  0.51100000000E-03 0.  1.
    9900012    2    1    2    0    0 -0.18492215061E+02 -0.32215602037E+02  0.16533544126E+02  0.50528866784E+02  0.30000021077E+02 0.  0.
        -12    1    1    2    0    0  0.18492215061E+02  0.32215602037E+02 -0.16533544126E+02  0.40659133216E+02  0.00000000000E+00 0.  1.
         11    1    3    3    0    0 -0.18141165513E+02 -0.29744769505E+02  0.20803165502E+02  0.40578626077E+02  0.51100000000E-03 0. -1.
        -11    1    3    3    0    0 -0.18795268921E+01  0.22690813598E+01  0.57538283634E+00  0.30020688241E+01  0.51100000000E-03 0.  1.
         12    1    3    3    0    0  0.15284773441E+01 -0.47399138920E+01 -0.48450042130E+01  0.69481718832E+01  0.00000000000E+00 0. -1.
</event>
<event>
 7    1  0.1024956E-012  0.5052885E+02  0.7816164E-02  0.1300439E+00
        -11   -1    0    0    0    0  0.00000000000E+00  0.00000000000E+00  0.45593999997E+02  0.45594000000E+02  0.51100000000E-03 0. -1.
         11   -1    0    0    0    0 -0.00000000000E+00 -0.00000000000E+00 -0.45593999997E+02  0.45594000000E+02  0.51100000000E-03 0.  1.
    9900012    2    1    2    0    0  0.15651612814E+02 -0.36610165320E+02  0.82395151474E+01  0.50528846070E+02  0.29999958115E+02 0.  0.
        -12    1    1    2    0    0 -0.15651612814E+02  0.36610165320E+02 -0.82395151474E+01  0.40659153930E+02  0.00000000000E+00 0.  1.
         11    1    3    3    0    0  0.21956503997E+02 -0.23615041939E+02  0.88850525461E+01  0.33447009322E+02  0.51100000000E-03 0. -1.
        -11    1    3    3    0    0 -0.65212219083E+01 -0.13979619456E+02  0.65101631686E+00  0.15439556917E+02  0.51100000000E-03 0.  1.
         12    1    3    3    0    0  0.21633072484E+00  0.98449607510E+00 -0.12965537156E+01  0.16422798305E+01  0.00000000000E+00 0. -1.
</event>
<event>
 7    1  0.1024956E-012  0.5052885E+02  0.7816164E-02  0.1300439E+00
        -11   -1    0    0    0    0  0.00000000000E+00  0.00000000000E+00  0.45593999997E+02  0.45594000000E+02  0.51100000000E-03 0. -1.
         11   -1    0    0    0    0 -0.00000000000E+00 -0.00000000000E+00 -0.45593999997E+02  0.45594000000E+02  0.51100000000E-03 0.  1.
    9900012    2    1    2    0    0  0.38254115144E+02  0.10088547535E+02 -0.93813683980E+01  0.50528853553E+02  0.29999980859E+02 0.  0.
        -12    1    1    2    0    0 -0.38254115144E+02 -0.10088547535E+02  0.93813683980E+01  0.40659146447E+02  0.00000000000E+00 0.  1.
         11    1    3    3    0    0  0.34204798871E+02  0.57788306473E+01 -0.16779466838E+02  0.38534577421E+02  0.51100000000E-03 0. -1.
        -11    1    3    3    0    0  0.58760118828E+01  0.17024889004E+01  0.58088824734E+01  0.84361780419E+01  0.51100000000E-03 0.  1.
         12    1    3    3    0    0 -0.18266956099E+01  0.26072279871E+01  0.15892159662E+01  0.35580980896E+01  0.00000000000E+00 0. -1.
</event>
<event>
 7    1  0.1024956E-012  0.5052887E+02  0.7816164E-02  0.1300439E+00
        -11   -1    0    0    0    0  0.00000000000E+00  0.00000000000E+00  0.45593999997E+02  0.45594000000E+02  0.51100000000E-03 0.  1.
         11   -1    0    0    0    0 -0.00000000000E+00 -0.00000000000E+00 -0.45593999997E+02  0.45594000000E+02  0.51100000000E-03 0. -1.
    9900012    2    1    2    0    0 -0.13245017515E+01  0.30858043248E+02 -0.26442231381E+02  0.50528871401E+02  0.30000035112E+02 0.  0.
        -12    1    1    2    0    0  0.13245017515E+01 -0.30858043248E+02  0.26442231381E+02  0.40659128599E+02  0.00000000000E+00 0.  1.
         11    1    3    3    0    0  0.65749151455E+00  0.30098212322E+02 -0.30989657805E+02  0.43205249348E+02  0.51100000000E-03 0. -1.
        -11    1    3    3    0    0 -0.28534604500E+01  0.50438200046E-01  0.52661382121E+01  0.59897406022E+01  0.51100000000E-03 0.  1.
         12    1    3    3    0    0  0.87146718389E+00  0.70939272601E+00 -0.71871178839E+00  0.13338814517E+01  0.00000000000E+00 0. -1.
</event>
<event>
 7    1  0.1024956E-012  0.5052887E+02  0.7816164E-02  0.1300439E+00
        -11   -1    0    0    0    0  0.00000000000E+00  0.00000000000E+00  0.45593999997E+02  0.45594000000E+02  0.51100000000E-03 0. -1.
         11   -1    0    0    0    0 -0.00000000000E+00 -0.00000000000E+00 -0.45593999997E+02  0.45594000000E+02  0.51100000000E-03 0.  1.
    9900012    2    1    2    0    0 -0.34794430309E+02  0.69470279932E+01 -0.19855763650E+02  0.50528869062E+02  0.30000028002E+02 0.  0.
        -12    1    1    2    0    0  0.34794430309E+02 -0.69470279932E+01  0.19855763650E+02  0.40659130938E+02  0.00000000000E+00 0.  1.
         11    1    3    3    0    0 -0.34449903308E+01  0.15185078480E+00  0.12778285147E+01  0.36774805253E+01  0.51100000000E-03 0. -1.
        -11    1    3    3    0    0 -0.35429014449E+02  0.69042645186E+01 -0.14164304813E+02  0.38775139773E+02  0.51100000000E-03 0.  1.
        -12    1    3    3    0    0  0.40795744701E+01 -0.10908731018E+00 -0.69692873520E+01  0.80762487637E+01  0.00000000000E+00 0.  1.
</event>
<event>
 7    1  0.1024956E-012  0.5052887E+02  0.7816164E-02  0.1300439E+00
        -11   -1    0    0    0    0  0.00000000000E+00  0.00000000000E+00  0.45593999997E+02  0.45594000000E+02  0.51100000000E-03 0.  1.
         11   -1    0    0    0    0 -0.00000000000E+00 -0.00000000000E+00 -0.45593999997E+02  0.45594000000E+02  0.51100000000E-03 0. -1.
    9900012    2    1    2    0    0 -0.32159828597E+02 -0.19029461667E+02 -0.16024652975E+02  0.50528874459E+02  0.30000044407E+02 0.  0.
        -12    1    1    2    0    0  0.32159828597E+02  0.19029461667E+02  0.16024652975E+02  0.40659125541E+02  0.00000000000E+00 0.  1.
         11    1    3    3    0    0 -0.19003247951E+02 -0.86217850954E+01 -0.22126291415E+02  0.30414328579E+02  0.51100000000E-03 0. -1.
        -11    1    3    3    0    0 -0.19638336425E+01 -0.70501191100E+01  0.10881829455E+01  0.73989840130E+01  0.51100000000E-03 0.  1.
         12    1    3    3    0    0 -0.11192747004E+02 -0.33575574619E+01  0.50134554940E+01  0.12715561867E+02  0.00000000000E+00 0. -1.
</event>
<event>
 7    1  0.1024956E-012  0.5052886E+02  0.7816164E-02  0.1300439E+00
        -11   -1    0    0    0    0  0.00000000000E+00  0.00000000000E+00  0.45593999997E+02  0.45594000000E+02  0.51100000000E-03 0. -1.
         11   -1    0    0    0    0 -0.00000000000E+00 -0.00000000000E+00 -0.45593999997E+02  0.45594000000E+02  0.51100000000E-03 0.  1.
    9900012    2    1    2    0    0  0.13304058826E+02 -0.14428701077E+02  0.35608705540E+02  0.50528864419E+02  0.30000013888E+02 0.  0.
        -12    1    1    2    0    0 -0.13304058826E+02  0.14428701077E+02 -0.35608705540E+02  0.40659135581E+02  0.00000000000E+00 0.  1.
         11    1    3    3    0    0  0.12867812874E+02  0.70399779325E+00  0.14289484429E+02  0.19242286417E+02  0.51100000000E-03 0. -1.
        -11    1    3    3    0    0 -0.48715896742E+01 -0.11997244130E+02  0.21523695189E+02  0.25118433620E+02  0.51100000000E-03 0.  1.
         12    1    3    3    0    0  0.53078356265E+01 -0.31354547402E+01 -0.20447407899E+00  0.61681443818E+01  0.00000000000E+00 0. -1.
</event>
<event>
 7    1  0.1024956E-012  0.5052886E+02  0.7816164E-02  0.1300439E+00
        -11   -1    0    0    0    0  0.00000000000E+00  0.00000000000E+00  0.45593999997E+02  0.45594000000E+02  0.51100000000E-03 0.  1.
         11   -1    0    0    0    0 -0.00000000000E+00 -0.00000000000E+00 -0.45593999997E+02  0.45594000000E+02  0.51100000000E-03 0. -1.
    9900012    2    1    2    0    0 -0.40402185678E+02 -0.35488910321E+01 -0.28696345733E+01  0.50528855423E+02  0.29999986545E+02 0.  0.
        -12    1    1    2    0    0  0.40402185678E+02  0.35488910321E+01  0.28696345733E+01  0.40659144577E+02  0.00000000000E+00 0.  1.
         11    1    3    3    0    0  0.21022203958E+00  0.25955506814E+01 -0.80599136420E+00  0.27259308476E+01  0.51100000000E-03 0. -1.
        -11    1    3    3    0    0 -0.22301502671E+02 -0.61870244547E+01  0.10684782385E+02  0.25491191966E+02  0.51100000000E-03 0.  1.
        -12    1    3    3    0    0 -0.18310905047E+02  0.42582741223E-01 -0.12748425594E+02  0.22311732610E+02  0.00000000000E+00 0.  1.
</event>
<event>
 7    1  0.1024956E-012  0.5052881E+02  0.7816164E-02  0.1300439E+00
        -11   -1    0    0    0    0  0.00000000000E+00  0.00000000000E+00  0.45593999997E+02  0.45594000000E+02  0.51100000000E-03 0.  1.
         11   -1    0    0    0    0 -0.00000000000E+00 -0.00000000000E+00 -0.45593999997E+02  0.45594000000E+02  0.51100000000E-03 0. -1.
    9900012    2    1    2    0    0 -0.23650215943E+02  0.32274810847E+02 -0.72231235081E+01  0.50528811093E+02  0.29999851798E+02 0.  0.
        -12    1    1    2    0    0  0.23650215943E+02 -0.32274810847E+02  0.72231235081E+01  0.40659188907E+02  0.00000000000E+00 0.  1.
         11    1    3    3    0    0 -0.21466143830E+02  0.36272017768E+02 -0.10845017393E+02  0.43520903097E+02  0.51100000000E-03 0. -1.
        -11    1    3    3    0    0 -0.15329781848E+01 -0.34536738393E+01  0.54676817701E+00  0.38179629128E+01  0.51100000000E-03 0.  1.
         12    1    3    3    0    0 -0.65109392827E+00 -0.54353308178E+00  0.30751257078E+01  0.31899450831E+01  0.00000000000E+00 0. -1.
</event>
<event>
 7    1  0.1024956E-012  0.5052886E+02  0.7816164E-02  0.1300439E+00
        -11   -1    0    0    0    0  0.00000000000E+00  0.00000000000E+00  0.45593999997E+02  0.45594000000E+02  0.51100000000E-03 0.  1.
         11   -1    0    0    0    0 -0.00000000000E+00 -0.00000000000E+00 -0.45593999997E+02  0.45594000000E+02  0.51100000000E-03 0. -1.
    9900012    2    1    2    0    0 -0.12946238136E+02  0.35191261371E+02 -0.15720541900E+02  0.50528863310E+02  0.30000010517E+02 0.  0.
        -12    1    1    2    0    0  0.12946238136E+02 -0.35191261371E+02  0.15720541900E+02  0.40659136690E+02  0.00000000000E+00 0.  1.
         11    1    3    3    0    0 -0.14334961430E+01  0.34417298501E+01 -0.16504709223E+01  0.40773116240E+01  0.51100000000E-03 0. -1.
        -11    1    3    3    0    0 -0.33573615743E+01  0.70758666474E+01 -0.18500543893E+02  0.20090044553E+02  0.51100000000E-03 0.  1.
        -12    1    3    3    0    0 -0.81553804184E+01  0.24673664874E+02  0.44304729150E+01  0.26361507133E+02  0.00000000000E+00 0.  1.
</event>
<event>
 7    1  0.1024956E-012  0.5052887E+02  0.7816164E-02  0.1300439E+00
        -11   -1    0    0    0    0  0.00000000000E+00  0.00000000000E+00  0.45593999997E+02  0.45594000000E+02  0.51100000000E-03 0. -1.
         11   -1    0    0    0    0 -0.00000000000E+00 -0.00000000000E+00 -0.45593999997E+02  0.45594000000E+02  0.51100000000E-03 0.  1.
    9900012    2    1    2    0    0 -0.63156579861E+01  0.47984985120E+01  0.39877959565E+02  0.50528870855E+02  0.30000033452E+02 0.  0.
        -12    1    1    2    0    0  0.63156579861E+01 -0.47984985120E+01 -0.39877959565E+02  0.40659129145E+02  0.00000000000E+00 0.  1.
         11    1    3    3    0    0  0.34980637994E+00 -0.99485553634E+01  0.17087014077E+02  0.19775291873E+02  0.51100000000E-03 0. -1.
        -11    1    3    3    0    0 -0.22050718072E+01  0.12217177167E+02  0.22400760542E+02  0.25610853807E+02  0.51100000000E-03 0.  1.
         12    1    3    3    0    0 -0.44603925588E+01  0.25298767089E+01  0.39018494535E+00  0.51427251757E+01  0.00000000000E+00 0. -1.
</event>
<event>
 7    1  0.1024956E-012  0.5052885E+02  0.7816164E-02  0.1300439E+00
        -11   -1    0    0    0    0  0.00000000000E+00  0.00000000000E+00  0.45593999997E+02  0.45594000000E+02  0.51100000000E-03 0.  1.
         11   -1    0    0    0    0 -0.00000000000E+00 -0.00000000000E+00 -0.45593999997E+02  0.45594000000E+02  0.51100000000E-03 0. -1.
    9900012    2    1    2    0    0 -0.20356595546E+02 -0.26997033472E+02 -0.22581748730E+02  0.50528853745E+02  0.29999981442E+02 0.  0.
        -12    1    1    2    0    0  0.20356595546E+02  0.26997033472E+02  0.22581748730E+02  0.40659146255E+02  0.00000000000E+00 0.  1.
         11    1    3    3    0    0  0.65286903417E+01 -0.13360397250E+01 -0.25093084054E+01  0.71207744424E+01  0.51100000000E-03 0. -1.
        -11    1    3    3    0    0 -0.57912405193E+01 -0.30155553884E+01 -0.15852441049E-01  0.65293409020E+01  0.51100000000E-03 0.  1.
         12    1    3    3    0    0 -0.21094045369E+02 -0.22645438359E+02 -0.20056587883E+02  0.36878738400E+02  0.00000000000E+00 0. -1.
</event>
<event>
 7    1  0.1024956E-012  0.5052885E+02  0.7816164E-02  0.1300439E+00
        -11   -1    0    0    0    0  0.00000000000E+00  0.00000000000E+00  0.45593999997E+02  0.45594000000E+02  0.51100000000E-03 0.  1.
         11   -1    0    0    0    0 -0.00000000000E+00 -0.00000000000E+00 -0.45593999997E+02  0.45594000000E+02  0.51100000000E-03 0. -1.
    9900012    2    1    2    0    0 -0.50559911473E+01  0.38697224007E+02  0.11407368723E+02  0.50528852770E+02  0.29999978479E+02 0.  0.
        -12    1    1    2    0    0  0.50559911473E+01 -0.38697224007E+02 -0.11407368723E+02  0.40659147230E+02  0.00000000000E+00 0.  1.
         11    1    3    3    0    0 -0.90264524050E+01  0.95928971840E+01  0.48200941002E+01  0.14026183615E+02  0.51100000000E-03 0. -1.
        -11    1    3    3    0    0  0.12403907821E+02  0.15407682364E+02  0.44721111186E+01  0.20279383205E+02  0.51100000000E-03 0.  1.
        -12    1    3    3    0    0 -0.84334465633E+01  0.13696644459E+02  0.21151635038E+01  0.16223285950E+02  0.00000000000E+00 0.  1.
</event>
<event>
 7    1  0.1024956E-012  0.5052886E+02  0.7816164E-02  0.1300439E+00
        -11   -1    0    0    0    0  0.00000000000E+00  0.00000000000E+00  0.45593999997E+02  0.45594000000E+02  0.51100000000E-03 0.  1.
         11   -1    0    0    0    0 -0.00000000000E+00 -0.00000000000E+00 -0.45593999997E+02  0.45594000000E+02  0.51100000000E-03 0. -1.
    9900012    2    1    2    0    0  0.26644734079E+01 -0.99236660902E+01 -0.39339380349E+02  0.50528863100E+02  0.30000009880E+02 0.  0.
        -12    1    1    2    0    0 -0.26644734079E+01  0.99236660902E+01  0.39339380349E+02  0.40659136900E+02  0.00000000000E+00 0.  1.
         11    1    3    3    0    0  0.68315045807E+01  0.59187122030E+01 -0.18348993604E+02  0.20454490351E+02  0.51100000000E-03 0. -1.
        -11    1    3    3    0    0 -0.43970402881E+01 -0.17354048589E+02 -0.21907024277E+02  0.28291600850E+02  0.51100000000E-03 0.  1.
         12    1    3    3    0    0  0.23000911525E+00  0.15116702961E+01  0.91663753272E+00  0.17827718989E+01  0.00000000000E+00 0. -1.
</event>
<event>
 7    1  0.1024956E-012  0.5052887E+02  0.7816164E-02  0.1300439E+00
        -11   -1    0    0    0    0  0.00000000000E+00  0.00000000000E+00  0.45593999997E+02  0.45594000000E+02  0.51100000000E-03 0.  1.
         11   -1    0    0    0    0 -0.00000000000E+00 -0.00000000000E+00 -0.45593999997E+02  0.45594000000E+02  0.51100000000E-03 0. -1.
    9900012    2    1    2    0    0 -0.38511498799E+02  0.64365153555E+01 -0.11340212314E+02  0.50528872058E+02  0.30000037107E+02 0.  0.
        -12    1    1    2    0    0  0.38511498799E+02 -0.64365153555E+01  0.11340212314E+02  0.40659127942E+02  0.00000000000E+00 0.  1.
         11    1    3    3    0    0 -0.86503560136E+01  0.48712403698E+01  0.29888513708E+01  0.10367780605E+02  0.51100000000E-03 0.  1.
        -11    1    3    3    0    0 -0.28046412827E+02 -0.68483085579E+01 -0.11813972654E+02  0.31194078808E+02  0.51100000000E-03 0. -1.
        -12    1    3    3    0    0 -0.18147299584E+01  0.84135835436E+01 -0.25150910310E+01  0.89670126442E+01  0.00000000000E+00 0.  1.
</event>
<event>
 7    1  0.1024956E-012  0.5052886E+02  0.7816164E-02  0.1300439E+00
        -11   -1    0    0    0    0  0.00000000000E+00  0.00000000000E+00  0.45593999997E+02  0.45594000000E+02  0.51100000000E-03 0. -1.
         11   -1    0    0    0    0 -0.00000000000E+00 -0.00000000000E+00 -0.45593999997E+02  0.45594000000E+02  0.51100000000E-03 0.  1.
    9900012    2    1    2    0    0 -0.32732844677E+02 -0.21149802719E+00  0.24118081478E+02  0.50528859499E+02  0.29999998934E+02 0.  0.
        -12    1    1    2    0    0  0.32732844677E+02  0.21149802719E+00 -0.24118081478E+02  0.40659140501E+02  0.00000000000E+00 0.  1.
         11    1    3    3    0    0 -0.17454209206E+02  0.11717371321E+02  0.52887429540E+01  0.21677569329E+02  0.51100000000E-03 0. -1.
        -11    1    3    3    0    0  0.22166435450E+00 -0.47333450322E+01  0.47500604462E+01  0.67094533893E+01  0.51100000000E-03 0.  1.
         12    1    3    3    0    0 -0.15500299825E+02 -0.71955243161E+01  0.14079278078E+02  0.22141836781E+02  0.00000000000E+00 0. -1.
</event>
<event>
 7    1  0.1024956E-012  0.5052886E+02  0.7816164E-02  0.1300439E+00
        -11   -1    0    0    0    0  0.00000000000E+00  0.00000000000E+00  0.45593999997E+02  0.45594000000E+02  0.51100000000E-03 0.  1.
         11   -1    0    0    0    0 -0.00000000000E+00 -0.00000000000E+00 -0.45593999997E+02  0.45594000000E+02  0.51100000000E-03 0. -1.
    9900012    2    1    2    0    0 -0.10738001150E+02 -0.34545924849E+02 -0.18559100600E+02  0.50528858255E+02  0.29999995152E+02 0.  0.
        -12    1    1    2    0    0  0.10738001150E+02  0.34545924849E+02  0.18559100600E+02  0.40659141745E+02  0.00000000000E+00 0.  1.
         11    1    3    3    0    0 -0.64346564436E+01  0.18908135450E+01 -0.50437934990E+01  0.83916525506E+01  0.51100000000E-03 0. -1.
        -11    1    3    3    0    0  0.55710169761E+01 -0.18194133593E+02 -0.82258807421E+01  0.20729877992E+02  0.51100000000E-03 0.  1.
         12    1    3    3    0    0 -0.98743616822E+01 -0.18242604801E+02 -0.52894263586E+01  0.21407327712E+02  0.00000000000E+00 0. -1.
</event>
<event>
 7    1  0.1024956E-012  0.5052887E+02  0.7816164E-02  0.1300439E+00
        -11   -1    0    0    0    0  0.00000000000E+00  0.00000000000E+00  0.45593999997E+02  0.45594000000E+02  0.51100000000E-03 0.  1.
         11   -1    0    0    0    0 -0.00000000000E+00 -0.00000000000E+00 -0.45593999997E+02  0.45594000000E+02  0.51100000000E-03 0. -1.
    9900012    2    1    2    0    0 -0.25032655350E+01 -0.39470107064E+02 -0.94344744110E+01  0.50528868217E+02  0.30000025432E+02 0.  0.
        -12    1    1    2    0    0  0.25032655350E+01  0.39470107064E+02  0.94344744110E+01  0.40659131783E+02  0.00000000000E+00 0.  1.
         11    1    3    3    0    0 -0.87011443996E+00 -0.16631936062E+02 -0.17346261203E+02  0.24047269581E+02  0.51100000000E-03 0. -1.
        -11    1    3    3    0    0 -0.51176280987E+01 -0.52135242992E+01  0.23801709379E+01  0.76834996538E+01  0.51100000000E-03 0.  1.
         12    1    3    3    0    0  0.34844770036E+01 -0.17624646702E+02  0.55316158545E+01  0.18798098982E+02  0.00000000000E+00 0. -1.
</event>
<event>
 7    1  0.1024956E-012  0.5052887E+02  0.7816164E-02  0.1300439E+00
        -11   -1    0    0    0    0  0.00000000000E+00  0.00000000000E+00  0.45593999997E+02  0.45594000000E+02  0.51100000000E-03 0. -1.
         11   -1    0    0    0    0 -0.00000000000E+00 -0.00000000000E+00 -0.45593999997E+02  0.45594000000E+02  0.51100000000E-03 0.  1.
    9900012    2    1    2    0    0 -0.39090455777E+02  0.11178657293E+02 -0.37279120260E+00  0.50528867139E+02  0.30000022156E+02 0.  0.
        -12    1    1    2    0    0  0.39090455777E+02 -0.11178657293E+02  0.37279120260E+00  0.40659132861E+02  0.00000000000E+00 0.  1.
         11    1    3    3    0    0 -0.43169089133E+01  0.13995096780E+01  0.44418245474E+01  0.63501287763E+01  0.51100000000E-03 0. -1.
        -11    1    3    3    0    0 -0.21805377304E+02 -0.56391478009E+01 -0.77506208852E+01  0.23819038429E+02  0.51100000000E-03 0.  1.
        -12    1    3    3    0    0 -0.12968169559E+02  0.15418295416E+02  0.29360051352E+01  0.20359699934E+02  0.00000000000E+00 0.  1.
</event>
<event>
 7    1  0.1024956E-012  0.5052886E+02  0.7816164E-02  0.1300439E+00
        -11   -1    0    0    0    0  0.00000000000E+00  0.00000000000E+00  0.45593999997E+02  0.45594000000E+02  0.51100000000E-03 0.  1.
         11   -1    0    0    0    0 -0.00000000000E+00 -0.00000000000E+00 -0.45593999997E+02  0.45594000000E+02  0.51100000000E-03 0. -1.
    9900012    2    1    2    0    0 -0.23902203202E+02 -0.14008877252E+02 -0.29759055555E+02  0.50528863913E+02  0.30000012351E+02 0.  0.
        -12    1    1    2    0    0  0.23902203202E+02  0.14008877252E+02  0.29759055555E+02  0.40659136087E+02  0.00000000000E+00 0.  1.
         11    1    3    3    0    0 -0.98297192601E+01 -0.11177904779E+02 -0.22864967868E+02  0.27283249291E+02  0.51100000000E-03 0. -1.
        -11    1    3    3    0    0 -0.54369579646E+01 -0.43876487811E+01  0.49085910748E+01  0.85385151130E+01  0.51100000000E-03 0.  1.
         12    1    3    3    0    0 -0.86355259773E+01  0.15566763086E+01 -0.11802678762E+02  0.14707099510E+02  0.00000000000E+00 0. -1.
</event>
<event>
 7    1  0.1024956E-012  0.5052887E+02  0.7816164E-02  0.1300439E+00
        -11   -1    0    0    0    0  0.00000000000E+00  0.00000000000E+00  0.45593999997E+02  0.45594000000E+02  0.51100000000E-03 0. -1.
         11   -1    0    0    0    0 -0.00000000000E+00 -0.00000000000E+00 -0.45593999997E+02  0.45594000000E+02  0.51100000000E-03 0.  1.
    9900012    2    1    2    0    0 -0.36038598176E+02  0.12204876221E+02  0.14332672423E+02  0.50528867436E+02  0.30000023058E+02 0.  0.
        -12    1    1    2    0    0  0.36038598176E+02 -0.12204876221E+02 -0.14332672423E+02  0.40659132564E+02  0.00000000000E+00 0.  1.
         11    1    3    3    0    0 -0.17407951635E+02  0.19388092736E+02  0.14511303127E+02  0.29824701822E+02  0.51100000000E-03 0. -1.
        -11    1    3    3    0    0 -0.16934608483E+01 -0.12882378047E+01 -0.16752230340E+01  0.27080876576E+01  0.51100000000E-03 0.  1.
         12    1    3    3    0    0 -0.16937185693E+02 -0.58949787107E+01  0.14965923305E+01  0.17996077956E+02  0.00000000000E+00 0. -1.
</event>
<event>
 7    1  0.1024956E-012  0.5052884E+02  0.7816164E-02  0.1300439E+00
        -11   -1    0    0    0    0  0.00000000000E+00  0.00000000000E+00  0.45593999997E+02  0.45594000000E+02  0.51100000000E-03 0. -1.
         11   -1    0    0    0    0 -0.00000000000E+00 -0.00000000000E+00 -0.45593999997E+02  0.45594000000E+02  0.51100000000E-03 0.  1.
    9900012    2    1    2    0    0 -0.24340694419E+02 -0.32267676716E+02  0.44153070652E+01  0.50528839877E+02  0.29999939290E+02 0.  0.
        -12    1    1    2    0    0  0.24340694419E+02  0.32267676716E+02 -0.44153070652E+01  0.40659160123E+02  0.00000000000E+00 0.  1.
         11    1    3    3    0    0 -0.10681711838E+02 -0.15805281835E+02  0.14049304658E+02  0.23691535689E+02  0.51100000000E-03 0. -1.
        -11    1    3    3    0    0 -0.13328808042E+02 -0.14775637463E+02 -0.31716988546E+01  0.20150341440E+02  0.51100000000E-03 0.  1.
         12    1    3    3    0    0 -0.33017453879E+00 -0.16867574181E+01 -0.64622987381E+01  0.66869627481E+01  0.00000000000E+00 0. -1.
</event>
<event>
 7    1  0.1024956E-012  0.5052886E+02  0.7816164E-02  0.1300439E+00
        -11   -1    0    0    0    0  0.00000000000E+00  0.00000000000E+00  0.45593999997E+02  0.45594000000E+02  0.51100000000E-03 0. -1.
         11   -1    0    0    0    0 -0.00000000000E+00 -0.00000000000E+00 -0.45593999997E+02  0.45594000000E+02  0.51100000000E-03 0.  1.
    9900012    2    1    2    0    0  0.14236600351E+02  0.37262668188E+02  0.78726603465E+01  0.50528855752E+02  0.29999987543E+02 0.  0.
        -12    1    1    2    0    0 -0.14236600351E+02 -0.37262668188E+02 -0.78726603465E+01  0.40659144248E+02  0.00000000000E+00 0.  1.
         11    1    3    3    0    0  0.40898018059E+01  0.15620365070E+02  0.13331528073E+02  0.20939243652E+02  0.51100000000E-03 0. -1.
        -11    1    3    3    0    0  0.46704767153E+01  0.45768816763E+01 -0.91936481811E+01  0.11282037306E+02  0.51100000000E-03 0.  1.
        -12    1    3    3    0    0  0.54763218300E+01  0.17065421442E+02  0.37347804549E+01  0.18307574794E+02  0.00000000000E+00 0.  1.
</event>
<event>
 7    1  0.1024956E-012  0.5052886E+02  0.7816164E-02  0.1300439E+00
        -11   -1    0    0    0    0  0.00000000000E+00  0.00000000000E+00  0.45593999997E+02  0.45594000000E+02  0.51100000000E-03 0. -1.
         11   -1    0    0    0    0 -0.00000000000E+00 -0.00000000000E+00 -0.45593999997E+02  0.45594000000E+02  0.51100000000E-03 0.  1.
    9900012    2    1    2    0    0 -0.24455873962E+02 -0.20053460160E+02  0.25552592709E+02  0.50528855521E+02  0.29999986841E+02 0.  0.
        -12    1    1    2    0    0  0.24455873962E+02  0.20053460160E+02 -0.25552592709E+02  0.40659144479E+02  0.00000000000E+00 0.  1.
         11    1    3    3    0    0 -0.64652424431E+01 -0.10870589937E+02 -0.43557672084E+01  0.13376912711E+02  0.51100000000E-03 0. -1.
        -11    1    3    3    0    0 -0.31140328658E+00 -0.12117083710E+01  0.71180390092E+01  0.72271494229E+01  0.51100000000E-03 0.  1.
         12    1    3    3    0    0 -0.17679228233E+02 -0.79711618512E+01  0.22790320908E+02  0.29924793387E+02  0.00000000000E+00 0. -1.
</event>
<event>
 7    1  0.1024956E-012  0.5052886E+02  0.7816164E-02  0.1300439E+00
        -11   -1    0    0    0    0  0.00000000000E+00  0.00000000000E+00  0.45593999997E+02  0.45594000000E+02  0.51100000000E-03 0.  1.
         11   -1    0    0    0    0 -0.00000000000E+00 -0.00000000000E+00 -0.45593999997E+02  0.45594000000E+02  0.51100000000E-03 0. -1.
    9900012    2    1    2    0    0  0.16260960158E+02 -0.98217832302E+01 -0.35948289710E+02  0.50528858541E+02  0.29999996022E+02 0.  0.
        -12    1    1    2    0    0 -0.16260960158E+02  0.98217832302E+01  0.35948289710E+02  0.40659141459E+02  0.00000000000E+00 0.  1.
         11    1    3    3    0    0  0.31269914087E+01 -0.72903353895E+01 -0.22456526424E+02  0.23816436439E+02  0.51100000000E-03 0. -1.
        -11    1    3    3    0    0  0.11016443882E+02 -0.19087938911E+01  0.17455967194E+01  0.11316034557E+02  0.51100000000E-03 0.  1.
        -12    1    3    3    0    0  0.21175248673E+01 -0.62265394950E+00 -0.15237360005E+02  0.15396387545E+02  0.00000000000E+00 0.  1.
</event>
<event>
 7    1  0.1281134E-012  0.5052897E+02  0.7816164E-02  0.1300438E+00
        -11   -1    0    0    0    0  0.00000000000E+00  0.00000000000E+00  0.45593999997E+02  0.45594000000E+02  0.51100000000E-03 0.  1.
         11   -1    0    0    0    0 -0.00000000000E+00 -0.00000000000E+00 -0.45593999997E+02  0.45594000000E+02  0.51100000000E-03 0. -1.
    9900012    2    1    2    0    0 -0.25020634805E+02  0.28307923108E+02  0.15026167354E+02  0.50528974162E+02  0.30000347461E+02 0.  0.
        -12    1    1    2    0    0  0.25020634805E+02 -0.28307923108E+02 -0.15026167354E+02  0.40659025838E+02  0.00000000000E+00 0.  1.
         11    1    3    3    0    0 -0.21467793610E+02  0.24238299898E+02  0.69309882852E+01  0.33111930528E+02  0.51100000000E-03 0. -1.
        -11    1    3    3    0    0 -0.56835478114E+01 -0.27325816744E+01  0.81296246261E+01  0.10288853928E+02  0.51100000000E-03 0.  1.
        -12    1    3    3    0    0  0.21307066168E+01  0.68022048852E+01 -0.34445557466E-01  0.71281897059E+01  0.00000000000E+00 0.  1.
</event>
<event>
 7    1  0.1024956E-012  0.5052886E+02  0.7816164E-02  0.1300439E+00
        -11   -1    0    0    0    0  0.00000000000E+00  0.00000000000E+00  0.45593999997E+02  0.45594000000E+02  0.51100000000E-03 0.  1.
         11   -1    0    0    0    0 -0.00000000000E+00 -0.00000000000E+00 -0.45593999997E+02  0.45594000000E+02  0.51100000000E-03 0. -1.
    9900012    2    1    2    0    0  0.12728690601E+02  0.93593704815E+01 -0.37463958968E+02  0.50528860784E+02  0.30000002838E+02 0.  0.
        -12    1    1    2    0    0 -0.12728690601E+02 -0.93593704815E+01  0.37463958968E+02  0.40659139216E+02  0.00000000000E+00 0.  1.
         11    1    3    3    0    0  0.94353627446E+01  0.18593301169E+02 -0.22742114358E+02  0.30853536008E+02  0.51100000000E-03 0. -1.
        -11    1    3    3    0    0 -0.20326349375E+01 -0.58105519005E+01 -0.44008773538E+01  0.75671553388E+01  0.51100000000E-03 0.  1.
        -12    1    3    3    0    0  0.53259627943E+01 -0.34233787868E+01 -0.10320967256E+02  0.12108169437E+02  0.00000000000E+00 0.  1.
</event>
<event>
 7    1  0.1024956E-012  0.5052885E+02  0.7816164E-02  0.1300439E+00
        -11   -1    0    0    0    0  0.00000000000E+00  0.00000000000E+00  0.45593999997E+02  0.45594000000E+02  0.51100000000E-03 0. -1.
         11   -1    0    0    0    0 -0.00000000000E+00 -0.00000000000E+00 -0.45593999997E+02  0.45594000000E+02  0.51100000000E-03 0.  1.
    9900012    2    1    2    0    0  0.36277356556E+02 -0.18358622398E+02 -0.28477044606E+00  0.50528847165E+02  0.29999961444E+02 0.  0.
        -12    1    1    2    0    0 -0.36277356556E+02  0.18358622398E+02  0.28477044606E+00  0.40659152835E+02  0.00000000000E+00 0.  1.
         11    1    3    3    0    0  0.16881980550E+02 -0.23962017429E+02  0.50134413245E+00  0.29316051794E+02  0.51100000000E-03 0.  1.
        -11    1    3    3    0    0  0.16204876917E+02  0.26743577080E+01  0.11590724014E+01  0.16464922537E+02  0.51100000000E-03 0. -1.
        -12    1    3    3    0    0  0.31904990881E+01  0.29290373226E+01 -0.19451869799E+01  0.47478728348E+01  0.00000000000E+00 0.  1.
</event>
<event>
 7    1  0.1024956E-012  0.5052886E+02  0.7816164E-02  0.1300439E+00
        -11   -1    0    0    0    0  0.00000000000E+00  0.00000000000E+00  0.45593999997E+02  0.45594000000E+02  0.51100000000E-03 0.  1.
         11   -1    0    0    0    0 -0.00000000000E+00 -0.00000000000E+00 -0.45593999997E+02  0.45594000000E+02  0.51100000000E-03 0. -1.
    9900012    2    1    2    0    0  0.33653212967E+02 -0.78010330609E+01  0.21442258945E+02  0.50528864145E+02  0.30000013057E+02 0.  0.
        -12    1    1    2    0    0 -0.33653212967E+02  0.78010330609E+01 -0.21442258945E+02  0.40659135855E+02  0.00000000000E+00 0.  1.
         11    1    3    3    0    0  0.22723261796E+02  0.19436637654E+01  0.18808215199E+02  0.29561350015E+02  0.51100000000E-03 0. -1.
        -11    1    3    3    0    0  0.12832306199E+01 -0.10888037800E+02  0.25575283947E+00  0.10966378515E+02  0.51100000000E-03 0.  1.
         12    1    3    3    0    0  0.96467205511E+01  0.11433409736E+01  0.23782909065E+01  0.10001135616E+02  0.00000000000E+00 0. -1.
</event>
<event>
 7    1  0.1024956E-012  0.5052887E+02  0.7816164E-02  0.1300439E+00
        -11   -1    0    0    0    0  0.00000000000E+00  0.00000000000E+00  0.45593999997E+02  0.45594000000E+02  0.51100000000E-03 0. -1.
         11   -1    0    0    0    0 -0.00000000000E+00 -0.00000000000E+00 -0.45593999997E+02  0.45594000000E+02  0.51100000000E-03 0.  1.
    9900012    2    1    2    0    0  0.31625922191E+02 -0.24251007831E+02  0.80532503981E+01  0.50528866005E+02  0.30000018708E+02 0.  0.
        -12    1    1    2    0    0 -0.31625922191E+02  0.24251007831E+02 -0.80532503981E+01  0.40659133995E+02  0.00000000000E+00 0.  1.
         11    1    3    3    0    0  0.25110115126E+02 -0.12555953962E+02  0.56078786689E+01  0.28628974221E+02  0.51100000000E-03 0. -1.
        -11    1    3    3    0    0 -0.24643512470E+00 -0.14105582910E+02 -0.55605119326E+00  0.14118689482E+02  0.51100000000E-03 0.  1.
        -12    1    3    3    0    0  0.67622421901E+01  0.24105290414E+01  0.30014229225E+01  0.77812023015E+01  0.00000000000E+00 0.  1.
</event>
<event>
 7    1  0.1024956E-012  0.5052886E+02  0.7816164E-02  0.1300439E+00
        -11   -1    0    0    0    0  0.00000000000E+00  0.00000000000E+00  0.45593999997E+02  0.45594000000E+02  0.51100000000E-03 0.  1.
         11   -1    0    0    0    0 -0.00000000000E+00 -0.00000000000E+00 -0.45593999997E+02  0.45594000000E+02  0.51100000000E-03 0. -1.
    9900012    2    1    2    0    0  0.29591743811E+02  0.20376818840E+02 -0.19033639132E+02  0.50528862449E+02  0.30000007899E+02 0.  0.
        -12    1    1    2    0    0 -0.29591743811E+02 -0.20376818840E+02  0.19033639132E+02  0.40659137551E+02  0.00000000000E+00 0.  1.
         11    1    3    3    0    0  0.99461178749E+01  0.34162523191E+01 -0.61196966681E+01  0.12167445429E+02  0.51100000000E-03 0. -1.
        -11    1    3    3    0    0  0.11808420403E+02  0.67245531529E+01  0.64948234858E+01  0.15061246292E+02  0.51100000000E-03 0.  1.
        -12    1    3    3    0    0  0.78372055339E+01  0.10236013368E+02 -0.19408765949E+02  0.23300170727E+02  0.00000000000E+00 0.  1.
</event>
<event>
 7    1  0.1024956E-012  0.5052886E+02  0.7816164E-02  0.1300439E+00
        -11   -1    0    0    0    0  0.00000000000E+00  0.00000000000E+00  0.45593999997E+02  0.45594000000E+02  0.51100000000E-03 0.  1.
         11   -1    0    0    0    0 -0.00000000000E+00 -0.00000000000E+00 -0.45593999997E+02  0.45594000000E+02  0.51100000000E-03 0. -1.
    9900012    2    1    2    0    0 -0.39591487299E+02  0.89917545930E+01 -0.21972335386E+01  0.50528863850E+02  0.30000012159E+02 0.  0.
        -12    1    1    2    0    0  0.39591487299E+02 -0.89917545930E+01  0.21972335386E+01  0.40659136150E+02  0.00000000000E+00 0.  1.
         11    1    3    3    0    0 -0.22019005757E+02 -0.50668775961E+01  0.73014056261E+01  0.23744902347E+02  0.51100000000E-03 0. -1.
        -11    1    3    3    0    0 -0.73818219010E+01  0.59612913730E+01 -0.99648616778E+01  0.13759606024E+02  0.51100000000E-03 0.  1.
         12    1    3    3    0    0 -0.10190659642E+02  0.80973408160E+01  0.46622251317E+00  0.13024355479E+02  0.00000000000E+00 0. -1.
</event>
<event>
 7    1  0.1024956E-012  0.5052886E+02  0.7816164E-02  0.1300439E+00
        -11   -1    0    0    0    0  0.00000000000E+00  0.00000000000E+00  0.45593999997E+02  0.45594000000E+02  0.51100000000E-03 0.  1.
         11   -1    0    0    0    0 -0.00000000000E+00 -0.00000000000E+00 -0.45593999997E+02  0.45594000000E+02  0.51100000000E-03 0. -1.
    9900012    2    1    2    0    0  0.15265764570E+02 -0.37463341924E+02 -0.40768224022E+01  0.50528855433E+02  0.29999986574E+02 0.  0.
        -12    1    1    2    0    0 -0.15265764570E+02  0.37463341924E+02  0.40768224022E+01  0.40659144567E+02  0.00000000000E+00 0.  1.
         11    1    3    3    0    0  0.31303042194E+01 -0.17844724856E+02 -0.36767345378E+00  0.18120932474E+02  0.51100000000E-03 0. -1.
        -11    1    3    3    0    0  0.19650757630E+01  0.46819315047E+01  0.19932201429E+01  0.54548081697E+01  0.51100000000E-03 0.  1.
        -12    1    3    3    0    0  0.10170384587E+02 -0.24300548573E+02 -0.57023690914E+01  0.26953114790E+02  0.00000000000E+00 0.  1.
</event>
<event>
 7    1  0.1024956E-012  0.5052886E+02  0.7816164E-02  0.1300439E+00
        -11   -1    0    0    0    0  0.00000000000E+00  0.00000000000E+00  0.45593999997E+02  0.45594000000E+02  0.51100000000E-03 0.  1.
         11   -1    0    0    0    0 -0.00000000000E+00 -0.00000000000E+00 -0.45593999997E+02  0.45594000000E+02  0.51100000000E-03 0. -1.
    9900012    2    1    2    0    0 -0.21772589496E+02  0.22361440003E+02 -0.26059273405E+02  0.50528863477E+02  0.30000011026E+02 0.  0.
        -12    1    1    2    0    0  0.21772589496E+02 -0.22361440003E+02  0.26059273405E+02  0.40659136523E+02  0.00000000000E+00 0.  1.
         11    1    3    3    0    0 -0.16681539329E+02  0.14271286402E+02 -0.54000613484E+01  0.22607610063E+02  0.51100000000E-03 0. -1.
        -11    1    3    3    0    0 -0.24660722147E+01 -0.42314359446E+01 -0.11017400228E+02  0.12056934534E+02  0.51100000000E-03 0.  1.
         12    1    3    3    0    0 -0.26249779529E+01  0.12321589546E+02 -0.96418118286E+01  0.15864318880E+02  0.00000000000E+00 0. -1.
</event>
<event>
 7    1  0.1024956E-012  0.5052885E+02  0.7816164E-02  0.1300439E+00
        -11   -1    0    0    0    0  0.00000000000E+00  0.00000000000E+00  0.45593999997E+02  0.45594000000E+02  0.51100000000E-03 0.  1.
         11   -1    0    0    0    0 -0.00000000000E+00 -0.00000000000E+00 -0.45593999997E+02  0.45594000000E+02  0.51100000000E-03 0. -1.
    9900012    2    1    2    0    0  0.11295409543E+02 -0.38652882366E+02 -0.56155730604E+01  0.50528852779E+02  0.29999978507E+02 0.  0.
        -12    1    1    2    0    0 -0.11295409543E+02  0.38652882366E+02  0.56155730604E+01  0.40659147221E+02  0.00000000000E+00 0.  1.
         11    1    3    3    0    0  0.23285391561E+00 -0.13388190581E+02 -0.83277111775E+01  0.15768596694E+02  0.51100000000E-03 0. -1.
        -11    1    3    3    0    0  0.61610004029E+00 -0.16549698734E+01  0.81813220869E+01  0.83697392966E+01  0.51100000000E-03 0.  1.
        -12    1    3    3    0    0  0.10446455587E+02 -0.23609721911E+02 -0.54691839699E+01  0.26390516788E+02  0.00000000000E+00 0.  1.
</event>
<event>
 7    1  0.1024956E-012  0.5052895E+02  0.7816164E-02  0.1300438E+00
        -11   -1    0    0    0    0  0.00000000000E+00  0.00000000000E+00  0.45593999997E+02  0.45594000000E+02  0.51100000000E-03 0.  1.
         11   -1    0    0    0    0 -0.00000000000E+00 -0.00000000000E+00 -0.45593999997E+02  0.45594000000E+02  0.51100000000E-03 0. -1.
    9900012    2    1    2    0    0  0.26744354728E+01  0.39242679104E+02 -0.10296483811E+02  0.50528953685E+02  0.30000285220E+02 0.  0.
        -12    1    1    2    0    0 -0.26744354728E+01 -0.39242679104E+02  0.10296483811E+02  0.40659046315E+02  0.00000000000E+00 0.  1.
         11    1    3    3    0    0  0.22877381328E+01  0.22423127879E+02 -0.18521443850E+02  0.29173177616E+02  0.51100000000E-03 0. -1.
        -11    1    3    3    0    0  0.33445357414E+01  0.19130785644E+01  0.40622019347E+01  0.55988636114E+01  0.51100000000E-03 0.  1.
         12    1    3    3    0    0 -0.29578384015E+01  0.14906472660E+02  0.41627581041E+01  0.15756912458E+02  0.00000000000E+00 0. -1.
</event>
<event>
 7    1  0.1024956E-012  0.5052885E+02  0.7816164E-02  0.1300439E+00
        -11   -1    0    0    0    0  0.00000000000E+00  0.00000000000E+00  0.45593999997E+02  0.45594000000E+02  0.51100000000E-03 0. -1.
         11   -1    0    0    0    0 -0.00000000000E+00 -0.00000000000E+00 -0.45593999997E+02  0.45594000000E+02  0.51100000000E-03 0.  1.
    9900012    2    1    2    0    0  0.13876596934E+02  0.10494450691E+02  0.36748787617E+02  0.50528845692E+02  0.29999956964E+02 0.  0.
        -12    1    1    2    0    0 -0.13876596934E+02 -0.10494450691E+02 -0.36748787617E+02  0.40659154308E+02  0.00000000000E+00 0.  1.
         11    1    3    3    0    0  0.15013076534E+02  0.46050329143E+01  0.26049890466E+02  0.30417027941E+02  0.51100000000E-03 0. -1.
        -11    1    3    3    0    0 -0.67389696777E+01  0.49560897084E+01  0.11661059700E+02  0.14351196853E+02  0.51100000000E-03 0.  1.
         12    1    3    3    0    0  0.56024900779E+01  0.93332806868E+00 -0.96216255030E+00  0.57606208980E+01  0.00000000000E+00 0. -1.
</event>
<event>
 7    1  0.1024956E-012  0.5052886E+02  0.7816164E-02  0.1300439E+00
        -11   -1    0    0    0    0  0.00000000000E+00  0.00000000000E+00  0.45593999997E+02  0.45594000000E+02  0.51100000000E-03 0.  1.
         11   -1    0    0    0    0 -0.00000000000E+00 -0.00000000000E+00 -0.45593999997E+02  0.45594000000E+02  0.51100000000E-03 0. -1.
    9900012    2    1    2    0    0 -0.83615653881E+01 -0.30755140876E+02 -0.25246217662E+02  0.50528856228E+02  0.29999988990E+02 0.  0.
        -12    1    1    2    0    0  0.83615653881E+01  0.30755140876E+02  0.25246217662E+02  0.40659143772E+02  0.00000000000E+00 0.  1.
         11    1    3    3    0    0  0.31121239812E+01 -0.28582063868E+02 -0.15924726145E+02  0.32866648653E+02  0.51100000000E-03 0.  1.
        -11    1    3    3    0    0 -0.11259359361E+02 -0.48763244198E+01 -0.72710739410E+01  0.14262546392E+02  0.51100000000E-03 0. -1.
         12    1    3    3    0    0 -0.21433000782E+00  0.27032474116E+01 -0.20504175762E+01  0.33996611827E+01  0.00000000000E+00 0. -1.
</event>
<event>
 7    1  0.1024956E-012  0.5052886E+02  0.7816164E-02  0.1300439E+00
        -11   -1    0    0    0    0  0.00000000000E+00  0.00000000000E+00  0.45593999997E+02  0.45594000000E+02  0.51100000000E-03 0.  1.
         11   -1    0    0    0    0 -0.00000000000E+00 -0.00000000000E+00 -0.45593999997E+02  0.45594000000E+02  0.51100000000E-03 0. -1.
    9900012    2    1    2    0    0 -0.28808402499E+02 -0.25730911310E+02 -0.12694966386E+02  0.50528855605E+02  0.29999987096E+02 0.  0.
        -12    1    1    2    0    0  0.28808402499E+02  0.25730911310E+02  0.12694966386E+02  0.40659144395E+02  0.00000000000E+00 0.  1.
         11    1    3    3    0    0 -0.14340636857E+02 -0.24064865696E+02 -0.82627707818E+01  0.29206934240E+02  0.51100000000E-03 0. -1.
        -11    1    3    3    0    0 -0.17395517392E+02 -0.29180656200E+01 -0.41841448857E+01  0.18128050115E+02  0.51100000000E-03 0.  1.
        -12    1    3    3    0    0  0.29277517494E+01  0.12520200058E+01 -0.24805071823E+00  0.31938712498E+01  0.00000000000E+00 0.  1.
</event>
<event>
 7    1  0.1024956E-012  0.5052886E+02  0.7816164E-02  0.1300439E+00
        -11   -1    0    0    0    0  0.00000000000E+00  0.00000000000E+00  0.45593999997E+02  0.45594000000E+02  0.51100000000E-03 0. -1.
         11   -1    0    0    0    0 -0.00000000000E+00 -0.00000000000E+00 -0.45593999997E+02  0.45594000000E+02  0.51100000000E-03 0.  1.
    9900012    2    1    2    0    0  0.25686744849E+01 -0.11247754596E+02  0.38987893375E+02  0.50528857093E+02  0.29999991621E+02 0.  0.
        -12    1    1    2    0    0 -0.25686744849E+01  0.11247754596E+02 -0.38987893375E+02  0.40659142907E+02  0.00000000000E+00 0.  1.
         11    1    3    3    0    0 -0.53665326642E+01 -0.16451384844E+01  0.79414906817E+01  0.97248870418E+01  0.51100000000E-03 0. -1.
        -11    1    3    3    0    0  0.12853528809E+02  0.19292789983E+01  0.21180725447E+02  0.24850723350E+02  0.51100000000E-03 0.  1.
        -12    1    3    3    0    0 -0.49183216601E+01 -0.11531895110E+02  0.98656772469E+01  0.15953246702E+02  0.00000000000E+00 0.  1.
</event>
<event>
 7    1  0.1024956E-012  0.5052885E+02  0.7816164E-02  0.1300439E+00
        -11   -1    0    0    0    0  0.00000000000E+00  0.00000000000E+00  0.45593999997E+02  0.45594000000E+02  0.51100000000E-03 0.  1.
         11   -1    0    0    0    0 -0.00000000000E+00 -0.00000000000E+00 -0.45593999997E+02  0.45594000000E+02  0.51100000000E-03 0. -1.
    9900012    2    1    2    0    0  0.15216381550E+02 -0.66641459989E+01 -0.37110874449E+02  0.50528854513E+02  0.29999983778E+02 0.  0.
        -12    1    1    2    0    0 -0.15216381550E+02  0.66641459989E+01  0.37110874449E+02  0.40659145487E+02  0.00000000000E+00 0.  1.
         11    1    3    3    0    0  0.25381644966E+01 -0.53435227698E+00 -0.18303561969E+02  0.18486432657E+02  0.51100000000E-03 0. -1.
        -11    1    3    3    0    0  0.33455658063E+01  0.77641257381E+01 -0.28621617108E+01  0.89256052434E+01  0.51100000000E-03 0.  1.
        -12    1    3    3    0    0  0.93326512467E+01 -0.13893919460E+02 -0.15945150769E+02  0.23116816613E+02  0.00000000000E+00 0.  1.
</event>
<event>
 7    1  0.1024956E-012  0.5052885E+02  0.7816164E-02  0.1300439E+00
        -11   -1    0    0    0    0  0.00000000000E+00  0.00000000000E+00  0.45593999997E+02  0.45594000000E+02  0.51100000000E-03 0. -1.
         11   -1    0    0    0    0 -0.00000000000E+00 -0.00000000000E+00 -0.45593999997E+02  0.45594000000E+02  0.51100000000E-03 0.  1.
    9900012    2    1    2    0    0 -0.12047040442E+02  0.35501005045E+02  0.15738921297E+02  0.50528853597E+02  0.29999980993E+02 0.  0.
        -12    1    1    2    0    0  0.12047040442E+02 -0.35501005045E+02 -0.15738921297E+02  0.40659146403E+02  0.00000000000E+00 0.  1.
         11    1    3    3    0    0 -0.13534122205E+02  0.14538050392E+02  0.19428067812E+01  0.19957501635E+02  0.51100000000E-03 0. -1.
        -11    1    3    3    0    0  0.76899932183E+01  0.39027781347E+01  0.17904330744E+01  0.88075719538E+01  0.51100000000E-03 0.  1.
         12    1    3    3    0    0 -0.62029114555E+01  0.17060176519E+02  0.12005681442E+02  0.21763780008E+02  0.00000000000E+00 0. -1.
</event>
<event>
 7    1  0.1024956E-012  0.5052885E+02  0.7816164E-02  0.1300439E+00
        -11   -1    0    0    0    0  0.00000000000E+00  0.00000000000E+00  0.45593999997E+02  0.45594000000E+02  0.51100000000E-03 0.  1.
         11   -1    0    0    0    0 -0.00000000000E+00 -0.00000000000E+00 -0.45593999997E+02  0.45594000000E+02  0.51100000000E-03 0. -1.
    9900012    2    1    2    0    0 -0.32333793859E+02 -0.23877573940E+02 -0.61280916299E+01  0.50528852571E+02  0.29999977876E+02 0.  0.
        -12    1    1    2    0    0  0.32333793859E+02  0.23877573940E+02  0.61280916299E+01  0.40659147429E+02  0.00000000000E+00 0.  1.
         11    1    3    3    0    0 -0.12081733410E+02 -0.16113384109E+02 -0.10588485317E+02  0.22753581063E+02  0.51100000000E-03 0. -1.
        -11    1    3    3    0    0 -0.13933324666E+02  0.22102705645E+01  0.69215509080E+01  0.15714028746E+02  0.51100000000E-03 0.  1.
        -12    1    3    3    0    0 -0.63187357831E+01 -0.99744603961E+01 -0.24611572213E+01  0.12061242762E+02  0.00000000000E+00 0.  1.
</event>
<event>
 7    1  0.1024956E-012  0.5052883E+02  0.7816164E-02  0.1300439E+00
        -11   -1    0    0    0    0  0.00000000000E+00  0.00000000000E+00  0.45593999997E+02  0.45594000000E+02  0.51100000000E-03 0. -1.
         11   -1    0    0    0    0 -0.00000000000E+00 -0.00000000000E+00 -0.45593999997E+02  0.45594000000E+02  0.51100000000E-03 0.  1.
    9900012    2    1    2    0    0  0.77122025786E+01  0.37139053000E+02 -0.14641744441E+02  0.50528831211E+02  0.29999912949E+02 0.  0.
        -12    1    1    2    0    0 -0.77122025786E+01 -0.37139053000E+02  0.14641744441E+02  0.40659168789E+02  0.00000000000E+00 0.  1.
         11    1    3    3    0    0  0.20505953852E+00  0.55510375421E+01  0.53674593299E+01  0.77243567452E+01  0.51100000000E-03 0. -1.
        -11    1    3    3    0    0  0.94400342949E+01  0.89454194356E+01 -0.14388106509E+02  0.19394648374E+02  0.51100000000E-03 0.  1.
        -12    1    3    3    0    0 -0.19328912549E+01  0.22642596022E+02 -0.56210972621E+01  0.23409826092E+02  0.00000000000E+00 0.  1.
</event>
<event>
 7    1  0.1024956E-012  0.5052887E+02  0.7816164E-02  0.1300439E+00
        -11   -1    0    0    0    0  0.00000000000E+00  0.00000000000E+00  0.45593999997E+02  0.45594000000E+02  0.51100000000E-03 0. -1.
         11   -1    0    0    0    0 -0.00000000000E+00 -0.00000000000E+00 -0.45593999997E+02  0.45594000000E+02  0.51100000000E-03 0.  1.
    9900012    2    1    2    0    0  0.31416239158E+02  0.11636183176E+02  0.23038747458E+02  0.50528871552E+02  0.30000035570E+02 0.  0.
        -12    1    1    2    0    0 -0.31416239158E+02 -0.11636183176E+02 -0.23038747458E+02  0.40659128448E+02  0.00000000000E+00 0.  1.
         11    1    3    3    0    0  0.10781031539E+02  0.14085985376E+02  0.20624001023E+02  0.27202849915E+02  0.51100000000E-03 0. -1.
        -11    1    3    3    0    0  0.15141128990E+01 -0.21951121587E+01 -0.24205301125E+01  0.36013916125E+01  0.51100000000E-03 0.  1.
         12    1    3    3    0    0  0.19121094720E+02 -0.25469004126E+00  0.48352765472E+01  0.19724630024E+02  0.00000000000E+00 0. -1.
</event>
<event>
 7    1  0.1024956E-012  0.5052886E+02  0.7816164E-02  0.1300439E+00
        -11   -1    0    0    0    0  0.00000000000E+00  0.00000000000E+00  0.45593999997E+02  0.45594000000E+02  0.51100000000E-03 0. -1.
         11   -1    0    0    0    0 -0.00000000000E+00 -0.00000000000E+00 -0.45593999997E+02  0.45594000000E+02  0.51100000000E-03 0.  1.
    9900012    2    1    2    0    0 -0.31801757676E+02 -0.24988617820E+02  0.41692495415E+01  0.50528862607E+02  0.30000008380E+02 0.  0.
        -12    1    1    2    0    0  0.31801757676E+02  0.24988617820E+02 -0.41692495415E+01  0.40659137393E+02  0.00000000000E+00 0.  1.
         11    1    3    3    0    0 -0.23105876707E+02 -0.15101572571E+02 -0.84603645190E+01  0.28870691031E+02  0.51100000000E-03 0.  1.
        -11    1    3    3    0    0 -0.54458403009E+01 -0.80860877572E+01  0.14520045512E+02  0.17489245660E+02  0.51100000000E-03 0. -1.
         12    1    3    3    0    0 -0.32500406672E+01 -0.18009574915E+01 -0.18904314518E+01  0.41689259167E+01  0.00000000000E+00 0. -1.
</event>
<event>
 7    1  0.1024956E-012  0.5052886E+02  0.7816164E-02  0.1300439E+00
        -11   -1    0    0    0    0  0.00000000000E+00  0.00000000000E+00  0.45593999997E+02  0.45594000000E+02  0.51100000000E-03 0.  1.
         11   -1    0    0    0    0 -0.00000000000E+00 -0.00000000000E+00 -0.45593999997E+02  0.45594000000E+02  0.51100000000E-03 0. -1.
    9900012    2    1    2    0    0  0.15234173623E+01  0.35402438000E+02 -0.19937716427E+02  0.50528856463E+02  0.29999989705E+02 0.  0.
        -12    1    1    2    0    0 -0.15234173623E+01 -0.35402438000E+02  0.19937716427E+02  0.40659143537E+02  0.00000000000E+00 0.  1.
         11    1    3    3    0    0 -0.85451702683E+01  0.24040068365E+02 -0.10210322164E+02  0.27480820601E+02  0.51100000000E-03 0. -1.
        -11    1    3    3    0    0  0.12337904843E+02  0.42189705082E+01 -0.40777027854E+01  0.13662037488E+02  0.51100000000E-03 0.  1.
        -12    1    3    3    0    0 -0.22693172120E+01  0.71433991269E+01 -0.56496914776E+01  0.93859983745E+01  0.00000000000E+00 0.  1.
</event>
<event>
 7    1  0.1024956E-012  0.5052885E+02  0.7816164E-02  0.1300439E+00
        -11   -1    0    0    0    0  0.00000000000E+00  0.00000000000E+00  0.45593999997E+02  0.45594000000E+02  0.51100000000E-03 0.  1.
         11   -1    0    0    0    0 -0.00000000000E+00 -0.00000000000E+00 -0.45593999997E+02  0.45594000000E+02  0.51100000000E-03 0. -1.
    9900012    2    1    2    0    0 -0.16587804004E+02  0.95441496102E+01 -0.35873670694E+02  0.50528852412E+02  0.29999977393E+02 0.  0.
        -12    1    1    2    0    0  0.16587804004E+02 -0.95441496102E+01  0.35873670694E+02  0.40659147588E+02  0.00000000000E+00 0.  1.
         11    1    3    3    0    0 -0.21788817310E+01  0.10244173987E+02 -0.12401001239E+01  0.10546491116E+02  0.51100000000E-03 0. -1.
        -11    1    3    3    0    0 -0.10014762456E+01 -0.53892259028E+01 -0.68014177335E+01  0.87353302141E+01  0.51100000000E-03 0.  1.
         12    1    3    3    0    0 -0.13407446028E+02  0.46892015258E+01 -0.27832152837E+02  0.31247031083E+02  0.00000000000E+00 0. -1.
</event>
<event>
 7    1  0.1024956E-012  0.5052885E+02  0.7816164E-02  0.1300439E+00
        -11   -1    0    0    0    0  0.00000000000E+00  0.00000000000E+00  0.45593999997E+02  0.45594000000E+02  0.51100000000E-03 0. -1.
         11   -1    0    0    0    0 -0.00000000000E+00 -0.00000000000E+00 -0.45593999997E+02  0.45594000000E+02  0.51100000000E-03 0.  1.
    9900012    2    1    2    0    0 -0.11024763301E+02 -0.97948550219E+01  0.37890388130E+02  0.50528854616E+02  0.29999984091E+02 0.  0.
        -12    1    1    2    0    0  0.11024763301E+02  0.97948550219E+01 -0.37890388130E+02  0.40659145384E+02  0.00000000000E+00 0.  1.
         11    1    3    3    0    0 -0.16567029396E+02 -0.12726516509E+02  0.32091272905E+02  0.38292042024E+02  0.51100000000E-03 0. -1.
        -11    1    3    3    0    0  0.45722953004E+01  0.72409914240E+00  0.78221175663E+01  0.90893194115E+01  0.51100000000E-03 0.  1.
         12    1    3    3    0    0  0.96997079540E+00  0.22075623445E+01 -0.20230023413E+01  0.31474931806E+01  0.00000000000E+00 0. -1.
</event>
<event>
 7    1  0.1024956E-012  0.5052874E+02  0.7816164E-02  0.1300439E+00
        -11   -1    0    0    0    0  0.00000000000E+00  0.00000000000E+00  0.45593999997E+02  0.45594000000E+02  0.51100000000E-03 0.  1.
         11   -1    0    0    0    0 -0.00000000000E+00 -0.00000000000E+00 -0.45593999997E+02  0.45594000000E+02  0.51100000000E-03 0. -1.
    9900012    2    1    2    0    0  0.23353073449E+02  0.31908667090E+02 -0.94681545029E+01  0.50528744908E+02  0.29999650620E+02 0.  0.
        -12    1    1    2    0    0 -0.23353073449E+02 -0.31908667090E+02  0.94681545029E+01  0.40659255092E+02  0.00000000000E+00 0.  1.
         11    1    3    3    0    0 -0.44647896971E+00  0.69234912336E+01 -0.13996845536E+02  0.15621964010E+02  0.51100000000E-03 0. -1.
        -11    1    3    3    0    0  0.16765609971E+02  0.15824457180E+02  0.33667277525E+01  0.23298797796E+02  0.51100000000E-03 0.  1.
         12    1    3    3    0    0  0.70339424481E+01  0.91607186757E+01  0.11619632802E+01  0.11607983101E+02  0.00000000000E+00 0. -1.
</event>
<event>
 7    1  0.1024956E-012  0.5052885E+02  0.7816164E-02  0.1300439E+00
        -11   -1    0    0    0    0  0.00000000000E+00  0.00000000000E+00  0.45593999997E+02  0.45594000000E+02  0.51100000000E-03 0.  1.
         11   -1    0    0    0    0 -0.00000000000E+00 -0.00000000000E+00 -0.45593999997E+02  0.45594000000E+02  0.51100000000E-03 0. -1.
    9900012    2    1    2    0    0  0.14733719414E+02  0.35322822267E+02 -0.13725253126E+02  0.50528845630E+02  0.29999956778E+02 0.  0.
        -12    1    1    2    0    0 -0.14733719414E+02 -0.35322822267E+02  0.13725253126E+02  0.40659154370E+02  0.00000000000E+00 0.  1.
         11    1    3    3    0    0  0.16931585141E+02  0.49986804683E+01 -0.62977574645E+01  0.18743722446E+02  0.51100000000E-03 0.  1.
        -11    1    3    3    0    0  0.12825903335E+01  0.16333137563E+02 -0.52510528308E+01  0.17204359235E+02  0.51100000000E-03 0. -1.
        -12    1    3    3    0    0 -0.34804560606E+01  0.13991004236E+02 -0.21764428306E+01  0.14580763948E+02  0.00000000000E+00 0.  1.
</event>
<event>
 7    1  0.1024956E-012  0.5052887E+02  0.7816164E-02  0.1300439E+00
        -11   -1    0    0    0    0  0.00000000000E+00  0.00000000000E+00  0.45593999997E+02  0.45594000000E+02  0.51100000000E-03 0.  1.
         11   -1    0    0    0    0 -0.00000000000E+00 -0.00000000000E+00 -0.45593999997E+02  0.45594000000E+02  0.51100000000E-03 0. -1.
    9900012    2    1    2    0    0 -0.90124770100E+01  0.35838178475E+02 -0.16957739314E+02  0.50528871863E+02  0.30000036513E+02 0.  0.
        -12    1    1    2    0    0  0.90124770100E+01 -0.35838178475E+02  0.16957739314E+02  0.40659128137E+02  0.00000000000E+00 0.  1.
         11    1    3    3    0    0 -0.14314429265E+02  0.21931311984E+02 -0.80844028236E+01  0.27408810624E+02  0.51100000000E-03 0. -1.
        -11    1    3    3    0    0  0.30527345282E+01 -0.18759375540E+00  0.31993936432E+01  0.44261156178E+01  0.51100000000E-03 0.  1.
         12    1    3    3    0    0  0.22492177265E+01  0.14094460246E+02 -0.12072730133E+02  0.18693945621E+02  0.00000000000E+00 0. -1.
</event>
<event>
 7    1  0.1024956E-012  0.5052890E+02  0.7816164E-02  0.1300439E+00
        -11   -1    0    0    0    0  0.00000000000E+00  0.00000000000E+00  0.45593999997E+02  0.45594000000E+02  0.51100000000E-03 0. -1.
         11   -1    0    0    0    0 -0.00000000000E+00 -0.00000000000E+00 -0.45593999997E+02  0.45594000000E+02  0.51100000000E-03 0.  1.
    9900012    2    1    2    0    0  0.33857929403E+02  0.11218469347E+02  0.19517916788E+02  0.50528898759E+02  0.30000118269E+02 0.  0.
        -12    1    1    2    0    0 -0.33857929403E+02 -0.11218469347E+02 -0.19517916788E+02  0.40659101241E+02  0.00000000000E+00 0.  1.
         11    1    3    3    0    0  0.20809565047E+02  0.40259998396E+01  0.25080643706E+02  0.32837255689E+02  0.51100000000E-03 0. -1.
        -11    1    3    3    0    0  0.93956355470E+01  0.84814627421E+00 -0.37342870765E+01  0.10146044533E+02  0.51100000000E-03 0.  1.
         12    1    3    3    0    0  0.36527288091E+01  0.63443232330E+01 -0.18284398424E+01  0.75455985379E+01  0.00000000000E+00 0. -1.
</event>
<event>
 7    1  0.1024956E-012  0.5052884E+02  0.7816164E-02  0.1300439E+00
        -11   -1    0    0    0    0  0.00000000000E+00  0.00000000000E+00  0.45593999997E+02  0.45594000000E+02  0.51100000000E-03 0.  1.
         11   -1    0    0    0    0 -0.00000000000E+00 -0.00000000000E+00 -0.45593999997E+02  0.45594000000E+02  0.51100000000E-03 0. -1.
    9900012    2    1    2    0    0  0.28887038948E+01 -0.33906447749E+02 -0.22252537344E+02  0.50528840794E+02  0.29999942077E+02 0.  0.
        -12    1    1    2    0    0 -0.28887038948E+01  0.33906447749E+02  0.22252537344E+02  0.40659159206E+02  0.00000000000E+00 0.  1.
         11    1    3    3    0    0 -0.22466520649E+01 -0.11014113524E+02 -0.22492537938E+02  0.25145027448E+02  0.51100000000E-03 0. -1.
        -11    1    3    3    0    0  0.45469380800E+01 -0.23748804672E+02  0.81945580883E+00  0.24194046320E+02  0.51100000000E-03 0.  1.
         12    1    3    3    0    0  0.58841787971E+00  0.85647044760E+00 -0.57945521422E+00  0.11897670251E+01  0.00000000000E+00 0. -1.
</event>
<event>
 7    1  0.1024956E-012  0.5052885E+02  0.7816164E-02  0.1300439E+00
        -11   -1    0    0    0    0  0.00000000000E+00  0.00000000000E+00  0.45593999997E+02  0.45594000000E+02  0.51100000000E-03 0. -1.
         11   -1    0    0    0    0 -0.00000000000E+00 -0.00000000000E+00 -0.45593999997E+02  0.45594000000E+02  0.51100000000E-03 0.  1.
    9900012    2    1    2    0    0 -0.14077843263E+02 -0.18115703043E+02  0.33567872995E+02  0.50528850167E+02  0.29999970568E+02 0.  0.
        -12    1    1    2    0    0  0.14077843263E+02  0.18115703043E+02 -0.33567872995E+02  0.40659149833E+02  0.00000000000E+00 0.  1.
         11    1    3    3    0    0  0.13247629950E+01  0.28654410894E+01  0.20926640604E+02  0.21163412694E+02  0.51100000000E-03 0. -1.
        -11    1    3    3    0    0 -0.11958660480E+02 -0.13396674330E+02  0.10347585350E+02  0.20725659614E+02  0.51100000000E-03 0.  1.
         12    1    3    3    0    0 -0.34439457777E+01 -0.75844698027E+01  0.22936470414E+01  0.86397778593E+01  0.00000000000E+00 0. -1.
</event>
<event>
 7    1  0.1024956E-012  0.5052885E+02  0.7816164E-02  0.1300439E+00
        -11   -1    0    0    0    0  0.00000000000E+00  0.00000000000E+00  0.45593999997E+02  0.45594000000E+02  0.51100000000E-03 0.  1.
         11   -1    0    0    0    0 -0.00000000000E+00 -0.00000000000E+00 -0.45593999997E+02  0.45594000000E+02  0.51100000000E-03 0. -1.
    9900012    2    1    2    0    0 -0.37818708428E+01 -0.13037469076E+02 -0.38326079649E+02  0.50528849391E+02  0.29999968210E+02 0.  0.
        -12    1    1    2    0    0  0.37818708428E+01  0.13037469076E+02  0.38326079649E+02  0.40659150609E+02  0.00000000000E+00 0.  1.
         11    1    3    3    0    0  0.53582942183E+01 -0.65834482458E+00 -0.27876108186E+02  0.28394051185E+02  0.51100000000E-03 0. -1.
        -11    1    3    3    0    0  0.62140362230E-01 -0.99610223634E+01 -0.60237821395E+01  0.11640952688E+02  0.51100000000E-03 0.  1.
         12    1    3    3    0    0 -0.92023054233E+01 -0.24181018881E+01 -0.44261893226E+01  0.10493845518E+02  0.00000000000E+00 0. -1.
</event>
<event>
 7    1  0.1024956E-012  0.5052886E+02  0.7816164E-02  0.1300439E+00
        -11   -1    0    0    0    0  0.00000000000E+00  0.00000000000E+00  0.45593999997E+02  0.45594000000E+02  0.51100000000E-03 0.  1.
         11   -1    0    0    0    0 -0.00000000000E+00 -0.00000000000E+00 -0.45593999997E+02  0.45594000000E+02  0.51100000000E-03 0. -1.
    9900012    2    1    2    0    0 -0.10173402076E+02 -0.70894207127E+01 -0.38722186725E+02  0.50528859077E+02  0.29999997649E+02 0.  0.
        -12    1    1    2    0    0  0.10173402076E+02  0.70894207127E+01  0.38722186725E+02  0.40659140923E+02  0.00000000000E+00 0.  1.
         11    1    3    3    0    0 -0.14003805558E+02  0.53678175635E+01 -0.28309874781E+02  0.32036994957E+02  0.51100000000E-03 0. -1.
        -11    1    3    3    0    0  0.15751432127E+01 -0.77065280453E+01 -0.13022878307E+01  0.79729294810E+01  0.51100000000E-03 0.  1.
        -12    1    3    3    0    0  0.22552602689E+01 -0.47507102309E+01 -0.91100241135E+01  0.10518934638E+02  0.00000000000E+00 0.  1.
</event>
<event>
 7    1  0.1024956E-012  0.5052886E+02  0.7816164E-02  0.1300439E+00
        -11   -1    0    0    0    0  0.00000000000E+00  0.00000000000E+00  0.45593999997E+02  0.45594000000E+02  0.51100000000E-03 0. -1.
         11   -1    0    0    0    0 -0.00000000000E+00 -0.00000000000E+00 -0.45593999997E+02  0.45594000000E+02  0.51100000000E-03 0.  1.
    9900012    2    1    2    0    0  0.17145646462E+02  0.10711347808E+02  0.35276900140E+02  0.50528857757E+02  0.29999993638E+02 0.  0.
        -12    1    1    2    0    0 -0.17145646462E+02 -0.10711347808E+02 -0.35276900140E+02  0.40659142243E+02  0.00000000000E+00 0.  1.
         11    1    3    3    0    0  0.14241160756E+02 -0.42083349108E+01  0.17362732353E+02  0.22846995807E+02  0.51100000000E-03 0. -1.
        -11    1    3    3    0    0 -0.44858970426E+01  0.59000458383E+01  0.13130833038E+02  0.15078215733E+02  0.51100000000E-03 0.  1.
         12    1    3    3    0    0  0.73903827488E+01  0.90196368801E+01  0.47833347494E+01  0.12603646216E+02  0.00000000000E+00 0. -1.
</event>
<event>
 7    1  0.1024956E-012  0.5052886E+02  0.7816164E-02  0.1300439E+00
        -11   -1    0    0    0    0  0.00000000000E+00  0.00000000000E+00  0.45593999997E+02  0.45594000000E+02  0.51100000000E-03 0. -1.
         11   -1    0    0    0    0 -0.00000000000E+00 -0.00000000000E+00 -0.45593999997E+02  0.45594000000E+02  0.51100000000E-03 0.  1.
    9900012    2    1    2    0    0 -0.34589980771E+02  0.16047214845E+02  0.14113329583E+02  0.50528856552E+02  0.29999989976E+02 0.  0.
        -12    1    1    2    0    0  0.34589980771E+02 -0.16047214845E+02 -0.14113329583E+02  0.40659143448E+02  0.00000000000E+00 0.  1.
         11    1    3    3    0    0 -0.19539606638E+02  0.17862940457E+02  0.11140475709E+02  0.28722657757E+02  0.51100000000E-03 0. -1.
        -11    1    3    3    0    0  0.20747459285E+01  0.18593685197E+01 -0.21926488429E+01  0.35453534618E+01  0.51100000000E-03 0.  1.
         12    1    3    3    0    0 -0.17125120061E+02 -0.36750941317E+01  0.51655027174E+01  0.18260845334E+02  0.00000000000E+00 0. -1.
</event>
<event>
 7    1  0.1024956E-012  0.5052886E+02  0.7816164E-02  0.1300439E+00
        -11   -1    0    0    0    0  0.00000000000E+00  0.00000000000E+00  0.45593999997E+02  0.45594000000E+02  0.51100000000E-03 0.  1.
         11   -1    0    0    0    0 -0.00000000000E+00 -0.00000000000E+00 -0.45593999997E+02  0.45594000000E+02  0.51100000000E-03 0. -1.
    9900012    2    1    2    0    0 -0.11657325873E+01  0.28189468708E+02 -0.29277304849E+02  0.50528860096E+02  0.30000000748E+02 0.  0.
        -12    1    1    2    0    0  0.11657325873E+01 -0.28189468708E+02  0.29277304849E+02  0.40659139904E+02  0.00000000000E+00 0.  1.
         11    1    3    3    0    0 -0.35304374222E+00  0.87319890393E+01 -0.24914323896E+02  0.26402571995E+02  0.51100000000E-03 0. -1.
        -11    1    3    3    0    0  0.26281819405E+01  0.11705393824E+02  0.35662310546E+01  0.12515653762E+02  0.51100000000E-03 0.  1.
        -12    1    3    3    0    0 -0.34408707855E+01  0.77520858450E+01 -0.79292120072E+01  0.11610634340E+02  0.00000000000E+00 0.  1.
</event>
<event>
 7    1  0.1024956E-012  0.5052883E+02  0.7816164E-02  0.1300439E+00
        -11   -1    0    0    0    0  0.00000000000E+00  0.00000000000E+00  0.45593999997E+02  0.45594000000E+02  0.51100000000E-03 0. -1.
         11   -1    0    0    0    0 -0.00000000000E+00 -0.00000000000E+00 -0.45593999997E+02  0.45594000000E+02  0.51100000000E-03 0.  1.
    9900012    2    1    2    0    0  0.30447817561E+02 -0.22592460018E+02  0.14686012387E+02  0.50528833707E+02  0.29999920534E+02 0.  0.
        -12    1    1    2    0    0 -0.30447817561E+02  0.22592460018E+02 -0.14686012387E+02  0.40659166293E+02  0.00000000000E+00 0.  1.
         11    1    3    3    0    0  0.12981647297E+02 -0.12701588090E+02  0.18553570746E+02  0.25963214251E+02  0.51100000000E-03 0. -1.
        -11    1    3    3    0    0  0.14856690759E+02 -0.13196551217E+01 -0.28964385182E+00  0.14917997311E+02  0.51100000000E-03 0.  1.
         12    1    3    3    0    0  0.26094795041E+01 -0.85712168056E+01 -0.35779145073E+01  0.96476221440E+01  0.00000000000E+00 0. -1.
</event>
<event>
 7    1  0.1024956E-012  0.5052886E+02  0.7816164E-02  0.1300439E+00
        -11   -1    0    0    0    0  0.00000000000E+00  0.00000000000E+00  0.45593999997E+02  0.45594000000E+02  0.51100000000E-03 0.  1.
         11   -1    0    0    0    0 -0.00000000000E+00 -0.00000000000E+00 -0.45593999997E+02  0.45594000000E+02  0.51100000000E-03 0. -1.
    9900012    2    1    2    0    0 -0.23717744162E+01  0.19169893866E+02 -0.35777866329E+02  0.50528857563E+02  0.29999993047E+02 0.  0.
        -12    1    1    2    0    0  0.23717744162E+01 -0.19169893866E+02  0.35777866329E+02  0.40659142437E+02  0.00000000000E+00 0.  1.
         11    1    3    3    0    0  0.64228193522E+01  0.18020819502E+02 -0.15230480109E+02  0.24453426520E+02  0.51100000000E-03 0. -1.
        -11    1    3    3    0    0 -0.10234117227E+02 -0.13034888372E+01 -0.75856728980E+01  0.12805415734E+02  0.51100000000E-03 0.  1.
         12    1    3    3    0    0  0.14395234582E+01  0.24525632015E+01 -0.12961713322E+02  0.13270015309E+02  0.00000000000E+00 0. -1.
</event>
<event>
 7    1  0.1024956E-012  0.5052886E+02  0.7816164E-02  0.1300439E+00
        -11   -1    0    0    0    0  0.00000000000E+00  0.00000000000E+00  0.45593999997E+02  0.45594000000E+02  0.51100000000E-03 0. -1.
         11   -1    0    0    0    0 -0.00000000000E+00 -0.00000000000E+00 -0.45593999997E+02  0.45594000000E+02  0.51100000000E-03 0.  1.
    9900012    2    1    2    0    0  0.32402061047E+02  0.10359889769E+02  0.22269821252E+02  0.50528858166E+02  0.29999994880E+02 0.  0.
        -12    1    1    2    0    0 -0.32402061047E+02 -0.10359889769E+02 -0.22269821252E+02  0.40659141834E+02  0.00000000000E+00 0.  1.
         11    1    3    3    0    0  0.21337701260E+02  0.54661214581E+01  0.19202115134E+02  0.29221519549E+02  0.51100000000E-03 0. -1.
        -11    1    3    3    0    0 -0.12343394757E+01 -0.39304291762E+01  0.45022780094E+01  0.61026531103E+01  0.51100000000E-03 0.  1.
        -12    1    3    3    0    0  0.12298699262E+02  0.88241974875E+01 -0.14345718911E+01  0.15204685507E+02  0.00000000000E+00 0.  1.
</event>
<event>
 7    1  0.1024956E-012  0.5052886E+02  0.7816164E-02  0.1300439E+00
        -11   -1    0    0    0    0  0.00000000000E+00  0.00000000000E+00  0.45593999997E+02  0.45594000000E+02  0.51100000000E-03 0.  1.
         11   -1    0    0    0    0 -0.00000000000E+00 -0.00000000000E+00 -0.45593999997E+02  0.45594000000E+02  0.51100000000E-03 0. -1.
    9900012    2    1    2    0    0 -0.26997272327E+02  0.73687033722E+01 -0.29496022997E+02  0.50528857422E+02  0.29999992621E+02 0.  0.
        -12    1    1    2    0    0  0.26997272327E+02 -0.73687033722E+01  0.29496022997E+02  0.40659142578E+02  0.00000000000E+00 0.  1.
         11    1    3    3    0    0 -0.89250764948E+01 -0.66898707176E+01 -0.16732873003E+02  0.20109709094E+02  0.51100000000E-03 0. -1.
        -11    1    3    3    0    0 -0.79691267885E+01  0.66068447224E+01  0.25071124482E+01  0.10650962024E+02  0.51100000000E-03 0.  1.
        -12    1    3    3    0    0 -0.10103069044E+02  0.74517293674E+01 -0.15270262442E+02  0.19768186304E+02  0.00000000000E+00 0.  1.
</event>
<event>
 7    1  0.1303982E-012  0.5052885E+02  0.7816164E-02  0.1300439E+00
        -11   -1    0    0    0    0  0.00000000000E+00  0.00000000000E+00  0.45593999997E+02  0.45594000000E+02  0.51100000000E-03 0. -1.
         11   -1    0    0    0    0 -0.00000000000E+00 -0.00000000000E+00 -0.45593999997E+02  0.45594000000E+02  0.51100000000E-03 0.  1.
    9900012    2    1    2    0    0 -0.11109196564E+01  0.37092008008E+02  0.16616705109E+02  0.50528854790E+02  0.29999984620E+02 0.  0.
        -12    1    1    2    0    0  0.11109196564E+01 -0.37092008008E+02 -0.16616705109E+02  0.40659145210E+02  0.00000000000E+00 0.  1.
         11    1    3    3    0    0 -0.63432206093E+01  0.20714812948E+02  0.16893935826E+02  0.27472622575E+02  0.51100000000E-03 0. -1.
        -11    1    3    3    0    0  0.22991286376E+00  0.98045465405E+01 -0.72908698018E+01  0.12220424523E+02  0.51100000000E-03 0.  1.
        -12    1    3    3    0    0  0.50023880891E+01  0.65726485191E+01  0.70136390845E+01  0.10835807693E+02  0.00000000000E+00 0.  1.
</event>
<event>
 7    1  0.1024956E-012  0.5052887E+02  0.7816164E-02  0.1300439E+00
        -11   -1    0    0    0    0  0.00000000000E+00  0.00000000000E+00  0.45593999997E+02  0.45594000000E+02  0.51100000000E-03 0.  1.
         11   -1    0    0    0    0 -0.00000000000E+00 -0.00000000000E+00 -0.45593999997E+02  0.45594000000E+02  0.51100000000E-03 0. -1.
    9900012    2    1    2    0    0 -0.76350856767E+01  0.38703371181E+02 -0.98447702776E+01  0.50528868481E+02  0.30000026235E+02 0.  0.
        -12    1    1    2    0    0  0.76350856767E+01 -0.38703371181E+02  0.98447702776E+01  0.40659131519E+02  0.00000000000E+00 0.  1.
         11    1    3    3    0    0 -0.68620410957E+01  0.12755765864E+02 -0.17114237954E+01  0.14585134297E+02  0.51100000000E-03 0. -1.
        -11    1    3    3    0    0  0.93126202605E+01  0.17864948091E+02 -0.10631716523E+02  0.22779698482E+02  0.51100000000E-03 0.  1.
        -12    1    3    3    0    0 -0.10085664841E+02  0.80826572253E+01  0.24983700412E+01  0.13164035703E+02  0.00000000000E+00 0.  1.
</event>
<event>
 7    1  0.1024956E-012  0.5052885E+02  0.7816164E-02  0.1300439E+00
        -11   -1    0    0    0    0  0.00000000000E+00  0.00000000000E+00  0.45593999997E+02  0.45594000000E+02  0.51100000000E-03 0. -1.
         11   -1    0    0    0    0 -0.00000000000E+00 -0.00000000000E+00 -0.45593999997E+02  0.45594000000E+02  0.51100000000E-03 0.  1.
    9900012    2    1    2    0    0  0.32376967347E+02 -0.18801097428E+02  0.15856148975E+02  0.50528846794E+02  0.29999960315E+02 0.  0.
        -12    1    1    2    0    0 -0.32376967347E+02  0.18801097428E+02 -0.15856148975E+02  0.40659153206E+02  0.00000000000E+00 0.  1.
         11    1    3    3    0    0  0.15344560200E+02 -0.11866962748E+02  0.11509476850E+02  0.22555451452E+02  0.51100000000E-03 0. -1.
        -11    1    3    3    0    0  0.94926860714E+01  0.15325684116E+01 -0.70306594383E+01  0.11911760037E+02  0.51100000000E-03 0.  1.
        -12    1    3    3    0    0  0.75397210756E+01 -0.84667030916E+01  0.11377331564E+02  0.16061635304E+02  0.00000000000E+00 0.  1.
</event>
<event>
 7    1  0.1024956E-012  0.5052886E+02  0.7816164E-02  0.1300439E+00
        -11   -1    0    0    0    0  0.00000000000E+00  0.00000000000E+00  0.45593999997E+02  0.45594000000E+02  0.51100000000E-03 0.  1.
         11   -1    0    0    0    0 -0.00000000000E+00 -0.00000000000E+00 -0.45593999997E+02  0.45594000000E+02  0.51100000000E-03 0. -1.
    9900012    2    1    2    0    0 -0.45042168340E+01 -0.27154456610E+02 -0.29925127950E+02  0.50528858766E+02  0.29999996704E+02 0.  0.
        -12    1    1    2    0    0  0.45042168340E+01  0.27154456610E+02  0.29925127950E+02  0.40659141234E+02  0.00000000000E+00 0.  1.
         11    1    3    3    0    0 -0.69528058253E+00 -0.15395853566E+02 -0.82573730207E+01  0.17484276696E+02  0.51100000000E-03 0. -1.
        -11    1    3    3    0    0  0.22567310492E+01  0.36045832175E+01 -0.14371610184E+02  0.14987629390E+02  0.51100000000E-03 0.  1.
        -12    1    3    3    0    0 -0.60656673007E+01 -0.15363186262E+02 -0.72961447453E+01  0.18056952679E+02  0.00000000000E+00 0.  1.
</event>
<event>
 7    1  0.1024956E-012  0.5052889E+02  0.7816164E-02  0.1300439E+00
        -11   -1    0    0    0    0  0.00000000000E+00  0.00000000000E+00  0.45593999997E+02  0.45594000000E+02  0.51100000000E-03 0.  1.
         11   -1    0    0    0    0 -0.00000000000E+00 -0.00000000000E+00 -0.45593999997E+02  0.45594000000E+02  0.51100000000E-03 0. -1.
    9900012    2    1    2    0    0 -0.13094676228E+02  0.29127362908E+02 -0.25165246552E+02  0.50528887252E+02  0.30000083290E+02 0.  0.
        -12    1    1    2    0    0  0.13094676228E+02 -0.29127362908E+02  0.25165246552E+02  0.40659112748E+02  0.00000000000E+00 0.  1.
         11    1    3    3    0    0 -0.71891305035E+01  0.21385946133E+02 -0.91866583369E+01  0.24360562003E+02  0.51100000000E-03 0. -1.
        -11    1    3    3    0    0  0.44224867177E+00 -0.45643134944E+01 -0.10163856524E+02  0.11150449375E+02  0.51100000000E-03 0.  1.
        -12    1    3    3    0    0 -0.63477943962E+01  0.12305730269E+02 -0.58147316914E+01  0.15017875875E+02  0.00000000000E+00 0.  1.
</event>
<event>
 7    1  0.1024956E-012  0.5052886E+02  0.7816164E-02  0.1300439E+00
        -11   -1    0    0    0    0  0.00000000000E+00  0.00000000000E+00  0.45593999997E+02  0.45594000000E+02  0.51100000000E-03 0.  1.
         11   -1    0    0    0    0 -0.00000000000E+00 -0.00000000000E+00 -0.45593999997E+02  0.45594000000E+02  0.51100000000E-03 0. -1.
    9900012    2    1    2    0    0 -0.19655938044E+02  0.12255853139E+02 -0.33415624723E+02  0.50528858196E+02  0.29999994973E+02 0.  0.
        -12    1    1    2    0    0  0.19655938044E+02 -0.12255853139E+02  0.33415624723E+02  0.40659141804E+02  0.00000000000E+00 0.  1.
         11    1    3    3    0    0 -0.48843587235E+01 -0.36457425139E+01 -0.32086511172E+01  0.68879489597E+01  0.51100000000E-03 0. -1.
        -11    1    3    3    0    0 -0.19904582039E+02  0.16972608744E+02 -0.23834980520E+02  0.35388813633E+02  0.51100000000E-03 0.  1.
        -12    1    3    3    0    0  0.51330027182E+01 -0.10710130916E+01 -0.63719930864E+01  0.82520956030E+01  0.00000000000E+00 0.  1.
</event>
<event>
 7    1  0.1024956E-012  0.5052887E+02  0.7816164E-02  0.1300439E+00
        -11   -1    0    0    0    0  0.00000000000E+00  0.00000000000E+00  0.45593999997E+02  0.45594000000E+02  0.51100000000E-03 0.  1.
         11   -1    0    0    0    0 -0.00000000000E+00 -0.00000000000E+00 -0.45593999997E+02  0.45594000000E+02  0.51100000000E-03 0. -1.
    9900012    2    1    2    0    0  0.14300260887E+02  0.13992790146E+02 -0.35395887246E+02  0.50528874684E+02  0.30000045089E+02 0.  0.
        -12    1    1    2    0    0 -0.14300260887E+02 -0.13992790146E+02  0.35395887246E+02  0.40659125316E+02  0.00000000000E+00 0.  1.
         11    1    3    3    0    0  0.19314492290E+02  0.16032673599E+02 -0.18383692749E+02  0.31113604653E+02  0.51100000000E-03 0. -1.
        -11    1    3    3    0    0 -0.15722845687E+01 -0.14216685519E+01 -0.15433546591E+02  0.15578433197E+02  0.51100000000E-03 0.  1.
         12    1    3    3    0    0 -0.34419468343E+01 -0.61821490104E+00 -0.15786479054E+01  0.38368368330E+01  0.00000000000E+00 0. -1.
</event>
<event>
 7    1  0.1024956E-012  0.5052885E+02  0.7816164E-02  0.1300439E+00
        -11   -1    0    0    0    0  0.00000000000E+00  0.00000000000E+00  0.45593999997E+02  0.45594000000E+02  0.51100000000E-03 0.  1.
         11   -1    0    0    0    0 -0.00000000000E+00 -0.00000000000E+00 -0.45593999997E+02  0.45594000000E+02  0.51100000000E-03 0. -1.
    9900012    2    1    2    0    0 -0.62015402675E+00  0.80975419381E+01 -0.39839822965E+02  0.50528852563E+02  0.29999977851E+02 0.  0.
        -12    1    1    2    0    0  0.62015402675E+00 -0.80975419381E+01  0.39839822965E+02  0.40659147437E+02  0.00000000000E+00 0.  1.
         11    1    3    3    0    0  0.13512829511E+02  0.76958225419E+01 -0.20771302849E+02  0.25947432788E+02  0.51100000000E-03 0. -1.
        -11    1    3    3    0    0 -0.43628554099E+01  0.48051728720E+00 -0.18071781874E+01  0.47467143850E+01  0.51100000000E-03 0.  1.
         12    1    3    3    0    0 -0.97701281278E+01 -0.78797891072E-01 -0.17261341928E+02  0.19834705390E+02  0.00000000000E+00 0. -1.
</event>
<event>
 7    1  0.1024956E-012  0.5052886E+02  0.7816164E-02  0.1300439E+00
        -11   -1    0    0    0    0  0.00000000000E+00  0.00000000000E+00  0.45593999997E+02  0.45594000000E+02  0.51100000000E-03 0. -1.
         11   -1    0    0    0    0 -0.00000000000E+00 -0.00000000000E+00 -0.45593999997E+02  0.45594000000E+02  0.51100000000E-03 0.  1.
    9900012    2    1    2    0    0  0.99349187320E+01  0.38085855319E+02  0.10194624814E+02  0.50528863748E+02  0.30000011850E+02 0.  0.
        -12    1    1    2    0    0 -0.99349187320E+01 -0.38085855319E+02 -0.10194624814E+02  0.40659136252E+02  0.00000000000E+00 0.  1.
         11    1    3    3    0    0  0.17608235863E+02  0.19365337937E+02  0.74032384885E+01  0.27200629110E+02  0.51100000000E-03 0. -1.
        -11    1    3    3    0    0 -0.60540367456E+01  0.11619913682E+02 -0.36544460000E+01  0.13602526630E+02  0.51100000000E-03 0.  1.
         12    1    3    3    0    0 -0.16192803857E+01  0.71006037004E+01  0.64458323260E+01  0.97257080078E+01  0.00000000000E+00 0. -1.
</event>
<event>
 7    1  0.1673807E-012  0.5052886E+02  0.7816164E-02  0.1300439E+00
        -11   -1    0    0    0    0  0.00000000000E+00  0.00000000000E+00  0.45593999997E+02  0.45594000000E+02  0.51100000000E-03 0.  1.
         11   -1    0    0    0    0 -0.00000000000E+00 -0.00000000000E+00 -0.45593999997E+02  0.45594000000E+02  0.51100000000E-03 0. -1.
    9900012    2    1    2    0    0  0.92561516759E+01 -0.38666077591E+02 -0.85101932432E+01  0.50528864629E+02  0.30000014526E+02 0.  0.
        -12    1    1    2    0    0 -0.92561516759E+01  0.38666077591E+02  0.85101932432E+01  0.40659135371E+02  0.00000000000E+00 0.  1.
         11    1    3    3    0    0  0.35303100279E+01 -0.13104935142E+02 -0.94895991744E+01  0.16560643307E+02  0.51100000000E-03 0. -1.
        -11    1    3    3    0    0 -0.61103546979E+01 -0.12748961829E+01  0.29006957314E+01  0.68830103006E+01  0.51100000000E-03 0.  1.
        -12    1    3    3    0    0  0.11836196346E+02 -0.24286246265E+02 -0.19212898001E+01  0.27085211022E+02  0.00000000000E+00 0.  1.
</event>
<event>
 7    1  0.1024956E-012  0.5052886E+02  0.7816164E-02  0.1300439E+00
        -11   -1    0    0    0    0  0.00000000000E+00  0.00000000000E+00  0.45593999997E+02  0.45594000000E+02  0.51100000000E-03 0.  1.
         11   -1    0    0    0    0 -0.00000000000E+00 -0.00000000000E+00 -0.45593999997E+02  0.45594000000E+02  0.51100000000E-03 0. -1.
    9900012    2    1    2    0    0 -0.25021675886E+01 -0.77015359478E+01 -0.39844584944E+02  0.50528862675E+02  0.30000008588E+02 0.  0.
        -12    1    1    2    0    0  0.25021675886E+01  0.77015359478E+01  0.39844584944E+02  0.40659137325E+02  0.00000000000E+00 0.  1.
         11    1    3    3    0    0 -0.53744177898E+01  0.30969925087E+01 -0.33005005779E+02  0.33582825014E+02  0.51100000000E-03 0. -1.
        -11    1    3    3    0    0 -0.68517984747E+00 -0.10878138235E+02 -0.22344994658E+01  0.11126380858E+02  0.51100000000E-03 0.  1.
        -12    1    3    3    0    0  0.35574300486E+01  0.79609778288E-01 -0.46050796992E+01  0.58196568029E+01  0.00000000000E+00 0.  1.
</event>
<event>
 7    1  0.1024956E-012  0.5052884E+02  0.7816164E-02  0.1300439E+00
        -11   -1    0    0    0    0  0.00000000000E+00  0.00000000000E+00  0.45593999997E+02  0.45594000000E+02  0.51100000000E-03 0.  1.
         11   -1    0    0    0    0 -0.00000000000E+00 -0.00000000000E+00 -0.45593999997E+02  0.45594000000E+02  0.51100000000E-03 0. -1.
    9900012    2    1    2    0    0 -0.38600416673E+02  0.86937789479E+01 -0.93591201285E+01  0.50528842491E+02  0.29999947236E+02 0.  0.
        -12    1    1    2    0    0  0.38600416673E+02 -0.86937789479E+01  0.93591201285E+01  0.40659157509E+02  0.00000000000E+00 0.  1.
         11    1    3    3    0    0 -0.91202911356E+01  0.72662086803E+01  0.44403838541E+01  0.12477760537E+02  0.51100000000E-03 0. -1.
        -11    1    3    3    0    0 -0.42684539786E+01  0.15799338698E+01 -0.11931150096E+02  0.12769817276E+02  0.51100000000E-03 0.  1.
        -12    1    3    3    0    0 -0.25211671559E+02 -0.15236360215E+00 -0.18683538866E+01  0.25281264678E+02  0.00000000000E+00 0.  1.
</event>
<event>
 7    1  0.1024956E-012  0.5052887E+02  0.7816164E-02  0.1300439E+00
        -11   -1    0    0    0    0  0.00000000000E+00  0.00000000000E+00  0.45593999997E+02  0.45594000000E+02  0.51100000000E-03 0. -1.
         11   -1    0    0    0    0 -0.00000000000E+00 -0.00000000000E+00 -0.45593999997E+02  0.45594000000E+02  0.51100000000E-03 0.  1.
    9900012    2    1    2    0    0 -0.23472236308E+02 -0.93557851534E+01  0.31854171563E+02  0.50528870163E+02  0.30000031347E+02 0.  0.
        -12    1    1    2    0    0  0.23472236308E+02  0.93557851534E+01 -0.31854171563E+02  0.40659129837E+02  0.00000000000E+00 0.  1.
         11    1    3    3    0    0 -0.11559035319E+02  0.81634995673E+01  0.10436739804E+02  0.17583502515E+02  0.51100000000E-03 0. -1.
        -11    1    3    3    0    0 -0.10732821991E+02 -0.19760043739E+02  0.19577184390E+02  0.29814743759E+02  0.51100000000E-03 0.  1.
        -12    1    3    3    0    0 -0.11803789977E+01  0.22407590188E+01  0.18402473694E+01  0.31306238898E+01  0.00000000000E+00 0.  1.
</event>
<event>
 7    1  0.1024956E-012  0.5052887E+02  0.7816164E-02  0.1300439E+00
        -11   -1    0    0    0    0  0.00000000000E+00  0.00000000000E+00  0.45593999997E+02  0.45594000000E+02  0.51100000000E-03 0.  1.
         11   -1    0    0    0    0 -0.00000000000E+00 -0.00000000000E+00 -0.45593999997E+02  0.45594000000E+02  0.51100000000E-03 0. -1.
    9900012    2    1    2    0    0 -0.20643023646E+02 -0.12024074852E+02 -0.32900643647E+02  0.50528866294E+02  0.30000019588E+02 0.  0.
        -12    1    1    2    0    0  0.20643023646E+02  0.12024074852E+02  0.32900643647E+02  0.40659133706E+02  0.00000000000E+00 0.  1.
         11    1    3    3    0    0 -0.15510486137E+02 -0.11289574019E+02 -0.51228601114E+01  0.19856317829E+02  0.51100000000E-03 0. -1.
        -11    1    3    3    0    0 -0.50379061374E+01  0.50322568934E+01 -0.13257872582E+02  0.15049096098E+02  0.51100000000E-03 0.  1.
         12    1    3    3    0    0 -0.94631370789E-01 -0.57667577265E+01 -0.14519910954E+02  0.15623452368E+02  0.00000000000E+00 0. -1.
</event>
<event>
 7    1  0.1024956E-012  0.5052887E+02  0.7816164E-02  0.1300439E+00
        -11   -1    0    0    0    0  0.00000000000E+00  0.00000000000E+00  0.45593999997E+02  0.45594000000E+02  0.51100000000E-03 0.  1.
         11   -1    0    0    0    0 -0.00000000000E+00 -0.00000000000E+00 -0.45593999997E+02  0.45594000000E+02  0.51100000000E-03 0. -1.
    9900012    2    1    2    0    0  0.24524952038E+02 -0.17364822846E+02 -0.27388948704E+02  0.50528869954E+02  0.30000030713E+02 0.  0.
        -12    1    1    2    0    0 -0.24524952038E+02  0.17364822846E+02  0.27388948704E+02  0.40659130046E+02  0.00000000000E+00 0.  1.
         11    1    3    3    0    0  0.11853076472E+02 -0.68866896167E+01  0.20792038419E+01  0.13865244484E+02  0.51100000000E-03 0. -1.
        -11    1    3    3    0    0 -0.20197471276E+01 -0.10562524979E+01 -0.11077277250E+02  0.11309337705E+02  0.51100000000E-03 0.  1.
         12    1    3    3    0    0  0.14691622694E+02 -0.94218807318E+01 -0.18390875296E+02  0.25354287765E+02  0.00000000000E+00 0. -1.
</event>
<event>
 7    1  0.1024956E-012  0.5052886E+02  0.7816164E-02  0.1300439E+00
        -11   -1    0    0    0    0  0.00000000000E+00  0.00000000000E+00  0.45593999997E+02  0.45594000000E+02  0.51100000000E-03 0. -1.
         11   -1    0    0    0    0 -0.00000000000E+00 -0.00000000000E+00 -0.45593999997E+02  0.45594000000E+02  0.51100000000E-03 0.  1.
    9900012    2    1    2    0    0 -0.37723391226E+02 -0.78377786627E+01  0.12987710726E+02  0.50528860193E+02  0.30000001042E+02 0.  0.
        -12    1    1    2    0    0  0.37723391226E+02  0.78377786627E+01 -0.12987710726E+02  0.40659139807E+02  0.00000000000E+00 0.  1.
         11    1    3    3    0    0 -0.17257213629E+02 -0.10895887759E+02  0.15077901609E+02  0.25374690333E+02  0.51100000000E-03 0. -1.
        -11    1    3    3    0    0 -0.21897690545E+02  0.40746269498E+01  0.19248071359E+00  0.22274390791E+02  0.51100000000E-03 0.  1.
        -12    1    3    3    0    0  0.14315129482E+01 -0.10165178539E+01 -0.22826715971E+01  0.28797790694E+01  0.00000000000E+00 0.  1.
</event>
<event>
 7    1  0.1024956E-012  0.5052886E+02  0.7816164E-02  0.1300439E+00
        -11   -1    0    0    0    0  0.00000000000E+00  0.00000000000E+00  0.45593999997E+02  0.45594000000E+02  0.51100000000E-03 0. -1.
         11   -1    0    0    0    0 -0.00000000000E+00 -0.00000000000E+00 -0.45593999997E+02  0.45594000000E+02  0.51100000000E-03 0.  1.
    9900012    2    1    2    0    0  0.38940857278E+02  0.11066297716E+02 -0.37831702512E+01  0.50528859726E+02  0.29999999622E+02 0.  0.
        -12    1    1    2    0    0 -0.38940857278E+02 -0.11066297716E+02  0.37831702512E+01  0.40659140274E+02  0.00000000000E+00 0.  1.
         11    1    3    3    0    0  0.25987998576E+01 -0.14031017545E+01  0.36192527530E+01  0.46713430600E+01  0.51100000000E-03 0.  1.
        -11    1    3    3    0    0  0.35229213683E+02  0.17335939882E+02 -0.33110517912E+01  0.39402986848E+02  0.51100000000E-03 0. -1.
        -12    1    3    3    0    0  0.11128437377E+01 -0.48665404117E+01 -0.40913712131E+01  0.64545298176E+01  0.00000000000E+00 0.  1.
</event>
<event>
 7    1  0.1024956E-012  0.5052886E+02  0.7816164E-02  0.1300439E+00
        -11   -1    0    0    0    0  0.00000000000E+00  0.00000000000E+00  0.45593999997E+02  0.45594000000E+02  0.51100000000E-03 0.  1.
         11   -1    0    0    0    0 -0.00000000000E+00 -0.00000000000E+00 -0.45593999997E+02  0.45594000000E+02  0.51100000000E-03 0. -1.
    9900012    2    1    2    0    0  0.33857228488E+02  0.45635502872E+01 -0.22046045929E+02  0.50528855233E+02  0.29999985965E+02 0.  0.
        -12    1    1    2    0    0 -0.33857228488E+02 -0.45635502872E+01  0.22046045929E+02  0.40659144767E+02  0.00000000000E+00 0.  1.
         11    1    3    3    0    0  0.20576914485E+00  0.83162096071E+01 -0.10567585229E+01  0.83856080285E+01  0.51100000000E-03 0. -1.
        -11    1    3    3    0    0  0.31723767826E+02  0.43282289069E+00 -0.19748888202E+02  0.37371156875E+02  0.51100000000E-03 0.  1.
        -12    1    3    3    0    0  0.19276915174E+01 -0.41854822106E+01 -0.12403992044E+01  0.47720903290E+01  0.00000000000E+00 0.  1.
</event>
<event>
 7    1  0.1024956E-012  0.5052887E+02  0.7816164E-02  0.1300439E+00
        -11   -1    0    0    0    0  0.00000000000E+00  0.00000000000E+00  0.45593999997E+02  0.45594000000E+02  0.51100000000E-03 0.  1.
         11   -1    0    0    0    0 -0.00000000000E+00 -0.00000000000E+00 -0.45593999997E+02  0.45594000000E+02  0.51100000000E-03 0. -1.
    9900012    2    1    2    0    0 -0.25642264662E+02 -0.26506010556E+02 -0.17119308271E+02  0.50528867591E+02  0.30000023530E+02 0.  0.
        -12    1    1    2    0    0  0.25642264662E+02  0.26506010556E+02  0.17119308271E+02  0.40659132409E+02  0.00000000000E+00 0.  1.
         11    1    3    3    0    0  0.96389606736E+00 -0.17075140604E+02 -0.15577127145E+01  0.17173118280E+02  0.51100000000E-03 0. -1.
        -11    1    3    3    0    0 -0.21816995407E+02 -0.11039496739E+02 -0.12856412596E+02  0.27624972795E+02  0.51100000000E-03 0.  1.
        -12    1    3    3    0    0 -0.47891653228E+01  0.16086267877E+01 -0.27051829604E+01  0.57307765163E+01  0.00000000000E+00 0.  1.
</event>
<event>
 7    1  0.1024956E-012  0.5052886E+02  0.7816164E-02  0.1300439E+00
        -11   -1    0    0    0    0  0.00000000000E+00  0.00000000000E+00  0.45593999997E+02  0.45594000000E+02  0.51100000000E-03 0.  1.
         11   -1    0    0    0    0 -0.00000000000E+00 -0.00000000000E+00 -0.45593999997E+02  0.45594000000E+02  0.51100000000E-03 0. -1.
    9900012    2    1    2    0    0 -0.19096011996E+02 -0.33187964501E+02 -0.13677241976E+02  0.50528860684E+02  0.30000002534E+02 0.  0.
        -12    1    1    2    0    0  0.19096011996E+02  0.33187964501E+02  0.13677241976E+02  0.40659139316E+02  0.00000000000E+00 0.  1.
         11    1    3    3    0    0 -0.12443299216E+01 -0.99406014084E+01  0.90348328832E+00  0.10058836694E+02  0.51100000000E-03 0. -1.
        -11    1    3    3    0    0 -0.15556134553E+02 -0.29779079531E+01 -0.81261500854E+00  0.15859432569E+02  0.51100000000E-03 0.  1.
        -12    1    3    3    0    0 -0.22955475216E+01 -0.20269455139E+02 -0.13768110256E+02  0.24610591421E+02  0.00000000000E+00 0.  1.
</event>
<event>
 7    1  0.1024956E-012  0.5052886E+02  0.7816164E-02  0.1300439E+00
        -11   -1    0    0    0    0  0.00000000000E+00  0.00000000000E+00  0.45593999997E+02  0.45594000000E+02  0.51100000000E-03 0. -1.
         11   -1    0    0    0    0 -0.00000000000E+00 -0.00000000000E+00 -0.45593999997E+02  0.45594000000E+02  0.51100000000E-03 0.  1.
    9900012    2    1    2    0    0 -0.24052529339E+02 -0.19000168831E+02  0.26713951278E+02  0.50528858640E+02  0.29999996323E+02 0.  0.
        -12    1    1    2    0    0  0.24052529339E+02  0.19000168831E+02 -0.26713951278E+02  0.40659141360E+02  0.00000000000E+00 0.  1.
         11    1    3    3    0    0 -0.55571443816E+01 -0.13763319772E+02  0.21435958431E+02  0.26073188124E+02  0.51100000000E-03 0. -1.
        -11    1    3    3    0    0 -0.40942249532E+01  0.48031429677E+01  0.17463894228E+01  0.65484911707E+01  0.51100000000E-03 0.  1.
         12    1    3    3    0    0 -0.14401160004E+02 -0.10039992026E+02  0.35316034240E+01  0.17907179345E+02  0.00000000000E+00 0. -1.
</event>
<event>
 7    1  0.1024956E-012  0.5052886E+02  0.7816164E-02  0.1300439E+00
        -11   -1    0    0    0    0  0.00000000000E+00  0.00000000000E+00  0.45593999997E+02  0.45594000000E+02  0.51100000000E-03 0.  1.
         11   -1    0    0    0    0 -0.00000000000E+00 -0.00000000000E+00 -0.45593999997E+02  0.45594000000E+02  0.51100000000E-03 0. -1.
    9900012    2    1    2    0    0 -0.18785317742E+01  0.10660525052E+02 -0.39191706177E+02  0.50528861924E+02  0.30000006303E+02 0.  0.
        -12    1    1    2    0    0  0.18785317742E+01 -0.10660525052E+02  0.39191706177E+02  0.40659138076E+02  0.00000000000E+00 0.  1.
         11    1    3    3    0    0 -0.97797550444E+01 -0.31738363970E+01 -0.26815304677E+02  0.28718938201E+02  0.51100000000E-03 0. -1.
        -11    1    3    3    0    0  0.57294810625E+01  0.87778971928E+01 -0.29411528409E+01  0.10887093858E+02  0.51100000000E-03 0.  1.
         12    1    3    3    0    0  0.21717422077E+01  0.50564642564E+01 -0.94352486592E+01  0.10922829865E+02  0.00000000000E+00 0. -1.
</event>
<event>
 7    1  0.1024956E-012  0.5052872E+02  0.7816164E-02  0.1300439E+00
        -11   -1    0    0    0    0  0.00000000000E+00  0.00000000000E+00  0.45593999997E+02  0.45594000000E+02  0.51100000000E-03 0. -1.
         11   -1    0    0    0    0 -0.00000000000E+00 -0.00000000000E+00 -0.45593999997E+02  0.45594000000E+02  0.51100000000E-03 0.  1.
    9900012    2    1    2    0    0 -0.14450574430E+02 -0.13355104877E+02  0.35580876320E+02  0.50528724462E+02  0.29999588471E+02 0.  0.
        -12    1    1    2    0    0  0.14450574430E+02  0.13355104877E+02 -0.35580876320E+02  0.40659275538E+02  0.00000000000E+00 0.  1.
         11    1    3    3    0    0 -0.10637725439E+02  0.26966576316E+00  0.30841615475E+02  0.32625743938E+02  0.51100000000E-03 0. -1.
        -11    1    3    3    0    0 -0.53570909709E+01 -0.11979960576E+02  0.53793131762E+00  0.13134201515E+02  0.51100000000E-03 0.  1.
         12    1    3    3    0    0  0.15442419800E+01 -0.16448100650E+01  0.42013295267E+01  0.47687790088E+01  0.00000000000E+00 0. -1.
</event>
<event>
 7    1  0.1024956E-012  0.5052886E+02  0.7816164E-02  0.1300439E+00
        -11   -1    0    0    0    0  0.00000000000E+00  0.00000000000E+00  0.45593999997E+02  0.45594000000E+02  0.51100000000E-03 0.  1.
         11   -1    0    0    0    0 -0.00000000000E+00 -0.00000000000E+00 -0.45593999997E+02  0.45594000000E+02  0.51100000000E-03 0. -1.
    9900012    2    1    2    0    0 -0.30840171252E+02  0.92046559169E-01 -0.26496051833E+02  0.50528863288E+02  0.30000010451E+02 0.  0.
        -12    1    1    2    0    0  0.30840171252E+02 -0.92046559169E-01  0.26496051833E+02  0.40659136712E+02  0.00000000000E+00 0.  1.
         11    1    3    3    0    0 -0.26272360061E+02  0.78214871615E+01 -0.96107967304E+01  0.29047891122E+02  0.51100000000E-03 0. -1.
        -11    1    3    3    0    0 -0.75589980184E+01 -0.65058307137E+01 -0.13678056415E+02  0.16927891536E+02  0.51100000000E-03 0.  1.
        -12    1    3    3    0    0  0.29911868277E+01 -0.12236098887E+01 -0.32071986878E+01  0.45530806297E+01  0.00000000000E+00 0.  1.
</event>
<event>
 7    1  0.1024956E-012  0.5052886E+02  0.7816164E-02  0.1300439E+00
        -11   -1    0    0    0    0  0.00000000000E+00  0.00000000000E+00  0.45593999997E+02  0.45594000000E+02  0.51100000000E-03 0.  1.
         11   -1    0    0    0    0 -0.00000000000E+00 -0.00000000000E+00 -0.45593999997E+02  0.45594000000E+02  0.51100000000E-03 0. -1.
    9900012    2    1    2    0    0 -0.38824627734E+02 -0.56916734262E+00 -0.12061918905E+02  0.50528861324E+02  0.30000004482E+02 0.  0.
        -12    1    1    2    0    0  0.38824627734E+02  0.56916734262E+00  0.12061918905E+02  0.40659138676E+02  0.00000000000E+00 0.  1.
         11    1    3    3    0    0 -0.84597614603E+01 -0.67900710691E+00 -0.12102581394E+02  0.14781782412E+02  0.51100000000E-03 0. -1.
        -11    1    3    3    0    0 -0.23600893328E+02 -0.10337713460E+01  0.82738441773E+01  0.25030528297E+02  0.51100000000E-03 0.  1.
        -12    1    3    3    0    0 -0.67639729458E+01  0.11436111102E+01 -0.82331816883E+01  0.10716550616E+02  0.00000000000E+00 0.  1.
</event>
<event>
 7    1  0.1024956E-012  0.5052886E+02  0.7816164E-02  0.1300439E+00
        -11   -1    0    0    0    0  0.00000000000E+00  0.00000000000E+00  0.45593999997E+02  0.45594000000E+02  0.51100000000E-03 0.  1.
         11   -1    0    0    0    0 -0.00000000000E+00 -0.00000000000E+00 -0.45593999997E+02  0.45594000000E+02  0.51100000000E-03 0. -1.
    9900012    2    1    2    0    0  0.24895290804E+01 -0.83028535415E+01 -0.39724431378E+02  0.50528861048E+02  0.30000003642E+02 0.  0.
        -12    1    1    2    0    0 -0.24895290804E+01  0.83028535415E+01  0.39724431378E+02  0.40659138952E+02  0.00000000000E+00 0.  1.
         11    1    3    3    0    0  0.10156552454E+02 -0.99472084647E+01 -0.28600143095E+02  0.31938545666E+02  0.51100000000E-03 0.  1.
        -11    1    3    3    0    0 -0.51177858683E+00 -0.19307663576E+01  0.22487238238E+01  0.30077458580E+01  0.51100000000E-03 0. -1.
         12    1    3    3    0    0 -0.71552447868E+01  0.35751212808E+01 -0.13373012107E+02  0.15582569524E+02  0.00000000000E+00 0. -1.
</event>
<event>
 7    1  0.1024956E-012  0.5052885E+02  0.7816164E-02  0.1300439E+00
        -11   -1    0    0    0    0  0.00000000000E+00  0.00000000000E+00  0.45593999997E+02  0.45594000000E+02  0.51100000000E-03 0.  1.
         11   -1    0    0    0    0 -0.00000000000E+00 -0.00000000000E+00 -0.45593999997E+02  0.45594000000E+02  0.51100000000E-03 0. -1.
    9900012    2    1    2    0    0 -0.19917882805E+02 -0.12136287633E+02 -0.33303974182E+02  0.50528853068E+02  0.29999979385E+02 0.  0.
        -12    1    1    2    0    0  0.19917882805E+02  0.12136287633E+02  0.33303974182E+02  0.40659146932E+02  0.00000000000E+00 0.  1.
         11    1    3    3    0    0 -0.23080435123E+01 -0.10656810730E+02 -0.12958304712E+01  0.10980612764E+02  0.51100000000E-03 0. -1.
        -11    1    3    3    0    0 -0.18166168155E+02  0.47114907601E-01 -0.18447416693E+02  0.25890520816E+02  0.51100000000E-03 0.  1.
        -12    1    3    3    0    0  0.55632886176E+00 -0.15265918107E+01 -0.13560727018E+02  0.13657719488E+02  0.00000000000E+00 0.  1.
</event>
<event>
 7    1  0.1024956E-012  0.5052885E+02  0.7816164E-02  0.1300439E+00
        -11   -1    0    0    0    0  0.00000000000E+00  0.00000000000E+00  0.45593999997E+02  0.45594000000E+02  0.51100000000E-03 0. -1.
         11   -1    0    0    0    0 -0.00000000000E+00 -0.00000000000E+00 -0.45593999997E+02  0.45594000000E+02  0.51100000000E-03 0.  1.
    9900012    2    1    2    0    0  0.17617074278E+02  0.16215053159E+02 -0.32861485713E+02  0.50528849759E+02  0.29999969327E+02 0.  0.
        -12    1    1    2    0    0 -0.17617074278E+02 -0.16215053159E+02  0.32861485713E+02  0.40659150241E+02  0.00000000000E+00 0.  1.
         11    1    3    3    0    0  0.86079569458E+01  0.12088508559E+02 -0.16654689674E+02  0.22307121069E+02  0.51100000000E-03 0. -1.
        -11    1    3    3    0    0  0.18689603013E+01 -0.82913324305E+01 -0.82068134742E+01  0.11814863255E+02  0.51100000000E-03 0.  1.
        -12    1    3    3    0    0  0.71401570310E+01  0.12417877030E+02 -0.79999825648E+01  0.16406865435E+02  0.00000000000E+00 0.  1.
</event>
<event>
 7    1  0.1024956E-012  0.5052887E+02  0.7816164E-02  0.1300439E+00
        -11   -1    0    0    0    0  0.00000000000E+00  0.00000000000E+00  0.45593999997E+02  0.45594000000E+02  0.51100000000E-03 0.  1.
         11   -1    0    0    0    0 -0.00000000000E+00 -0.00000000000E+00 -0.45593999997E+02  0.45594000000E+02  0.51100000000E-03 0. -1.
    9900012    2    1    2    0    0 -0.27869214149E+02  0.18341045771E+02 -0.23239581189E+02  0.50528865834E+02  0.30000018190E+02 0.  0.
        -12    1    1    2    0    0  0.27869214149E+02 -0.18341045771E+02  0.23239581189E+02  0.40659134166E+02  0.00000000000E+00 0.  1.
         11    1    3    3    0    0 -0.16233841935E+02 -0.15114816313E+01 -0.13124198794E+01  0.16356792072E+02  0.51100000000E-03 0. -1.
        -11    1    3    3    0    0 -0.96212555551E+01  0.16169894777E+02 -0.95461252374E+01  0.21098875867E+02  0.51100000000E-03 0.  1.
        -12    1    3    3    0    0 -0.20141166590E+01  0.36826326251E+01 -0.12381036073E+02  0.13073197895E+02  0.00000000000E+00 0.  1.
</event>
<event>
 7    1  0.1024956E-012  0.5052887E+02  0.7816164E-02  0.1300439E+00
        -11   -1    0    0    0    0  0.00000000000E+00  0.00000000000E+00  0.45593999997E+02  0.45594000000E+02  0.51100000000E-03 0. -1.
         11   -1    0    0    0    0 -0.00000000000E+00 -0.00000000000E+00 -0.45593999997E+02  0.45594000000E+02  0.51100000000E-03 0.  1.
    9900012    2    1    2    0    0  0.73678593591E+01 -0.39504848686E+02  0.61843993230E+01  0.50528865526E+02  0.30000017252E+02 0.  0.
        -12    1    1    2    0    0 -0.73678593591E+01  0.39504848686E+02 -0.61843993230E+01  0.40659134474E+02  0.00000000000E+00 0.  1.
         11    1    3    3    0    0  0.10666511586E+02 -0.94029310276E+01 -0.26542438270E+01  0.14464943549E+02  0.51100000000E-03 0.  1.
        -11    1    3    3    0    0 -0.32638774673E+01 -0.23067777321E+02  0.14142594169E+02  0.27254141277E+02  0.51100000000E-03 0. -1.
        -12    1    3    3    0    0 -0.34774759735E-01 -0.70341403374E+01 -0.53039510188E+01  0.88097806999E+01  0.00000000000E+00 0.  1.
</event>
<event>
 7    1  0.1024956E-012  0.5052886E+02  0.7816164E-02  0.1300439E+00
        -11   -1    0    0    0    0  0.00000000000E+00  0.00000000000E+00  0.45593999997E+02  0.45594000000E+02  0.51100000000E-03 0.  1.
         11   -1    0    0    0    0 -0.00000000000E+00 -0.00000000000E+00 -0.45593999997E+02  0.45594000000E+02  0.51100000000E-03 0. -1.
    9900012    2    1    2    0    0 -0.34361632973E+02 -0.98718562091E+01 -0.19364660338E+02  0.50528862827E+02  0.30000009050E+02 0.  0.
        -12    1    1    2    0    0  0.34361632973E+02  0.98718562091E+01  0.19364660338E+02  0.40659137173E+02  0.00000000000E+00 0.  1.
         11    1    3    3    0    0 -0.26186196725E+02  0.50941167358E+01 -0.60081385780E+01  0.27345285767E+02  0.51100000000E-03 0. -1.
        -11    1    3    3    0    0 -0.16486092344E+00 -0.63129816687E+01 -0.81064125722E+01  0.10275935078E+02  0.51100000000E-03 0.  1.
        -12    1    3    3    0    0 -0.80105753252E+01 -0.86529912762E+01 -0.52501091882E+01  0.12907641983E+02  0.00000000000E+00 0.  1.
</event>
<event>
 7    1  0.1024956E-012  0.5052886E+02  0.7816164E-02  0.1300439E+00
        -11   -1    0    0    0    0  0.00000000000E+00  0.00000000000E+00  0.45593999997E+02  0.45594000000E+02  0.51100000000E-03 0.  1.
         11   -1    0    0    0    0 -0.00000000000E+00 -0.00000000000E+00 -0.45593999997E+02  0.45594000000E+02  0.51100000000E-03 0. -1.
    9900012    2    1    2    0    0  0.28638170564E+01 -0.40553245979E+02  0.63126957308E+00  0.50528859467E+02  0.29999998837E+02 0.  0.
        -12    1    1    2    0    0 -0.28638170564E+01  0.40553245979E+02 -0.63126957308E+00  0.40659140533E+02  0.00000000000E+00 0.  1.
         11    1    3    3    0    0  0.27874478198E+01 -0.11498565477E+02 -0.91727860742E+01  0.14970867644E+02  0.51100000000E-03 0. -1.
        -11    1    3    3    0    0 -0.40539297669E+01 -0.29238942480E+02  0.64045736916E+01  0.30205441039E+02  0.51100000000E-03 0.  1.
        -12    1    3    3    0    0  0.41302990035E+01  0.18426197829E+00  0.33994819556E+01  0.53525507846E+01  0.00000000000E+00 0.  1.
</event>
<event>
 7    1  0.1024956E-012  0.5052886E+02  0.7816164E-02  0.1300439E+00
        -11   -1    0    0    0    0  0.00000000000E+00  0.00000000000E+00  0.45593999997E+02  0.45594000000E+02  0.51100000000E-03 0.  1.
         11   -1    0    0    0    0 -0.00000000000E+00 -0.00000000000E+00 -0.45593999997E+02  0.45594000000E+02  0.51100000000E-03 0. -1.
    9900012    2    1    2    0    0  0.31162681539E+02 -0.94352758671E+01 -0.24352173839E+02  0.50528861765E+02  0.30000005819E+02 0.  0.
        -12    1    1    2    0    0 -0.31162681539E+02  0.94352758671E+01  0.24352173839E+02  0.40659138235E+02  0.00000000000E+00 0.  1.
         11    1    3    3    0    0  0.28772772710E+02  0.28565190801E+01 -0.24499753801E+02  0.37898154140E+02  0.51100000000E-03 0. -1.
        -11    1    3    3    0    0 -0.13481695580E+00 -0.23624217666E+01 -0.23745292961E+00  0.23781497787E+01  0.51100000000E-03 0.  1.
         12    1    3    3    0    0  0.25247257852E+01 -0.99293731805E+01  0.38503289235E+00  0.10252557846E+02  0.00000000000E+00 0. -1.
</event>
<event>
 7    1  0.1024956E-012  0.5052887E+02  0.7816164E-02  0.1300439E+00
        -11   -1    0    0    0    0  0.00000000000E+00  0.00000000000E+00  0.45593999997E+02  0.45594000000E+02  0.51100000000E-03 0.  1.
         11   -1    0    0    0    0 -0.00000000000E+00 -0.00000000000E+00 -0.45593999997E+02  0.45594000000E+02  0.51100000000E-03 0. -1.
    9900012    2    1    2    0    0 -0.25107520902E+02 -0.14597100082E+02 -0.28455268126E+02  0.50528865469E+02  0.30000017081E+02 0.  0.
        -12    1    1    2    0    0  0.25107520902E+02  0.14597100082E+02  0.28455268126E+02  0.40659134531E+02  0.00000000000E+00 0.  1.
         11    1    3    3    0    0 -0.16424517019E+02 -0.75285024995E+01 -0.30803433106E+02  0.35711267138E+02  0.51100000000E-03 0. -1.
        -11    1    3    3    0    0 -0.80525407387E+01 -0.21932073055E+01  0.44650414640E+01  0.94652081947E+01  0.51100000000E-03 0.  1.
         12    1    3    3    0    0 -0.63046314408E+00 -0.48753902769E+01 -0.21168764840E+01  0.53523901369E+01  0.00000000000E+00 0. -1.
</event>
<event>
 7    1  0.1024956E-012  0.5052885E+02  0.7816164E-02  0.1300439E+00
        -11   -1    0    0    0    0  0.00000000000E+00  0.00000000000E+00  0.45593999997E+02  0.45594000000E+02  0.51100000000E-03 0. -1.
         11   -1    0    0    0    0 -0.00000000000E+00 -0.00000000000E+00 -0.45593999997E+02  0.45594000000E+02  0.51100000000E-03 0.  1.
    9900012    2    1    2    0    0 -0.88057964005E+01 -0.25502113675E+02  0.30418198798E+02  0.50528847645E+02  0.29999962901E+02 0.  0.
        -12    1    1    2    0    0  0.88057964005E+01  0.25502113675E+02 -0.30418198798E+02  0.40659152355E+02  0.00000000000E+00 0.  1.
         11    1    3    3    0    0 -0.11095312736E+02 -0.13266359251E+01  0.55967485969E+01  0.12497580674E+02  0.51100000000E-03 0. -1.
        -11    1    3    3    0    0 -0.29572269873E+01 -0.22231060899E+02  0.15866885352E+02  0.27472227998E+02  0.51100000000E-03 0.  1.
        -12    1    3    3    0    0  0.52467433227E+01 -0.19444168509E+01  0.89545648489E+01  0.10559038972E+02  0.00000000000E+00 0.  1.
</event>
<event>
 7    1  0.1024956E-012  0.5052886E+02  0.7816164E-02  0.1300439E+00
        -11   -1    0    0    0    0  0.00000000000E+00  0.00000000000E+00  0.45593999997E+02  0.45594000000E+02  0.51100000000E-03 0. -1.
         11   -1    0    0    0    0 -0.00000000000E+00 -0.00000000000E+00 -0.45593999997E+02  0.45594000000E+02  0.51100000000E-03 0.  1.
    9900012    2    1    2    0    0  0.24704515458E+02 -0.40856181146E+01  0.32033732349E+02  0.50528863664E+02  0.30000011593E+02 0.  0.
        -12    1    1    2    0    0 -0.24704515458E+02  0.40856181146E+01 -0.32033732349E+02  0.40659136336E+02  0.00000000000E+00 0.  1.
         11    1    3    3    0    0  0.24589907157E+02  0.20086965163E+01  0.22746487024E+02  0.33557429399E+02  0.51100000000E-03 0. -1.
        -11    1    3    3    0    0  0.47798144587E+00 -0.77213776066E+01  0.20649255637E+00  0.77389132210E+01  0.51100000000E-03 0.  1.
         12    1    3    3    0    0 -0.36337314528E+00  0.16270629757E+01  0.90807527691E+01  0.92325210438E+01  0.00000000000E+00 0. -1.
</event>
<event>
 7    1  0.1024956E-012  0.5052885E+02  0.7816164E-02  0.1300439E+00
        -11   -1    0    0    0    0  0.00000000000E+00  0.00000000000E+00  0.45593999997E+02  0.45594000000E+02  0.51100000000E-03 0.  1.
         11   -1    0    0    0    0 -0.00000000000E+00 -0.00000000000E+00 -0.45593999997E+02  0.45594000000E+02  0.51100000000E-03 0. -1.
    9900012    2    1    2    0    0  0.18127572742E+02  0.26362764375E+02  0.25091076558E+02  0.50528851437E+02  0.29999974428E+02 0.  0.
        -12    1    1    2    0    0 -0.18127572742E+02 -0.26362764375E+02 -0.25091076558E+02  0.40659148563E+02  0.00000000000E+00 0.  1.
         11    1    3    3    0    0  0.69002076492E+01  0.20259089636E+02  0.83491893552E+01  0.22972865334E+02  0.51100000000E-03 0. -1.
        -11    1    3    3    0    0  0.18858008537E+01 -0.59113807905E+01  0.24278334284E+01  0.66629605377E+01  0.51100000000E-03 0.  1.
        -12    1    3    3    0    0  0.93415642393E+01  0.12015055529E+02  0.14314053775E+02  0.20893025565E+02  0.00000000000E+00 0.  1.
</event>
<event>
 7    1  0.1024956E-012  0.5052886E+02  0.7816164E-02  0.1300439E+00
        -11   -1    0    0    0    0  0.00000000000E+00  0.00000000000E+00  0.45593999997E+02  0.45594000000E+02  0.51100000000E-03 0.  1.
         11   -1    0    0    0    0 -0.00000000000E+00 -0.00000000000E+00 -0.45593999997E+02  0.45594000000E+02  0.51100000000E-03 0. -1.
    9900012    2    1    2    0    0  0.17262237582E+02 -0.23283629891E+02 -0.28514091618E+02  0.50528859724E+02  0.29999999616E+02 0.  0.
        -12    1    1    2    0    0 -0.17262237582E+02  0.23283629891E+02  0.28514091618E+02  0.40659140276E+02  0.00000000000E+00 0.  1.
         11    1    3    3    0    0  0.20897914529E+02 -0.63811827733E+01 -0.20598674306E+02  0.30029114350E+02  0.51100000000E-03 0. -1.
        -11    1    3    3    0    0 -0.53189050828E+01 -0.11383098658E+02 -0.76776557025E+01  0.14724540186E+02  0.51100000000E-03 0.  1.
        -12    1    3    3    0    0  0.16832281357E+01 -0.55193484597E+01 -0.23776160929E+00  0.57752051877E+01  0.00000000000E+00 0.  1.
</event>
<event>
 7    1  0.1024956E-012  0.5052891E+02  0.7816164E-02  0.1300439E+00
        -11   -1    0    0    0    0  0.00000000000E+00  0.00000000000E+00  0.45593999997E+02  0.45594000000E+02  0.51100000000E-03 0.  1.
         11   -1    0    0    0    0 -0.00000000000E+00 -0.00000000000E+00 -0.45593999997E+02  0.45594000000E+02  0.51100000000E-03 0. -1.
    9900012    2    1    2    0    0  0.20912768940E+02  0.34302721090E+02 -0.62562690266E+01  0.50528911458E+02  0.30000156868E+02 0.  0.
        -12    1    1    2    0    0 -0.20912768940E+02 -0.34302721090E+02  0.62562690266E+01  0.40659088542E+02  0.00000000000E+00 0.  1.
         11    1    3    3    0    0  0.30832901715E+01  0.18684976546E+02 -0.23274305646E+01  0.19080145704E+02  0.51100000000E-03 0. -1.
        -11    1    3    3    0    0 -0.47891389534E+00 -0.53683686787E+00  0.52982802357E+01  0.53468987328E+01  0.51100000000E-03 0.  1.
        -12    1    3    3    0    0  0.18308392663E+02  0.16154581412E+02 -0.92271186978E+01  0.26101867021E+02  0.00000000000E+00 0.  1.
</event>
<event>
 7    1  0.1024956E-012  0.5052886E+02  0.7816164E-02  0.1300439E+00
        -11   -1    0    0    0    0  0.00000000000E+00  0.00000000000E+00  0.45593999997E+02  0.45594000000E+02  0.51100000000E-03 0.  1.
         11   -1    0    0    0    0 -0.00000000000E+00 -0.00000000000E+00 -0.45593999997E+02  0.45594000000E+02  0.51100000000E-03 0. -1.
    9900012    2    1    2    0    0  0.28181233823E+02  0.41010530070E+01 -0.29020086664E+02  0.50528855819E+02  0.29999987748E+02 0.  0.
        -12    1    1    2    0    0 -0.28181233823E+02 -0.41010530070E+01  0.29020086664E+02  0.40659144181E+02  0.00000000000E+00 0.  1.
         11    1    3    3    0    0  0.78538951610E+01  0.61237301858E+01 -0.72404298920E+01  0.12312902415E+02  0.51100000000E-03 0. -1.
        -11    1    3    3    0    0  0.94305371551E+01 -0.12910141983E+02 -0.11593435041E+02  0.19748785618E+02  0.51100000000E-03 0.  1.
        -12    1    3    3    0    0  0.10896801506E+02  0.10887464804E+02 -0.10186221730E+02  0.18467167787E+02  0.00000000000E+00 0.  1.
</event>
<event>
 7    1  0.1527592E-012  0.5052886E+02  0.7816164E-02  0.1300439E+00
        -11   -1    0    0    0    0  0.00000000000E+00  0.00000000000E+00  0.45593999997E+02  0.45594000000E+02  0.51100000000E-03 0.  1.
         11   -1    0    0    0    0 -0.00000000000E+00 -0.00000000000E+00 -0.45593999997E+02  0.45594000000E+02  0.51100000000E-03 0. -1.
    9900012    2    1    2    0    0  0.22459650532E+02 -0.21129518325E+02 -0.26500442541E+02  0.50528857098E+02  0.29999991634E+02 0.  0.
        -12    1    1    2    0    0 -0.22459650532E+02  0.21129518325E+02  0.26500442541E+02  0.40659142902E+02  0.00000000000E+00 0.  1.
         11    1    3    3    0    0  0.17254683481E+02 -0.12442075751E+02 -0.18765019698E+02  0.28366447002E+02  0.51100000000E-03 0. -1.
        -11    1    3    3    0    0 -0.39739816050E+00 -0.64616838839E+00  0.55787808236E+01  0.56301203027E+01  0.51100000000E-03 0.  1.
        -12    1    3    3    0    0  0.56023652114E+01 -0.80412741863E+01 -0.13314203667E+02  0.16532289793E+02  0.00000000000E+00 0.  1.
</event>
<event>
 7    1  0.1024956E-012  0.5052888E+02  0.7816164E-02  0.1300439E+00
        -11   -1    0    0    0    0  0.00000000000E+00  0.00000000000E+00  0.45593999997E+02  0.45594000000E+02  0.51100000000E-03 0. -1.
         11   -1    0    0    0    0 -0.00000000000E+00 -0.00000000000E+00 -0.45593999997E+02  0.45594000000E+02  0.51100000000E-03 0.  1.
    9900012    2    1    2    0    0  0.19856549183E+02 -0.16889683468E+02  0.31202892089E+02  0.50528875220E+02  0.30000046720E+02 0.  0.
        -12    1    1    2    0    0 -0.19856549183E+02  0.16889683468E+02 -0.31202892089E+02  0.40659124780E+02  0.00000000000E+00 0.  1.
         11    1    3    3    0    0  0.22511242699E+02 -0.13730842555E+02  0.12686063009E+02  0.29261378643E+02  0.51100000000E-03 0. -1.
        -11    1    3    3    0    0 -0.46487850283E+01 -0.45080438048E+01  0.17489502822E+02  0.18649835667E+02  0.51100000000E-03 0.  1.
        -12    1    3    3    0    0  0.19940915121E+01  0.13492028916E+01  0.10273262580E+01  0.26176609104E+01  0.00000000000E+00 0.  1.
</event>
<event>
 7    1  0.1024956E-012  0.5052886E+02  0.7816164E-02  0.1300439E+00
        -11   -1    0    0    0    0  0.00000000000E+00  0.00000000000E+00  0.45593999997E+02  0.45594000000E+02  0.51100000000E-03 0. -1.
         11   -1    0    0    0    0 -0.00000000000E+00 -0.00000000000E+00 -0.45593999997E+02  0.45594000000E+02  0.51100000000E-03 0.  1.
    9900012    2    1    2    0    0 -0.30035481777E+02  0.21115783116E+02  0.17468815959E+02  0.50528855971E+02  0.29999988209E+02 0.  0.
        -12    1    1    2    0    0  0.30035481777E+02 -0.21115783116E+02 -0.17468815959E+02  0.40659144029E+02  0.00000000000E+00 0.  1.
         11    1    3    3    0    0 -0.27785219085E+02  0.12265441359E+02  0.19317361164E+01  0.30433387193E+02  0.51100000000E-03 0. -1.
        -11    1    3    3    0    0  0.21105310482E+01  0.17613818891E+01  0.34176676394E+00  0.27701285614E+01  0.51100000000E-03 0.  1.
         12    1    3    3    0    0 -0.43607937397E+01  0.70889598685E+01  0.15195313079E+02  0.17325340217E+02  0.00000000000E+00 0. -1.
</event>
<event>
 7    1  0.1024956E-012  0.5052886E+02  0.7816164E-02  0.1300439E+00
        -11   -1    0    0    0    0  0.00000000000E+00  0.00000000000E+00  0.45593999997E+02  0.45594000000E+02  0.51100000000E-03 0.  1.
         11   -1    0    0    0    0 -0.00000000000E+00 -0.00000000000E+00 -0.45593999997E+02  0.45594000000E+02  0.51100000000E-03 0. -1.
    9900012    2    1    2    0    0  0.39428746946E+01 -0.33606729968E+02 -0.22543449119E+02  0.50528860091E+02  0.30000000732E+02 0.  0.
        -12    1    1    2    0    0 -0.39428746946E+01  0.33606729968E+02  0.22543449119E+02  0.40659139909E+02  0.00000000000E+00 0.  1.
         11    1    3    3    0    0 -0.75322067559E+00 -0.85003907196E+01 -0.10613444721E+02  0.13618707460E+02  0.51100000000E-03 0. -1.
        -11    1    3    3    0    0  0.10898810154E+02 -0.10570916519E+02  0.26448667700E+01  0.15411802597E+02  0.51100000000E-03 0.  1.
        -12    1    3    3    0    0 -0.62027147834E+01 -0.14535422729E+02 -0.14574871168E+02  0.21498350034E+02  0.00000000000E+00 0.  1.
</event>
<event>
 7    1  0.1024956E-012  0.5052887E+02  0.7816164E-02  0.1300439E+00
        -11   -1    0    0    0    0  0.00000000000E+00  0.00000000000E+00  0.45593999997E+02  0.45594000000E+02  0.51100000000E-03 0.  1.
         11   -1    0    0    0    0 -0.00000000000E+00 -0.00000000000E+00 -0.45593999997E+02  0.45594000000E+02  0.51100000000E-03 0. -1.
    9900012    2    1    2    0    0 -0.11657189119E+02 -0.37394617320E+02  0.10904931447E+02  0.50528868277E+02  0.30000025614E+02 0.  0.
        -12    1    1    2    0    0  0.11657189119E+02  0.37394617320E+02 -0.10904931447E+02  0.40659131723E+02  0.00000000000E+00 0.  1.
         11    1    3    3    0    0 -0.10574120461E+02 -0.22180621695E+02  0.13896016406E+02  0.28229262734E+02  0.51100000000E-03 0. -1.
        -11    1    3    3    0    0 -0.13023551367E+00 -0.16857602988E+02 -0.66934119140E+01  0.18138288318E+02  0.51100000000E-03 0.  1.
         12    1    3    3    0    0 -0.95283314475E+00  0.16436073634E+01  0.37023269542E+01  0.41613172244E+01  0.00000000000E+00 0. -1.
</event>
<event>
 7    1  0.1024956E-012  0.5052886E+02  0.7816164E-02  0.1300439E+00
        -11   -1    0    0    0    0  0.00000000000E+00  0.00000000000E+00  0.45593999997E+02  0.45594000000E+02  0.51100000000E-03 0.  1.
         11   -1    0    0    0    0 -0.00000000000E+00 -0.00000000000E+00 -0.45593999997E+02  0.45594000000E+02  0.51100000000E-03 0. -1.
    9900012    2    1    2    0    0 -0.12610470902E+02 -0.29197376992E+02 -0.25330907365E+02  0.50528859976E+02  0.30000000382E+02 0.  0.
        -12    1    1    2    0    0  0.12610470902E+02  0.29197376992E+02  0.25330907365E+02  0.40659140024E+02  0.00000000000E+00 0.  1.
         11    1    3    3    0    0 -0.16490543964E+00  0.13369650645E+00 -0.10635879159E+02  0.10637997664E+02  0.51100000000E-03 0. -1.
        -11    1    3    3    0    0 -0.14080160168E+02 -0.30897911418E+02 -0.11253203919E+02  0.35771027928E+02  0.51100000000E-03 0.  1.
        -12    1    3    3    0    0  0.16345947066E+01  0.15668379192E+01 -0.34418242875E+01  0.41198343833E+01  0.00000000000E+00 0.  1.
</event>
<event>
 7    1  0.1024956E-012  0.5052885E+02  0.7816164E-02  0.1300439E+00
        -11   -1    0    0    0    0  0.00000000000E+00  0.00000000000E+00  0.45593999997E+02  0.45594000000E+02  0.51100000000E-03 0. -1.
         11   -1    0    0    0    0 -0.00000000000E+00 -0.00000000000E+00 -0.45593999997E+02  0.45594000000E+02  0.51100000000E-03 0.  1.
    9900012    2    1    2    0    0 -0.13805466528E+02  0.37962478949E+02 -0.46288405893E+01  0.50528845075E+02  0.29999955091E+02 0.  0.
        -12    1    1    2    0    0  0.13805466528E+02 -0.37962478949E+02  0.46288405893E+01  0.40659154925E+02  0.00000000000E+00 0.  1.
         11    1    3    3    0    0  0.60200707237E+01  0.65282984562E+01 -0.60477242121E+01  0.10744063508E+02  0.51100000000E-03 0. -1.
        -11    1    3    3    0    0 -0.14962026614E+02  0.12191746848E+02 -0.27756432900E+01  0.19498849390E+02  0.51100000000E-03 0.  1.
         12    1    3    3    0    0 -0.48635106373E+01  0.19242433645E+02  0.41945269128E+01  0.20285932178E+02  0.00000000000E+00 0. -1.
</event>
<event>
 7    1  0.1024956E-012  0.5052886E+02  0.7816164E-02  0.1300439E+00
        -11   -1    0    0    0    0  0.00000000000E+00  0.00000000000E+00  0.45593999997E+02  0.45594000000E+02  0.51100000000E-03 0.  1.
         11   -1    0    0    0    0 -0.00000000000E+00 -0.00000000000E+00 -0.45593999997E+02  0.45594000000E+02  0.51100000000E-03 0. -1.
    9900012    2    1    2    0    0 -0.60596732353E+01  0.30982336346E+01 -0.40085495008E+02  0.50528860788E+02  0.30000002852E+02 0.  0.
        -12    1    1    2    0    0  0.60596732353E+01 -0.30982336346E+01  0.40085495008E+02  0.40659139212E+02  0.00000000000E+00 0.  1.
         11    1    3    3    0    0 -0.18920580208E+01  0.50422834457E+01 -0.40980961385E+02  0.41333324355E+02  0.51100000000E-03 0. -1.
        -11    1    3    3    0    0 -0.32775099009E+01  0.28073870136E+01  0.52406379600E+00  0.43471986518E+01  0.51100000000E-03 0.  1.
         12    1    3    3    0    0 -0.89010531362E+00 -0.47514368247E+01  0.37140258086E+00  0.48483377817E+01  0.00000000000E+00 0. -1.
</event>
<event>
 7    1  0.1024956E-012  0.5052884E+02  0.7816164E-02  0.1300439E+00
        -11   -1    0    0    0    0  0.00000000000E+00  0.00000000000E+00  0.45593999997E+02  0.45594000000E+02  0.51100000000E-03 0.  1.
         11   -1    0    0    0    0 -0.00000000000E+00 -0.00000000000E+00 -0.45593999997E+02  0.45594000000E+02  0.51100000000E-03 0. -1.
    9900012    2    1    2    0    0  0.46410824615E+01 -0.29512271278E+02 -0.27579948550E+02  0.50528839108E+02  0.29999936953E+02 0.  0.
        -12    1    1    2    0    0 -0.46410824615E+01  0.29512271278E+02  0.27579948550E+02  0.40659160892E+02  0.00000000000E+00 0.  1.
         11    1    3    3    0    0 -0.68492042494E+01 -0.19168792438E+01 -0.13726712396E+02  0.15459904862E+02  0.51100000000E-03 0. -1.
        -11    1    3    3    0    0  0.12517524017E+02 -0.16752984724E+02 -0.11712992905E+02  0.23969670580E+02  0.51100000000E-03 0.  1.
        -12    1    3    3    0    0 -0.10272373059E+01 -0.10842407310E+02 -0.21402432495E+01  0.11099263666E+02  0.00000000000E+00 0.  1.
</event>
<event>
 7    1  0.1024956E-012  0.5052884E+02  0.7816164E-02  0.1300439E+00
        -11   -1    0    0    0    0  0.00000000000E+00  0.00000000000E+00  0.45593999997E+02  0.45594000000E+02  0.51100000000E-03 0.  1.
         11   -1    0    0    0    0 -0.00000000000E+00 -0.00000000000E+00 -0.45593999997E+02  0.45594000000E+02  0.51100000000E-03 0. -1.
    9900012    2    1    2    0    0  0.85222574861E+01  0.12212350386E+02 -0.37833804536E+02  0.50528841865E+02  0.29999945332E+02 0.  0.
        -12    1    1    2    0    0 -0.85222574861E+01 -0.12212350386E+02  0.37833804536E+02  0.40659158135E+02  0.00000000000E+00 0.  1.
         11    1    3    3    0    0  0.59308959158E+01 -0.58342214400E+01 -0.24429366672E+01  0.86707327255E+01  0.51100000000E-03 0. -1.
        -11    1    3    3    0    0 -0.42731516504E+01  0.16601750560E+01 -0.70998133295E+01  0.84512339820E+01  0.51100000000E-03 0.  1.
         12    1    3    3    0    0  0.68645132206E+01  0.16386396770E+02 -0.28291054539E+02  0.33406875157E+02  0.00000000000E+00 0. -1.
</event>
<event>
 7    1  0.1024956E-012  0.5052886E+02  0.7816164E-02  0.1300439E+00
        -11   -1    0    0    0    0  0.00000000000E+00  0.00000000000E+00  0.45593999997E+02  0.45594000000E+02  0.51100000000E-03 0. -1.
         11   -1    0    0    0    0 -0.00000000000E+00 -0.00000000000E+00 -0.45593999997E+02  0.45594000000E+02  0.51100000000E-03 0.  1.
    9900012    2    1    2    0    0 -0.13702776876E+02  0.28823403947E+02  0.25191480445E+02  0.50528863312E+02  0.30000010524E+02 0.  0.
        -12    1    1    2    0    0  0.13702776876E+02 -0.28823403947E+02 -0.25191480445E+02  0.40659136688E+02  0.00000000000E+00 0.  1.
         11    1    3    3    0    0 -0.27315927227E+01  0.21243415147E+02  0.24480692062E+02  0.32527658539E+02  0.51100000000E-03 0. -1.
        -11    1    3    3    0    0 -0.11365678315E+02  0.69718460182E+01  0.45542807092E+01  0.14089952218E+02  0.51100000000E-03 0.  1.
         12    1    3    3    0    0  0.39449416191E+00  0.60814278143E+00 -0.38434923265E+01  0.39112525552E+01  0.00000000000E+00 0. -1.
</event>
<event>
 7    1  0.1024956E-012  0.5052887E+02  0.7816164E-02  0.1300439E+00
        -11   -1    0    0    0    0  0.00000000000E+00  0.00000000000E+00  0.45593999997E+02  0.45594000000E+02  0.51100000000E-03 0.  1.
         11   -1    0    0    0    0 -0.00000000000E+00 -0.00000000000E+00 -0.45593999997E+02  0.45594000000E+02  0.51100000000E-03 0. -1.
    9900012    2    1    2    0    0  0.17433003704E+02 -0.99427700021E+01 -0.35360952409E+02  0.50528865126E+02  0.30000016036E+02 0.  0.
        -12    1    1    2    0    0 -0.17433003704E+02  0.99427700021E+01  0.35360952409E+02  0.40659134874E+02  0.00000000000E+00 0.  1.
         11    1    3    3    0    0 -0.11345970233E+01 -0.58763013052E+01 -0.10983070405E+02  0.12507840070E+02  0.51100000000E-03 0. -1.
        -11    1    3    3    0    0  0.16939446506E+02  0.67470457665E+01 -0.15674635657E+02  0.24044992779E+02  0.51100000000E-03 0.  1.
        -12    1    3    3    0    0  0.16281542208E+01 -0.10813514463E+02 -0.87032463468E+01  0.13976032276E+02  0.00000000000E+00 0.  1.
</event>
<event>
 7    1  0.1024956E-012  0.5052885E+02  0.7816164E-02  0.1300439E+00
        -11   -1    0    0    0    0  0.00000000000E+00  0.00000000000E+00  0.45593999997E+02  0.45594000000E+02  0.51100000000E-03 0. -1.
         11   -1    0    0    0    0 -0.00000000000E+00 -0.00000000000E+00 -0.45593999997E+02  0.45594000000E+02  0.51100000000E-03 0.  1.
    9900012    2    1    2    0    0 -0.74262178661E+01  0.39966487252E+02 -0.83528468764E+00  0.50528849547E+02  0.29999968683E+02 0.  0.
        -12    1    1    2    0    0  0.74262178661E+01 -0.39966487252E+02  0.83528468764E+00  0.40659150453E+02  0.00000000000E+00 0.  1.
         11    1    3    3    0    0 -0.31198545026E+01  0.26287906677E+02 -0.10549596233E+02  0.28497043891E+02  0.51100000000E-03 0. -1.
        -11    1    3    3    0    0  0.12376997476E+01 -0.18523560034E+01  0.40008462397E+01  0.45792897182E+01  0.51100000000E-03 0.  1.
         12    1    3    3    0    0 -0.55440631111E+01  0.15530936578E+02  0.57134653053E+01  0.17452515938E+02  0.00000000000E+00 0. -1.
</event>
<event>
 7    1  0.1024956E-012  0.5052886E+02  0.7816164E-02  0.1300439E+00
        -11   -1    0    0    0    0  0.00000000000E+00  0.00000000000E+00  0.45593999997E+02  0.45594000000E+02  0.51100000000E-03 0.  1.
         11   -1    0    0    0    0 -0.00000000000E+00 -0.00000000000E+00 -0.45593999997E+02  0.45594000000E+02  0.51100000000E-03 0. -1.
    9900012    2    1    2    0    0  0.32571972583E+02 -0.11633452430E+02  0.21375100092E+02  0.50528861822E+02  0.30000005995E+02 0.  0.
        -12    1    1    2    0    0 -0.32571972583E+02  0.11633452430E+02 -0.21375100092E+02  0.40659138178E+02  0.00000000000E+00 0.  1.
         11    1    3    3    0    0  0.10228392532E+02 -0.14815866062E+02  0.12709745526E+02  0.22037865880E+02  0.51100000000E-03 0. -1.
        -11    1    3    3    0    0  0.13650673355E+02  0.58418033414E+01  0.11703584033E+02  0.18906121464E+02  0.51100000000E-03 0.  1.
         12    1    3    3    0    0  0.86929066961E+01 -0.26593897094E+01 -0.30382294674E+01  0.95848744775E+01  0.00000000000E+00 0. -1.
</event>
<event>
 7    1  0.1024956E-012  0.5052886E+02  0.7816164E-02  0.1300439E+00
        -11   -1    0    0    0    0  0.00000000000E+00  0.00000000000E+00  0.45593999997E+02  0.45594000000E+02  0.51100000000E-03 0.  1.
         11   -1    0    0    0    0 -0.00000000000E+00 -0.00000000000E+00 -0.45593999997E+02  0.45594000000E+02  0.51100000000E-03 0. -1.
    9900012    2    1    2    0    0  0.25584395695E+02 -0.17740854370E+02 -0.26150842939E+02  0.50528858307E+02  0.29999995309E+02 0.  0.
        -12    1    1    2    0    0 -0.25584395695E+02  0.17740854370E+02  0.26150842939E+02  0.40659141693E+02  0.00000000000E+00 0.  1.
         11    1    3    3    0    0  0.27416696327E+02 -0.10363224738E+02 -0.10504739070E+02  0.31135529667E+02  0.51100000000E-03 0. -1.
        -11    1    3    3    0    0  0.40881836560E+00  0.16350007055E+01 -0.49445252341E+01  0.52238577522E+01  0.51100000000E-03 0.  1.
         12    1    3    3    0    0 -0.22411189979E+01 -0.90126303373E+01 -0.10701578635E+02  0.14169470888E+02  0.00000000000E+00 0. -1.
</event>
<event>
 7    1  0.1024956E-012  0.5052887E+02  0.7816164E-02  0.1300439E+00
        -11   -1    0    0    0    0  0.00000000000E+00  0.00000000000E+00  0.45593999997E+02  0.45594000000E+02  0.51100000000E-03 0. -1.
         11   -1    0    0    0    0 -0.00000000000E+00 -0.00000000000E+00 -0.45593999997E+02  0.45594000000E+02  0.51100000000E-03 0.  1.
    9900012    2    1    2    0    0  0.29967561813E+02 -0.26291986689E+01  0.27353196777E+02  0.50528870391E+02  0.30000032039E+02 0.  0.
        -12    1    1    2    0    0 -0.29967561813E+02  0.26291986689E+01 -0.27353196777E+02  0.40659129609E+02  0.00000000000E+00 0.  1.
         11    1    3    3    0    0  0.62401800114E+01  0.89231811168E+01  0.61831615385E+01  0.12521760846E+02  0.51100000000E-03 0. -1.
        -11    1    3    3    0    0  0.71528435661E+01 -0.51711316878E+01  0.17886404378E+02  0.19945606931E+02  0.51100000000E-03 0.  1.
        -12    1    3    3    0    0  0.16574538236E+02 -0.63812480980E+01  0.32836308602E+01  0.18061502613E+02  0.00000000000E+00 0.  1.
</event>
<event>
 7    1  0.1024956E-012  0.5052884E+02  0.7816164E-02  0.1300439E+00
        -11   -1    0    0    0    0  0.00000000000E+00  0.00000000000E+00  0.45593999997E+02  0.45594000000E+02  0.51100000000E-03 0.  1.
         11   -1    0    0    0    0 -0.00000000000E+00 -0.00000000000E+00 -0.45593999997E+02  0.45594000000E+02  0.51100000000E-03 0. -1.
    9900012    2    1    2    0    0  0.11445576344E+02 -0.17345712789E+02 -0.34946990277E+02  0.50528842367E+02  0.29999946857E+02 0.  0.
        -12    1    1    2    0    0 -0.11445576344E+02  0.17345712789E+02  0.34946990277E+02  0.40659157633E+02  0.00000000000E+00 0.  1.
         11    1    3    3    0    0  0.60325434520E+01 -0.11989246171E+02 -0.31928437326E+02  0.34634646160E+02  0.51100000000E-03 0. -1.
        -11    1    3    3    0    0  0.72793226866E+01  0.21893530690E+01 -0.13267998267E+00  0.76025923128E+01  0.51100000000E-03 0.  1.
        -12    1    3    3    0    0 -0.18662897943E+01 -0.75458196871E+01 -0.28858729684E+01  0.82916038941E+01  0.00000000000E+00 0.  1.
</event>
<event>
 7    1  0.1024956E-012  0.5052887E+02  0.7816164E-02  0.1300439E+00
        -11   -1    0    0    0    0  0.00000000000E+00  0.00000000000E+00  0.45593999997E+02  0.45594000000E+02  0.51100000000E-03 0.  1.
         11   -1    0    0    0    0 -0.00000000000E+00 -0.00000000000E+00 -0.45593999997E+02  0.45594000000E+02  0.51100000000E-03 0. -1.
    9900012    2    1    2    0    0 -0.37731028796E+01  0.40444402542E+02 -0.17829294796E+01  0.50528870154E+02  0.30000031319E+02 0.  0.
        -12    1    1    2    0    0  0.37731028796E+01 -0.40444402542E+02  0.17829294796E+01  0.40659129846E+02  0.00000000000E+00 0.  1.
         11    1    3    3    0    0 -0.82441727718E+01  0.21912868411E+02 -0.87871098515E+01  0.25007068731E+02  0.51100000000E-03 0. -1.
        -11    1    3    3    0    0  0.98645522868E+01  0.11711933397E+02  0.69766340911E+01  0.16827126885E+02  0.51100000000E-03 0.  1.
        -12    1    3    3    0    0 -0.53934823946E+01  0.68196007344E+01  0.27546280827E-01  0.86946745376E+01  0.00000000000E+00 0.  1.
</event>
<event>
 7    1  0.1024956E-012  0.5052886E+02  0.7816164E-02  0.1300439E+00
        -11   -1    0    0    0    0  0.00000000000E+00  0.00000000000E+00  0.45593999997E+02  0.45594000000E+02  0.51100000000E-03 0.  1.
         11   -1    0    0    0    0 -0.00000000000E+00 -0.00000000000E+00 -0.45593999997E+02  0.45594000000E+02  0.51100000000E-03 0. -1.
    9900012    2    1    2    0    0  0.32932882001E+02 -0.23836998927E+02  0.62354508007E+00  0.50528855355E+02  0.29999986338E+02 0.  0.
        -12    1    1    2    0    0 -0.32932882001E+02  0.23836998927E+02 -0.62354508007E+00  0.40659144645E+02  0.00000000000E+00 0.  1.
         11    1    3    3    0    0  0.82362742514E+01 -0.36874176036E+01 -0.37318710560E+01  0.97652508400E+01  0.51100000000E-03 0. -1.
        -11    1    3    3    0    0  0.26745558554E+02 -0.20957103675E+02  0.94039353403E+01  0.35255625040E+02  0.51100000000E-03 0.  1.
        -12    1    3    3    0    0 -0.20489508044E+01  0.80752235133E+00 -0.50485192042E+01  0.55079794754E+01  0.00000000000E+00 0.  1.
</event>
<event>
 7    1  0.1024956E-012  0.5052883E+02  0.7816164E-02  0.1300439E+00
        -11   -1    0    0    0    0  0.00000000000E+00  0.00000000000E+00  0.45593999997E+02  0.45594000000E+02  0.51100000000E-03 0. -1.
         11   -1    0    0    0    0 -0.00000000000E+00 -0.00000000000E+00 -0.45593999997E+02  0.45594000000E+02  0.51100000000E-03 0.  1.
    9900012    2    1    2    0    0 -0.33373630135E+02  0.21255061786E+02  0.93590177783E+01  0.50528830632E+02  0.29999911188E+02 0.  0.
        -12    1    1    2    0    0  0.33373630135E+02 -0.21255061786E+02 -0.93590177783E+01  0.40659169368E+02  0.00000000000E+00 0.  1.
         11    1    3    3    0    0 -0.29880460566E+01 -0.14888040512E+00  0.11122721131E+01  0.31918230098E+01  0.51100000000E-03 0. -1.
        -11    1    3    3    0    0 -0.40329565141E+01  0.19297439854E+02  0.68242538960E+01  0.20862079586E+02  0.51100000000E-03 0.  1.
        -12    1    3    3    0    0 -0.26352627565E+02  0.21065023371E+01  0.14224917691E+01  0.26474928036E+02  0.00000000000E+00 0.  1.
</event>
<event>
 7    1  0.1024956E-012  0.5052884E+02  0.7816164E-02  0.1300439E+00
        -11   -1    0    0    0    0  0.00000000000E+00  0.00000000000E+00  0.45593999997E+02  0.45594000000E+02  0.51100000000E-03 0. -1.
         11   -1    0    0    0    0 -0.00000000000E+00 -0.00000000000E+00 -0.45593999997E+02  0.45594000000E+02  0.51100000000E-03 0.  1.
    9900012    2    1    2    0    0 -0.13989520693E+02 -0.31441282727E+02 -0.21654249654E+02  0.50528837727E+02  0.29999932755E+02 0.  0.
        -12    1    1    2    0    0  0.13989520693E+02  0.31441282727E+02  0.21654249654E+02  0.40659162273E+02  0.00000000000E+00 0.  1.
         11    1    3    3    0    0  0.22641091506E+01 -0.11821879901E+02 -0.43944589816E+01  0.12813832551E+02  0.51100000000E-03 0. -1.
        -11    1    3    3    0    0 -0.20125089895E+02 -0.18168130091E+02 -0.19124914919E+02  0.33179249016E+02  0.51100000000E-03 0.  1.
        -12    1    3    3    0    0  0.38714600524E+01 -0.14512727336E+01  0.18651242472E+01  0.45357561599E+01  0.00000000000E+00 0.  1.
</event>
<event>
 7    1  0.1024956E-012  0.5052885E+02  0.7816164E-02  0.1300439E+00
        -11   -1    0    0    0    0  0.00000000000E+00  0.00000000000E+00  0.45593999997E+02  0.45594000000E+02  0.51100000000E-03 0.  1.
         11   -1    0    0    0    0 -0.00000000000E+00 -0.00000000000E+00 -0.45593999997E+02  0.45594000000E+02  0.51100000000E-03 0. -1.
    9900012    2    1    2    0    0 -0.21688955738E+02 -0.48215686461E+01 -0.34051556928E+02  0.50528845380E+02  0.29999956016E+02 0.  0.
        -12    1    1    2    0    0  0.21688955738E+02  0.48215686461E+01  0.34051556928E+02  0.40659154620E+02  0.00000000000E+00 0.  1.
         11    1    3    3    0    0 -0.37697850833E+01  0.55363279434E+01 -0.26272389457E+02  0.27112739712E+02  0.51100000000E-03 0. -1.
        -11    1    3    3    0    0 -0.99348872158E+01 -0.32422310125E+01 -0.46804201909E+00  0.10461028129E+02  0.51100000000E-03 0.  1.
         12    1    3    3    0    0 -0.79842834390E+01 -0.71156655770E+01 -0.73111254524E+01  0.12955077538E+02  0.00000000000E+00 0. -1.
</event>
<event>
 7    1  0.1024956E-012  0.5052889E+02  0.7816164E-02  0.1300439E+00
        -11   -1    0    0    0    0  0.00000000000E+00  0.00000000000E+00  0.45593999997E+02  0.45594000000E+02  0.51100000000E-03 0.  1.
         11   -1    0    0    0    0 -0.00000000000E+00 -0.00000000000E+00 -0.45593999997E+02  0.45594000000E+02  0.51100000000E-03 0. -1.
    9900012    2    1    2    0    0 -0.23913764729E+02  0.28217813208E+02 -0.16883437289E+02  0.50528885641E+02  0.30000078396E+02 0.  0.
        -12    1    1    2    0    0  0.23913764729E+02 -0.28217813208E+02  0.16883437289E+02  0.40659114359E+02  0.00000000000E+00 0.  1.
         11    1    3    3    0    0 -0.11564350802E+02  0.32303596022E+01 -0.45316373789E+01  0.12833751214E+02  0.51100000000E-03 0. -1.
        -11    1    3    3    0    0  0.51231023925E+01  0.47196168228E+00  0.26484345465E-01  0.51448641998E+01  0.51100000000E-03 0.  1.
        -12    1    3    3    0    0 -0.17472516320E+02  0.24515491924E+02 -0.12378284255E+02  0.32550270228E+02  0.00000000000E+00 0.  1.
</event>
<event>
 7    1  0.1024956E-012  0.5052886E+02  0.7816164E-02  0.1300439E+00
        -11   -1    0    0    0    0  0.00000000000E+00  0.00000000000E+00  0.45593999997E+02  0.45594000000E+02  0.51100000000E-03 0. -1.
         11   -1    0    0    0    0 -0.00000000000E+00 -0.00000000000E+00 -0.45593999997E+02  0.45594000000E+02  0.51100000000E-03 0.  1.
    9900012    2    1    2    0    0  0.40121290899E+02 -0.65788490977E+01  0.40747041595E+00  0.50528864852E+02  0.30000015203E+02 0.  0.
        -12    1    1    2    0    0 -0.40121290899E+02  0.65788490977E+01 -0.40747041595E+00  0.40659135148E+02  0.00000000000E+00 0.  1.
         11    1    3    3    0    0  0.18636507200E+02  0.62736947219E+01  0.29671882519E+01  0.19886750676E+02  0.51100000000E-03 0. -1.
        -11    1    3    3    0    0  0.57122143288E+01 -0.84582366671E+01 -0.84409184953E+01  0.13244631568E+02  0.51100000000E-03 0.  1.
        -12    1    3    3    0    0  0.15772569370E+02 -0.43943071525E+01  0.58812006593E+01  0.17397482608E+02  0.00000000000E+00 0.  1.
</event>
<event>
 7    1  0.1024956E-012  0.5052886E+02  0.7816164E-02  0.1300439E+00
        -11   -1    0    0    0    0  0.00000000000E+00  0.00000000000E+00  0.45593999997E+02  0.45594000000E+02  0.51100000000E-03 0. -1.
         11   -1    0    0    0    0 -0.00000000000E+00 -0.00000000000E+00 -0.45593999997E+02  0.45594000000E+02  0.51100000000E-03 0.  1.
    9900012    2    1    2    0    0 -0.16788665917E+02  0.35648029099E+02 -0.10026182754E+02  0.50528860529E+02  0.30000002064E+02 0.  0.
        -12    1    1    2    0    0  0.16788665917E+02 -0.35648029099E+02  0.10026182754E+02  0.40659139471E+02  0.00000000000E+00 0.  1.
         11    1    3    3    0    0 -0.20808511632E+02  0.20390801665E+02 -0.62727058361E+01  0.29801439356E+02  0.51100000000E-03 0. -1.
        -11    1    3    3    0    0  0.81706848613E+01  0.11554781794E+02 -0.25029343543E+00  0.14154000158E+02  0.51100000000E-03 0.  1.
        -12    1    3    3    0    0 -0.41508391467E+01  0.37024456390E+01 -0.35031834824E+01  0.65734210152E+01  0.00000000000E+00 0.  1.
</event>
<event>
 7    1  0.1024956E-012  0.5052887E+02  0.7816164E-02  0.1300439E+00
        -11   -1    0    0    0    0  0.00000000000E+00  0.00000000000E+00  0.45593999997E+02  0.45594000000E+02  0.51100000000E-03 0.  1.
         11   -1    0    0    0    0 -0.00000000000E+00 -0.00000000000E+00 -0.45593999997E+02  0.45594000000E+02  0.51100000000E-03 0. -1.
    9900012    2    1    2    0    0  0.15812203181E+02  0.22008491226E+02 -0.30311138171E+02  0.50528873685E+02  0.30000042053E+02 0.  0.
        -12    1    1    2    0    0 -0.15812203181E+02 -0.22008491226E+02  0.30311138171E+02  0.40659126315E+02  0.00000000000E+00 0.  1.
         11    1    3    3    0    0 -0.88290533252E+00  0.13851819190E+01 -0.51337070219E-01  0.16434374131E+01  0.51100000000E-03 0. -1.
        -11    1    3    3    0    0 -0.76443014155E+01  0.58947890535E+01 -0.51542239163E+01  0.10943030045E+02  0.51100000000E-03 0.  1.
        -12    1    3    3    0    0  0.24339409929E+02  0.14728520253E+02 -0.25105577185E+02  0.37942406227E+02  0.00000000000E+00 0.  1.
</event>
<event>
 7    1  0.1024956E-012  0.5052883E+02  0.7816164E-02  0.1300439E+00
        -11   -1    0    0    0    0  0.00000000000E+00  0.00000000000E+00  0.45593999997E+02  0.45594000000E+02  0.51100000000E-03 0.  1.
         11   -1    0    0    0    0 -0.00000000000E+00 -0.00000000000E+00 -0.45593999997E+02  0.45594000000E+02  0.51100000000E-03 0. -1.
    9900012    2    1    2    0    0  0.18442740584E+02  0.20763967509E+02 -0.29696645720E+02  0.50528833825E+02  0.29999920895E+02 0.  0.
        -12    1    1    2    0    0 -0.18442740584E+02 -0.20763967509E+02  0.29696645720E+02  0.40659166175E+02  0.00000000000E+00 0.  1.
         11    1    3    3    0    0  0.16048131147E+02  0.74725644328E+01 -0.19431279743E+02  0.26286048870E+02  0.51100000000E-03 0. -1.
        -11    1    3    3    0    0 -0.69848191411E+01  0.22980598602E+01 -0.48598435186E+01  0.88140147970E+01  0.51100000000E-03 0.  1.
        -12    1    3    3    0    0  0.93794285784E+01  0.10993343216E+02 -0.54055224589E+01  0.15428770158E+02  0.00000000000E+00 0.  1.
</event>
<event>
 7    1  0.1398618E-012  0.5052886E+02  0.7816164E-02  0.1300439E+00
        -11   -1    0    0    0    0  0.00000000000E+00  0.00000000000E+00  0.45593999997E+02  0.45594000000E+02  0.51100000000E-03 0. -1.
         11   -1    0    0    0    0 -0.00000000000E+00 -0.00000000000E+00 -0.45593999997E+02  0.45594000000E+02  0.51100000000E-03 0.  1.
    9900012    2    1    2    0    0  0.38373960558E+02  0.13093636650E+02 -0.30267649520E+01  0.50528862334E+02  0.30000007551E+02 0.  0.
        -12    1    1    2    0    0 -0.38373960558E+02 -0.13093636650E+02  0.30267649520E+01  0.40659137666E+02  0.00000000000E+00 0.  1.
         11    1    3    3    0    0  0.30143365662E+02  0.89231643875E+01 -0.78479865889E+01  0.32401176674E+02  0.51100000000E-03 0. -1.
        -11    1    3    3    0    0  0.87619120255E+00  0.86697290929E+01  0.35657922644E+01  0.94152423390E+01  0.51100000000E-03 0.  1.
        -12    1    3    3    0    0  0.73544036940E+01 -0.44992568303E+01  0.12554293726E+01  0.87124433214E+01  0.00000000000E+00 0.  1.
</event>
<event>
 7    1  0.1024956E-012  0.5052886E+02  0.7816164E-02  0.1300439E+00
        -11   -1    0    0    0    0  0.00000000000E+00  0.00000000000E+00  0.45593999997E+02  0.45594000000E+02  0.51100000000E-03 0. -1.
         11   -1    0    0    0    0 -0.00000000000E+00 -0.00000000000E+00 -0.45593999997E+02  0.45594000000E+02  0.51100000000E-03 0.  1.
    9900012    2    1    2    0    0 -0.14713479015E+02  0.20080716935E+02  0.32147223965E+02  0.50528859995E+02  0.30000000440E+02 0.  0.
        -12    1    1    2    0    0  0.14713479015E+02 -0.20080716935E+02 -0.32147223965E+02  0.40659140005E+02  0.00000000000E+00 0.  1.
         11    1    3    3    0    0  0.16438378035E+01 -0.17735018046E+01  0.12410136266E+02  0.12643535652E+02  0.51100000000E-03 0. -1.
        -11    1    3    3    0    0 -0.10715047930E+02  0.10492594995E+02  0.70554688618E+00  0.15013480560E+02  0.51100000000E-03 0.  1.
        -12    1    3    3    0    0 -0.56422688883E+01  0.11361623745E+02  0.19031540813E+02  0.22871843783E+02  0.00000000000E+00 0.  1.
</event>
<event>
 7    1  0.1024956E-012  0.5052886E+02  0.7816164E-02  0.1300439E+00
        -11   -1    0    0    0    0  0.00000000000E+00  0.00000000000E+00  0.45593999997E+02  0.45594000000E+02  0.51100000000E-03 0.  1.
         11   -1    0    0    0    0 -0.00000000000E+00 -0.00000000000E+00 -0.45593999997E+02  0.45594000000E+02  0.51100000000E-03 0. -1.
    9900012    2    1    2    0    0 -0.38818248419E+02  0.36507429918E+01  0.11531744197E+02  0.50528862541E+02  0.30000008179E+02 0.  0.
        -12    1    1    2    0    0  0.38818248419E+02 -0.36507429918E+01 -0.11531744197E+02  0.40659137459E+02  0.00000000000E+00 0.  1.
         11    1    3    3    0    0 -0.38818066756E+01  0.77755861287E+01  0.23939478049E+01  0.90143856732E+01  0.51100000000E-03 0. -1.
        -11    1    3    3    0    0 -0.34043165036E+02 -0.87958105049E+01  0.10261543873E+02  0.36627894439E+02  0.51100000000E-03 0.  1.
        -12    1    3    3    0    0 -0.89327670744E+00  0.46709673680E+01 -0.11237474810E+01  0.48865824285E+01  0.00000000000E+00 0.  1.
</event>
<event>
 7    1  0.1072276E-012  0.5052886E+02  0.7816164E-02  0.1300439E+00
        -11   -1    0    0    0    0  0.00000000000E+00  0.00000000000E+00  0.45593999997E+02  0.45594000000E+02  0.51100000000E-03 0. -1.
         11   -1    0    0    0    0 -0.00000000000E+00 -0.00000000000E+00 -0.45593999997E+02  0.45594000000E+02  0.51100000000E-03 0.  1.
    9900012    2    1    2    0    0  0.19871121023E+02 -0.24052067944E+02  0.26073012995E+02  0.50528862900E+02  0.30000009270E+02 0.  0.
        -12    1    1    2    0    0 -0.19871121023E+02  0.24052067944E+02 -0.26073012995E+02  0.40659137100E+02  0.00000000000E+00 0.  1.
         11    1    3    3    0    0  0.19319182141E+02 -0.99514969800E+01  0.17363378776E+02  0.27816362335E+02  0.51100000000E-03 0. -1.
        -11    1    3    3    0    0  0.18351009447E+01 -0.14818169022E+02  0.11106657922E+01  0.14972618589E+02  0.51100000000E-03 0.  1.
        -12    1    3    3    0    0 -0.12831620631E+01  0.71759805761E+00  0.75989684270E+01  0.77398819763E+01  0.00000000000E+00 0.  1.
</event>
<event>
 7    1  0.1024956E-012  0.5052886E+02  0.7816164E-02  0.1300439E+00
        -11   -1    0    0    0    0  0.00000000000E+00  0.00000000000E+00  0.45593999997E+02  0.45594000000E+02  0.51100000000E-03 0. -1.
         11   -1    0    0    0    0 -0.00000000000E+00 -0.00000000000E+00 -0.45593999997E+02  0.45594000000E+02  0.51100000000E-03 0.  1.
    9900012    2    1    2    0    0 -0.26838889124E+02  0.10800027549E+01 -0.30523326995E+02  0.50528857533E+02  0.29999992957E+02 0.  0.
        -12    1    1    2    0    0  0.26838889124E+02 -0.10800027549E+01  0.30523326995E+02  0.40659142467E+02  0.00000000000E+00 0.  1.
         11    1    3    3    0    0 -0.30582135081E+02  0.15679630687E+01 -0.26355167273E+02  0.40401984314E+02  0.51100000000E-03 0. -1.
        -11    1    3    3    0    0  0.62694714880E+01 -0.63765212908E+00 -0.15584578313E+01  0.64916611163E+01  0.51100000000E-03 0.  1.
        -12    1    3    3    0    0 -0.25262255304E+01  0.14969181530E+00 -0.26097018905E+01  0.36352121021E+01  0.00000000000E+00 0.  1.
</event>
<event>
 7    1  0.1024956E-012  0.5052886E+02  0.7816164E-02  0.1300439E+00
        -11   -1    0    0    0    0  0.00000000000E+00  0.00000000000E+00  0.45593999997E+02  0.45594000000E+02  0.51100000000E-03 0.  1.
         11   -1    0    0    0    0 -0.00000000000E+00 -0.00000000000E+00 -0.45593999997E+02  0.45594000000E+02  0.51100000000E-03 0. -1.
    9900012    2    1    2    0    0 -0.24212402763E+02 -0.12054745362E+02 -0.30358000799E+02  0.50528861472E+02  0.30000004930E+02 0.  0.
        -12    1    1    2    0    0  0.24212402763E+02  0.12054745362E+02  0.30358000799E+02  0.40659138528E+02  0.00000000000E+00 0.  1.
         11    1    3    3    0    0 -0.83492419495E+01  0.37752349456E+01 -0.11063098631E+02  0.14365040606E+02  0.51100000000E-03 0. -1.
        -11    1    3    3    0    0 -0.13380387556E+02 -0.20602710910E+02 -0.18438512847E+02  0.30716204588E+02  0.51100000000E-03 0.  1.
        -12    1    3    3    0    0 -0.24827732574E+01  0.47727306021E+01 -0.85638932134E+00  0.54476162785E+01  0.00000000000E+00 0.  1.
</event>
<event>
 7    1  0.1024956E-012  0.5052886E+02  0.7816164E-02  0.1300439E+00
        -11   -1    0    0    0    0  0.00000000000E+00  0.00000000000E+00  0.45593999997E+02  0.45594000000E+02  0.51100000000E-03 0. -1.
         11   -1    0    0    0    0 -0.00000000000E+00 -0.00000000000E+00 -0.45593999997E+02  0.45594000000E+02  0.51100000000E-03 0.  1.
    9900012    2    1    2    0    0 -0.21325974064E+02 -0.51366663454E+01  0.34234242232E+02  0.50528857706E+02  0.29999993482E+02 0.  0.
        -12    1    1    2    0    0  0.21325974064E+02  0.51366663454E+01 -0.34234242232E+02  0.40659142294E+02  0.00000000000E+00 0.  1.
         11    1    3    3    0    0 -0.20151258612E+02 -0.18516835249E+01  0.34458280572E+02  0.39960919106E+02  0.51100000000E-03 0. -1.
        -11    1    3    3    0    0  0.18445323344E+01 -0.46106191662E+01 -0.33772510619E+01  0.60054919553E+01  0.51100000000E-03 0.  1.
        -12    1    3    3    0    0 -0.30192477870E+01  0.13256363457E+01  0.31532127213E+01  0.45624466447E+01  0.00000000000E+00 0.  1.
</event>
<event>
 7    1  0.1024956E-012  0.5052883E+02  0.7816164E-02  0.1300439E+00
        -11   -1    0    0    0    0  0.00000000000E+00  0.00000000000E+00  0.45593999997E+02  0.45594000000E+02  0.51100000000E-03 0. -1.
         11   -1    0    0    0    0 -0.00000000000E+00 -0.00000000000E+00 -0.45593999997E+02  0.45594000000E+02  0.51100000000E-03 0.  1.
    9900012    2    1    2    0    0  0.37380678117E+02 -0.15493050613E+02 -0.39772692811E+01  0.50528826561E+02  0.29999898816E+02 0.  0.
        -12    1    1    2    0    0 -0.37380678117E+02  0.15493050613E+02  0.39772692811E+01  0.40659173439E+02  0.00000000000E+00 0.  1.
         11    1    3    3    0    0  0.53739695364E+01 -0.55923656637E+01  0.36345877257E+01  0.85652980387E+01  0.51100000000E-03 0. -1.
        -11    1    3    3    0    0  0.96236917194E+01  0.78050529538E+01 -0.47920089596E+01  0.13285241588E+02  0.51100000000E-03 0.  1.
         12    1    3    3    0    0  0.22383016861E+02 -0.17705737903E+02 -0.28198480473E+01  0.28678286935E+02  0.00000000000E+00 0. -1.
</event>
<event>
 7    1  0.1024956E-012  0.5052885E+02  0.7816164E-02  0.1300439E+00
        -11   -1    0    0    0    0  0.00000000000E+00  0.00000000000E+00  0.45593999997E+02  0.45594000000E+02  0.51100000000E-03 0. -1.
         11   -1    0    0    0    0 -0.00000000000E+00 -0.00000000000E+00 -0.45593999997E+02  0.45594000000E+02  0.51100000000E-03 0.  1.
    9900012    2    1    2    0    0 -0.32350135824E+02  0.80951995170E+01  0.23261615052E+02  0.50528852470E+02  0.29999977567E+02 0.  0.
        -12    1    1    2    0    0  0.32350135824E+02 -0.80951995170E+01 -0.23261615052E+02  0.40659147530E+02  0.00000000000E+00 0.  1.
         11    1    3    3    0    0 -0.17718372918E+02  0.16071846079E+02  0.23491502299E+02  0.33527535785E+02  0.51100000000E-03 0. -1.
        -11    1    3    3    0    0 -0.56316048184E+01 -0.26215768901E+01  0.14903429120E+01  0.63881734853E+01  0.51100000000E-03 0.  1.
         12    1    3    3    0    0 -0.90001580872E+01 -0.53550696717E+01 -0.17202301589E+01  0.10613143200E+02  0.00000000000E+00 0. -1.
</event>
<event>
 7    1  0.1024956E-012  0.5052888E+02  0.7816164E-02  0.1300439E+00
        -11   -1    0    0    0    0  0.00000000000E+00  0.00000000000E+00  0.45593999997E+02  0.45594000000E+02  0.51100000000E-03 0. -1.
         11   -1    0    0    0    0 -0.00000000000E+00 -0.00000000000E+00 -0.45593999997E+02  0.45594000000E+02  0.51100000000E-03 0.  1.
    9900012    2    1    2    0    0  0.31507013947E+02 -0.13175473009E+02  0.22065341335E+02  0.50528876729E+02  0.30000051307E+02 0.  0.
        -12    1    1    2    0    0 -0.31507013947E+02  0.13175473009E+02 -0.22065341335E+02  0.40659123271E+02  0.00000000000E+00 0.  1.
         11    1    3    3    0    0  0.25161408310E+01 -0.87989119845E+01  0.14753938560E+02  0.17361754522E+02  0.51100000000E-03 0. -1.
        -11    1    3    3    0    0  0.30211518246E+02 -0.28391783120E+01  0.72713532664E+01  0.31203675213E+02  0.51100000000E-03 0.  1.
        -12    1    3    3    0    0 -0.12206451294E+01 -0.15373827124E+01  0.40049508556E-01  0.19634469943E+01  0.00000000000E+00 0.  1.
</event>
<event>
 7    1  0.1024956E-012  0.5052886E+02  0.7816164E-02  0.1300439E+00
        -11   -1    0    0    0    0  0.00000000000E+00  0.00000000000E+00  0.45593999997E+02  0.45594000000E+02  0.51100000000E-03 0. -1.
         11   -1    0    0    0    0 -0.00000000000E+00 -0.00000000000E+00 -0.45593999997E+02  0.45594000000E+02  0.51100000000E-03 0.  1.
    9900012    2    1    2    0    0 -0.33181768745E+02 -0.14220251567E+02  0.18706154839E+02  0.50528861292E+02  0.30000004383E+02 0.  0.
        -12    1    1    2    0    0  0.33181768745E+02  0.14220251567E+02 -0.18706154839E+02  0.40659138708E+02  0.00000000000E+00 0.  1.
         11    1    3    3    0    0 -0.33542104414E+02 -0.52599579904E+01  0.12982618377E+02  0.36349529663E+02  0.51100000000E-03 0. -1.
        -11    1    3    3    0    0  0.48553141772E+01 -0.44265701057E+01  0.25269165999E+01  0.70394535600E+01  0.51100000000E-03 0.  1.
         12    1    3    3    0    0 -0.44949785082E+01 -0.45337234706E+01  0.31966198616E+01  0.71398780687E+01  0.00000000000E+00 0. -1.
</event>
<event>
 7    1  0.1024956E-012  0.5052885E+02  0.7816164E-02  0.1300439E+00
        -11   -1    0    0    0    0  0.00000000000E+00  0.00000000000E+00  0.45593999997E+02  0.45594000000E+02  0.51100000000E-03 0.  1.
         11   -1    0    0    0    0 -0.00000000000E+00 -0.00000000000E+00 -0.45593999997E+02  0.45594000000E+02  0.51100000000E-03 0. -1.
    9900012    2    1    2    0    0 -0.20691973017E+02  0.14471410331E+02 -0.31868272361E+02  0.50528852842E+02  0.29999978699E+02 0.  0.
        -12    1    1    2    0    0  0.20691973017E+02 -0.14471410331E+02  0.31868272361E+02  0.40659147158E+02  0.00000000000E+00 0.  1.
         11    1    3    3    0    0 -0.18437249856E+02  0.90895537377E+01 -0.33247241425E+02  0.39088760942E+02  0.51100000000E-03 0. -1.
        -11    1    3    3    0    0  0.64731221771E+00  0.71097830658E+01 -0.11361003613E+01  0.72290215550E+01  0.51100000000E-03 0.  1.
         12    1    3    3    0    0 -0.29020353794E+01 -0.17279264728E+01  0.25150694246E+01  0.42110703448E+01  0.00000000000E+00 0. -1.
</event>
<event>
 7    1  0.1024956E-012  0.5052886E+02  0.7816164E-02  0.1300439E+00
        -11   -1    0    0    0    0  0.00000000000E+00  0.00000000000E+00  0.45593999997E+02  0.45594000000E+02  0.51100000000E-03 0. -1.
         11   -1    0    0    0    0 -0.00000000000E+00 -0.00000000000E+00 -0.45593999997E+02  0.45594000000E+02  0.51100000000E-03 0.  1.
    9900012    2    1    2    0    0 -0.15232699342E+02  0.36324879058E+02  0.10081342819E+02  0.50528862763E+02  0.30000008855E+02 0.  0.
        -12    1    1    2    0    0  0.15232699342E+02 -0.36324879058E+02 -0.10081342819E+02  0.40659137237E+02  0.00000000000E+00 0.  1.
         11    1    3    3    0    0 -0.11724366043E+02  0.49617922574E+01  0.13115781392E+02  0.18278508235E+02  0.51100000000E-03 0. -1.
        -11    1    3    3    0    0 -0.44980169946E+01  0.24710702865E+02 -0.68461753473E+00  0.25126075985E+02  0.51100000000E-03 0.  1.
        -12    1    3    3    0    0  0.98968369595E+00  0.66523839353E+01 -0.23498210385E+01  0.71242785427E+01  0.00000000000E+00 0.  1.
</event>
<event>
 7    1  0.1024956E-012  0.5052886E+02  0.7816164E-02  0.1300439E+00
        -11   -1    0    0    0    0  0.00000000000E+00  0.00000000000E+00  0.45593999997E+02  0.45594000000E+02  0.51100000000E-03 0.  1.
         11   -1    0    0    0    0 -0.00000000000E+00 -0.00000000000E+00 -0.45593999997E+02  0.45594000000E+02  0.51100000000E-03 0. -1.
    9900012    2    1    2    0    0 -0.16080900559E+02 -0.53083160510E+01 -0.36964737181E+02  0.50528863549E+02  0.30000011244E+02 0.  0.
        -12    1    1    2    0    0  0.16080900559E+02  0.53083160510E+01  0.36964737181E+02  0.40659136451E+02  0.00000000000E+00 0.  1.
         11    1    3    3    0    0 -0.18038297459E+02  0.55647948239E+01 -0.22063476141E+02  0.29036943647E+02  0.51100000000E-03 0. -1.
        -11    1    3    3    0    0  0.48486532459E+01 -0.10805212767E+02 -0.14247130660E+02  0.18526812828E+02  0.51100000000E-03 0.  1.
        -12    1    3    3    0    0 -0.28912563460E+01 -0.67898107500E-01 -0.65413038007E+00  0.29651070749E+01  0.00000000000E+00 0.  1.
</event>
<event>
 7    1  0.1024956E-012  0.5052888E+02  0.7816164E-02  0.1300439E+00
        -11   -1    0    0    0    0  0.00000000000E+00  0.00000000000E+00  0.45593999997E+02  0.45594000000E+02  0.51100000000E-03 0.  1.
         11   -1    0    0    0    0 -0.00000000000E+00 -0.00000000000E+00 -0.45593999997E+02  0.45594000000E+02  0.51100000000E-03 0. -1.
    9900012    2    1    2    0    0 -0.25328957412E+02  0.30449009700E+02 -0.91905200820E+01  0.50528881285E+02  0.30000065154E+02 0.  0.
        -12    1    1    2    0    0  0.25328957412E+02 -0.30449009700E+02  0.91905200820E+01  0.40659118715E+02  0.00000000000E+00 0.  1.
         11    1    3    3    0    0 -0.60483413946E+01  0.85471444494E+01 -0.11661038067E+02  0.15672138365E+02  0.51100000000E-03 0. -1.
        -11    1    3    3    0    0 -0.18152557993E+02  0.80296472403E+01  0.55326874595E+01  0.20605854200E+02  0.51100000000E-03 0.  1.
        -12    1    3    3    0    0 -0.11280580239E+01  0.13872218011E+02 -0.30621694746E+01  0.14250888721E+02  0.00000000000E+00 0.  1.
</event>
<event>
 7    1  0.1024956E-012  0.5052888E+02  0.7816164E-02  0.1300439E+00
        -11   -1    0    0    0    0  0.00000000000E+00  0.00000000000E+00  0.45593999997E+02  0.45594000000E+02  0.51100000000E-03 0.  1.
         11   -1    0    0    0    0 -0.00000000000E+00 -0.00000000000E+00 -0.45593999997E+02  0.45594000000E+02  0.51100000000E-03 0. -1.
    9900012    2    1    2    0    0  0.14653571007E+02  0.36143552700E+02  0.11492626340E+02  0.50528880417E+02  0.30000062516E+02 0.  0.
        -12    1    1    2    0    0 -0.14653571007E+02 -0.36143552700E+02 -0.11492626340E+02  0.40659119583E+02  0.00000000000E+00 0.  1.
         11    1    3    3    0    0  0.11420896029E+02  0.36396933559E+02  0.44578086990E+01  0.38406323663E+02  0.51100000000E-03 0. -1.
        -11    1    3    3    0    0  0.57204591866E+01  0.24282421909E+01  0.43926939758E+01  0.76102413937E+01  0.51100000000E-03 0.  1.
         12    1    3    3    0    0 -0.24877842089E+01 -0.26816230500E+01  0.26421236653E+01  0.45123153608E+01  0.00000000000E+00 0. -1.
</event>
<event>
 7    1  0.1024956E-012  0.5052886E+02  0.7816164E-02  0.1300439E+00
        -11   -1    0    0    0    0  0.00000000000E+00  0.00000000000E+00  0.45593999997E+02  0.45594000000E+02  0.51100000000E-03 0. -1.
         11   -1    0    0    0    0 -0.00000000000E+00 -0.00000000000E+00 -0.45593999997E+02  0.45594000000E+02  0.51100000000E-03 0.  1.
    9900012    2    1    2    0    0 -0.14822937967E+02  0.33683897675E+02  0.17287021639E+02  0.50528861179E+02  0.30000004039E+02 0.  0.
        -12    1    1    2    0    0  0.14822937967E+02 -0.33683897675E+02 -0.17287021639E+02  0.40659138821E+02  0.00000000000E+00 0.  1.
         11    1    3    3    0    0 -0.44908395476E+01  0.11744009985E+02  0.12739119417E+02  0.17899010424E+02  0.51100000000E-03 0. -1.
        -11    1    3    3    0    0 -0.16080425085E+02  0.20896014263E+02  0.27137880142E+01  0.26506379018E+02  0.51100000000E-03 0.  1.
        -12    1    3    3    0    0  0.57483266654E+01  0.10438734261E+01  0.18341142084E+01  0.61234717368E+01  0.00000000000E+00 0.  1.
</event>
<event>
 7    1  0.1024956E-012  0.5052887E+02  0.7816164E-02  0.1300439E+00
        -11   -1    0    0    0    0  0.00000000000E+00  0.00000000000E+00  0.45593999997E+02  0.45594000000E+02  0.51100000000E-03 0. -1.
         11   -1    0    0    0    0 -0.00000000000E+00 -0.00000000000E+00 -0.45593999997E+02  0.45594000000E+02  0.51100000000E-03 0.  1.
    9900012    2    1    2    0    0  0.26471561418E+02  0.47238763559E+01  0.30497643336E+02  0.50528870388E+02  0.30000032032E+02 0.  0.
        -12    1    1    2    0    0 -0.26471561418E+02 -0.47238763559E+01 -0.30497643336E+02  0.40659129612E+02  0.00000000000E+00 0.  1.
         11    1    3    3    0    0  0.14276475648E+02 -0.11628535066E+02  0.17432653687E+02  0.25356222107E+02  0.51100000000E-03 0. -1.
        -11    1    3    3    0    0  0.12867043750E+02  0.15922100716E+02  0.11665836506E+02  0.23561957637E+02  0.51100000000E-03 0.  1.
         12    1    3    3    0    0 -0.67195798053E+00  0.43031070600E+00  0.13991531435E+01  0.16106906439E+01  0.00000000000E+00 0. -1.
</event>
<event>
 7    1  0.1024956E-012  0.5052886E+02  0.7816164E-02  0.1300439E+00
        -11   -1    0    0    0    0  0.00000000000E+00  0.00000000000E+00  0.45593999997E+02  0.45594000000E+02  0.51100000000E-03 0.  1.
         11   -1    0    0    0    0 -0.00000000000E+00 -0.00000000000E+00 -0.45593999997E+02  0.45594000000E+02  0.51100000000E-03 0. -1.
    9900012    2    1    2    0    0 -0.38677494972E+02 -0.50920091253E+01 -0.11458114892E+02  0.50528861161E+02  0.30000003984E+02 0.  0.
        -12    1    1    2    0    0  0.38677494972E+02  0.50920091253E+01  0.11458114892E+02  0.40659138839E+02  0.00000000000E+00 0.  1.
         11    1    3    3    0    0 -0.10227684320E+02  0.32055344381E+01  0.26086969310E+01  0.11031150326E+02  0.51100000000E-03 0. -1.
        -11    1    3    3    0    0 -0.13523907020E+02 -0.10153008180E+02 -0.17214284727E+02  0.24131125857E+02  0.51100000000E-03 0.  1.
        -12    1    3    3    0    0 -0.14925903633E+02  0.18554646161E+01  0.31474729045E+01  0.15366584978E+02  0.00000000000E+00 0.  1.
</event>
<event>
 7    1  0.1024956E-012  0.5052896E+02  0.7816164E-02  0.1300438E+00
        -11   -1    0    0    0    0  0.00000000000E+00  0.00000000000E+00  0.45593999997E+02  0.45594000000E+02  0.51100000000E-03 0.  1.
         11   -1    0    0    0    0 -0.00000000000E+00 -0.00000000000E+00 -0.45593999997E+02  0.45594000000E+02  0.51100000000E-03 0. -1.
    9900012    2    1    2    0    0  0.23404988733E+01 -0.20384999629E+02 -0.35101729255E+02  0.50528959904E+02  0.30000304121E+02 0.  0.
        -12    1    1    2    0    0 -0.23404988733E+01  0.20384999629E+02  0.35101729255E+02  0.40659040096E+02  0.00000000000E+00 0.  1.
         11    1    3    3    0    0 -0.10208983302E+01 -0.19669137683E+02 -0.36508803275E+02  0.41482646099E+02  0.51100000000E-03 0. -1.
        -11    1    3    3    0    0 -0.24559816250E+01  0.48209698822E+00 -0.92095957159E+00  0.26669139547E+01  0.51100000000E-03 0.  1.
         12    1    3    3    0    0  0.58173788284E+01 -0.11979589339E+01  0.23280335907E+01  0.63793998495E+01  0.00000000000E+00 0. -1.
</event>
<event>
 7    1  0.1024956E-012  0.5052888E+02  0.7816164E-02  0.1300439E+00
        -11   -1    0    0    0    0  0.00000000000E+00  0.00000000000E+00  0.45593999997E+02  0.45594000000E+02  0.51100000000E-03 0.  1.
         11   -1    0    0    0    0 -0.00000000000E+00 -0.00000000000E+00 -0.45593999997E+02  0.45594000000E+02  0.51100000000E-03 0. -1.
    9900012    2    1    2    0    0 -0.92122049323E+01  0.32025212071E+02 -0.23295606433E+02  0.50528877936E+02  0.30000054974E+02 0.  0.
        -12    1    1    2    0    0  0.92122049323E+01 -0.32025212071E+02  0.23295606433E+02  0.40659122064E+02  0.00000000000E+00 0.  1.
         11    1    3    3    0    0 -0.16831993816E+02  0.17388977811E+02 -0.12070162163E+02  0.27044063675E+02  0.51100000000E-03 0. -1.
        -11    1    3    3    0    0  0.93047637477E+01  0.11687768985E+02 -0.39451555045E+01  0.15451434382E+02  0.51100000000E-03 0.  1.
        -12    1    3    3    0    0 -0.16849748642E+01  0.29484652754E+01 -0.72802887659E+01  0.80333798795E+01  0.00000000000E+00 0.  1.
</event>
<event>
 7    1  0.1024956E-012  0.5052889E+02  0.7816164E-02  0.1300439E+00
        -11   -1    0    0    0    0  0.00000000000E+00  0.00000000000E+00  0.45593999997E+02  0.45594000000E+02  0.51100000000E-03 0.  1.
         11   -1    0    0    0    0 -0.00000000000E+00 -0.00000000000E+00 -0.45593999997E+02  0.45594000000E+02  0.51100000000E-03 0. -1.
    9900012    2    1    2    0    0  0.25888397903E+02 -0.25897071539E+02 -0.17671901615E+02  0.50528885807E+02  0.30000078898E+02 0.  0.
        -12    1    1    2    0    0 -0.25888397903E+02  0.25897071539E+02  0.17671901615E+02  0.40659114193E+02  0.00000000000E+00 0.  1.
         11    1    3    3    0    0  0.30922010482E+02 -0.20129709178E+02 -0.14190828364E+02  0.39531702895E+02  0.51100000000E-03 0. -1.
        -11    1    3    3    0    0 -0.31421520849E+01 -0.72562315442E+01 -0.33463404766E+01  0.85862687353E+01  0.51100000000E-03 0.  1.
         12    1    3    3    0    0 -0.18914604947E+01  0.14888691828E+01 -0.13473277492E+00  0.24109141767E+01  0.00000000000E+00 0. -1.
</event>
<event>
 7    1  0.1334861E-012  0.5052887E+02  0.7816164E-02  0.1300439E+00
        -11   -1    0    0    0    0  0.00000000000E+00  0.00000000000E+00  0.45593999997E+02  0.45594000000E+02  0.51100000000E-03 0.  1.
         11   -1    0    0    0    0 -0.00000000000E+00 -0.00000000000E+00 -0.45593999997E+02  0.45594000000E+02  0.51100000000E-03 0. -1.
    9900012    2    1    2    0    0  0.27840246771E+02  0.16853151624E+02  0.24373284585E+02  0.50528867430E+02  0.30000023039E+02 0.  0.
        -12    1    1    2    0    0 -0.27840246771E+02 -0.16853151624E+02 -0.24373284585E+02  0.40659132570E+02  0.00000000000E+00 0.  1.
         11    1    3    3    0    0  0.18136728387E+02  0.12211930396E+00  0.12050596424E+02  0.21775506978E+02  0.51100000000E-03 0. -1.
        -11    1    3    3    0    0  0.68164132592E+01  0.13387726495E+02 -0.66213462204E+00  0.15037723662E+02  0.51100000000E-03 0.  1.
        -12    1    3    3    0    0  0.28871051242E+01  0.33433058254E+01  0.12984822783E+02  0.13715636789E+02  0.00000000000E+00 0.  1.
</event>
<event>
 7    1  0.1024956E-012  0.5052886E+02  0.7816164E-02  0.1300439E+00
        -11   -1    0    0    0    0  0.00000000000E+00  0.00000000000E+00  0.45593999997E+02  0.45594000000E+02  0.51100000000E-03 0.  1.
         11   -1    0    0    0    0 -0.00000000000E+00 -0.00000000000E+00 -0.45593999997E+02  0.45594000000E+02  0.51100000000E-03 0. -1.
    9900012    2    1    2    0    0 -0.22177620891E+02  0.52598605966E+01 -0.33669758993E+02  0.50528859914E+02  0.30000000194E+02 0.  0.
        -12    1    1    2    0    0  0.22177620891E+02 -0.52598605966E+01  0.33669758993E+02  0.40659140086E+02  0.00000000000E+00 0.  1.
         11    1    3    3    0    0  0.31291424751E+01  0.46966115786E+01 -0.39284360793E+01  0.68762128559E+01  0.51100000000E-03 0. -1.
        -11    1    3    3    0    0 -0.17243176204E+02 -0.88055130946E+01 -0.20659813694E+02  0.28314167630E+02  0.51100000000E-03 0.  1.
        -12    1    3    3    0    0 -0.80635871620E+01  0.93687621126E+01 -0.90815092198E+01  0.15338479428E+02  0.00000000000E+00 0.  1.
</event>
<event>
 7    1  0.1024956E-012  0.5052884E+02  0.7816164E-02  0.1300439E+00
        -11   -1    0    0    0    0  0.00000000000E+00  0.00000000000E+00  0.45593999997E+02  0.45594000000E+02  0.51100000000E-03 0.  1.
         11   -1    0    0    0    0 -0.00000000000E+00 -0.00000000000E+00 -0.45593999997E+02  0.45594000000E+02  0.51100000000E-03 0. -1.
    9900012    2    1    2    0    0 -0.96610597408E+00 -0.36727192752E+02 -0.17416875420E+02  0.50528836241E+02  0.29999928239E+02 0.  0.
        -12    1    1    2    0    0  0.96610597408E+00  0.36727192752E+02  0.17416875420E+02  0.40659163759E+02  0.00000000000E+00 0.  1.
         11    1    3    3    0    0 -0.27744446053E+01 -0.18736942644E+01  0.51630635133E+01  0.61534947930E+01  0.51100000000E-03 0.  1.
        -11    1    3    3    0    0  0.64045206018E+01 -0.26510894615E+02 -0.11067806183E+02  0.29433683959E+02  0.51100000000E-03 0. -1.
        -12    1    3    3    0    0 -0.45961819706E+01 -0.83426038726E+01 -0.11512132750E+02  0.14941657490E+02  0.00000000000E+00 0.  1.
</event>
<event>
 7    1  0.1024956E-012  0.5052886E+02  0.7816164E-02  0.1300439E+00
        -11   -1    0    0    0    0  0.00000000000E+00  0.00000000000E+00  0.45593999997E+02  0.45594000000E+02  0.51100000000E-03 0. -1.
         11   -1    0    0    0    0 -0.00000000000E+00 -0.00000000000E+00 -0.45593999997E+02  0.45594000000E+02  0.51100000000E-03 0.  1.
    9900012    2    1    2    0    0 -0.37971183099E+02 -0.12283135375E+02  0.77768575787E+01  0.50528859891E+02  0.30000000126E+02 0.  0.
        -12    1    1    2    0    0  0.37971183099E+02  0.12283135375E+02 -0.77768575787E+01  0.40659140109E+02  0.00000000000E+00 0.  1.
         11    1    3    3    0    0 -0.29095951268E+02 -0.95465894422E+01  0.30889711122E+01  0.30777483539E+02  0.51100000000E-03 0. -1.
        -11    1    3    3    0    0 -0.88668339921E+01  0.31134707377E+01  0.85797548429E+01  0.12725039823E+02  0.51100000000E-03 0.  1.
        -12    1    3    3    0    0 -0.83978386873E-02 -0.58500166706E+01 -0.38918683764E+01  0.70263365298E+01  0.00000000000E+00 0.  1.
</event>
<event>
 7    1  0.1024956E-012  0.5052885E+02  0.7816164E-02  0.1300439E+00
        -11   -1    0    0    0    0  0.00000000000E+00  0.00000000000E+00  0.45593999997E+02  0.45594000000E+02  0.51100000000E-03 0.  1.
         11   -1    0    0    0    0 -0.00000000000E+00 -0.00000000000E+00 -0.45593999997E+02  0.45594000000E+02  0.51100000000E-03 0. -1.
    9900012    2    1    2    0    0  0.48700569986E+01  0.12995054874E+02 -0.38217502739E+02  0.50528850698E+02  0.29999972182E+02 0.  0.
        -12    1    1    2    0    0 -0.48700569986E+01 -0.12995054874E+02  0.38217502739E+02  0.40659149302E+02  0.00000000000E+00 0.  1.
         11    1    3    3    0    0  0.13509232109E+02  0.57157138277E+01 -0.23066182265E+02  0.27335279426E+02  0.51100000000E-03 0. -1.
        -11    1    3    3    0    0 -0.61720822377E+01  0.52382987712E+01 -0.17460470336E+02  0.19245841051E+02  0.51100000000E-03 0.  1.
         12    1    3    3    0    0 -0.24670928728E+01  0.20410422750E+01  0.23091498622E+01  0.39477302210E+01  0.00000000000E+00 0. -1.
</event>
<event>
 7    1  0.1103909E-012  0.5052885E+02  0.7816164E-02  0.1300439E+00
        -11   -1    0    0    0    0  0.00000000000E+00  0.00000000000E+00  0.45593999997E+02  0.45594000000E+02  0.51100000000E-03 0. -1.
         11   -1    0    0    0    0 -0.00000000000E+00 -0.00000000000E+00 -0.45593999997E+02  0.45594000000E+02  0.51100000000E-03 0.  1.
    9900012    2    1    2    0    0  0.43240845034E+01  0.35842532310E+02  0.18702458979E+02  0.50528846036E+02  0.29999958011E+02 0.  0.
        -12    1    1    2    0    0 -0.43240845034E+01 -0.35842532310E+02 -0.18702458979E+02  0.40659153964E+02  0.00000000000E+00 0.  1.
         11    1    3    3    0    0  0.64811773894E+01  0.35539639009E+02  0.10769006315E+02  0.37696725302E+02  0.51100000000E-03 0. -1.
        -11    1    3    3    0    0  0.27438334124E+01 -0.29569311042E+01  0.21110147401E+01  0.45528504087E+01  0.51100000000E-03 0.  1.
        -12    1    3    3    0    0 -0.49009262984E+01  0.32598244057E+01  0.58224379246E+01  0.82792703256E+01  0.00000000000E+00 0.  1.
</event>
<event>
 7    1  0.1024956E-012  0.5052886E+02  0.7816164E-02  0.1300439E+00
        -11   -1    0    0    0    0  0.00000000000E+00  0.00000000000E+00  0.45593999997E+02  0.45594000000E+02  0.51100000000E-03 0. -1.
         11   -1    0    0    0    0 -0.00000000000E+00 -0.00000000000E+00 -0.45593999997E+02  0.45594000000E+02  0.51100000000E-03 0.  1.
    9900012    2    1    2    0    0 -0.31222678635E+01  0.69591604233E+01  0.39937289518E+02  0.50528861243E+02  0.30000004233E+02 0.  0.
        -12    1    1    2    0    0  0.31222678635E+01 -0.69591604233E+01 -0.39937289518E+02  0.40659138757E+02  0.00000000000E+00 0.  1.
         11    1    3    3    0    0  0.13158442469E+01  0.31970180688E+01  0.30343734932E+02  0.30540049452E+02  0.51100000000E-03 0. -1.
        -11    1    3    3    0    0 -0.74785505420E+01 -0.39025890528E+01  0.79283546031E+01  0.11576602546E+02  0.51100000000E-03 0.  1.
         12    1    3    3    0    0  0.30404384316E+01  0.76647314072E+01  0.16651999829E+01  0.84122092452E+01  0.00000000000E+00 0. -1.
</event>
<event>
 7    1  0.1024956E-012  0.5052883E+02  0.7816164E-02  0.1300439E+00
        -11   -1    0    0    0    0  0.00000000000E+00  0.00000000000E+00  0.45593999997E+02  0.45594000000E+02  0.51100000000E-03 0. -1.
         11   -1    0    0    0    0 -0.00000000000E+00 -0.00000000000E+00 -0.45593999997E+02  0.45594000000E+02  0.51100000000E-03 0.  1.
    9900012    2    1    2    0    0 -0.17200372933E+02 -0.26128241676E+02  0.25973652634E+02  0.50528825472E+02  0.29999895506E+02 0.  0.
        -12    1    1    2    0    0  0.17200372933E+02  0.26128241676E+02 -0.25973652634E+02  0.40659174528E+02  0.00000000000E+00 0.  1.
         11    1    3    3    0    0  0.42756834773E+01 -0.63977802107E+01  0.12690830231E+02  0.14841503732E+02  0.51100000000E-03 0. -1.
        -11    1    3    3    0    0 -0.16868540620E+02 -0.50557036538E+01  0.86762329964E+01  0.19631220578E+02  0.51100000000E-03 0.  1.
         12    1    3    3    0    0 -0.46075157903E+01 -0.14674757812E+02  0.46065894068E+01  0.16056101163E+02  0.00000000000E+00 0. -1.
</event>
<event>
 7    1  0.1024956E-012  0.5052886E+02  0.7816164E-02  0.1300439E+00
        -11   -1    0    0    0    0  0.00000000000E+00  0.00000000000E+00  0.45593999997E+02  0.45594000000E+02  0.51100000000E-03 0.  1.
         11   -1    0    0    0    0 -0.00000000000E+00 -0.00000000000E+00 -0.45593999997E+02  0.45594000000E+02  0.51100000000E-03 0. -1.
    9900012    2    1    2    0    0 -0.11590374743E+02 -0.28312132899E+02 -0.26781560343E+02  0.50528860432E+02  0.30000001769E+02 0.  0.
        -12    1    1    2    0    0  0.11590374743E+02  0.28312132899E+02  0.26781560343E+02  0.40659139568E+02  0.00000000000E+00 0.  1.
         11    1    3    3    0    0 -0.19208835405E+02 -0.89916312073E+01 -0.15959314311E+02  0.26542955806E+02  0.51100000000E-03 0. -1.
        -11    1    3    3    0    0  0.53727278836E+01 -0.14302883666E+02 -0.10379476590E+02  0.18470847859E+02  0.51100000000E-03 0.  1.
         12    1    3    3    0    0  0.22457327783E+01 -0.50176180258E+01 -0.44276944164E+00  0.55150567669E+01  0.00000000000E+00 0. -1.
</event>
<event>
 7    1  0.1024956E-012  0.5052886E+02  0.7816164E-02  0.1300439E+00
        -11   -1    0    0    0    0  0.00000000000E+00  0.00000000000E+00  0.45593999997E+02  0.45594000000E+02  0.51100000000E-03 0. -1.
         11   -1    0    0    0    0 -0.00000000000E+00 -0.00000000000E+00 -0.45593999997E+02  0.45594000000E+02  0.51100000000E-03 0.  1.
    9900012    2    1    2    0    0 -0.30490647074E+02  0.23399583655E+02 -0.13264438548E+02  0.50528863214E+02  0.30000010225E+02 0.  0.
        -12    1    1    2    0    0  0.30490647074E+02 -0.23399583655E+02  0.13264438548E+02  0.40659136786E+02  0.00000000000E+00 0.  1.
         11    1    3    3    0    0 -0.58413618731E+01  0.15073964329E+02  0.22651165662E-01  0.16166212372E+02  0.51100000000E-03 0. -1.
        -11    1    3    3    0    0 -0.22651064350E+02  0.47655250135E+00 -0.13283787536E+02  0.26263222004E+02  0.51100000000E-03 0.  1.
        -12    1    3    3    0    0 -0.19982208502E+01  0.78490668253E+01 -0.33021780036E-02  0.80994288378E+01  0.00000000000E+00 0.  1.
</event>
<event>
 7    1  0.1024956E-012  0.5052886E+02  0.7816164E-02  0.1300439E+00
        -11   -1    0    0    0    0  0.00000000000E+00  0.00000000000E+00  0.45593999997E+02  0.45594000000E+02  0.51100000000E-03 0. -1.
         11   -1    0    0    0    0 -0.00000000000E+00 -0.00000000000E+00 -0.45593999997E+02  0.45594000000E+02  0.51100000000E-03 0.  1.
    9900012    2    1    2    0    0  0.12178921006E+02  0.38393631621E+02  0.55469257209E+01  0.50528862640E+02  0.30000008481E+02 0.  0.
        -12    1    1    2    0    0 -0.12178921006E+02 -0.38393631621E+02 -0.55469257209E+01  0.40659137360E+02  0.00000000000E+00 0.  1.
         11    1    3    3    0    0  0.64798604025E+01  0.60136434649E+00  0.84900612628E+00  0.65628531582E+01  0.51100000000E-03 0. -1.
        -11    1    3    3    0    0  0.99110523289E+01  0.27136722671E+02 -0.45443996264E+01  0.29245208904E+02  0.51100000000E-03 0.  1.
        -12    1    3    3    0    0 -0.42119917254E+01  0.10655544603E+02  0.92423192210E+01  0.14720800578E+02  0.00000000000E+00 0.  1.
</event>
<event>
 7    1  0.1547702E-012  0.5052884E+02  0.7816164E-02  0.1300439E+00
        -11   -1    0    0    0    0  0.00000000000E+00  0.00000000000E+00  0.45593999997E+02  0.45594000000E+02  0.51100000000E-03 0. -1.
         11   -1    0    0    0    0 -0.00000000000E+00 -0.00000000000E+00 -0.45593999997E+02  0.45594000000E+02  0.51100000000E-03 0.  1.
    9900012    2    1    2    0    0  0.71051796750E+01  0.19683154087E+02  0.34860541886E+02  0.50528837274E+02  0.29999931377E+02 0.  0.
        -12    1    1    2    0    0 -0.71051796750E+01 -0.19683154087E+02 -0.34860541886E+02  0.40659162726E+02  0.00000000000E+00 0.  1.
         11    1    3    3    0    0  0.91683521006E+01  0.11188983866E+02  0.15306020530E+02  0.21060064220E+02  0.51100000000E-03 0. -1.
        -11    1    3    3    0    0 -0.54164081345E+01  0.82592241780E+01  0.25650616412E+00  0.98801850577E+01  0.51100000000E-03 0.  1.
        -12    1    3    3    0    0  0.33532357090E+01  0.23494604272E+00  0.19298015192E+02  0.19588587996E+02  0.00000000000E+00 0.  1.
</event>
<event>
 7    1  0.1070187E-012  0.5052888E+02  0.7816164E-02  0.1300439E+00
        -11   -1    0    0    0    0  0.00000000000E+00  0.00000000000E+00  0.45593999997E+02  0.45594000000E+02  0.51100000000E-03 0. -1.
         11   -1    0    0    0    0 -0.00000000000E+00 -0.00000000000E+00 -0.45593999997E+02  0.45594000000E+02  0.51100000000E-03 0.  1.
    9900012    2    1    2    0    0 -0.20925990383E+02 -0.17120885118E+01  0.34818611692E+02  0.50528879981E+02  0.30000061189E+02 0.  0.
        -12    1    1    2    0    0  0.20925990383E+02  0.17120885118E+01 -0.34818611692E+02  0.40659120019E+02  0.00000000000E+00 0.  1.
         11    1    3    3    0    0 -0.13112779136E+02 -0.22338993748E+01  0.22718954726E+02  0.26326530102E+02  0.51100000000E-03 0. -1.
        -11    1    3    3    0    0 -0.64531409350E+01 -0.25534978173E+01 -0.38265551449E+01  0.79250175752E+01  0.51100000000E-03 0.  1.
        -12    1    3    3    0    0 -0.13600703124E+01  0.30753086803E+01  0.15926212110E+02  0.16277332304E+02  0.00000000000E+00 0.  1.
</event>
<event>
 7    1  0.1024956E-012  0.5052884E+02  0.7816164E-02  0.1300439E+00
        -11   -1    0    0    0    0  0.00000000000E+00  0.00000000000E+00  0.45593999997E+02  0.45594000000E+02  0.51100000000E-03 0. -1.
         11   -1    0    0    0    0 -0.00000000000E+00 -0.00000000000E+00 -0.45593999997E+02  0.45594000000E+02  0.51100000000E-03 0.  1.
    9900012    2    1    2    0    0  0.40528455070E+02 -0.14314654967E+01  0.29261143656E+01  0.50528844708E+02  0.29999953973E+02 0.  0.
        -12    1    1    2    0    0 -0.40528455070E+02  0.14314654967E+01 -0.29261143656E+01  0.40659155292E+02  0.00000000000E+00 0.  1.
         11    1    3    3    0    0  0.60107569828E+00 -0.47023812146E+01  0.48514642773E+01  0.67830956780E+01  0.51100000000E-03 0. -1.
        -11    1    3    3    0    0  0.35436898323E+02 -0.29808313001E+01  0.82556002795E+00  0.35571627283E+02  0.51100000000E-03 0.  1.
        -12    1    3    3    0    0  0.44904810488E+01  0.62517470180E+01 -0.27509099396E+01  0.81741217462E+01  0.00000000000E+00 0.  1.
</event>
<event>
 7    1  0.1024956E-012  0.5052886E+02  0.7816164E-02  0.1300439E+00
        -11   -1    0    0    0    0  0.00000000000E+00  0.00000000000E+00  0.45593999997E+02  0.45594000000E+02  0.51100000000E-03 0.  1.
         11   -1    0    0    0    0 -0.00000000000E+00 -0.00000000000E+00 -0.45593999997E+02  0.45594000000E+02  0.51100000000E-03 0. -1.
    9900012    2    1    2    0    0  0.29444675620E+02 -0.27988422638E+02 -0.16806371551E+01  0.50528864921E+02  0.30000015413E+02 0.  0.
        -12    1    1    2    0    0 -0.29444675620E+02  0.27988422638E+02  0.16806371551E+01  0.40659135079E+02  0.00000000000E+00 0.  1.
         11    1    3    3    0    0  0.18068112232E+02 -0.25897372600E+02 -0.63929112080E+01  0.32218005854E+02  0.51100000000E-03 0. -1.
        -11    1    3    3    0    0  0.10187067638E+02  0.23455301570E+01  0.75650419314E+01  0.12903786982E+02  0.51100000000E-03 0.  1.
        -12    1    3    3    0    0  0.11894957499E+01 -0.44365801949E+01 -0.28527678784E+01  0.54070720850E+01  0.00000000000E+00 0.  1.
</event>
<event>
 7    1  0.1024956E-012  0.5052886E+02  0.7816164E-02  0.1300439E+00
        -11   -1    0    0    0    0  0.00000000000E+00  0.00000000000E+00  0.45593999997E+02  0.45594000000E+02  0.51100000000E-03 0.  1.
         11   -1    0    0    0    0 -0.00000000000E+00 -0.00000000000E+00 -0.45593999997E+02  0.45594000000E+02  0.51100000000E-03 0. -1.
    9900012    2    1    2    0    0  0.13565294256E+02  0.36935003158E+02 -0.10244724679E+02  0.50528855269E+02  0.29999986075E+02 0.  0.
        -12    1    1    2    0    0 -0.13565294256E+02 -0.36935003158E+02  0.10244724679E+02  0.40659144731E+02  0.00000000000E+00 0.  1.
         11    1    3    3    0    0  0.11688985321E+02  0.39779741827E+01 -0.81312205479E+01  0.14784228228E+02  0.51100000000E-03 0. -1.
        -11    1    3    3    0    0  0.29455707546E+01  0.31424623480E+02  0.15836732379E+01  0.31602078557E+02  0.51100000000E-03 0.  1.
        -12    1    3    3    0    0 -0.10692618202E+01  0.15324054955E+01 -0.36971773693E+01  0.41425484840E+01  0.00000000000E+00 0.  1.
</event>
<event>
 7    1  0.1024956E-012  0.5052886E+02  0.7816164E-02  0.1300439E+00
        -11   -1    0    0    0    0  0.00000000000E+00  0.00000000000E+00  0.45593999997E+02  0.45594000000E+02  0.51100000000E-03 0.  1.
         11   -1    0    0    0    0 -0.00000000000E+00 -0.00000000000E+00 -0.45593999997E+02  0.45594000000E+02  0.51100000000E-03 0. -1.
    9900012    2    1    2    0    0 -0.10926326882E+02  0.20821524340E+02 -0.33169949177E+02  0.50528855599E+02  0.29999987079E+02 0.  0.
        -12    1    1    2    0    0  0.10926326882E+02 -0.20821524340E+02  0.33169949177E+02  0.40659144401E+02  0.00000000000E+00 0.  1.
         11    1    3    3    0    0  0.29329583440E+01  0.33122291393E+01 -0.60463803138E+01  0.74921173028E+01  0.51100000000E-03 0. -1.
        -11    1    3    3    0    0 -0.92225084430E+01  0.17708951244E+02 -0.52071983175E+01  0.20634353169E+02  0.51100000000E-03 0.  1.
        -12    1    3    3    0    0 -0.46367767829E+01 -0.19965604277E+00 -0.21916370546E+02  0.22402385127E+02  0.00000000000E+00 0.  1.
</event>
<event>
 7    1  0.1024956E-012  0.5052887E+02  0.7816164E-02  0.1300439E+00
        -11   -1    0    0    0    0  0.00000000000E+00  0.00000000000E+00  0.45593999997E+02  0.45594000000E+02  0.51100000000E-03 0. -1.
         11   -1    0    0    0    0 -0.00000000000E+00 -0.00000000000E+00 -0.45593999997E+02  0.45594000000E+02  0.51100000000E-03 0.  1.
    9900012    2    1    2    0    0  0.15815442021E+01 -0.28440176777E+02  0.29014139107E+02  0.50528865660E+02  0.30000017659E+02 0.  0.
        -12    1    1    2    0    0 -0.15815442021E+01  0.28440176777E+02 -0.29014139107E+02  0.40659134340E+02  0.00000000000E+00 0.  1.
         11    1    3    3    0    0  0.59474581849E+01 -0.16793596227E+02  0.31345295877E+02  0.36054468613E+02  0.51100000000E-03 0. -1.
        -11    1    3    3    0    0 -0.65933797240E+00 -0.24505503918E+01 -0.36778984270E+01  0.44684293533E+01  0.51100000000E-03 0.  1.
         12    1    3    3    0    0 -0.37065760104E+01 -0.91960301578E+01  0.13467416571E+01  0.10005967693E+02  0.00000000000E+00 0. -1.
</event>
<event>
 7    1  0.1024956E-012  0.5052886E+02  0.7816164E-02  0.1300439E+00
        -11   -1    0    0    0    0  0.00000000000E+00  0.00000000000E+00  0.45593999997E+02  0.45594000000E+02  0.51100000000E-03 0.  1.
         11   -1    0    0    0    0 -0.00000000000E+00 -0.00000000000E+00 -0.45593999997E+02  0.45594000000E+02  0.51100000000E-03 0. -1.
    9900012    2    1    2    0    0  0.20767023936E+02  0.28551526174E+02 -0.20166971955E+02  0.50528859725E+02  0.29999999622E+02 0.  0.
        -12    1    1    2    0    0 -0.20767023936E+02 -0.28551526174E+02  0.20166971955E+02  0.40659140275E+02  0.00000000000E+00 0.  1.
         11    1    3    3    0    0  0.11302687800E+02  0.65308476864E+01  0.52414417424E+01  0.14066820351E+02  0.51100000000E-03 0.  1.
        -11    1    3    3    0    0  0.11511140770E+02  0.18980481580E+02 -0.19704695869E+02  0.29682319357E+02  0.51100000000E-03 0. -1.
        -12    1    3    3    0    0 -0.20468046338E+01  0.30401969077E+01 -0.57037178284E+01  0.67797200173E+01  0.00000000000E+00 0.  1.
</event>
<event>
 7    1  0.1024956E-012  0.5052885E+02  0.7816164E-02  0.1300439E+00
        -11   -1    0    0    0    0  0.00000000000E+00  0.00000000000E+00  0.45593999997E+02  0.45594000000E+02  0.51100000000E-03 0.  1.
         11   -1    0    0    0    0 -0.00000000000E+00 -0.00000000000E+00 -0.45593999997E+02  0.45594000000E+02  0.51100000000E-03 0. -1.
    9900012    2    1    2    0    0 -0.17202691232E+01 -0.62987844159E+01 -0.40131436209E+02  0.50528853635E+02  0.29999981108E+02 0.  0.
        -12    1    1    2    0    0  0.17202691232E+01  0.62987844159E+01  0.40131436209E+02  0.40659146365E+02  0.00000000000E+00 0.  1.
         11    1    3    3    0    0  0.33409938444E+01  0.36886189806E+01 -0.34715862054E+01  0.60679536002E+01  0.51100000000E-03 0. -1.
        -11    1    3    3    0    0  0.16710921736E+01 -0.15899160706E+02 -0.20656773985E+02  0.26120455048E+02  0.51100000000E-03 0.  1.
        -12    1    3    3    0    0 -0.67323551411E+01  0.59117573093E+01 -0.16003076019E+02  0.18340444986E+02  0.00000000000E+00 0.  1.
</event>
<event>
 7    1  0.1024956E-012  0.5052886E+02  0.7816164E-02  0.1300439E+00
        -11   -1    0    0    0    0  0.00000000000E+00  0.00000000000E+00  0.45593999997E+02  0.45594000000E+02  0.51100000000E-03 0.  1.
         11   -1    0    0    0    0 -0.00000000000E+00 -0.00000000000E+00 -0.45593999997E+02  0.45594000000E+02  0.51100000000E-03 0. -1.
    9900012    2    1    2    0    0  0.12357502695E+02  0.21033913968E+02 -0.32527404680E+02  0.50528862467E+02  0.30000007956E+02 0.  0.
        -12    1    1    2    0    0 -0.12357502695E+02 -0.21033913968E+02  0.32527404680E+02  0.40659137533E+02  0.00000000000E+00 0.  1.
         11    1    3    3    0    0 -0.63685082133E+01 -0.43301268830E+00 -0.27479054736E+01  0.69495598136E+01  0.51100000000E-03 0. -1.
        -11    1    3    3    0    0  0.19067491801E+02  0.22528123216E+02 -0.25023680045E+02  0.38694575104E+02  0.51100000000E-03 0.  1.
        -12    1    3    3    0    0 -0.34148089292E+00 -0.10611965593E+01 -0.47558191619E+01  0.48847275500E+01  0.00000000000E+00 0.  1.
</event>
<event>
 7    1  0.1024956E-012  0.5052887E+02  0.7816164E-02  0.1300439E+00
        -11   -1    0    0    0    0  0.00000000000E+00  0.00000000000E+00  0.45593999997E+02  0.45594000000E+02  0.51100000000E-03 0.  1.
         11   -1    0    0    0    0 -0.00000000000E+00 -0.00000000000E+00 -0.45593999997E+02  0.45594000000E+02  0.51100000000E-03 0. -1.
    9900012    2    1    2    0    0 -0.30571066066E+01  0.32509605214E+02 -0.24226937070E+02  0.50528870499E+02  0.30000032369E+02 0.  0.
        -12    1    1    2    0    0  0.30571066066E+01 -0.32509605214E+02  0.24226937070E+02  0.40659129501E+02  0.00000000000E+00 0.  1.
         11    1    3    3    0    0  0.69376622142E+01  0.24784189603E+02 -0.14782493152E+02  0.29680116498E+02  0.51100000000E-03 0. -1.
        -11    1    3    3    0    0 -0.18606140743E+01  0.96647258561E+00 -0.10039614824E+02  0.10256208855E+02  0.51100000000E-03 0.  1.
         12    1    3    3    0    0 -0.81341547466E+01  0.67589430254E+01  0.59517090648E+00  0.10592545146E+02  0.00000000000E+00 0. -1.
</event>
<event>
 7    1  0.1024956E-012  0.5052885E+02  0.7816164E-02  0.1300439E+00
        -11   -1    0    0    0    0  0.00000000000E+00  0.00000000000E+00  0.45593999997E+02  0.45594000000E+02  0.51100000000E-03 0. -1.
         11   -1    0    0    0    0 -0.00000000000E+00 -0.00000000000E+00 -0.45593999997E+02  0.45594000000E+02  0.51100000000E-03 0.  1.
    9900012    2    1    2    0    0 -0.16716089187E+02  0.31792820048E+02  0.19051385328E+02  0.50528851862E+02  0.29999975721E+02 0.  0.
        -12    1    1    2    0    0  0.16716089187E+02 -0.31792820048E+02 -0.19051385328E+02  0.40659148138E+02  0.00000000000E+00 0.  1.
         11    1    3    3    0    0 -0.18728345057E+02  0.21161515339E+02  0.80997171965E+01  0.29396701498E+02  0.51100000000E-03 0. -1.
        -11    1    3    3    0    0  0.47985632233E+01  0.68249832165E+01 -0.88528596802E+00  0.83898948992E+01  0.51100000000E-03 0.  1.
         12    1    3    3    0    0 -0.27863073529E+01  0.38063214927E+01  0.11836954100E+02  0.12742255465E+02  0.00000000000E+00 0. -1.
</event>
<event>
 7    1  0.1024956E-012  0.5052887E+02  0.7816164E-02  0.1300439E+00
        -11   -1    0    0    0    0  0.00000000000E+00  0.00000000000E+00  0.45593999997E+02  0.45594000000E+02  0.51100000000E-03 0.  1.
         11   -1    0    0    0    0 -0.00000000000E+00 -0.00000000000E+00 -0.45593999997E+02  0.45594000000E+02  0.51100000000E-03 0. -1.
    9900012    2    1    2    0    0 -0.14697446685E+02  0.23978065311E+02 -0.29363285473E+02  0.50528867092E+02  0.30000022012E+02 0.  0.
        -12    1    1    2    0    0  0.14697446685E+02 -0.23978065311E+02  0.29363285473E+02  0.40659132908E+02  0.00000000000E+00 0.  1.
         11    1    3    3    0    0 -0.50887203867E+01  0.12535494200E+02 -0.20129669416E+01  0.13677928432E+02  0.51100000000E-03 0.  1.
        -11    1    3    3    0    0 -0.13508259310E+02  0.80792172420E+01 -0.27514739608E+02  0.31698702131E+02  0.51100000000E-03 0. -1.
        -12    1    3    3    0    0  0.38995330125E+01  0.33633538690E+01  0.16442107667E+00  0.51522365293E+01  0.00000000000E+00 0.  1.
</event>
<event>
 7    1  0.1024956E-012  0.5052886E+02  0.7816164E-02  0.1300439E+00
        -11   -1    0    0    0    0  0.00000000000E+00  0.00000000000E+00  0.45593999997E+02  0.45594000000E+02  0.51100000000E-03 0.  1.
         11   -1    0    0    0    0 -0.00000000000E+00 -0.00000000000E+00 -0.45593999997E+02  0.45594000000E+02  0.51100000000E-03 0. -1.
    9900012    2    1    2    0    0  0.17571499774E+01 -0.66674861025E+01 -0.40070220572E+02  0.50528861745E+02  0.30000005760E+02 0.  0.
        -12    1    1    2    0    0 -0.17571499774E+01  0.66674861025E+01  0.40070220572E+02  0.40659138255E+02  0.00000000000E+00 0.  1.
         11    1    3    3    0    0  0.72567170007E+01 -0.22029954100E+00 -0.16547544838E+02  0.18070133202E+02  0.51100000000E-03 0. -1.
        -11    1    3    3    0    0 -0.62167685271E+01 -0.85797834680E+01 -0.19552061494E+01  0.10774215824E+02  0.51100000000E-03 0.  1.
        -12    1    3    3    0    0  0.71720150387E+00  0.21325969066E+01 -0.21567469584E+02  0.21684512718E+02  0.00000000000E+00 0.  1.
</event>
<event>
 7    1  0.1024956E-012  0.5052886E+02  0.7816164E-02  0.1300439E+00
        -11   -1    0    0    0    0  0.00000000000E+00  0.00000000000E+00  0.45593999997E+02  0.45594000000E+02  0.51100000000E-03 0. -1.
         11   -1    0    0    0    0 -0.00000000000E+00 -0.00000000000E+00 -0.45593999997E+02  0.45594000000E+02  0.51100000000E-03 0.  1.
    9900012    2    1    2    0    0 -0.33587050409E+02  0.20441075136E+02 -0.10355599894E+02  0.50528856415E+02  0.29999989559E+02 0.  0.
        -12    1    1    2    0    0  0.33587050409E+02 -0.20441075136E+02  0.10355599894E+02  0.40659143585E+02  0.00000000000E+00 0.  1.
         11    1    3    3    0    0 -0.29171053854E+02  0.18621438212E+02  0.10073157181E+01  0.34622579760E+02  0.51100000000E-03 0. -1.
        -11    1    3    3    0    0 -0.32762318199E+01 -0.38821062224E+01 -0.36875192968E+01  0.62771205568E+01  0.51100000000E-03 0.  1.
         12    1    3    3    0    0 -0.11397647352E+01  0.57017431466E+01 -0.76753963155E+01  0.96291560981E+01  0.00000000000E+00 0. -1.
</event>
<event>
 7    1  0.1024956E-012  0.5052887E+02  0.7816164E-02  0.1300439E+00
        -11   -1    0    0    0    0  0.00000000000E+00  0.00000000000E+00  0.45593999997E+02  0.45594000000E+02  0.51100000000E-03 0.  1.
         11   -1    0    0    0    0 -0.00000000000E+00 -0.00000000000E+00 -0.45593999997E+02  0.45594000000E+02  0.51100000000E-03 0. -1.
    9900012    2    1    2    0    0  0.19193921749E+02 -0.87576195503E+00 -0.35832827810E+02  0.50528866464E+02  0.30000020103E+02 0.  0.
        -12    1    1    2    0    0 -0.19193921749E+02  0.87576195503E+00  0.35832827810E+02  0.40659133536E+02  0.00000000000E+00 0.  1.
         11    1    3    3    0    0  0.20211761932E+02 -0.59497842226E+01 -0.23496387301E+02  0.31559395893E+02  0.51100000000E-03 0. -1.
        -11    1    3    3    0    0 -0.72279766175E+00  0.93712293477E+01 -0.10980312724E+02  0.14453706920E+02  0.51100000000E-03 0.  1.
        -12    1    3    3    0    0 -0.29504252092E+00 -0.42972070802E+01 -0.13561277843E+01  0.45157636505E+01  0.00000000000E+00 0.  1.
</event>
<event>
 7    1  0.1024956E-012  0.5052886E+02  0.7816164E-02  0.1300439E+00
        -11   -1    0    0    0    0  0.00000000000E+00  0.00000000000E+00  0.45593999997E+02  0.45594000000E+02  0.51100000000E-03 0.  1.
         11   -1    0    0    0    0 -0.00000000000E+00 -0.00000000000E+00 -0.45593999997E+02  0.45594000000E+02  0.51100000000E-03 0. -1.
    9900012    2    1    2    0    0 -0.39412755647E+02  0.16336559183E+01 -0.98555349990E+01  0.50528859460E+02  0.29999998813E+02 0.  0.
        -12    1    1    2    0    0  0.39412755647E+02 -0.16336559183E+01  0.98555349990E+01  0.40659140540E+02  0.00000000000E+00 0.  1.
         11    1    3    3    0    0 -0.17757059034E+01 -0.35406035838E+01 -0.40743863619E+01  0.56823964733E+01  0.51100000000E-03 0. -1.
        -11    1    3    3    0    0 -0.26485876879E+02  0.11151944793E+02  0.37832234919E+01  0.28985864261E+02  0.51100000000E-03 0.  1.
        -12    1    3    3    0    0 -0.11151172865E+02 -0.59776852906E+01 -0.95643721291E+01  0.15860598725E+02  0.00000000000E+00 0.  1.
</event>
<event>
 7    1  0.1024956E-012  0.5052886E+02  0.7816164E-02  0.1300439E+00
        -11   -1    0    0    0    0  0.00000000000E+00  0.00000000000E+00  0.45593999997E+02  0.45594000000E+02  0.51100000000E-03 0. -1.
         11   -1    0    0    0    0 -0.00000000000E+00 -0.00000000000E+00 -0.45593999997E+02  0.45594000000E+02  0.51100000000E-03 0.  1.
    9900012    2    1    2    0    0  0.17278330611E+02 -0.80843033156E+01  0.35906391045E+02  0.50528860970E+02  0.30000003403E+02 0.  0.
        -12    1    1    2    0    0 -0.17278330611E+02  0.80843033156E+01 -0.35906391045E+02  0.40659139030E+02  0.00000000000E+00 0.  1.
         11    1    3    3    0    0  0.18458865771E+02 -0.54626280063E+01  0.33956515724E+02  0.39033511124E+02  0.51100000000E-03 0. -1.
        -11    1    3    3    0    0 -0.16695151614E+01 -0.68610677379E+01  0.12187016997E+01  0.71656657382E+01  0.51100000000E-03 0.  1.
        -12    1    3    3    0    0  0.48898000159E+00  0.42393924285E+01  0.73117362157E+00  0.43296841074E+01  0.00000000000E+00 0.  1.
</event>
<event>
 7    1  0.1024956E-012  0.5052888E+02  0.7816164E-02  0.1300439E+00
        -11   -1    0    0    0    0  0.00000000000E+00  0.00000000000E+00  0.45593999997E+02  0.45594000000E+02  0.51100000000E-03 0.  1.
         11   -1    0    0    0    0 -0.00000000000E+00 -0.00000000000E+00 -0.45593999997E+02  0.45594000000E+02  0.51100000000E-03 0. -1.
    9900012    2    1    2    0    0  0.36696007113E+02 -0.46609421964E+01 -0.16877289344E+02  0.50528877828E+02  0.30000054647E+02 0.  0.
        -12    1    1    2    0    0 -0.36696007113E+02  0.46609421964E+01  0.16877289344E+02  0.40659122172E+02  0.00000000000E+00 0.  1.
         11    1    3    3    0    0  0.17701955723E+02 -0.14232023984E+02 -0.16050476359E+02  0.27812362983E+02  0.51100000000E-03 0. -1.
        -11    1    3    3    0    0  0.91078771687E+01  0.36688374593E+01  0.34885669910E+01  0.10420359626E+02  0.51100000000E-03 0.  1.
         12    1    3    3    0    0  0.98861742212E+01  0.59022443283E+01 -0.43153799757E+01  0.12296155219E+02  0.00000000000E+00 0. -1.
</event>
<event>
 7    1  0.1024956E-012  0.5052886E+02  0.7816164E-02  0.1300439E+00
        -11   -1    0    0    0    0  0.00000000000E+00  0.00000000000E+00  0.45593999997E+02  0.45594000000E+02  0.51100000000E-03 0.  1.
         11   -1    0    0    0    0 -0.00000000000E+00 -0.00000000000E+00 -0.45593999997E+02  0.45594000000E+02  0.51100000000E-03 0. -1.
    9900012    2    1    2    0    0  0.71664869620E+00 -0.90595758483E+01 -0.39630498786E+02  0.50528856699E+02  0.29999990423E+02 0.  0.
        -12    1    1    2    0    0 -0.71664869620E+00  0.90595758483E+01  0.39630498786E+02  0.40659143301E+02  0.00000000000E+00 0.  1.
         11    1    3    3    0    0 -0.21557291213E+01 -0.55176975459E+01 -0.32817550565E+02  0.33347920169E+02  0.51100000000E-03 0. -1.
        -11    1    3    3    0    0 -0.41572298428E+01  0.28352808621E+01  0.69415921591E+00  0.50796884561E+01  0.51100000000E-03 0.  1.
         12    1    3    3    0    0  0.70296076603E+01 -0.63771591645E+01 -0.75071074369E+01  0.12101248074E+02  0.00000000000E+00 0. -1.
</event>
<event>
 7    1  0.1024956E-012  0.5052886E+02  0.7816164E-02  0.1300439E+00
        -11   -1    0    0    0    0  0.00000000000E+00  0.00000000000E+00  0.45593999997E+02  0.45594000000E+02  0.51100000000E-03 0.  1.
         11   -1    0    0    0    0 -0.00000000000E+00 -0.00000000000E+00 -0.45593999997E+02  0.45594000000E+02  0.51100000000E-03 0. -1.
    9900012    2    1    2    0    0  0.64755193320E+00 -0.80373990900E+00 -0.40646036340E+02  0.50528860910E+02  0.30000003223E+02 0.  0.
        -12    1    1    2    0    0 -0.64755193320E+00  0.80373990900E+00  0.40646036340E+02  0.40659139090E+02  0.00000000000E+00 0.  1.
         11    1    3    3    0    0  0.31940989233E+01 -0.63774205370E+01 -0.18662596071E+02  0.19979145453E+02  0.51100000000E-03 0. -1.
        -11    1    3    3    0    0  0.24942665448E+01  0.98282432314E+01 -0.31860975931E+01  0.10628591099E+02  0.51100000000E-03 0.  1.
        -12    1    3    3    0    0 -0.50408135349E+01 -0.42545626034E+01 -0.18797342676E+02  0.19921124359E+02  0.00000000000E+00 0.  1.
</event>
<event>
 7    1  0.1024956E-012  0.5052886E+02  0.7816164E-02  0.1300439E+00
        -11   -1    0    0    0    0  0.00000000000E+00  0.00000000000E+00  0.45593999997E+02  0.45594000000E+02  0.51100000000E-03 0.  1.
         11   -1    0    0    0    0 -0.00000000000E+00 -0.00000000000E+00 -0.45593999997E+02  0.45594000000E+02  0.51100000000E-03 0. -1.
    9900012    2    1    2    0    0 -0.32436328629E+02 -0.17526130707E+02 -0.17143074354E+02  0.50528859935E+02  0.30000000259E+02 0.  0.
        -12    1    1    2    0    0  0.32436328629E+02  0.17526130707E+02  0.17143074354E+02  0.40659140065E+02  0.00000000000E+00 0.  1.
         11    1    3    3    0    0 -0.22743790239E+02 -0.35574039942E+01 -0.10047147253E+02  0.25117330387E+02  0.51100000000E-03 0. -1.
        -11    1    3    3    0    0 -0.13740415016E+01 -0.13225590635E+02 -0.99263955115E+01  0.16593298822E+02  0.51100000000E-03 0.  1.
        -12    1    3    3    0    0 -0.83184968889E+01 -0.74313607849E+00  0.28304684104E+01  0.88182307264E+01  0.00000000000E+00 0.  1.
</event>
<event>
 7    1  0.1127827E-012  0.5052885E+02  0.7816164E-02  0.1300439E+00
        -11   -1    0    0    0    0  0.00000000000E+00  0.00000000000E+00  0.45593999997E+02  0.45594000000E+02  0.51100000000E-03 0.  1.
         11   -1    0    0    0    0 -0.00000000000E+00 -0.00000000000E+00 -0.45593999997E+02  0.45594000000E+02  0.51100000000E-03 0. -1.
    9900012    2    1    2    0    0 -0.35022057274E+02 -0.17229954731E+02 -0.11390799045E+02  0.50528854182E+02  0.29999982773E+02 0.  0.
        -12    1    1    2    0    0  0.35022057274E+02  0.17229954731E+02  0.11390799045E+02  0.40659145818E+02  0.00000000000E+00 0.  1.
         11    1    3    3    0    0 -0.28309413271E+02 -0.15841480102E+02 -0.65774782232E+01  0.33100431894E+02  0.51100000000E-03 0. -1.
        -11    1    3    3    0    0 -0.44284842569E+01  0.17886182794E+01 -0.99112044380E+01  0.11001936277E+02  0.51100000000E-03 0.  1.
        -12    1    3    3    0    0 -0.22841597465E+01 -0.31770929085E+01  0.50978836158E+01  0.64264860116E+01  0.00000000000E+00 0.  1.
</event>
<event>
 7    1  0.1024956E-012  0.5052886E+02  0.7816164E-02  0.1300439E+00
        -11   -1    0    0    0    0  0.00000000000E+00  0.00000000000E+00  0.45593999997E+02  0.45594000000E+02  0.51100000000E-03 0. -1.
         11   -1    0    0    0    0 -0.00000000000E+00 -0.00000000000E+00 -0.45593999997E+02  0.45594000000E+02  0.51100000000E-03 0.  1.
    9900012    2    1    2    0    0 -0.15174213488E+02 -0.43808132677E+01  0.37466220249E+02  0.50528856630E+02  0.29999990211E+02 0.  0.
        -12    1    1    2    0    0  0.15174213488E+02  0.43808132677E+01 -0.37466220249E+02  0.40659143370E+02  0.00000000000E+00 0.  1.
         11    1    3    3    0    0 -0.12846195376E+01  0.80371484136E+01  0.34145421223E+01  0.88263865848E+01  0.51100000000E-03 0. -1.
        -11    1    3    3    0    0 -0.82639264097E+01 -0.14433678647E+02  0.17676787285E+02  0.24271225103E+02  0.51100000000E-03 0.  1.
        -12    1    3    3    0    0 -0.56256675412E+01  0.20157169657E+01  0.16374890841E+02  0.17431244942E+02  0.00000000000E+00 0.  1.
</event>
<event>
 7    1  0.1024956E-012  0.5052886E+02  0.7816164E-02  0.1300439E+00
        -11   -1    0    0    0    0  0.00000000000E+00  0.00000000000E+00  0.45593999997E+02  0.45594000000E+02  0.51100000000E-03 0. -1.
         11   -1    0    0    0    0 -0.00000000000E+00 -0.00000000000E+00 -0.45593999997E+02  0.45594000000E+02  0.51100000000E-03 0.  1.
    9900012    2    1    2    0    0 -0.13252122271E+02  0.46256977542E+01  0.38159531704E+02  0.50528859770E+02  0.29999999757E+02 0.  0.
        -12    1    1    2    0    0  0.13252122271E+02 -0.46256977542E+01 -0.38159531704E+02  0.40659140230E+02  0.00000000000E+00 0.  1.
         11    1    3    3    0    0 -0.17371262392E+02  0.14133265466E+01  0.24381869124E+02  0.29970548732E+02  0.51100000000E-03 0. -1.
        -11    1    3    3    0    0  0.89579656389E+01  0.83112237086E+00  0.51003404647E+01  0.10341633619E+02  0.51100000000E-03 0.  1.
        -12    1    3    3    0    0 -0.48388255184E+01  0.23812488368E+01  0.86773221146E+01  0.10216677420E+02  0.00000000000E+00 0.  1.
</event>
<event>
 7    1  0.1227925E-012  0.5052886E+02  0.7816164E-02  0.1300439E+00
        -11   -1    0    0    0    0  0.00000000000E+00  0.00000000000E+00  0.45593999997E+02  0.45594000000E+02  0.51100000000E-03 0.  1.
         11   -1    0    0    0    0 -0.00000000000E+00 -0.00000000000E+00 -0.45593999997E+02  0.45594000000E+02  0.51100000000E-03 0. -1.
    9900012    2    1    2    0    0 -0.23035985460E+01  0.39853445682E+02  0.77176576405E+01  0.50528856644E+02  0.29999990256E+02 0.  0.
        -12    1    1    2    0    0  0.23035985460E+01 -0.39853445682E+02 -0.77176576405E+01  0.40659143356E+02  0.00000000000E+00 0.  1.
         11    1    3    3    0    0 -0.10025707152E+02  0.35156431834E+02  0.65985414423E+01  0.37148758426E+02  0.51100000000E-03 0. -1.
        -11    1    3    3    0    0  0.12026444780E+01 -0.18041748784E+01  0.32715448864E+01  0.39248448297E+01  0.51100000000E-03 0.  1.
        -12    1    3    3    0    0  0.65194641284E+01  0.65011887267E+01 -0.21524286882E+01  0.94552533884E+01  0.00000000000E+00 0.  1.
</event>
<event>
 7    1  0.1024956E-012  0.5052886E+02  0.7816164E-02  0.1300439E+00
        -11   -1    0    0    0    0  0.00000000000E+00  0.00000000000E+00  0.45593999997E+02  0.45594000000E+02  0.51100000000E-03 0.  1.
         11   -1    0    0    0    0 -0.00000000000E+00 -0.00000000000E+00 -0.45593999997E+02  0.45594000000E+02  0.51100000000E-03 0. -1.
    9900012    2    1    2    0    0  0.15319406358E+02 -0.13511221001E+02 -0.35155768703E+02  0.50528863546E+02  0.30000011234E+02 0.  0.
        -12    1    1    2    0    0 -0.15319406358E+02  0.13511221001E+02  0.35155768703E+02  0.40659136454E+02  0.00000000000E+00 0.  1.
         11    1    3    3    0    0  0.14985042532E+02  0.25334576335E+00 -0.24881704595E+02  0.29046771035E+02  0.51100000000E-03 0. -1.
        -11    1    3    3    0    0 -0.13477620721E+01 -0.13015417922E+02 -0.22843336916E+01  0.13282911841E+02  0.51100000000E-03 0.  1.
        -12    1    3    3    0    0  0.16821258983E+01 -0.74914884164E+00 -0.79897304169E+01  0.81991806700E+01  0.00000000000E+00 0.  1.
</event>
<event>
 7    1  0.1024956E-012  0.5052886E+02  0.7816164E-02  0.1300439E+00
        -11   -1    0    0    0    0  0.00000000000E+00  0.00000000000E+00  0.45593999997E+02  0.45594000000E+02  0.51100000000E-03 0.  1.
         11   -1    0    0    0    0 -0.00000000000E+00 -0.00000000000E+00 -0.45593999997E+02  0.45594000000E+02  0.51100000000E-03 0. -1.
    9900012    2    1    2    0    0 -0.36771593247E+02 -0.88423813443E+01 -0.14927420051E+02  0.50528860226E+02  0.30000001144E+02 0.  0.
        -12    1    1    2    0    0  0.36771593247E+02  0.88423813443E+01  0.14927420051E+02  0.40659139774E+02  0.00000000000E+00 0.  1.
         11    1    3    3    0    0 -0.20019824424E+02  0.76408193984E+01 -0.14855814395E+02  0.26074330531E+02  0.51100000000E-03 0. -1.
        -11    1    3    3    0    0 -0.12147542405E+02 -0.81343012871E+01  0.18263985453E+01  0.14733138695E+02  0.51100000000E-03 0.  1.
         12    1    3    3    0    0 -0.46042264179E+01 -0.83488994557E+01 -0.18980042022E+01  0.97213910002E+01  0.00000000000E+00 0. -1.
</event>
<event>
 7    1  0.1024956E-012  0.5052887E+02  0.7816164E-02  0.1300439E+00
        -11   -1    0    0    0    0  0.00000000000E+00  0.00000000000E+00  0.45593999997E+02  0.45594000000E+02  0.51100000000E-03 0. -1.
         11   -1    0    0    0    0 -0.00000000000E+00 -0.00000000000E+00 -0.45593999997E+02  0.45594000000E+02  0.51100000000E-03 0.  1.
    9900012    2    1    2    0    0  0.14505069296E+02 -0.13972356563E+02  0.35320547595E+02  0.50528869837E+02  0.30000030355E+02 0.  0.
        -12    1    1    2    0    0 -0.14505069296E+02  0.13972356563E+02 -0.35320547595E+02  0.40659130163E+02  0.00000000000E+00 0.  1.
         11    1    3    3    0    0  0.14796395413E+02  0.72783282967E+00  0.65229568947E+01  0.16186785498E+02  0.51100000000E-03 0. -1.
        -11    1    3    3    0    0 -0.58472228409E+01 -0.62373452263E+01  0.12111356235E+02  0.14824960052E+02  0.51100000000E-03 0.  1.
         12    1    3    3    0    0  0.55558967241E+01 -0.84628441666E+01  0.16686234466E+02  0.19517124287E+02  0.00000000000E+00 0. -1.
</event>
<event>
 7    1  0.1024956E-012  0.5052886E+02  0.7816164E-02  0.1300439E+00
        -11   -1    0    0    0    0  0.00000000000E+00  0.00000000000E+00  0.45593999997E+02  0.45594000000E+02  0.51100000000E-03 0.  1.
         11   -1    0    0    0    0 -0.00000000000E+00 -0.00000000000E+00 -0.45593999997E+02  0.45594000000E+02  0.51100000000E-03 0. -1.
    9900012    2    1    2    0    0  0.35150101664E+02  0.18535996060E+02 -0.86054065188E+01  0.50528858122E+02  0.29999994747E+02 0.  0.
        -12    1    1    2    0    0 -0.35150101664E+02 -0.18535996060E+02  0.86054065188E+01  0.40659141878E+02  0.00000000000E+00 0.  1.
         11    1    3    3    0    0  0.86854965665E+01  0.14025872217E+02  0.20240437438E+01  0.16621061801E+02  0.51100000000E-03 0. -1.
        -11    1    3    3    0    0  0.23195613417E+02 -0.22035003189E+01 -0.12164650970E+02  0.26284417987E+02  0.51100000000E-03 0.  1.
        -12    1    3    3    0    0  0.32689916804E+01  0.67136241623E+01  0.15352007078E+01  0.76233783333E+01  0.00000000000E+00 0.  1.
</event>
<event>
 7    1  0.1024956E-012  0.5052879E+02  0.7816164E-02  0.1300439E+00
        -11   -1    0    0    0    0  0.00000000000E+00  0.00000000000E+00  0.45593999997E+02  0.45594000000E+02  0.51100000000E-03 0.  1.
         11   -1    0    0    0    0 -0.00000000000E+00 -0.00000000000E+00 -0.45593999997E+02  0.45594000000E+02  0.51100000000E-03 0. -1.
    9900012    2    1    2    0    0  0.24549852045E+02  0.75792459836E+01 -0.31512402719E+02  0.50528785420E+02  0.29999773762E+02 0.  0.
        -12    1    1    2    0    0 -0.24549852045E+02 -0.75792459836E+01  0.31512402719E+02  0.40659214580E+02  0.00000000000E+00 0.  1.
         11    1    3    3    0    0  0.76277373522E+01 -0.22283601798E+00 -0.46246126030E+01  0.89229521457E+01  0.51100000000E-03 0. -1.
        -11    1    3    3    0    0  0.56348955562E+01 -0.28045432218E+00 -0.27140652991E+02  0.27720854020E+02  0.51100000000E-03 0.  1.
        -12    1    3    3    0    0  0.11287219137E+02  0.80825363238E+01  0.25286287449E+00  0.13884979255E+02  0.00000000000E+00 0.  1.
</event>
<event>
 7    1  0.1024956E-012  0.5052886E+02  0.7816164E-02  0.1300439E+00
        -11   -1    0    0    0    0  0.00000000000E+00  0.00000000000E+00  0.45593999997E+02  0.45594000000E+02  0.51100000000E-03 0.  1.
         11   -1    0    0    0    0 -0.00000000000E+00 -0.00000000000E+00 -0.45593999997E+02  0.45594000000E+02  0.51100000000E-03 0. -1.
    9900012    2    1    2    0    0  0.72989166337E+01  0.10768618030E+02 -0.38521788152E+02  0.50528862273E+02  0.30000007365E+02 0.  0.
        -12    1    1    2    0    0 -0.72989166337E+01 -0.10768618030E+02  0.38521788152E+02  0.40659137727E+02  0.00000000000E+00 0.  1.
         11    1    3    3    0    0 -0.12608505858E+01  0.38622316251E+01 -0.14630677708E+02  0.15184311238E+02  0.51100000000E-03 0. -1.
        -11    1    3    3    0    0  0.16075243022E+02  0.87202287964E+01 -0.16036793908E+02  0.24323539783E+02  0.51100000000E-03 0.  1.
        -12    1    3    3    0    0 -0.75154758023E+01 -0.18138423916E+01 -0.78543165359E+01  0.11021011251E+02  0.00000000000E+00 0.  1.
</event>
<event>
 7    1  0.1024956E-012  0.5052884E+02  0.7816164E-02  0.1300439E+00
        -11   -1    0    0    0    0  0.00000000000E+00  0.00000000000E+00  0.45593999997E+02  0.45594000000E+02  0.51100000000E-03 0.  1.
         11   -1    0    0    0    0 -0.00000000000E+00 -0.00000000000E+00 -0.45593999997E+02  0.45594000000E+02  0.51100000000E-03 0. -1.
    9900012    2    1    2    0    0 -0.84861668756E+01 -0.36404161334E+02 -0.15996530903E+02  0.50528843693E+02  0.29999950890E+02 0.  0.
        -12    1    1    2    0    0  0.84861668756E+01  0.36404161334E+02  0.15996530903E+02  0.40659156307E+02  0.00000000000E+00 0.  1.
         11    1    3    3    0    0 -0.10559808210E+02 -0.87689712682E+01 -0.12876540178E+02  0.18820459445E+02  0.51100000000E-03 0. -1.
        -11    1    3    3    0    0  0.56797730461E+01 -0.36464168489E+01  0.17351249579E+01  0.69689910727E+01  0.51100000000E-03 0.  1.
         12    1    3    3    0    0 -0.36061317121E+01 -0.23988773217E+02 -0.48551156828E+01  0.24739393175E+02  0.00000000000E+00 0. -1.
</event>
<event>
 7    1  0.1024956E-012  0.5052886E+02  0.7816164E-02  0.1300439E+00
        -11   -1    0    0    0    0  0.00000000000E+00  0.00000000000E+00  0.45593999997E+02  0.45594000000E+02  0.51100000000E-03 0. -1.
         11   -1    0    0    0    0 -0.00000000000E+00 -0.00000000000E+00 -0.45593999997E+02  0.45594000000E+02  0.51100000000E-03 0.  1.
    9900012    2    1    2    0    0 -0.20243457159E+02  0.20745944418E+02  0.28512694631E+02  0.50528861758E+02  0.30000005798E+02 0.  0.
        -12    1    1    2    0    0  0.20243457159E+02 -0.20745944418E+02 -0.28512694631E+02  0.40659138242E+02  0.00000000000E+00 0.  1.
         11    1    3    3    0    0  0.81731486295E+00  0.21060989098E+01  0.11058969011E+02  0.11287358063E+02  0.51100000000E-03 0. -1.
        -11    1    3    3    0    0 -0.14570405737E+02  0.39925964468E+01 -0.58077681964E+00  0.15118692129E+02  0.51100000000E-03 0.  1.
        -12    1    3    3    0    0 -0.64903662847E+01  0.14647249061E+02  0.18034502439E+02  0.24122811565E+02  0.00000000000E+00 0.  1.
</event>
<event>
 7    1  0.1024956E-012  0.5052886E+02  0.7816164E-02  0.1300439E+00
        -11   -1    0    0    0    0  0.00000000000E+00  0.00000000000E+00  0.45593999997E+02  0.45594000000E+02  0.51100000000E-03 0.  1.
         11   -1    0    0    0    0 -0.00000000000E+00 -0.00000000000E+00 -0.45593999997E+02  0.45594000000E+02  0.51100000000E-03 0. -1.
    9900012    2    1    2    0    0  0.50924863430E+01  0.19958995229E+02 -0.35055258008E+02  0.50528855620E+02  0.29999987142E+02 0.  0.
        -12    1    1    2    0    0 -0.50924863430E+01 -0.19958995229E+02  0.35055258008E+02  0.40659144380E+02  0.00000000000E+00 0.  1.
         11    1    3    3    0    0  0.57869903252E+01  0.18116392842E+02 -0.38571439268E+02  0.43005219149E+02  0.51100000000E-03 0. -1.
        -11    1    3    3    0    0 -0.88633207622E+00 -0.22313098346E+01  0.50343879134E+00  0.24531161825E+01  0.51100000000E-03 0.  1.
         12    1    3    3    0    0  0.19182809398E+00  0.40739122218E+01  0.30127424687E+01  0.50705202880E+01  0.00000000000E+00 0. -1.
</event>
<event>
 7    1  0.1024956E-012  0.5052891E+02  0.7816164E-02  0.1300439E+00
        -11   -1    0    0    0    0  0.00000000000E+00  0.00000000000E+00  0.45593999997E+02  0.45594000000E+02  0.51100000000E-03 0.  1.
         11   -1    0    0    0    0 -0.00000000000E+00 -0.00000000000E+00 -0.45593999997E+02  0.45594000000E+02  0.51100000000E-03 0. -1.
    9900012    2    1    2    0    0 -0.23557899836E+02  0.32034819533E+02 -0.84827530673E+01  0.50528912372E+02  0.30000159644E+02 0.  0.
        -12    1    1    2    0    0  0.23557899836E+02 -0.32034819533E+02  0.84827530673E+01  0.40659087628E+02  0.00000000000E+00 0.  1.
         11    1    3    3    0    0 -0.13416496204E+02  0.23765586195E+02 -0.72536122140E+01  0.28238632191E+02  0.51100000000E-03 0. -1.
        -11    1    3    3    0    0  0.31608422526E+01 -0.21527090911E+01 -0.35682547147E+01  0.52304418692E+01  0.51100000000E-03 0.  1.
         12    1    3    3    0    0 -0.13302245885E+02  0.10421942429E+02  0.23391138614E+01  0.17059838312E+02  0.00000000000E+00 0. -1.
</event>
<event>
 7    1  0.1024956E-012  0.5052886E+02  0.7816164E-02  0.1300439E+00
        -11   -1    0    0    0    0  0.00000000000E+00  0.00000000000E+00  0.45593999997E+02  0.45594000000E+02  0.51100000000E-03 0.  1.
         11   -1    0    0    0    0 -0.00000000000E+00 -0.00000000000E+00 -0.45593999997E+02  0.45594000000E+02  0.51100000000E-03 0. -1.
    9900012    2    1    2    0    0 -0.37273416725E+02 -0.32511211372E+01 -0.15915028991E+02  0.50528861657E+02  0.30000005494E+02 0.  0.
        -12    1    1    2    0    0  0.37273416725E+02  0.32511211372E+01  0.15915028991E+02  0.40659138343E+02  0.00000000000E+00 0.  1.
         11    1    3    3    0    0 -0.79715837256E+01  0.56082546766E+01 -0.10129118315E+02  0.14056945106E+02  0.51100000000E-03 0. -1.
        -11    1    3    3    0    0 -0.28261103283E+02 -0.13300354768E+02 -0.63577451050E+01  0.31874916766E+02  0.51100000000E-03 0.  1.
        -12    1    3    3    0    0 -0.10407297157E+01  0.44409789542E+01  0.57183442931E+00  0.45969997854E+01  0.00000000000E+00 0.  1.
</event>
<event>
 7    1  0.1024956E-012  0.5052886E+02  0.7816164E-02  0.1300439E+00
        -11   -1    0    0    0    0  0.00000000000E+00  0.00000000000E+00  0.45593999997E+02  0.45594000000E+02  0.51100000000E-03 0.  1.
         11   -1    0    0    0    0 -0.00000000000E+00 -0.00000000000E+00 -0.45593999997E+02  0.45594000000E+02  0.51100000000E-03 0. -1.
    9900012    2    1    2    0    0 -0.56646309121E+01  0.98415116601E+01 -0.39041292793E+02  0.50528856648E+02  0.29999990268E+02 0.  0.
        -12    1    1    2    0    0  0.56646309121E+01 -0.98415116601E+01  0.39041292793E+02  0.40659143352E+02  0.00000000000E+00 0.  1.
         11    1    3    3    0    0 -0.96773841248E+00  0.12763359449E+02 -0.29423976820E+02  0.32087540794E+02  0.51100000000E-03 0. -1.
        -11    1    3    3    0    0  0.42558799384E+00  0.20998864617E+01  0.31424528898E+01  0.38033746487E+01  0.51100000000E-03 0.  1.
        -12    1    3    3    0    0 -0.51224804934E+01 -0.50217342505E+01 -0.12759768863E+02  0.14637941205E+02  0.00000000000E+00 0.  1.
</event>
<event>
 7    1  0.1024956E-012  0.5052887E+02  0.7816164E-02  0.1300439E+00
        -11   -1    0    0    0    0  0.00000000000E+00  0.00000000000E+00  0.45593999997E+02  0.45594000000E+02  0.51100000000E-03 0. -1.
         11   -1    0    0    0    0 -0.00000000000E+00 -0.00000000000E+00 -0.45593999997E+02  0.45594000000E+02  0.51100000000E-03 0.  1.
    9900012    2    1    2    0    0  0.35510200100E+01  0.33574307760E+02  0.22656584307E+02  0.50528871909E+02  0.30000036654E+02 0.  0.
        -12    1    1    2    0    0 -0.35510200100E+01 -0.33574307760E+02 -0.22656584307E+02  0.40659128091E+02  0.00000000000E+00 0.  1.
         11    1    3    3    0    0  0.12121132149E+02  0.10984374585E+02  0.19907309231E+02  0.25765855132E+02  0.51100000000E-03 0. -1.
        -11    1    3    3    0    0 -0.80971961512E+01  0.15555102858E+02  0.24418997098E+01  0.17705611678E+02  0.51100000000E-03 0.  1.
         12    1    3    3    0    0 -0.47291598785E+00  0.70348303164E+01  0.30737536608E+00  0.70574050988E+01  0.00000000000E+00 0. -1.
</event>
<event>
 7    1  0.1024956E-012  0.5052885E+02  0.7816164E-02  0.1300439E+00
        -11   -1    0    0    0    0  0.00000000000E+00  0.00000000000E+00  0.45593999997E+02  0.45594000000E+02  0.51100000000E-03 0.  1.
         11   -1    0    0    0    0 -0.00000000000E+00 -0.00000000000E+00 -0.45593999997E+02  0.45594000000E+02  0.51100000000E-03 0. -1.
    9900012    2    1    2    0    0  0.35436198473E+01 -0.26398115651E+02 -0.30720495480E+02  0.50528848581E+02  0.29999965748E+02 0.  0.
        -12    1    1    2    0    0 -0.35436198473E+01  0.26398115651E+02  0.30720495480E+02  0.40659151419E+02  0.00000000000E+00 0.  1.
         11    1    3    3    0    0  0.13245153710E+02 -0.21253230158E+02 -0.13549689117E+02  0.28473285100E+02  0.51100000000E-03 0. -1.
        -11    1    3    3    0    0 -0.41523472724E+01  0.15033935881E+01 -0.26548140480E+01  0.51526903694E+01  0.51100000000E-03 0.  1.
         12    1    3    3    0    0 -0.55491865904E+01 -0.66482790816E+01 -0.14515992315E+02  0.16902873112E+02  0.00000000000E+00 0. -1.
</event>
<event>
 7    1  0.1024956E-012  0.5052886E+02  0.7816164E-02  0.1300439E+00
        -11   -1    0    0    0    0  0.00000000000E+00  0.00000000000E+00  0.45593999997E+02  0.45594000000E+02  0.51100000000E-03 0. -1.
         11   -1    0    0    0    0 -0.00000000000E+00 -0.00000000000E+00 -0.45593999997E+02  0.45594000000E+02  0.51100000000E-03 0.  1.
    9900012    2    1    2    0    0 -0.13515206484E+02  0.38123266991E+02 -0.41378094168E+01  0.50528858849E+02  0.29999996957E+02 0.  0.
        -12    1    1    2    0    0  0.13515206484E+02 -0.38123266991E+02  0.41378094168E+01  0.40659141151E+02  0.00000000000E+00 0.  1.
         11    1    3    3    0    0 -0.16064611007E+02  0.31775642886E+02  0.17152638781E+01  0.35646954120E+02  0.51100000000E-03 0. -1.
        -11    1    3    3    0    0  0.38914794498E+01  0.80991919301E+01 -0.78305959082E+01  0.11918840328E+02  0.51100000000E-03 0.  1.
         12    1    3    3    0    0 -0.13420749268E+01 -0.17515678252E+01  0.19775226133E+01  0.29630644005E+01  0.00000000000E+00 0. -1.
</event>
<event>
 7    1  0.1024956E-012  0.5052888E+02  0.7816164E-02  0.1300439E+00
        -11   -1    0    0    0    0  0.00000000000E+00  0.00000000000E+00  0.45593999997E+02  0.45594000000E+02  0.51100000000E-03 0. -1.
         11   -1    0    0    0    0 -0.00000000000E+00 -0.00000000000E+00 -0.45593999997E+02  0.45594000000E+02  0.51100000000E-03 0.  1.
    9900012    2    1    2    0    0  0.27718455324E+02  0.29522139248E+02 -0.36461644768E+01  0.50528880645E+02  0.30000063209E+02 0.  0.
        -12    1    1    2    0    0 -0.27718455324E+02 -0.29522139248E+02  0.36461644768E+01  0.40659119355E+02  0.00000000000E+00 0.  1.
         11    1    3    3    0    0  0.30076781479E+01  0.73314068124E+01  0.57340171539E+00  0.79450892681E+01  0.51100000000E-03 0. -1.
        -11    1    3    3    0    0  0.92507997036E+01  0.99211556721E+00  0.92254068429E+01  0.13102279196E+02  0.51100000000E-03 0.  1.
        -12    1    3    3    0    0  0.15459977473E+02  0.21198616868E+02 -0.13444973035E+02  0.29481512181E+02  0.00000000000E+00 0.  1.
</event>
<event>
 7    1  0.1024956E-012  0.5052888E+02  0.7816164E-02  0.1300439E+00
        -11   -1    0    0    0    0  0.00000000000E+00  0.00000000000E+00  0.45593999997E+02  0.45594000000E+02  0.51100000000E-03 0.  1.
         11   -1    0    0    0    0 -0.00000000000E+00 -0.00000000000E+00 -0.45593999997E+02  0.45594000000E+02  0.51100000000E-03 0. -1.
    9900012    2    1    2    0    0  0.80190252463E+01  0.11938480932E+02 -0.38030670432E+02  0.50528880650E+02  0.30000063222E+02 0.  0.
        -12    1    1    2    0    0 -0.80190252463E+01 -0.11938480932E+02  0.38030670432E+02  0.40659119350E+02  0.00000000000E+00 0.  1.
         11    1    3    3    0    0  0.45566210979E+01  0.78041892785E+01 -0.14694051639E+02  0.17250603466E+02  0.51100000000E-03 0. -1.
        -11    1    3    3    0    0  0.56754304874E+01 -0.78906004264E+01 -0.16812058963E+02  0.19419511145E+02  0.51100000000E-03 0.  1.
        -12    1    3    3    0    0 -0.22130263390E+01  0.12024892080E+02 -0.65245598307E+01  0.13858766038E+02  0.00000000000E+00 0.  1.
</event>
<event>
 7    1  0.1024956E-012  0.5052886E+02  0.7816164E-02  0.1300439E+00
        -11   -1    0    0    0    0  0.00000000000E+00  0.00000000000E+00  0.45593999997E+02  0.45594000000E+02  0.51100000000E-03 0.  1.
         11   -1    0    0    0    0 -0.00000000000E+00 -0.00000000000E+00 -0.45593999997E+02  0.45594000000E+02  0.51100000000E-03 0. -1.
    9900012    2    1    2    0    0  0.11409362300E+02 -0.25348384793E+01 -0.38943121597E+02  0.50528859897E+02  0.30000000143E+02 0.  0.
        -12    1    1    2    0    0 -0.11409362300E+02  0.25348384793E+01  0.38943121597E+02  0.40659140103E+02  0.00000000000E+00 0.  1.
         11    1    3    3    0    0  0.17172309593E+02 -0.74262544439E+01 -0.25966504929E+02  0.32004637950E+02  0.51100000000E-03 0. -1.
        -11    1    3    3    0    0 -0.66564467762E+00 -0.15394220095E+01  0.12560559802E+01  0.20953710523E+01  0.51100000000E-03 0.  1.
         12    1    3    3    0    0 -0.50973026155E+01  0.64308379742E+01 -0.14232672648E+02  0.16428850895E+02  0.00000000000E+00 0. -1.
</event>
<event>
 7    1  0.1024956E-012  0.5052885E+02  0.7816164E-02  0.1300439E+00
        -11   -1    0    0    0    0  0.00000000000E+00  0.00000000000E+00  0.45593999997E+02  0.45594000000E+02  0.51100000000E-03 0.  1.
         11   -1    0    0    0    0 -0.00000000000E+00 -0.00000000000E+00 -0.45593999997E+02  0.45594000000E+02  0.51100000000E-03 0. -1.
    9900012    2    1    2    0    0  0.18547035412E+02  0.27156884668E+02  0.23909778590E+02  0.50528850726E+02  0.29999972267E+02 0.  0.
        -12    1    1    2    0    0 -0.18547035412E+02 -0.27156884668E+02 -0.23909778590E+02  0.40659149274E+02  0.00000000000E+00 0.  1.
         11    1    3    3    0    0  0.20845759594E+02  0.13128382368E+02  0.19626705737E+02  0.31497741109E+02  0.51100000000E-03 0. -1.
        -11    1    3    3    0    0 -0.14983074857E+01 -0.19436467065E+01 -0.76612059744E-01  0.24553121004E+01  0.51100000000E-03 0.  1.
         12    1    3    3    0    0 -0.80041669547E+00  0.15972149006E+02  0.43596849133E+01  0.16575797517E+02  0.00000000000E+00 0. -1.
</event>
<event>
 7    1  0.1024956E-012  0.5052887E+02  0.7816164E-02  0.1300439E+00
        -11   -1    0    0    0    0  0.00000000000E+00  0.00000000000E+00  0.45593999997E+02  0.45594000000E+02  0.51100000000E-03 0.  1.
         11   -1    0    0    0    0 -0.00000000000E+00 -0.00000000000E+00 -0.45593999997E+02  0.45594000000E+02  0.51100000000E-03 0. -1.
    9900012    2    1    2    0    0 -0.31418623729E+02 -0.82007235042E+01 -0.24470044816E+02  0.50528869706E+02  0.30000029958E+02 0.  0.
        -12    1    1    2    0    0  0.31418623729E+02  0.82007235042E+01  0.24470044816E+02  0.40659130294E+02  0.00000000000E+00 0.  1.
         11    1    3    3    0    0 -0.20909841756E+02  0.33853194008E+01 -0.21072051606E+02  0.29878306994E+02  0.51100000000E-03 0. -1.
        -11    1    3    3    0    0 -0.13300053512E+02 -0.11483092387E+02 -0.27812670251E+01  0.17790117501E+02  0.51100000000E-03 0.  1.
        -12    1    3    3    0    0  0.27912715390E+01 -0.10295051830E+00 -0.61672618420E+00  0.28604452101E+01  0.00000000000E+00 0.  1.
</event>
<event>
 7    1  0.1024956E-012  0.5052887E+02  0.7816164E-02  0.1300439E+00
        -11   -1    0    0    0    0  0.00000000000E+00  0.00000000000E+00  0.45593999997E+02  0.45594000000E+02  0.51100000000E-03 0. -1.
         11   -1    0    0    0    0 -0.00000000000E+00 -0.00000000000E+00 -0.45593999997E+02  0.45594000000E+02  0.51100000000E-03 0.  1.
    9900012    2    1    2    0    0  0.21379131990E+02 -0.33370134961E+02  0.90847070463E+01  0.50528867028E+02  0.30000021818E+02 0.  0.
        -12    1    1    2    0    0 -0.21379131990E+02  0.33370134961E+02 -0.90847070463E+01  0.40659132972E+02  0.00000000000E+00 0.  1.
         11    1    3    3    0    0 -0.22281851090E+01 -0.31484714828E+01  0.86358279348E+01  0.94580762282E+01  0.51100000000E-03 0. -1.
        -11    1    3    3    0    0  0.22279631547E+02 -0.19293169600E+02 -0.27672191964E+01  0.29601788416E+02  0.51100000000E-03 0.  1.
        -12    1    3    3    0    0  0.13276855522E+01 -0.10928493877E+02  0.32160983079E+01  0.11469002384E+02  0.00000000000E+00 0.  1.
</event>
<event>
 7    1  0.1024956E-012  0.5052886E+02  0.7816164E-02  0.1300439E+00
        -11   -1    0    0    0    0  0.00000000000E+00  0.00000000000E+00  0.45593999997E+02  0.45594000000E+02  0.51100000000E-03 0.  1.
         11   -1    0    0    0    0 -0.00000000000E+00 -0.00000000000E+00 -0.45593999997E+02  0.45594000000E+02  0.51100000000E-03 0. -1.
    9900012    2    1    2    0    0 -0.33007907056E+01 -0.35815225583E+02  0.18961532499E+02  0.50528864279E+02  0.30000013463E+02 0.  0.
        -12    1    1    2    0    0  0.33007907056E+01  0.35815225583E+02 -0.18961532499E+02  0.40659135721E+02  0.00000000000E+00 0.  1.
         11    1    3    3    0    0  0.47010995626E+01 -0.25415128214E+02 -0.90457370806E+00  0.25862082922E+02  0.51100000000E-03 0. -1.
        -11    1    3    3    0    0 -0.56931790583E+01 -0.10833295138E+02  0.17257580073E+02  0.21156479896E+02  0.51100000000E-03 0.  1.
        -12    1    3    3    0    0 -0.23087112099E+01  0.43319776922E+00  0.26085261335E+01  0.35103014610E+01  0.00000000000E+00 0.  1.
</event>
<event>
 7    1  0.1283162E-012  0.5052887E+02  0.7816164E-02  0.1300439E+00
        -11   -1    0    0    0    0  0.00000000000E+00  0.00000000000E+00  0.45593999997E+02  0.45594000000E+02  0.51100000000E-03 0. -1.
         11   -1    0    0    0    0 -0.00000000000E+00 -0.00000000000E+00 -0.45593999997E+02  0.45594000000E+02  0.51100000000E-03 0.  1.
    9900012    2    1    2    0    0  0.12312795892E+02 -0.34277310975E+02  0.18072792704E+02  0.50528870318E+02  0.30000031819E+02 0.  0.
        -12    1    1    2    0    0 -0.12312795892E+02  0.34277310975E+02 -0.18072792704E+02  0.40659129682E+02  0.00000000000E+00 0.  1.
         11    1    3    3    0    0  0.87705249944E+01 -0.16107746490E+02  0.15269902078E+02  0.23865278448E+02  0.51100000000E-03 0. -1.
        -11    1    3    3    0    0 -0.73217246755E+01 -0.40434694897E+01 -0.10546631027E+01  0.84302794888E+01  0.51100000000E-03 0.  1.
        -12    1    3    3    0    0  0.10863995573E+02 -0.14126094996E+02  0.38575537293E+01  0.18233312382E+02  0.00000000000E+00 0.  1.
</event>
<event>
 7    1  0.1024956E-012  0.5052885E+02  0.7816164E-02  0.1300439E+00
        -11   -1    0    0    0    0  0.00000000000E+00  0.00000000000E+00  0.45593999997E+02  0.45594000000E+02  0.51100000000E-03 0. -1.
         11   -1    0    0    0    0 -0.00000000000E+00 -0.00000000000E+00 -0.45593999997E+02  0.45594000000E+02  0.51100000000E-03 0.  1.
    9900012    2    1    2    0    0 -0.35874554279E+02  0.93899398837E+01  0.16673681034E+02  0.50528852752E+02  0.29999978424E+02 0.  0.
        -12    1    1    2    0    0  0.35874554279E+02 -0.93899398837E+01 -0.16673681034E+02  0.40659147248E+02  0.00000000000E+00 0.  1.
         11    1    3    3    0    0 -0.98300676235E+01  0.14310541923E+02 -0.22228168364E+00  0.17362927432E+02  0.51100000000E-03 0. -1.
        -11    1    3    3    0    0 -0.12404959715E+02 -0.56617464344E+01  0.13283797351E+02  0.19036745272E+02  0.51100000000E-03 0.  1.
         12    1    3    3    0    0 -0.13639526941E+02  0.74114439524E+00  0.36121653667E+01  0.14129180048E+02  0.00000000000E+00 0. -1.
</event>
<event>
 7    1  0.1024956E-012  0.5052885E+02  0.7816164E-02  0.1300439E+00
        -11   -1    0    0    0    0  0.00000000000E+00  0.00000000000E+00  0.45593999997E+02  0.45594000000E+02  0.51100000000E-03 0. -1.
         11   -1    0    0    0    0 -0.00000000000E+00 -0.00000000000E+00 -0.45593999997E+02  0.45594000000E+02  0.51100000000E-03 0.  1.
    9900012    2    1    2    0    0  0.61439994722E+01  0.23309079974E+02  0.32743002127E+02  0.50528854325E+02  0.29999983206E+02 0.  0.
        -12    1    1    2    0    0 -0.61439994722E+01 -0.23309079974E+02 -0.32743002127E+02  0.40659145675E+02  0.00000000000E+00 0.  1.
         11    1    3    3    0    0  0.13420773862E+01  0.41868105171E+01  0.27548846466E+02  0.27897481892E+02  0.51100000000E-03 0. -1.
        -11    1    3    3    0    0  0.29008171877E+01  0.14772713398E+02 -0.69069765472E+00  0.15070662394E+02  0.51100000000E-03 0.  1.
        -12    1    3    3    0    0  0.19011048984E+01  0.43495560593E+01  0.58848533151E+01  0.75607100386E+01  0.00000000000E+00 0.  1.
</event>
<event>
 7    1  0.1024956E-012  0.5052887E+02  0.7816164E-02  0.1300439E+00
        -11   -1    0    0    0    0  0.00000000000E+00  0.00000000000E+00  0.45593999997E+02  0.45594000000E+02  0.51100000000E-03 0.  1.
         11   -1    0    0    0    0 -0.00000000000E+00 -0.00000000000E+00 -0.45593999997E+02  0.45594000000E+02  0.51100000000E-03 0. -1.
    9900012    2    1    2    0    0  0.72537996696E+01  0.17585784040E+02 -0.35934491619E+02  0.50528866981E+02  0.30000021676E+02 0.  0.
        -12    1    1    2    0    0 -0.72537996696E+01 -0.17585784040E+02  0.35934491619E+02  0.40659133019E+02  0.00000000000E+00 0.  1.
         11    1    3    3    0    0  0.81053861951E+00  0.47904340144E+00  0.26928804692E+01  0.28527286791E+01  0.51100000000E-03 0.  1.
        -11    1    3    3    0    0  0.13002549576E+02  0.16936323340E+02 -0.28558440009E+02  0.35657956192E+02  0.51100000000E-03 0. -1.
         12    1    3    3    0    0 -0.65592885262E+01  0.17041729873E+00 -0.10068932079E+02  0.12018182110E+02  0.00000000000E+00 0. -1.
</event>
<event>
 7    1  0.1024956E-012  0.5052886E+02  0.7816164E-02  0.1300439E+00
        -11   -1    0    0    0    0  0.00000000000E+00  0.00000000000E+00  0.45593999997E+02  0.45594000000E+02  0.51100000000E-03 0.  1.
         11   -1    0    0    0    0 -0.00000000000E+00 -0.00000000000E+00 -0.45593999997E+02  0.45594000000E+02  0.51100000000E-03 0. -1.
    9900012    2    1    2    0    0  0.36161742605E+02  0.13745477462E+02  0.12512241749E+02  0.50528856225E+02  0.29999988983E+02 0.  0.
        -12    1    1    2    0    0 -0.36161742605E+02 -0.13745477462E+02 -0.12512241749E+02  0.40659143775E+02  0.00000000000E+00 0.  1.
         11    1    3    3    0    0  0.13313205384E+02  0.50841367091E+01  0.18176004336E+02  0.23096688455E+02  0.51100000000E-03 0.  1.
        -11    1    3    3    0    0  0.99560989284E+01  0.52764646693E+01 -0.81063368338E+01  0.13880838678E+02  0.51100000000E-03 0. -1.
         12    1    3    3    0    0  0.12892438293E+02  0.33848760831E+01  0.24425742466E+01  0.13551329093E+02  0.00000000000E+00 0. -1.
</event>
<event>
 7    1  0.1024956E-012  0.5052886E+02  0.7816164E-02  0.1300439E+00
        -11   -1    0    0    0    0  0.00000000000E+00  0.00000000000E+00  0.45593999997E+02  0.45594000000E+02  0.51100000000E-03 0.  1.
         11   -1    0    0    0    0 -0.00000000000E+00 -0.00000000000E+00 -0.45593999997E+02  0.45594000000E+02  0.51100000000E-03 0. -1.
    9900012    2    1    2    0    0  0.89060917669E+01  0.17578022615E+00 -0.39671354053E+02  0.50528859556E+02  0.29999999107E+02 0.  0.
        -12    1    1    2    0    0 -0.89060917669E+01 -0.17578022615E+00  0.39671354053E+02  0.40659140444E+02  0.00000000000E+00 0.  1.
         11    1    3    3    0    0  0.55552482490E+01 -0.14008959525E+02 -0.25687248394E+02  0.29781646369E+02  0.51100000000E-03 0. -1.
        -11    1    3    3    0    0  0.25165599273E+01  0.77145304403E+01 -0.46291167725E+01  0.93421505092E+01  0.51100000000E-03 0.  1.
         12    1    3    3    0    0  0.83428359062E+00  0.64702093112E+01 -0.93549888859E+01  0.11405062678E+02  0.00000000000E+00 0. -1.
</event>
<event>
 7    1  0.1024956E-012  0.5052891E+02  0.7816164E-02  0.1300439E+00
        -11   -1    0    0    0    0  0.00000000000E+00  0.00000000000E+00  0.45593999997E+02  0.45594000000E+02  0.51100000000E-03 0.  1.
         11   -1    0    0    0    0 -0.00000000000E+00 -0.00000000000E+00 -0.45593999997E+02  0.45594000000E+02  0.51100000000E-03 0. -1.
    9900012    2    1    2    0    0  0.71585746966E+01  0.25907564227E+02 -0.30507614541E+02  0.50528909739E+02  0.30000151643E+02 0.  0.
        -12    1    1    2    0    0 -0.71585746966E+01 -0.25907564227E+02  0.30507614541E+02  0.40659090261E+02  0.00000000000E+00 0.  1.
         11    1    3    3    0    0  0.61821086002E+01  0.83626521717E+01  0.45567686240E+00  0.10409613814E+02  0.51100000000E-03 0.  1.
        -11    1    3    3    0    0 -0.56269104025E+01  0.17924047472E+02 -0.21196306341E+02  0.28323435547E+02  0.51100000000E-03 0. -1.
        -12    1    3    3    0    0  0.66033764989E+01 -0.37913541632E+00 -0.97669850622E+01  0.11795860378E+02  0.00000000000E+00 0.  1.
</event>
<event>
 7    1  0.1024956E-012  0.5052886E+02  0.7816164E-02  0.1300439E+00
        -11   -1    0    0    0    0  0.00000000000E+00  0.00000000000E+00  0.45593999997E+02  0.45594000000E+02  0.51100000000E-03 0.  1.
         11   -1    0    0    0    0 -0.00000000000E+00 -0.00000000000E+00 -0.45593999997E+02  0.45594000000E+02  0.51100000000E-03 0. -1.
    9900012    2    1    2    0    0  0.50118131153E+01  0.38473696906E+02 -0.12158199142E+02  0.50528862888E+02  0.30000009235E+02 0.  0.
        -12    1    1    2    0    0 -0.50118131153E+01 -0.38473696906E+02  0.12158199142E+02  0.40659137112E+02  0.00000000000E+00 0.  1.
         11    1    3    3    0    0 -0.63899448186E+01  0.23614051324E+02  0.29894905328E+01  0.24645321434E+02  0.51100000000E-03 0. -1.
        -11    1    3    3    0    0  0.50769794005E+01  0.59019841754E+01 -0.80122077549E+00  0.78263076883E+01  0.51100000000E-03 0.  1.
         12    1    3    3    0    0  0.63247785334E+01  0.89576614067E+01 -0.14346468900E+02  0.18057233766E+02  0.00000000000E+00 0. -1.
</event>
<event>
 7    1  0.1024956E-012  0.5052886E+02  0.7816164E-02  0.1300439E+00
        -11   -1    0    0    0    0  0.00000000000E+00  0.00000000000E+00  0.45593999997E+02  0.45594000000E+02  0.51100000000E-03 0.  1.
         11   -1    0    0    0    0 -0.00000000000E+00 -0.00000000000E+00 -0.45593999997E+02  0.45594000000E+02  0.51100000000E-03 0. -1.
    9900012    2    1    2    0    0 -0.26978699836E+01  0.35584426341E+02 -0.19484240317E+02  0.50528861775E+02  0.30000005851E+02 0.  0.
        -12    1    1    2    0    0  0.26978699836E+01 -0.35584426341E+02  0.19484240317E+02  0.40659138225E+02  0.00000000000E+00 0.  1.
         11    1    3    3    0    0 -0.64668427233E+01  0.16864798645E+02 -0.18053652431E+01  0.18152157780E+02  0.51100000000E-03 0. -1.
        -11    1    3    3    0    0  0.62188268015E+01  0.87613979195E+01 -0.19207481101E+02  0.22008253697E+02  0.51100000000E-03 0.  1.
        -12    1    3    3    0    0 -0.24498540618E+01  0.99582297765E+01  0.15286060266E+01  0.10368450298E+02  0.00000000000E+00 0.  1.
</event>
<event>
 7    1  0.1024956E-012  0.5052885E+02  0.7816164E-02  0.1300439E+00
        -11   -1    0    0    0    0  0.00000000000E+00  0.00000000000E+00  0.45593999997E+02  0.45594000000E+02  0.51100000000E-03 0. -1.
         11   -1    0    0    0    0 -0.00000000000E+00 -0.00000000000E+00 -0.45593999997E+02  0.45594000000E+02  0.51100000000E-03 0.  1.
    9900012    2    1    2    0    0  0.45437951476E+01 -0.15129097082E+02  0.37465058193E+02  0.50528852957E+02  0.29999979047E+02 0.  0.
        -12    1    1    2    0    0 -0.45437951476E+01  0.15129097082E+02 -0.37465058193E+02  0.40659147043E+02  0.00000000000E+00 0.  1.
         11    1    3    3    0    0  0.85042781655E+01 -0.10403367586E+02  0.25418909860E+02  0.28751935291E+02  0.51100000000E-03 0. -1.
        -11    1    3    3    0    0 -0.47714877248E+01  0.55758195763E+01  0.26268656082E+01  0.77946957760E+01  0.51100000000E-03 0.  1.
         12    1    3    3    0    0  0.81100470690E+00 -0.10301549072E+02  0.94192827253E+01  0.13982221890E+02  0.00000000000E+00 0. -1.
</event>
<event>
 7    1  0.1024956E-012  0.5052886E+02  0.7816164E-02  0.1300439E+00
        -11   -1    0    0    0    0  0.00000000000E+00  0.00000000000E+00  0.45593999997E+02  0.45594000000E+02  0.51100000000E-03 0.  1.
         11   -1    0    0    0    0 -0.00000000000E+00 -0.00000000000E+00 -0.45593999997E+02  0.45594000000E+02  0.51100000000E-03 0. -1.
    9900012    2    1    2    0    0 -0.28569080229E+02 -0.54346362515E+01 -0.28415458535E+02  0.50528857116E+02  0.29999991691E+02 0.  0.
        -12    1    1    2    0    0  0.28569080229E+02  0.54346362515E+01  0.28415458535E+02  0.40659142884E+02  0.00000000000E+00 0.  1.
         11    1    3    3    0    0 -0.33350518123E+02 -0.36561129030E+01 -0.24139171391E+02  0.41331874097E+02  0.51100000000E-03 0. -1.
        -11    1    3    3    0    0  0.59534812742E+01  0.62173216324E-01 -0.29665089163E+01  0.66519155288E+01  0.51100000000E-03 0.  1.
        -12    1    3    3    0    0 -0.11720433801E+01 -0.18406965648E+01 -0.13097782267E+01  0.25450674906E+01  0.00000000000E+00 0.  1.
</event>
<event>
 7    1  0.1024956E-012  0.5052887E+02  0.7816164E-02  0.1300439E+00
        -11   -1    0    0    0    0  0.00000000000E+00  0.00000000000E+00  0.45593999997E+02  0.45594000000E+02  0.51100000000E-03 0. -1.
         11   -1    0    0    0    0 -0.00000000000E+00 -0.00000000000E+00 -0.45593999997E+02  0.45594000000E+02  0.51100000000E-03 0.  1.
    9900012    2    1    2    0    0  0.34913299323E+02 -0.55604712880E+00  0.20830678816E+02  0.50528870177E+02  0.30000031389E+02 0.  0.
        -12    1    1    2    0    0 -0.34913299323E+02  0.55604712880E+00 -0.20830678816E+02  0.40659129823E+02  0.00000000000E+00 0.  1.
         11    1    3    3    0    0  0.13174508279E+02  0.55013975479E+01  0.87215190873E+01  0.16730150592E+02  0.51100000000E-03 0. -1.
        -11    1    3    3    0    0 -0.41589010916E+01 -0.14759181675E+01  0.47609249264E+01  0.64916253082E+01  0.51100000000E-03 0.  1.
        -12    1    3    3    0    0  0.25897692136E+02 -0.45815265093E+01  0.73482348025E+01  0.27307094276E+02  0.00000000000E+00 0.  1.
</event>
<event>
 7    1  0.1024956E-012  0.5052886E+02  0.7816164E-02  0.1300439E+00
        -11   -1    0    0    0    0  0.00000000000E+00  0.00000000000E+00  0.45593999997E+02  0.45594000000E+02  0.51100000000E-03 0. -1.
         11   -1    0    0    0    0 -0.00000000000E+00 -0.00000000000E+00 -0.45593999997E+02  0.45594000000E+02  0.51100000000E-03 0.  1.
    9900012    2    1    2    0    0  0.10389907495E+02  0.39199593658E+02 -0.29337781238E+01  0.50528863576E+02  0.30000011325E+02 0.  0.
        -12    1    1    2    0    0 -0.10389907495E+02 -0.39199593658E+02  0.29337781238E+01  0.40659136424E+02  0.00000000000E+00 0.  1.
         11    1    3    3    0    0 -0.24807149891E+01 -0.24247167474E+00  0.69442459000E+01  0.73780275651E+01  0.51100000000E-03 0. -1.
        -11    1    3    3    0    0  0.13399146647E+02  0.35639607211E+02 -0.81343330303E+01  0.38934382070E+02  0.51100000000E-03 0.  1.
         12    1    3    3    0    0 -0.52852416373E+00  0.38024581213E+01 -0.17436909935E+01  0.42164539410E+01  0.00000000000E+00 0. -1.
</event>
<event>
 7    1  0.1024956E-012  0.5052899E+02  0.7816164E-02  0.1300438E+00
        -11   -1    0    0    0    0  0.00000000000E+00  0.00000000000E+00  0.45593999997E+02  0.45594000000E+02  0.51100000000E-03 0.  1.
         11   -1    0    0    0    0 -0.00000000000E+00 -0.00000000000E+00 -0.45593999997E+02  0.45594000000E+02  0.51100000000E-03 0. -1.
    9900012    2    1    2    0    0 -0.37063652895E+02  0.51595410592E+01 -0.15900302319E+02  0.50528993081E+02  0.30000404965E+02 0.  0.
        -12    1    1    2    0    0  0.37063652895E+02 -0.51595410592E+01  0.15900302319E+02  0.40659006919E+02  0.00000000000E+00 0.  1.
         11    1    3    3    0    0 -0.13871580834E+02 -0.81924143467E+01 -0.13829989968E+02  0.21232169707E+02  0.51100000000E-03 0. -1.
        -11    1    3    3    0    0 -0.27128430220E+01  0.63184407942E+01 -0.32619232167E+01  0.76106737326E+01  0.51100000000E-03 0.  1.
         12    1    3    3    0    0 -0.20479229039E+02  0.70335146116E+01  0.11916108658E+01  0.21686149641E+02  0.00000000000E+00 0. -1.
</event>
<event>
 7    1  0.1024956E-012  0.5052886E+02  0.7816164E-02  0.1300439E+00
        -11   -1    0    0    0    0  0.00000000000E+00  0.00000000000E+00  0.45593999997E+02  0.45594000000E+02  0.51100000000E-03 0.  1.
         11   -1    0    0    0    0 -0.00000000000E+00 -0.00000000000E+00 -0.45593999997E+02  0.45594000000E+02  0.51100000000E-03 0. -1.
    9900012    2    1    2    0    0 -0.66195938722E+01 -0.38870049031E+02 -0.99229861865E+01  0.50528863394E+02  0.30000010772E+02 0.  0.
        -12    1    1    2    0    0  0.66195938722E+01  0.38870049031E+02  0.99229861865E+01  0.40659136606E+02  0.00000000000E+00 0.  1.
         11    1    3    3    0    0 -0.21199005565E+01  0.14637362280E+01 -0.19432611987E+01  0.32268818482E+01  0.51100000000E-03 0. -1.
        -11    1    3    3    0    0 -0.41854019901E+01 -0.28710342849E+02  0.54677539100E+01  0.29524527251E+02  0.51100000000E-03 0.  1.
        -12    1    3    3    0    0 -0.31429132560E+00 -0.11623442410E+02 -0.13447478898E+02  0.17777454295E+02  0.00000000000E+00 0.  1.
</event>
<event>
 7    1  0.1024956E-012  0.5052887E+02  0.7816164E-02  0.1300439E+00
        -11   -1    0    0    0    0  0.00000000000E+00  0.00000000000E+00  0.45593999997E+02  0.45594000000E+02  0.51100000000E-03 0.  1.
         11   -1    0    0    0    0 -0.00000000000E+00 -0.00000000000E+00 -0.45593999997E+02  0.45594000000E+02  0.51100000000E-03 0. -1.
    9900012    2    1    2    0    0 -0.37516185181E+02  0.10057811903E+02 -0.12022519178E+02  0.50528871896E+02  0.30000036616E+02 0.  0.
        -12    1    1    2    0    0  0.37516185181E+02 -0.10057811903E+02  0.12022519178E+02  0.40659128104E+02  0.00000000000E+00 0.  1.
         11    1    3    3    0    0 -0.20414664330E+02 -0.12534560264E+01  0.20047148198E+01  0.20551120492E+02  0.51100000000E-03 0. -1.
        -11    1    3    3    0    0 -0.18008781881E+02  0.12203430915E+02 -0.16428280787E+02  0.27260380790E+02  0.51100000000E-03 0.  1.
         12    1    3    3    0    0  0.90726103046E+00 -0.89216298557E+00  0.24010467893E+01  0.27173706142E+01  0.00000000000E+00 0. -1.
</event>
<event>
 7    1  0.1024956E-012  0.5052886E+02  0.7816164E-02  0.1300439E+00
        -11   -1    0    0    0    0  0.00000000000E+00  0.00000000000E+00  0.45593999997E+02  0.45594000000E+02  0.51100000000E-03 0.  1.
         11   -1    0    0    0    0 -0.00000000000E+00 -0.00000000000E+00 -0.45593999997E+02  0.45594000000E+02  0.51100000000E-03 0. -1.
    9900012    2    1    2    0    0 -0.32675119548E+02  0.36961459461E+01 -0.23913195381E+02  0.50528857785E+02  0.29999993724E+02 0.  0.
        -12    1    1    2    0    0  0.32675119548E+02 -0.36961459461E+01  0.23913195381E+02  0.40659142215E+02  0.00000000000E+00 0.  1.
         11    1    3    3    0    0 -0.18088008294E+02 -0.91961493372E+01 -0.23400996380E+02  0.30973405342E+02  0.51100000000E-03 0. -1.
        -11    1    3    3    0    0 -0.43577984212E+01  0.42724479484E+01  0.60110447836E+00  0.61323360481E+01  0.51100000000E-03 0.  1.
         12    1    3    3    0    0 -0.10229312833E+02  0.86198473349E+01 -0.11133034795E+01  0.13423116395E+02  0.00000000000E+00 0. -1.
</event>
<event>
 7    1  0.1413326E-012  0.5052886E+02  0.7816164E-02  0.1300439E+00
        -11   -1    0    0    0    0  0.00000000000E+00  0.00000000000E+00  0.45593999997E+02  0.45594000000E+02  0.51100000000E-03 0. -1.
         11   -1    0    0    0    0 -0.00000000000E+00 -0.00000000000E+00 -0.45593999997E+02  0.45594000000E+02  0.51100000000E-03 0.  1.
    9900012    2    1    2    0    0 -0.30377227528E+02  0.23033101574E+01  0.26927391557E+02  0.50528860731E+02  0.30000002679E+02 0.  0.
        -12    1    1    2    0    0  0.30377227528E+02 -0.23033101574E+01 -0.26927391557E+02  0.40659139269E+02  0.00000000000E+00 0.  1.
         11    1    3    3    0    0 -0.12508599424E+02  0.42306347276E+01  0.20193272781E+02  0.24127403416E+02  0.51100000000E-03 0. -1.
        -11    1    3    3    0    0 -0.43458726338E+01 -0.91868776607E+01  0.31565275244E+01  0.10641851172E+02  0.51100000000E-03 0.  1.
        -12    1    3    3    0    0 -0.13522755471E+02  0.72595530906E+01  0.35775912518E+01  0.15759606142E+02  0.00000000000E+00 0.  1.
</event>
<event>
 7    1  0.1024956E-012  0.5052886E+02  0.7816164E-02  0.1300439E+00
        -11   -1    0    0    0    0  0.00000000000E+00  0.00000000000E+00  0.45593999997E+02  0.45594000000E+02  0.51100000000E-03 0.  1.
         11   -1    0    0    0    0 -0.00000000000E+00 -0.00000000000E+00 -0.45593999997E+02  0.45594000000E+02  0.51100000000E-03 0. -1.
    9900012    2    1    2    0    0  0.19223610376E+02  0.31142974577E+02 -0.17712535192E+02  0.50528856326E+02  0.29999989289E+02 0.  0.
        -12    1    1    2    0    0 -0.19223610376E+02 -0.31142974577E+02  0.17712535192E+02  0.40659143674E+02  0.00000000000E+00 0.  1.
         11    1    3    3    0    0  0.12719848689E+02  0.12585408976E+02  0.40329304893E+01  0.18342616998E+02  0.51100000000E-03 0. -1.
        -11    1    3    3    0    0  0.12736447956E+01 -0.15114018917E+01 -0.54919242933E+01  0.58367576143E+01  0.51100000000E-03 0.  1.
         12    1    3    3    0    0  0.52301168919E+01  0.20068967493E+02 -0.16253541388E+02  0.26349481714E+02  0.00000000000E+00 0. -1.
</event>
<event>
 7    1  0.1024956E-012  0.5052888E+02  0.7816164E-02  0.1300439E+00
        -11   -1    0    0    0    0  0.00000000000E+00  0.00000000000E+00  0.45593999997E+02  0.45594000000E+02  0.51100000000E-03 0.  1.
         11   -1    0    0    0    0 -0.00000000000E+00 -0.00000000000E+00 -0.45593999997E+02  0.45594000000E+02  0.51100000000E-03 0. -1.
    9900012    2    1    2    0    0 -0.83163127662E+01 -0.22823058235E+02 -0.32605384661E+02  0.50528878586E+02  0.30000056950E+02 0.  0.
        -12    1    1    2    0    0  0.83163127662E+01  0.22823058235E+02  0.32605384661E+02  0.40659121414E+02  0.00000000000E+00 0.  1.
         11    1    3    3    0    0 -0.48715393338E+01 -0.62439681647E+01 -0.41342153858E+01  0.89336874268E+01  0.51100000000E-03 0. -1.
        -11    1    3    3    0    0 -0.29307790881E+01 -0.53177653721E+01 -0.29645697259E+02  0.30261121275E+02  0.51100000000E-03 0.  1.
        -12    1    3    3    0    0 -0.51399434432E+00 -0.11261324699E+02  0.11745279835E+01  0.11334069884E+02  0.00000000000E+00 0.  1.
</event>
<event>
 7    1  0.1024956E-012  0.5052883E+02  0.7816164E-02  0.1300439E+00
        -11   -1    0    0    0    0  0.00000000000E+00  0.00000000000E+00  0.45593999997E+02  0.45594000000E+02  0.51100000000E-03 0.  1.
         11   -1    0    0    0    0 -0.00000000000E+00 -0.00000000000E+00 -0.45593999997E+02  0.45594000000E+02  0.51100000000E-03 0. -1.
    9900012    2    1    2    0    0  0.65810989078E+01  0.39709511959E+02  0.57456292088E+01  0.50528825662E+02  0.29999896081E+02 0.  0.
        -12    1    1    2    0    0 -0.65810989078E+01 -0.39709511959E+02 -0.57456292088E+01  0.40659174338E+02  0.00000000000E+00 0.  1.
         11    1    3    3    0    0  0.10206738129E+02  0.93042877082E+01  0.34664396012E+01  0.14239504091E+02  0.51100000000E-03 0. -1.
        -11    1    3    3    0    0 -0.11162281183E+02  0.23329161669E+02  0.11147863035E+01  0.25886078385E+02  0.51100000000E-03 0.  1.
        -12    1    3    3    0    0  0.75366419615E+01  0.70760625819E+01  0.11644033041E+01  0.10403243185E+02  0.00000000000E+00 0.  1.
</event>
<event>
 7    1  0.1024956E-012  0.5052886E+02  0.7816164E-02  0.1300439E+00
        -11   -1    0    0    0    0  0.00000000000E+00  0.00000000000E+00  0.45593999997E+02  0.45594000000E+02  0.51100000000E-03 0.  1.
         11   -1    0    0    0    0 -0.00000000000E+00 -0.00000000000E+00 -0.45593999997E+02  0.45594000000E+02  0.51100000000E-03 0. -1.
    9900012    2    1    2    0    0 -0.34559118938E+02 -0.19905373451E+02  0.79126037205E+01  0.50528857219E+02  0.29999992004E+02 0.  0.
        -12    1    1    2    0    0  0.34559118938E+02  0.19905373451E+02 -0.79126037205E+01  0.40659142781E+02  0.00000000000E+00 0.  1.
         11    1    3    3    0    0 -0.20022961408E+02 -0.12885848768E+01 -0.28160747948E+01  0.20261039264E+02  0.51100000000E-03 0. -1.
        -11    1    3    3    0    0 -0.91550464892E+01 -0.19502992742E+02  0.12009321623E+02  0.24665875379E+02  0.51100000000E-03 0.  1.
        -12    1    3    3    0    0 -0.53811110409E+01  0.88620416705E+00 -0.12806431081E+01  0.56019425765E+01  0.00000000000E+00 0.  1.
</event>
<event>
 7    1  0.1024956E-012  0.5052887E+02  0.7816164E-02  0.1300439E+00
        -11   -1    0    0    0    0  0.00000000000E+00  0.00000000000E+00  0.45593999997E+02  0.45594000000E+02  0.51100000000E-03 0.  1.
         11   -1    0    0    0    0 -0.00000000000E+00 -0.00000000000E+00 -0.45593999997E+02  0.45594000000E+02  0.51100000000E-03 0. -1.
    9900012    2    1    2    0    0  0.26384147886E+02  0.30927046727E+02  0.74806259555E+00  0.50528867243E+02  0.30000022472E+02 0.  0.
        -12    1    1    2    0    0 -0.26384147886E+02 -0.30927046727E+02 -0.74806259555E+00  0.40659132757E+02  0.00000000000E+00 0.  1.
         11    1    3    3    0    0 -0.45203714552E+01  0.39178546489E+01 -0.10256632970E+01  0.60692115305E+01  0.51100000000E-03 0. -1.
        -11    1    3    3    0    0  0.27456998180E+02  0.25819985750E+02  0.67501852920E+01  0.38289991054E+02  0.51100000000E-03 0.  1.
         12    1    3    3    0    0  0.34475211606E+01  0.11892063282E+01 -0.49764593994E+01  0.61696646585E+01  0.00000000000E+00 0. -1.
</event>
<event>
 7    1  0.1024956E-012  0.5052883E+02  0.7816164E-02  0.1300439E+00
        -11   -1    0    0    0    0  0.00000000000E+00  0.00000000000E+00  0.45593999997E+02  0.45594000000E+02  0.51100000000E-03 0.  1.
         11   -1    0    0    0    0 -0.00000000000E+00 -0.00000000000E+00 -0.45593999997E+02  0.45594000000E+02  0.51100000000E-03 0. -1.
    9900012    2    1    2    0    0  0.88858163637E+01  0.79995299186E+00 -0.39668253284E+02  0.50528831589E+02  0.29999914099E+02 0.  0.
        -12    1    1    2    0    0 -0.88858163637E+01 -0.79995299186E+00  0.39668253284E+02  0.40659168411E+02  0.00000000000E+00 0.  1.
         11    1    3    3    0    0  0.11704009087E+02 -0.99677591752E+01 -0.29335896016E+02  0.33120006749E+02  0.51100000000E-03 0. -1.
        -11    1    3    3    0    0 -0.34338862331E+01  0.27329609775E+00 -0.32284570050E+01  0.47211439624E+01  0.51100000000E-03 0.  1.
         12    1    3    3    0    0  0.61569350999E+00  0.10494416069E+02 -0.71039002626E+01  0.12687680878E+02  0.00000000000E+00 0. -1.
</event>
<event>
 7    1  0.1024956E-012  0.5052886E+02  0.7816164E-02  0.1300439E+00
        -11   -1    0    0    0    0  0.00000000000E+00  0.00000000000E+00  0.45593999997E+02  0.45594000000E+02  0.51100000000E-03 0.  1.
         11   -1    0    0    0    0 -0.00000000000E+00 -0.00000000000E+00 -0.45593999997E+02  0.45594000000E+02  0.51100000000E-03 0. -1.
    9900012    2    1    2    0    0  0.18224934056E+02 -0.94261743462E+01 -0.35102207746E+02  0.50528856222E+02  0.29999988971E+02 0.  0.
        -12    1    1    2    0    0 -0.18224934056E+02  0.94261743462E+01  0.35102207746E+02  0.40659143778E+02  0.00000000000E+00 0.  1.
         11    1    3    3    0    0 -0.40702409262E+01 -0.47550337103E+01  0.12183575327E+01  0.63766450522E+01  0.51100000000E-03 0. -1.
        -11    1    3    3    0    0 -0.54513190747E+00  0.11280598722E+01 -0.67965691313E+00  0.14253496597E+01  0.51100000000E-03 0.  1.
         12    1    3    3    0    0  0.22840306889E+02 -0.57992005081E+01 -0.35640908366E+02  0.42726861510E+02  0.00000000000E+00 0. -1.
</event>
<event>
 7    1  0.1024956E-012  0.5052885E+02  0.7816164E-02  0.1300439E+00
        -11   -1    0    0    0    0  0.00000000000E+00  0.00000000000E+00  0.45593999997E+02  0.45594000000E+02  0.51100000000E-03 0.  1.
         11   -1    0    0    0    0 -0.00000000000E+00 -0.00000000000E+00 -0.45593999997E+02  0.45594000000E+02  0.51100000000E-03 0. -1.
    9900012    2    1    2    0    0 -0.27919224453E+02 -0.28943210088E+02  0.59977977080E+01  0.50528854884E+02  0.29999984905E+02 0.  0.
        -12    1    1    2    0    0  0.27919224453E+02  0.28943210088E+02 -0.59977977080E+01  0.40659145116E+02  0.00000000000E+00 0.  1.
         11    1    3    3    0    0 -0.64059461605E+01 -0.12579384205E+02 -0.41044028978E+01  0.14701128413E+02  0.51100000000E-03 0. -1.
        -11    1    3    3    0    0 -0.11210294511E+02 -0.49472039465E+01  0.15293525545E+02  0.19596873571E+02  0.51100000000E-03 0.  1.
        -12    1    3    3    0    0 -0.10302983782E+02 -0.11416621936E+02 -0.51913249394E+01  0.16230852900E+02  0.00000000000E+00 0.  1.
</event>
<event>
 7    1  0.1024956E-012  0.5052886E+02  0.7816164E-02  0.1300439E+00
        -11   -1    0    0    0    0  0.00000000000E+00  0.00000000000E+00  0.45593999997E+02  0.45594000000E+02  0.51100000000E-03 0.  1.
         11   -1    0    0    0    0 -0.00000000000E+00 -0.00000000000E+00 -0.45593999997E+02  0.45594000000E+02  0.51100000000E-03 0. -1.
    9900012    2    1    2    0    0  0.20215974946E+02 -0.27138714328E+02 -0.22538200404E+02  0.50528856676E+02  0.29999990353E+02 0.  0.
        -12    1    1    2    0    0 -0.20215974946E+02  0.27138714328E+02  0.22538200404E+02  0.40659143324E+02  0.00000000000E+00 0.  1.
         11    1    3    3    0    0  0.73622397075E+01 -0.79686506660E+01 -0.19210788498E+02  0.22062555653E+02  0.51100000000E-03 0. -1.
        -11    1    3    3    0    0  0.10371373153E+02 -0.54250808632E+01  0.43995023301E+01  0.12504099506E+02  0.51100000000E-03 0.  1.
        -12    1    3    3    0    0  0.24823620851E+01 -0.13744982799E+02 -0.77269142366E+01  0.15962201517E+02  0.00000000000E+00 0.  1.
</event>
<event>
 7    1  0.1024956E-012  0.5052886E+02  0.7816164E-02  0.1300439E+00
        -11   -1    0    0    0    0  0.00000000000E+00  0.00000000000E+00  0.45593999997E+02  0.45594000000E+02  0.51100000000E-03 0.  1.
         11   -1    0    0    0    0 -0.00000000000E+00 -0.00000000000E+00 -0.45593999997E+02  0.45594000000E+02  0.51100000000E-03 0. -1.
    9900012    2    1    2    0    0 -0.99295935279E+01  0.36251832026E+02 -0.15503983476E+02  0.50528860112E+02  0.30000000795E+02 0.  0.
        -12    1    1    2    0    0  0.99295935279E+01 -0.36251832026E+02  0.15503983476E+02  0.40659139888E+02  0.00000000000E+00 0.  1.
         11    1    3    3    0    0  0.10401299333E+01  0.66885783611E+01  0.56766716366E+00  0.67927311916E+01  0.51100000000E-03 0. -1.
        -11    1    3    3    0    0 -0.14279431938E+02  0.28386903993E+02 -0.20701571320E+02  0.37924577126E+02  0.51100000000E-03 0.  1.
        -12    1    3    3    0    0  0.33097084773E+01  0.11763496714E+01  0.46299206803E+01  0.58115517944E+01  0.00000000000E+00 0.  1.
</event>
<event>
 7    1  0.1024956E-012  0.5052886E+02  0.7816164E-02  0.1300439E+00
        -11   -1    0    0    0    0  0.00000000000E+00  0.00000000000E+00  0.45593999997E+02  0.45594000000E+02  0.51100000000E-03 0. -1.
         11   -1    0    0    0    0 -0.00000000000E+00 -0.00000000000E+00 -0.45593999997E+02  0.45594000000E+02  0.51100000000E-03 0.  1.
    9900012    2    1    2    0    0  0.31829967571E+02  0.22444090187E+02 -0.11673985623E+02  0.50528856377E+02  0.29999989442E+02 0.  0.
        -12    1    1    2    0    0 -0.31829967571E+02 -0.22444090187E+02  0.11673985623E+02  0.40659143623E+02  0.00000000000E+00 0.  1.
         11    1    3    3    0    0  0.91549542279E+01  0.12713085803E+02  0.40969292197E+01  0.16193225955E+02  0.51100000000E-03 0. -1.
        -11    1    3    3    0    0  0.23749931597E+02  0.46497183936E+01 -0.16202680791E+02  0.29123976327E+02  0.51100000000E-03 0.  1.
         12    1    3    3    0    0 -0.10749182541E+01  0.50812859906E+01  0.43176594830E+00  0.52116540950E+01  0.00000000000E+00 0. -1.
</event>
<event>
 7    1  0.1024956E-012  0.5052886E+02  0.7816164E-02  0.1300439E+00
        -11   -1    0    0    0    0  0.00000000000E+00  0.00000000000E+00  0.45593999997E+02  0.45594000000E+02  0.51100000000E-03 0. -1.
         11   -1    0    0    0    0 -0.00000000000E+00 -0.00000000000E+00 -0.45593999997E+02  0.45594000000E+02  0.51100000000E-03 0.  1.
    9900012    2    1    2    0    0 -0.33651712195E+02  0.17282242575E+02  0.14901405824E+02  0.50528861574E+02  0.30000005239E+02 0.  0.
        -12    1    1    2    0    0  0.33651712195E+02 -0.17282242575E+02 -0.14901405824E+02  0.40659138426E+02  0.00000000000E+00 0.  1.
         11    1    3    3    0    0 -0.21470089055E+02 -0.48833479324E+01  0.25198756114E+01  0.22162165607E+02  0.51100000000E-03 0. -1.
        -11    1    3    3    0    0 -0.68853422886E+01  0.15479780867E+02  0.73854597728E+01  0.18481790239E+02  0.51100000000E-03 0.  1.
         12    1    3    3    0    0 -0.52962808515E+01  0.66858096398E+01  0.49960704399E+01  0.98849057274E+01  0.00000000000E+00 0. -1.
</event>
<event>
 7    1  0.1024956E-012  0.5052886E+02  0.7816164E-02  0.1300439E+00
        -11   -1    0    0    0    0  0.00000000000E+00  0.00000000000E+00  0.45593999997E+02  0.45594000000E+02  0.51100000000E-03 0.  1.
         11   -1    0    0    0    0 -0.00000000000E+00 -0.00000000000E+00 -0.45593999997E+02  0.45594000000E+02  0.51100000000E-03 0. -1.
    9900012    2    1    2    0    0  0.58949507525E+01 -0.19326087535E+02 -0.35283387110E+02  0.50528861915E+02  0.30000006278E+02 0.  0.
        -12    1    1    2    0    0 -0.58949507525E+01  0.19326087535E+02  0.35283387110E+02  0.40659138085E+02  0.00000000000E+00 0.  1.
         11    1    3    3    0    0  0.11002277591E+02 -0.81728118761E+01 -0.18925883792E+02  0.23367371348E+02  0.51100000000E-03 0. -1.
        -11    1    3    3    0    0 -0.83369955516E+01  0.88186898869E+00 -0.30255480044E+01  0.89127509069E+01  0.51100000000E-03 0.  1.
        -12    1    3    3    0    0  0.32296687129E+01 -0.12035144648E+02 -0.13331955314E+02  0.18248739660E+02  0.00000000000E+00 0.  1.
</event>
<event>
 7    1  0.1024956E-012  0.5052886E+02  0.7816164E-02  0.1300439E+00
        -11   -1    0    0    0    0  0.00000000000E+00  0.00000000000E+00  0.45593999997E+02  0.45594000000E+02  0.51100000000E-03 0. -1.
         11   -1    0    0    0    0 -0.00000000000E+00 -0.00000000000E+00 -0.45593999997E+02  0.45594000000E+02  0.51100000000E-03 0.  1.
    9900012    2    1    2    0    0 -0.85027686759E+01 -0.39667645883E+02  0.27104955254E+01  0.50528855997E+02  0.29999988288E+02 0.  0.
        -12    1    1    2    0    0  0.85027686759E+01  0.39667645883E+02 -0.27104955254E+01  0.40659144003E+02  0.00000000000E+00 0.  1.
         11    1    3    3    0    0 -0.16514936517E+02 -0.27515621402E+02  0.50292088374E+01  0.32483003111E+02  0.51100000000E-03 0. -1.
        -11    1    3    3    0    0  0.74040491513E+01 -0.23689832490E+01  0.65880112618E+00  0.78016693504E+01  0.51100000000E-03 0.  1.
         12    1    3    3    0    0  0.60811868954E+00 -0.97830412321E+01 -0.29775144381E+01  0.10244183536E+02  0.00000000000E+00 0. -1.
</event>
<event>
 7    1  0.1024956E-012  0.5052887E+02  0.7816164E-02  0.1300439E+00
        -11   -1    0    0    0    0  0.00000000000E+00  0.00000000000E+00  0.45593999997E+02  0.45594000000E+02  0.51100000000E-03 0. -1.
         11   -1    0    0    0    0 -0.00000000000E+00 -0.00000000000E+00 -0.45593999997E+02  0.45594000000E+02  0.51100000000E-03 0.  1.
    9900012    2    1    2    0    0 -0.27582135446E+02  0.90846014843E+01  0.28458055694E+02  0.50528866785E+02  0.30000021081E+02 0.  0.
        -12    1    1    2    0    0  0.27582135446E+02 -0.90846014843E+01 -0.28458055694E+02  0.40659133215E+02  0.00000000000E+00 0.  1.
         11    1    3    3    0    0 -0.17263539271E+02  0.14597440286E+02  0.10106383831E+02  0.24763966675E+02  0.51100000000E-03 0. -1.
        -11    1    3    3    0    0 -0.11905294015E+02 -0.73010187044E+01  0.18710066465E+02  0.23347537067E+02  0.51100000000E-03 0.  1.
         12    1    3    3    0    0  0.15866978395E+01  0.17881799026E+01 -0.35839460186E+00  0.24173630444E+01  0.00000000000E+00 0. -1.
</event>
<event>
 7    1  0.1024956E-012  0.5052886E+02  0.7816164E-02  0.1300439E+00
        -11   -1    0    0    0    0  0.00000000000E+00  0.00000000000E+00  0.45593999997E+02  0.45594000000E+02  0.51100000000E-03 0. -1.
         11   -1    0    0    0    0 -0.00000000000E+00 -0.00000000000E+00 -0.45593999997E+02  0.45594000000E+02  0.51100000000E-03 0.  1.
    9900012    2    1    2    0    0 -0.33531567638E+02  0.22098632744E+02 -0.63600413686E+01  0.50528859285E+02  0.29999998283E+02 0.  0.
        -12    1    1    2    0    0  0.33531567638E+02 -0.22098632744E+02  0.63600413686E+01  0.40659140715E+02  0.00000000000E+00 0.  1.
         11    1    3    3    0    0 -0.10913805282E+02  0.12263917609E+02 -0.99757801222E+00  0.16447187693E+02  0.51100000000E-03 0. -1.
        -11    1    3    3    0    0 -0.93586004960E+01 -0.30778488454E+01 -0.10968643562E+02  0.14743395084E+02  0.51100000000E-03 0.  1.
        -12    1    3    3    0    0 -0.13259161861E+02  0.12912563981E+02  0.56061802058E+01  0.19338276508E+02  0.00000000000E+00 0.  1.
</event>
<event>
 7    1  0.1024956E-012  0.5052888E+02  0.7816164E-02  0.1300439E+00
        -11   -1    0    0    0    0  0.00000000000E+00  0.00000000000E+00  0.45593999997E+02  0.45594000000E+02  0.51100000000E-03 0.  1.
         11   -1    0    0    0    0 -0.00000000000E+00 -0.00000000000E+00 -0.45593999997E+02  0.45594000000E+02  0.51100000000E-03 0. -1.
    9900012    2    1    2    0    0 -0.21089010722E+01 -0.23283820438E+02 -0.33265299593E+02  0.50528881528E+02  0.30000065892E+02 0.  0.
        -12    1    1    2    0    0  0.21089010722E+01  0.23283820438E+02  0.33265299593E+02  0.40659118472E+02  0.00000000000E+00 0.  1.
         11    1    3    3    0    0  0.18690012545E+01 -0.31249151334E+01 -0.23820347278E+01  0.43511320350E+01  0.51100000000E-03 0. -1.
        -11    1    3    3    0    0 -0.70860849459E+01 -0.84959473130E+01  0.19162297071E+01  0.11227896382E+02  0.51100000000E-03 0.  1.
        -12    1    3    3    0    0  0.31081826193E+01 -0.11662957991E+02 -0.32799494572E+02  0.34949853111E+02  0.00000000000E+00 0.  1.
</event>
<event>
 7    1  0.1024956E-012  0.5052887E+02  0.7816164E-02  0.1300439E+00
        -11   -1    0    0    0    0  0.00000000000E+00  0.00000000000E+00  0.45593999997E+02  0.45594000000E+02  0.51100000000E-03 0.  1.
         11   -1    0    0    0    0 -0.00000000000E+00 -0.00000000000E+00 -0.45593999997E+02  0.45594000000E+02  0.51100000000E-03 0. -1.
    9900012    2    1    2    0    0  0.29624231768E+02  0.23899740068E+02 -0.14295893138E+02  0.50528865187E+02  0.30000016221E+02 0.  0.
        -12    1    1    2    0    0 -0.29624231768E+02 -0.23899740068E+02  0.14295893138E+02  0.40659134813E+02  0.00000000000E+00 0.  1.
         11    1    3    3    0    0  0.34528672911E+02  0.24056981254E+02 -0.11326907387E+02  0.43580574013E+02  0.51100000000E-03 0. -1.
        -11    1    3    3    0    0 -0.50467669657E+01  0.97565714922E+00 -0.24237233105E+01  0.56829744523E+01  0.51100000000E-03 0.  1.
         12    1    3    3    0    0  0.14232582283E+00 -0.11328983351E+01 -0.54526244012E+00  0.12653167217E+01  0.00000000000E+00 0. -1.
</event>
<event>
 7    1  0.1024956E-012  0.5052887E+02  0.7816164E-02  0.1300439E+00
        -11   -1    0    0    0    0  0.00000000000E+00  0.00000000000E+00  0.45593999997E+02  0.45594000000E+02  0.51100000000E-03 0.  1.
         11   -1    0    0    0    0 -0.00000000000E+00 -0.00000000000E+00 -0.45593999997E+02  0.45594000000E+02  0.51100000000E-03 0. -1.
    9900012    2    1    2    0    0  0.12268503596E+02 -0.19444032515E+02 -0.33534734740E+02  0.50528868000E+02  0.30000024773E+02 0.  0.
        -12    1    1    2    0    0 -0.12268503596E+02  0.19444032515E+02  0.33534734740E+02  0.40659132000E+02  0.00000000000E+00 0.  1.
         11    1    3    3    0    0  0.91685845542E+01 -0.54603406355E+01 -0.12843277660E+02  0.16698144924E+02  0.51100000000E-03 0. -1.
        -11    1    3    3    0    0 -0.71783400991E+01 -0.14075196639E+02 -0.16150195193E+02  0.22593550674E+02  0.51100000000E-03 0.  1.
        -12    1    3    3    0    0  0.10278259140E+02  0.91504760062E-01 -0.45412618865E+01  0.11237172402E+02  0.00000000000E+00 0.  1.
</event>
<event>
 7    1  0.1024956E-012  0.5052886E+02  0.7816164E-02  0.1300439E+00
        -11   -1    0    0    0    0  0.00000000000E+00  0.00000000000E+00  0.45593999997E+02  0.45594000000E+02  0.51100000000E-03 0. -1.
         11   -1    0    0    0    0 -0.00000000000E+00 -0.00000000000E+00 -0.45593999997E+02  0.45594000000E+02  0.51100000000E-03 0.  1.
    9900012    2    1    2    0    0 -0.31764071986E+02 -0.22724260713E+02  0.11305637105E+02  0.50528859275E+02  0.29999998254E+02 0.  0.
        -12    1    1    2    0    0  0.31764071986E+02  0.22724260713E+02 -0.11305637105E+02  0.40659140725E+02  0.00000000000E+00 0.  1.
         11    1    3    3    0    0 -0.67813298975E+01 -0.10115087140E+02  0.59097158806E+01  0.13536105979E+02  0.51100000000E-03 0. -1.
        -11    1    3    3    0    0 -0.70100669145E+00  0.26565901241E+01  0.77420764884E+01  0.82151463823E+01  0.51100000000E-03 0.  1.
        -12    1    3    3    0    0 -0.24281735397E+02 -0.15265763697E+02 -0.23461552639E+01  0.28777606914E+02  0.00000000000E+00 0.  1.
</event>
<event>
 7    1  0.1024956E-012  0.5052885E+02  0.7816164E-02  0.1300439E+00
        -11   -1    0    0    0    0  0.00000000000E+00  0.00000000000E+00  0.45593999997E+02  0.45594000000E+02  0.51100000000E-03 0. -1.
         11   -1    0    0    0    0 -0.00000000000E+00 -0.00000000000E+00 -0.45593999997E+02  0.45594000000E+02  0.51100000000E-03 0.  1.
    9900012    2    1    2    0    0  0.24296860256E+01  0.39525333074E+02  0.92201572854E+01  0.50528848150E+02  0.29999964437E+02 0.  0.
        -12    1    1    2    0    0 -0.24296860256E+01 -0.39525333074E+02 -0.92201572854E+01  0.40659151850E+02  0.00000000000E+00 0.  1.
         11    1    3    3    0    0  0.11496547992E+02  0.14360866692E+02  0.79466033868E+01  0.20038802697E+02  0.51100000000E-03 0. -1.
        -11    1    3    3    0    0 -0.16607607395E+01  0.21481569022E+02 -0.19034869940E+01  0.21629590770E+02  0.51100000000E-03 0.  1.
         12    1    3    3    0    0 -0.74061012271E+01  0.36828973596E+01  0.31770408925E+01  0.88604546825E+01  0.00000000000E+00 0. -1.
</event>
<event>
 7    1  0.1024956E-012  0.5052886E+02  0.7816164E-02  0.1300439E+00
        -11   -1    0    0    0    0  0.00000000000E+00  0.00000000000E+00  0.45593999997E+02  0.45594000000E+02  0.51100000000E-03 0.  1.
         11   -1    0    0    0    0 -0.00000000000E+00 -0.00000000000E+00 -0.45593999997E+02  0.45594000000E+02  0.51100000000E-03 0. -1.
    9900012    2    1    2    0    0  0.12308592016E+02 -0.38172984023E+02 -0.66698972912E+01  0.50528859865E+02  0.30000000045E+02 0.  0.
        -12    1    1    2    0    0 -0.12308592016E+02  0.38172984023E+02  0.66698972912E+01  0.40659140135E+02  0.00000000000E+00 0.  1.
         11    1    3    3    0    0  0.72916454722E+01 -0.30052098212E+02  0.64777713936E+01  0.31595224689E+02  0.51100000000E-03 0. -1.
        -11    1    3    3    0    0  0.37030603628E+00  0.21122835156E+01 -0.35836013503E+01  0.41762503649E+01  0.51100000000E-03 0.  1.
         12    1    3    3    0    0  0.46466405080E+01 -0.10233169327E+02 -0.95640673345E+01  0.14757384811E+02  0.00000000000E+00 0. -1.
</event>
<event>
 7    1  0.1024956E-012  0.5052886E+02  0.7816164E-02  0.1300439E+00
        -11   -1    0    0    0    0  0.00000000000E+00  0.00000000000E+00  0.45593999997E+02  0.45594000000E+02  0.51100000000E-03 0.  1.
         11   -1    0    0    0    0 -0.00000000000E+00 -0.00000000000E+00 -0.45593999997E+02  0.45594000000E+02  0.51100000000E-03 0. -1.
    9900012    2    1    2    0    0  0.11500756593E+02  0.38688432870E+02 -0.49095438252E+01  0.50528857600E+02  0.29999993160E+02 0.  0.
        -12    1    1    2    0    0 -0.11500756593E+02 -0.38688432870E+02  0.49095438252E+01  0.40659142400E+02  0.00000000000E+00 0.  1.
         11    1    3    3    0    0  0.11834936987E+02  0.11867226703E+02 -0.12712173712E+02  0.21035592786E+02  0.51100000000E-03 0. -1.
        -11    1    3    3    0    0  0.12719174795E+01  0.22206825886E+02  0.26633163390E+01  0.22402101334E+02  0.51100000000E-03 0.  1.
         12    1    3    3    0    0 -0.16060978734E+01  0.46143802807E+01  0.51393135478E+01  0.70911634798E+01  0.00000000000E+00 0. -1.
</event>
<event>
 7    1  0.1386705E-012  0.5052885E+02  0.7816164E-02  0.1300439E+00
        -11   -1    0    0    0    0  0.00000000000E+00  0.00000000000E+00  0.45593999997E+02  0.45594000000E+02  0.51100000000E-03 0. -1.
         11   -1    0    0    0    0 -0.00000000000E+00 -0.00000000000E+00 -0.45593999997E+02  0.45594000000E+02  0.51100000000E-03 0.  1.
    9900012    2    1    2    0    0  0.12381947283E+02 -0.19423587547E+02  0.33504894325E+02  0.50528852008E+02  0.29999976164E+02 0.  0.
        -12    1    1    2    0    0 -0.12381947283E+02  0.19423587547E+02 -0.33504894325E+02  0.40659147992E+02  0.00000000000E+00 0.  1.
         11    1    3    3    0    0  0.75744507447E+01 -0.17027487992E+02  0.14082976991E+02  0.23358893222E+02  0.51100000000E-03 0. -1.
        -11    1    3    3    0    0 -0.36379336829E+01  0.40289336903E+01  0.46901016121E+00  0.54485630174E+01  0.51100000000E-03 0.  1.
        -12    1    3    3    0    0  0.84454302216E+01 -0.64250332452E+01  0.18952907173E+02  0.21721395769E+02  0.00000000000E+00 0.  1.
</event>
<event>
 7    1  0.1024956E-012  0.5052886E+02  0.7816164E-02  0.1300439E+00
        -11   -1    0    0    0    0  0.00000000000E+00  0.00000000000E+00  0.45593999997E+02  0.45594000000E+02  0.51100000000E-03 0. -1.
         11   -1    0    0    0    0 -0.00000000000E+00 -0.00000000000E+00 -0.45593999997E+02  0.45594000000E+02  0.51100000000E-03 0.  1.
    9900012    2    1    2    0    0  0.94036522913E+01  0.17012971656E+01  0.39520152349E+02  0.50528861665E+02  0.30000005518E+02 0.  0.
        -12    1    1    2    0    0 -0.94036522913E+01 -0.17012971656E+01 -0.39520152349E+02  0.40659138335E+02  0.00000000000E+00 0.  1.
         11    1    3    3    0    0  0.14046156048E+02 -0.16494760590E+01  0.25829135459E+02  0.29447572223E+02  0.51100000000E-03 0. -1.
        -11    1    3    3    0    0 -0.63898220746E+01  0.64257453940E+01  0.25817143874E+01  0.94225940936E+01  0.51100000000E-03 0.  1.
        -12    1    3    3    0    0  0.17473183177E+01 -0.30749721694E+01  0.11109302503E+02  0.11658695349E+02  0.00000000000E+00 0.  1.
</event>
<event>
 7    1  0.1313046E-012  0.5052886E+02  0.7816164E-02  0.1300439E+00
        -11   -1    0    0    0    0  0.00000000000E+00  0.00000000000E+00  0.45593999997E+02  0.45594000000E+02  0.51100000000E-03 0.  1.
         11   -1    0    0    0    0 -0.00000000000E+00 -0.00000000000E+00 -0.45593999997E+02  0.45594000000E+02  0.51100000000E-03 0. -1.
    9900012    2    1    2    0    0 -0.65126803741E+01 -0.37098653296E+02 -0.15311443108E+02  0.50528863609E+02  0.30000011425E+02 0.  0.
        -12    1    1    2    0    0  0.65126803741E+01  0.37098653296E+02  0.15311443108E+02  0.40659136391E+02  0.00000000000E+00 0.  1.
         11    1    3    3    0    0 -0.13378063389E+01 -0.13452496233E+02 -0.16355998749E+02  0.21219756739E+02  0.51100000000E-03 0. -1.
        -11    1    3    3    0    0 -0.42111255840E+01 -0.25606038835E+02  0.33124551264E+01  0.26160565031E+02  0.51100000000E-03 0.  1.
        -12    1    3    3    0    0 -0.96374845116E+00  0.19598817724E+01 -0.22678994851E+01  0.31485418392E+01  0.00000000000E+00 0.  1.
</event>
<event>
 7    1  0.1024956E-012  0.5052885E+02  0.7816164E-02  0.1300439E+00
        -11   -1    0    0    0    0  0.00000000000E+00  0.00000000000E+00  0.45593999997E+02  0.45594000000E+02  0.51100000000E-03 0.  1.
         11   -1    0    0    0    0 -0.00000000000E+00 -0.00000000000E+00 -0.45593999997E+02  0.45594000000E+02  0.51100000000E-03 0. -1.
    9900012    2    1    2    0    0  0.30433431484E+02 -0.10045900422E+02 -0.25021038546E+02  0.50528852972E+02  0.29999979093E+02 0.  0.
        -12    1    1    2    0    0 -0.30433431484E+02  0.10045900422E+02  0.25021038546E+02  0.40659147028E+02  0.00000000000E+00 0.  1.
         11    1    3    3    0    0  0.10278980812E+01 -0.71405362854E+01  0.15790289672E+01  0.73849282765E+01  0.51100000000E-03 0. -1.
        -11    1    3    3    0    0  0.29298623815E+01  0.54271194628E+01 -0.57128817299E+01  0.84068268187E+01  0.51100000000E-03 0.  1.
         12    1    3    3    0    0  0.26475671021E+02 -0.83324835990E+01 -0.20887185783E+02  0.34737097877E+02  0.00000000000E+00 0. -1.
</event>
<event>
 7    1  0.1024956E-012  0.5052885E+02  0.7816164E-02  0.1300439E+00
        -11   -1    0    0    0    0  0.00000000000E+00  0.00000000000E+00  0.45593999997E+02  0.45594000000E+02  0.51100000000E-03 0. -1.
         11   -1    0    0    0    0 -0.00000000000E+00 -0.00000000000E+00 -0.45593999997E+02  0.45594000000E+02  0.51100000000E-03 0.  1.
    9900012    2    1    2    0    0  0.82973458824E+01 -0.32349700902E+02  0.23190882783E+02  0.50528854148E+02  0.29999982668E+02 0.  0.
        -12    1    1    2    0    0 -0.82973458824E+01  0.32349700902E+02 -0.23190882783E+02  0.40659145852E+02  0.00000000000E+00 0.  1.
         11    1    3    3    0    0 -0.35592179235E+01  0.57260954356E+00  0.74703980092E+01  0.82947429492E+01  0.51100000000E-03 0. -1.
        -11    1    3    3    0    0  0.13366553541E+02 -0.29578684802E+02  0.76193232632E+01  0.33340927333E+02  0.51100000000E-03 0.  1.
         12    1    3    3    0    0 -0.15099897355E+01 -0.33436256442E+01  0.81011615108E+01  0.88931838660E+01  0.00000000000E+00 0. -1.
</event>
<event>
 7    1  0.1024956E-012  0.5052885E+02  0.7816164E-02  0.1300439E+00
        -11   -1    0    0    0    0  0.00000000000E+00  0.00000000000E+00  0.45593999997E+02  0.45594000000E+02  0.51100000000E-03 0. -1.
         11   -1    0    0    0    0 -0.00000000000E+00 -0.00000000000E+00 -0.45593999997E+02  0.45594000000E+02  0.51100000000E-03 0.  1.
    9900012    2    1    2    0    0 -0.50817131681E+01  0.30554280595E+02  0.26339670841E+02  0.50528854271E+02  0.29999983043E+02 0.  0.
        -12    1    1    2    0    0  0.50817131681E+01 -0.30554280595E+02 -0.26339670841E+02  0.40659145729E+02  0.00000000000E+00 0.  1.
         11    1    3    3    0    0  0.86980284400E+00  0.21750179044E+01  0.48419084787E+00  0.23920077153E+01  0.51100000000E-03 0.  1.
        -11    1    3    3    0    0 -0.87582281800E+01  0.32309346734E+02  0.15873962108E+02  0.37048388905E+02  0.51100000000E-03 0. -1.
        -12    1    3    3    0    0  0.28067121680E+01 -0.39300840434E+01  0.99815178853E+01  0.11088457651E+02  0.00000000000E+00 0.  1.
</event>
<event>
 7    1  0.1024956E-012  0.5052886E+02  0.7816164E-02  0.1300439E+00
        -11   -1    0    0    0    0  0.00000000000E+00  0.00000000000E+00  0.45593999997E+02  0.45594000000E+02  0.51100000000E-03 0. -1.
         11   -1    0    0    0    0 -0.00000000000E+00 -0.00000000000E+00 -0.45593999997E+02  0.45594000000E+02  0.51100000000E-03 0.  1.
    9900012    2    1    2    0    0 -0.25235466132E+01 -0.16491182109E+02  0.37078811162E+02  0.50528860658E+02  0.30000002455E+02 0.  0.
        -12    1    1    2    0    0  0.25235466132E+01  0.16491182109E+02 -0.37078811162E+02  0.40659139342E+02  0.00000000000E+00 0.  1.
         11    1    3    3    0    0 -0.63928364684E+01 -0.23344766753E+01 -0.76376102907E+00  0.68484648375E+01  0.51100000000E-03 0. -1.
        -11    1    3    3    0    0  0.72313867427E+01 -0.12873673751E+02  0.16946996814E+02  0.22477213603E+02  0.51100000000E-03 0.  1.
        -12    1    3    3    0    0 -0.33620968874E+01 -0.12830316818E+01  0.20895575377E+02  0.21203182217E+02  0.00000000000E+00 0.  1.
</event>
<event>
 7    1  0.1024956E-012  0.5052885E+02  0.7816164E-02  0.1300439E+00
        -11   -1    0    0    0    0  0.00000000000E+00  0.00000000000E+00  0.45593999997E+02  0.45594000000E+02  0.51100000000E-03 0.  1.
         11   -1    0    0    0    0 -0.00000000000E+00 -0.00000000000E+00 -0.45593999997E+02  0.45594000000E+02  0.51100000000E-03 0. -1.
    9900012    2    1    2    0    0 -0.46188618158E+01  0.47580091542E+00 -0.40393143282E+02  0.50528852257E+02  0.29999976922E+02 0.  0.
        -12    1    1    2    0    0  0.46188618158E+01 -0.47580091542E+00  0.40393143282E+02  0.40659147743E+02  0.00000000000E+00 0.  1.
         11    1    3    3    0    0 -0.41384887836E+01 -0.18110807129E+01 -0.17611259741E+02  0.18181407335E+02  0.51100000000E-03 0. -1.
        -11    1    3    3    0    0 -0.51467059732E+00  0.37901956131E+00  0.47282281033E+01  0.47712349460E+01  0.51100000000E-03 0.  1.
        -12    1    3    3    0    0  0.34297565090E-01  0.19078620670E+01 -0.27510111644E+02  0.27576209976E+02  0.00000000000E+00 0.  1.
</event>
<event>
 7    1  0.1918536E-012  0.5052886E+02  0.7816164E-02  0.1300439E+00
        -11   -1    0    0    0    0  0.00000000000E+00  0.00000000000E+00  0.45593999997E+02  0.45594000000E+02  0.51100000000E-03 0. -1.
         11   -1    0    0    0    0 -0.00000000000E+00 -0.00000000000E+00 -0.45593999997E+02  0.45594000000E+02  0.51100000000E-03 0.  1.
    9900012    2    1    2    0    0 -0.11655938286E+02 -0.94171486444E+01  0.37797120566E+02  0.50528857006E+02  0.29999991356E+02 0.  0.
        -12    1    1    2    0    0  0.11655938286E+02  0.94171486444E+01 -0.37797120566E+02  0.40659142994E+02  0.00000000000E+00 0.  1.
         11    1    3    3    0    0 -0.10333219570E+02 -0.10675784014E+02  0.35481386771E+02  0.38466564682E+02  0.51100000000E-03 0. -1.
        -11    1    3    3    0    0  0.11608181182E+01 -0.34974091665E+01 -0.28160218083E+01  0.46378172309E+01  0.51100000000E-03 0.  1.
        -12    1    3    3    0    0 -0.24835368333E+01  0.47560445364E+01  0.51317556031E+01  0.74244750929E+01  0.00000000000E+00 0.  1.
</event>
<event>
 7    1  0.1024956E-012  0.5052886E+02  0.7816164E-02  0.1300439E+00
        -11   -1    0    0    0    0  0.00000000000E+00  0.00000000000E+00  0.45593999997E+02  0.45594000000E+02  0.51100000000E-03 0. -1.
         11   -1    0    0    0    0 -0.00000000000E+00 -0.00000000000E+00 -0.45593999997E+02  0.45594000000E+02  0.51100000000E-03 0.  1.
    9900012    2    1    2    0    0 -0.28189428062E+02 -0.14968089050E+02  0.25188843183E+02  0.50528863694E+02  0.30000011685E+02 0.  0.
        -12    1    1    2    0    0  0.28189428062E+02  0.14968089050E+02 -0.25188843183E+02  0.40659136306E+02  0.00000000000E+00 0.  1.
         11    1    3    3    0    0 -0.17855377828E-01  0.67669958665E+00  0.15523208718E+02  0.15537961588E+02  0.51100000000E-03 0. -1.
        -11    1    3    3    0    0 -0.32035031205E+01 -0.55849790522E+01  0.15069437879E+00  0.64402742421E+01  0.51100000000E-03 0.  1.
         12    1    3    3    0    0 -0.24968069564E+02 -0.10059809584E+02  0.95149400862E+01  0.28550627864E+02  0.00000000000E+00 0. -1.
</event>
<event>
 7    1  0.1024956E-012  0.5052886E+02  0.7816164E-02  0.1300439E+00
        -11   -1    0    0    0    0  0.00000000000E+00  0.00000000000E+00  0.45593999997E+02  0.45594000000E+02  0.51100000000E-03 0.  1.
         11   -1    0    0    0    0 -0.00000000000E+00 -0.00000000000E+00 -0.45593999997E+02  0.45594000000E+02  0.51100000000E-03 0. -1.
    9900012    2    1    2    0    0  0.23159542296E+02 -0.90635093478E+00 -0.33406281480E+02  0.50528861868E+02  0.30000006133E+02 0.  0.
        -12    1    1    2    0    0 -0.23159542296E+02  0.90635093478E+00  0.33406281480E+02  0.40659138132E+02  0.00000000000E+00 0.  1.
         11    1    3    3    0    0  0.11547454334E+02  0.51076605523E+01 -0.20286611158E+01  0.12788563801E+02  0.51100000000E-03 0. -1.
        -11    1    3    3    0    0  0.37076370483E+01 -0.10995958166E+02 -0.18259536105E+02  0.21634886815E+02  0.51100000000E-03 0.  1.
        -12    1    3    3    0    0  0.79044509133E+01  0.49819466788E+01 -0.13118084259E+02  0.16105411251E+02  0.00000000000E+00 0.  1.
</event>
<event>
 7    1  0.1024956E-012  0.5052885E+02  0.7816164E-02  0.1300439E+00
        -11   -1    0    0    0    0  0.00000000000E+00  0.00000000000E+00  0.45593999997E+02  0.45594000000E+02  0.51100000000E-03 0. -1.
         11   -1    0    0    0    0 -0.00000000000E+00 -0.00000000000E+00 -0.45593999997E+02  0.45594000000E+02  0.51100000000E-03 0.  1.
    9900012    2    1    2    0    0  0.25844780288E+02 -0.31111935451E+02  0.41547157015E+01  0.50528845334E+02  0.29999955876E+02 0.  0.
        -12    1    1    2    0    0 -0.25844780288E+02  0.31111935451E+02 -0.41547157015E+01  0.40659154666E+02  0.00000000000E+00 0.  1.
         11    1    3    3    0    0  0.15312362083E+02 -0.49374803860E+01  0.29810585380E+00  0.16091488821E+02  0.51100000000E-03 0. -1.
        -11    1    3    3    0    0 -0.75945944481E+00 -0.22085876157E+02  0.38280632133E+01  0.22428035414E+02  0.51100000000E-03 0.  1.
        -12    1    3    3    0    0  0.11291877650E+02 -0.40885789073E+01  0.28546634388E-01  0.12009321099E+02  0.00000000000E+00 0.  1.
</event>
<event>
 7    1  0.1236861E-012  0.5052886E+02  0.7816164E-02  0.1300439E+00
        -11   -1    0    0    0    0  0.00000000000E+00  0.00000000000E+00  0.45593999997E+02  0.45594000000E+02  0.51100000000E-03 0. -1.
         11   -1    0    0    0    0 -0.00000000000E+00 -0.00000000000E+00 -0.45593999997E+02  0.45594000000E+02  0.51100000000E-03 0.  1.
    9900012    2    1    2    0    0  0.63082170284E+01  0.17908593131E+02  0.35953504554E+02  0.50528858350E+02  0.29999995441E+02 0.  0.
        -12    1    1    2    0    0 -0.63082170284E+01 -0.17908593131E+02 -0.35953504554E+02  0.40659141650E+02  0.00000000000E+00 0.  1.
         11    1    3    3    0    0  0.31888938526E+01  0.13307260643E+02  0.22184351665E+02  0.26065258273E+02  0.51100000000E-03 0. -1.
        -11    1    3    3    0    0  0.83981548993E+01 -0.32501293905E+01  0.17603036332E+01  0.91755662446E+01  0.51100000000E-03 0.  1.
        -12    1    3    3    0    0 -0.52788317235E+01  0.78514618790E+01  0.12008849256E+02  0.15288033832E+02  0.00000000000E+00 0.  1.
</event>
<event>
 7    1  0.1024956E-012  0.5052884E+02  0.7816164E-02  0.1300439E+00
        -11   -1    0    0    0    0  0.00000000000E+00  0.00000000000E+00  0.45593999997E+02  0.45594000000E+02  0.51100000000E-03 0.  1.
         11   -1    0    0    0    0 -0.00000000000E+00 -0.00000000000E+00 -0.45593999997E+02  0.45594000000E+02  0.51100000000E-03 0. -1.
    9900012    2    1    2    0    0 -0.39624359535E+02  0.71186403113E+00 -0.90868275059E+01  0.50528842937E+02  0.29999948590E+02 0.  0.
        -12    1    1    2    0    0  0.39624359535E+02 -0.71186403113E+00  0.90868275059E+01  0.40659157063E+02  0.00000000000E+00 0.  1.
         11    1    3    3    0    0 -0.34580489672E+02  0.43094225660E+01 -0.15201754610E+02  0.38019399420E+02  0.51100000000E-03 0. -1.
        -11    1    3    3    0    0 -0.43257226805E+01  0.43132459897E-01  0.74089821235E+01  0.85794378304E+01  0.51100000000E-03 0.  1.
         12    1    3    3    0    0 -0.71814718262E+00 -0.36406909948E+01 -0.12940550199E+01  0.39300056858E+01  0.00000000000E+00 0. -1.
</event>
<event>
 7    1  0.1024956E-012  0.5052898E+02  0.7816164E-02  0.1300438E+00
        -11   -1    0    0    0    0  0.00000000000E+00  0.00000000000E+00  0.45593999997E+02  0.45594000000E+02  0.51100000000E-03 0.  1.
         11   -1    0    0    0    0 -0.00000000000E+00 -0.00000000000E+00 -0.45593999997E+02  0.45594000000E+02  0.51100000000E-03 0. -1.
    9900012    2    1    2    0    0 -0.29189784213E+02  0.37663180353E+01 -0.28052227700E+02  0.50528977227E+02  0.30000356776E+02 0.  0.
        -12    1    1    2    0    0  0.29189784213E+02 -0.37663180353E+01  0.28052227700E+02  0.40659022773E+02  0.00000000000E+00 0.  1.
         11    1    3    3    0    0 -0.14630579299E+02  0.99022670282E+01 -0.24400951341E+02  0.30124992440E+02  0.51100000000E-03 0. -1.
        -11    1    3    3    0    0 -0.14069646905E+02 -0.62061977460E+01 -0.70875006317E+01  0.16932351283E+02  0.51100000000E-03 0.  1.
         12    1    3    3    0    0 -0.48955800887E+00  0.70248752995E-01  0.34362242725E+01  0.34716335034E+01  0.00000000000E+00 0. -1.
</event>
<event>
 7    1  0.1024956E-012  0.5052886E+02  0.7816164E-02  0.1300439E+00
        -11   -1    0    0    0    0  0.00000000000E+00  0.00000000000E+00  0.45593999997E+02  0.45594000000E+02  0.51100000000E-03 0.  1.
         11   -1    0    0    0    0 -0.00000000000E+00 -0.00000000000E+00 -0.45593999997E+02  0.45594000000E+02  0.51100000000E-03 0. -1.
    9900012    2    1    2    0    0  0.91778098649E+01  0.42230857848E+01 -0.39383995208E+02  0.50528859256E+02  0.29999998196E+02 0.  0.
        -12    1    1    2    0    0 -0.91778098649E+01 -0.42230857848E+01  0.39383995208E+02  0.40659140744E+02  0.00000000000E+00 0.  1.
         11    1    3    3    0    0  0.19748958423E+01 -0.26995283743E+01  0.39197107429E+01  0.51528438362E+01  0.51100000000E-03 0. -1.
        -11    1    3    3    0    0 -0.15009534365E+01 -0.58541885943E+00 -0.10360249589E+02  0.10484767440E+02  0.51100000000E-03 0.  1.
         12    1    3    3    0    0  0.87038674591E+01  0.75080330185E+01 -0.32943456362E+02  0.34891247981E+02  0.00000000000E+00 0. -1.
</event>
<event>
 7    1  0.1024956E-012  0.5052886E+02  0.7816164E-02  0.1300439E+00
        -11   -1    0    0    0    0  0.00000000000E+00  0.00000000000E+00  0.45593999997E+02  0.45594000000E+02  0.51100000000E-03 0. -1.
         11   -1    0    0    0    0 -0.00000000000E+00 -0.00000000000E+00 -0.45593999997E+02  0.45594000000E+02  0.51100000000E-03 0.  1.
    9900012    2    1    2    0    0 -0.19217376445E+02 -0.32030916848E+02  0.16058599873E+02  0.50528858082E+02  0.29999994627E+02 0.  0.
        -12    1    1    2    0    0  0.19217376445E+02  0.32030916848E+02 -0.16058599873E+02  0.40659141918E+02  0.00000000000E+00 0.  1.
         11    1    3    3    0    0 -0.17736589153E+01  0.13411926947E+01  0.11256227911E+02  0.11473767073E+02  0.51100000000E-03 0. -1.
        -11    1    3    3    0    0 -0.34977820744E+01 -0.10022788669E+02 -0.24769227692E+01  0.10900730196E+02  0.51100000000E-03 0.  1.
         12    1    3    3    0    0 -0.13945935456E+02 -0.23349320874E+02  0.72792947309E+01  0.28154360813E+02  0.00000000000E+00 0. -1.
</event>
<event>
 7    1  0.1024956E-012  0.5052886E+02  0.7816164E-02  0.1300439E+00
        -11   -1    0    0    0    0  0.00000000000E+00  0.00000000000E+00  0.45593999997E+02  0.45594000000E+02  0.51100000000E-03 0. -1.
         11   -1    0    0    0    0 -0.00000000000E+00 -0.00000000000E+00 -0.45593999997E+02  0.45594000000E+02  0.51100000000E-03 0.  1.
    9900012    2    1    2    0    0 -0.24317422874E+02 -0.68555127158E+01  0.31856401855E+02  0.50528862663E+02  0.30000008552E+02 0.  0.
        -12    1    1    2    0    0  0.24317422874E+02  0.68555127158E+01 -0.31856401855E+02  0.40659137337E+02  0.00000000000E+00 0.  1.
         11    1    3    3    0    0  0.65248774460E+01 -0.18375364285E+01  0.86153493573E+01  0.10962427223E+02  0.51100000000E-03 0. -1.
        -11    1    3    3    0    0 -0.98572251849E+01 -0.48958798247E+01  0.88110158560E+01  0.14098529295E+02  0.51100000000E-03 0.  1.
         12    1    3    3    0    0 -0.20985075135E+02 -0.12209646248E+00  0.14430036642E+02  0.25467906145E+02  0.00000000000E+00 0. -1.
</event>
<event>
 7    1  0.1024956E-012  0.5052886E+02  0.7816164E-02  0.1300439E+00
        -11   -1    0    0    0    0  0.00000000000E+00  0.00000000000E+00  0.45593999997E+02  0.45594000000E+02  0.51100000000E-03 0.  1.
         11   -1    0    0    0    0 -0.00000000000E+00 -0.00000000000E+00 -0.45593999997E+02  0.45594000000E+02  0.51100000000E-03 0. -1.
    9900012    2    1    2    0    0 -0.29973909466E+02 -0.23885726009E+02  0.13572116413E+02  0.50528862040E+02  0.30000006658E+02 0.  0.
        -12    1    1    2    0    0  0.29973909466E+02  0.23885726009E+02 -0.13572116413E+02  0.40659137960E+02  0.00000000000E+00 0.  1.
         11    1    3    3    0    0 -0.30132358199E+02 -0.19878315549E+02  0.17580487266E+02  0.40151961004E+02  0.51100000000E-03 0. -1.
        -11    1    3    3    0    0  0.14026332932E+01  0.20688575404E+01 -0.32919249652E+01  0.41333185112E+01  0.51100000000E-03 0.  1.
         12    1    3    3    0    0 -0.12441845607E+01 -0.60762680009E+01 -0.71644588830E+00  0.62435825253E+01  0.00000000000E+00 0. -1.
</event>
<event>
 7    1  0.1024956E-012  0.5052886E+02  0.7816164E-02  0.1300439E+00
        -11   -1    0    0    0    0  0.00000000000E+00  0.00000000000E+00  0.45593999997E+02  0.45594000000E+02  0.51100000000E-03 0.  1.
         11   -1    0    0    0    0 -0.00000000000E+00 -0.00000000000E+00 -0.45593999997E+02  0.45594000000E+02  0.51100000000E-03 0. -1.
    9900012    2    1    2    0    0 -0.69536116199E+01 -0.13736299135E+02 -0.37631467094E+02  0.50528856574E+02  0.29999990042E+02 0.  0.
        -12    1    1    2    0    0  0.69536116199E+01  0.13736299135E+02  0.37631467094E+02  0.40659143426E+02  0.00000000000E+00 0.  1.
         11    1    3    3    0    0 -0.65934318402E+01 -0.16605667101E+02 -0.11437727984E+02  0.21214220349E+02  0.51100000000E-03 0. -1.
        -11    1    3    3    0    0  0.27238578537E+01  0.20697410124E+01 -0.53945190940E+00  0.34632698551E+01  0.51100000000E-03 0.  1.
         12    1    3    3    0    0 -0.30840376334E+01  0.79962695420E+00 -0.25654287201E+02  0.25851366370E+02  0.00000000000E+00 0. -1.
</event>
<event>
 7    1  0.1024956E-012  0.5052887E+02  0.7816164E-02  0.1300439E+00
        -11   -1    0    0    0    0  0.00000000000E+00  0.00000000000E+00  0.45593999997E+02  0.45594000000E+02  0.51100000000E-03 0.  1.
         11   -1    0    0    0    0 -0.00000000000E+00 -0.00000000000E+00 -0.45593999997E+02  0.45594000000E+02  0.51100000000E-03 0. -1.
    9900012    2    1    2    0    0  0.34184673296E+02 -0.17058658383E+02 -0.13913134426E+02  0.50528867893E+02  0.30000024446E+02 0.  0.
        -12    1    1    2    0    0 -0.34184673296E+02  0.17058658383E+02  0.13913134426E+02  0.40659132107E+02  0.00000000000E+00 0.  1.
         11    1    3    3    0    0  0.15558281822E+02 -0.15073963814E+02 -0.12967575471E+02  0.25247624287E+02  0.51100000000E-03 0. -1.
        -11    1    3    3    0    0  0.18786040306E+02  0.16203643195E+01  0.38847708547E+01  0.19251813830E+02  0.51100000000E-03 0.  1.
        -12    1    3    3    0    0 -0.15964883160E+00 -0.36050588885E+01 -0.48303298099E+01  0.60294297750E+01  0.00000000000E+00 0.  1.
</event>
<event>
 7    1  0.1024956E-012  0.5052886E+02  0.7816164E-02  0.1300439E+00
        -11   -1    0    0    0    0  0.00000000000E+00  0.00000000000E+00  0.45593999997E+02  0.45594000000E+02  0.51100000000E-03 0.  1.
         11   -1    0    0    0    0 -0.00000000000E+00 -0.00000000000E+00 -0.45593999997E+02  0.45594000000E+02  0.51100000000E-03 0. -1.
    9900012    2    1    2    0    0 -0.10195823361E+01  0.23812544340E+02 -0.32940687630E+02  0.50528859360E+02  0.29999998510E+02 0.  0.
        -12    1    1    2    0    0  0.10195823361E+01 -0.23812544340E+02  0.32940687630E+02  0.40659140640E+02  0.00000000000E+00 0.  1.
         11    1    3    3    0    0 -0.16982369148E+01  0.19992909448E+01 -0.11687052832E+02  0.11977828562E+02  0.51100000000E-03 0. -1.
        -11    1    3    3    0    0  0.51444740848E+01  0.44861805559E+01  0.37626432516E+01  0.77941589726E+01  0.51100000000E-03 0.  1.
        -12    1    3    3    0    0 -0.44658195061E+01  0.17327072839E+02 -0.25016278049E+02  0.30756871825E+02  0.00000000000E+00 0.  1.
</event>
<event>
 7    1  0.1024956E-012  0.5052886E+02  0.7816164E-02  0.1300439E+00
        -11   -1    0    0    0    0  0.00000000000E+00  0.00000000000E+00  0.45593999997E+02  0.45594000000E+02  0.51100000000E-03 0.  1.
         11   -1    0    0    0    0 -0.00000000000E+00 -0.00000000000E+00 -0.45593999997E+02  0.45594000000E+02  0.51100000000E-03 0. -1.
    9900012    2    1    2    0    0  0.25577263110E+02 -0.29501721504E+02  0.11340978878E+02  0.50528858816E+02  0.29999996857E+02 0.  0.
        -12    1    1    2    0    0 -0.25577263110E+02  0.29501721504E+02 -0.11340978878E+02  0.40659141184E+02  0.00000000000E+00 0.  1.
         11    1    3    3    0    0  0.25714087956E+02 -0.23459118453E+02 -0.19465837392E+01  0.34861637175E+02  0.51100000000E-03 0. -1.
        -11    1    3    3    0    0 -0.17733937360E+01 -0.43087372392E+00  0.62896796780E+01  0.65490952216E+01  0.51100000000E-03 0.  1.
         12    1    3    3    0    0  0.16365688900E+01 -0.56117293277E+01  0.69978829392E+01  0.91181264199E+01  0.00000000000E+00 0. -1.
</event>
<event>
 7    1  0.1024956E-012  0.5052885E+02  0.7816164E-02  0.1300439E+00
        -11   -1    0    0    0    0  0.00000000000E+00  0.00000000000E+00  0.45593999997E+02  0.45594000000E+02  0.51100000000E-03 0.  1.
         11   -1    0    0    0    0 -0.00000000000E+00 -0.00000000000E+00 -0.45593999997E+02  0.45594000000E+02  0.51100000000E-03 0. -1.
    9900012    2    1    2    0    0 -0.25905385767E+02  0.31278116690E+02 -0.19383312145E+01  0.50528846992E+02  0.29999960918E+02 0.  0.
        -12    1    1    2    0    0  0.25905385767E+02 -0.31278116690E+02  0.19383312145E+01  0.40659153008E+02  0.00000000000E+00 0.  1.
         11    1    3    3    0    0 -0.15213674819E+02  0.10688264280E+00  0.34867976774E+01  0.15608493960E+02  0.51100000000E-03 0. -1.
        -11    1    3    3    0    0 -0.82768008342E+01  0.21421979005E+02  0.10172881277E+01  0.22987855314E+02  0.51100000000E-03 0.  1.
        -12    1    3    3    0    0 -0.24149101134E+01  0.97492550421E+01 -0.64424170196E+01  0.11932497718E+02  0.00000000000E+00 0.  1.
</event>
<event>
 7    1  0.1024956E-012  0.5052886E+02  0.7816164E-02  0.1300439E+00
        -11   -1    0    0    0    0  0.00000000000E+00  0.00000000000E+00  0.45593999997E+02  0.45594000000E+02  0.51100000000E-03 0.  1.
         11   -1    0    0    0    0 -0.00000000000E+00 -0.00000000000E+00 -0.45593999997E+02  0.45594000000E+02  0.51100000000E-03 0. -1.
    9900012    2    1    2    0    0 -0.10549483219E+02 -0.29445753041E+02 -0.25977329726E+02  0.50528860461E+02  0.30000001857E+02 0.  0.
        -12    1    1    2    0    0  0.10549483219E+02  0.29445753041E+02  0.25977329726E+02  0.40659139539E+02  0.00000000000E+00 0.  1.
         11    1    3    3    0    0 -0.29556849025E+01 -0.21301411179E+02  0.49913870794E+00  0.21511283811E+02  0.51100000000E-03 0. -1.
        -11    1    3    3    0    0 -0.41150007379E+01 -0.15334106310E+01 -0.91481625826E+01  0.10147583857E+02  0.51100000000E-03 0.  1.
         12    1    3    3    0    0 -0.34787975781E+01 -0.66109312313E+01 -0.17328305852E+02  0.18869992793E+02  0.00000000000E+00 0. -1.
</event>
<event>
 7    1  0.1084805E-012  0.5052886E+02  0.7816164E-02  0.1300439E+00
        -11   -1    0    0    0    0  0.00000000000E+00  0.00000000000E+00  0.45593999997E+02  0.45594000000E+02  0.51100000000E-03 0. -1.
         11   -1    0    0    0    0 -0.00000000000E+00 -0.00000000000E+00 -0.45593999997E+02  0.45594000000E+02  0.51100000000E-03 0.  1.
    9900012    2    1    2    0    0  0.24304472671E+02 -0.27590237296E+02  0.17356183092E+02  0.50528859854E+02  0.30000000012E+02 0.  0.
        -12    1    1    2    0    0 -0.24304472671E+02  0.27590237296E+02 -0.17356183092E+02  0.40659140146E+02  0.00000000000E+00 0.  1.
         11    1    3    3    0    0  0.16378380452E+02 -0.85795912450E+01  0.14261214403E+02  0.23350438298E+02  0.51100000000E-03 0. -1.
        -11    1    3    3    0    0  0.56888268702E+01 -0.22098104626E+02  0.42146558467E+01  0.23204575053E+02  0.51100000000E-03 0.  1.
        -12    1    3    3    0    0  0.22372653487E+01  0.30874585758E+01 -0.11196871575E+01  0.39738465029E+01  0.00000000000E+00 0.  1.
</event>
<event>
 7    1  0.1024956E-012  0.5052886E+02  0.7816164E-02  0.1300439E+00
        -11   -1    0    0    0    0  0.00000000000E+00  0.00000000000E+00  0.45593999997E+02  0.45594000000E+02  0.51100000000E-03 0.  1.
         11   -1    0    0    0    0 -0.00000000000E+00 -0.00000000000E+00 -0.45593999997E+02  0.45594000000E+02  0.51100000000E-03 0. -1.
    9900012    2    1    2    0    0 -0.57448084936E+00  0.40548841366E+02  0.29371670851E+01  0.50528861853E+02  0.30000006090E+02 0.  0.
        -12    1    1    2    0    0  0.57448084936E+00 -0.40548841366E+02 -0.29371670851E+01  0.40659138147E+02  0.00000000000E+00 0.  1.
         11    1    3    3    0    0 -0.53065866186E+01  0.26019496112E+02 -0.62642249778E+00  0.26562500727E+02  0.51100000000E-03 0. -1.
        -11    1    3    3    0    0  0.38865148430E+01 -0.33716079177E+01 -0.14716736233E+01  0.53515008259E+01  0.51100000000E-03 0.  1.
        -12    1    3    3    0    0  0.84559092631E+00  0.17900953171E+02  0.50352632062E+01  0.18614860300E+02  0.00000000000E+00 0.  1.
</event>
<event>
 7    1  0.1024956E-012  0.5052886E+02  0.7816164E-02  0.1300439E+00
        -11   -1    0    0    0    0  0.00000000000E+00  0.00000000000E+00  0.45593999997E+02  0.45594000000E+02  0.51100000000E-03 0. -1.
         11   -1    0    0    0    0 -0.00000000000E+00 -0.00000000000E+00 -0.45593999997E+02  0.45594000000E+02  0.51100000000E-03 0.  1.
    9900012    2    1    2    0    0 -0.12917750028E+02 -0.36238847924E+02  0.13154585060E+02  0.50528862371E+02  0.30000007662E+02 0.  0.
        -12    1    1    2    0    0  0.12917750028E+02  0.36238847924E+02 -0.13154585060E+02  0.40659137629E+02  0.00000000000E+00 0.  1.
         11    1    3    3    0    0 -0.70981083946E+01 -0.67405189456E+01  0.16862813784E+02  0.19498005729E+02  0.51100000000E-03 0. -1.
        -11    1    3    3    0    0  0.15289860560E+01 -0.45203317910E+01 -0.56579943938E+00  0.48053436013E+01  0.51100000000E-03 0.  1.
         12    1    3    3    0    0 -0.73486276889E+01 -0.24977997188E+02 -0.31424292845E+01  0.26225513040E+02  0.00000000000E+00 0. -1.
</event>
<event>
 7    1  0.1024956E-012  0.5052885E+02  0.7816164E-02  0.1300439E+00
        -11   -1    0    0    0    0  0.00000000000E+00  0.00000000000E+00  0.45593999997E+02  0.45594000000E+02  0.51100000000E-03 0.  1.
         11   -1    0    0    0    0 -0.00000000000E+00 -0.00000000000E+00 -0.45593999997E+02  0.45594000000E+02  0.51100000000E-03 0. -1.
    9900012    2    1    2    0    0 -0.28430313835E+02 -0.24573429366E+02 -0.15525158030E+02  0.50528847188E+02  0.29999961511E+02 0.  0.
        -12    1    1    2    0    0  0.28430313835E+02  0.24573429366E+02  0.15525158030E+02  0.40659152812E+02  0.00000000000E+00 0.  1.
         11    1    3    3    0    0 -0.37468542058E+01  0.56222866000E+01 -0.69927514822E+01  0.97235588447E+01  0.51100000000E-03 0. -1.
        -11    1    3    3    0    0 -0.35376911383E+01 -0.98692906626E+01 -0.10614833858E+01  0.10537784587E+02  0.51100000000E-03 0.  1.
         12    1    3    3    0    0 -0.21145768491E+02 -0.20326425304E+02 -0.74709231621E+01  0.30267503755E+02  0.00000000000E+00 0. -1.
</event>
<event>
 7    1  0.1024956E-012  0.5052886E+02  0.7816164E-02  0.1300439E+00
        -11   -1    0    0    0    0  0.00000000000E+00  0.00000000000E+00  0.45593999997E+02  0.45594000000E+02  0.51100000000E-03 0.  1.
         11   -1    0    0    0    0 -0.00000000000E+00 -0.00000000000E+00 -0.45593999997E+02  0.45594000000E+02  0.51100000000E-03 0. -1.
    9900012    2    1    2    0    0 -0.50123412301E+01 -0.63949858910E+01 -0.39839008912E+02  0.50528855392E+02  0.29999986449E+02 0.  0.
        -12    1    1    2    0    0  0.50123412301E+01  0.63949858910E+01  0.39839008912E+02  0.40659144608E+02  0.00000000000E+00 0.  1.
         11    1    3    3    0    0 -0.15291950426E+02 -0.30474944848E+01 -0.29879889748E+02  0.33703690927E+02  0.51100000000E-03 0. -1.
        -11    1    3    3    0    0  0.15994531154E+01  0.24754495253E+01 -0.33345827897E+01  0.44503419265E+01  0.51100000000E-03 0.  1.
         12    1    3    3    0    0  0.86801560807E+01 -0.58229409315E+01 -0.66245363743E+01  0.12374822538E+02  0.00000000000E+00 0. -1.
</event>
<event>
 7    1  0.1024956E-012  0.5052886E+02  0.7816164E-02  0.1300439E+00
        -11   -1    0    0    0    0  0.00000000000E+00  0.00000000000E+00  0.45593999997E+02  0.45594000000E+02  0.51100000000E-03 0.  1.
         11   -1    0    0    0    0 -0.00000000000E+00 -0.00000000000E+00 -0.45593999997E+02  0.45594000000E+02  0.51100000000E-03 0. -1.
    9900012    2    1    2    0    0  0.26145249614E+02  0.65603788636E+01 -0.30439330332E+02  0.50528862290E+02  0.30000007417E+02 0.  0.
        -12    1    1    2    0    0 -0.26145249614E+02 -0.65603788636E+01  0.30439330332E+02  0.40659137710E+02  0.00000000000E+00 0.  1.
         11    1    3    3    0    0  0.18438095491E+02  0.10425328832E+02 -0.11313173145E+02  0.24013303260E+02  0.51100000000E-03 0. -1.
        -11    1    3    3    0    0  0.51093574685E+01 -0.83290346672E+01 -0.40467356062E+01  0.10576125073E+02  0.51100000000E-03 0.  1.
         12    1    3    3    0    0  0.25977966550E+01  0.44640846992E+01 -0.15079421581E+02  0.15939433957E+02  0.00000000000E+00 0. -1.
</event>
<event>
 7    1  0.1024956E-012  0.5052886E+02  0.7816164E-02  0.1300439E+00
        -11   -1    0    0    0    0  0.00000000000E+00  0.00000000000E+00  0.45593999997E+02  0.45594000000E+02  0.51100000000E-03 0. -1.
         11   -1    0    0    0    0 -0.00000000000E+00 -0.00000000000E+00 -0.45593999997E+02  0.45594000000E+02  0.51100000000E-03 0.  1.
    9900012    2    1    2    0    0  0.30288944918E+02  0.21581001691E+00  0.27123772281E+02  0.50528858580E+02  0.29999996140E+02 0.  0.
        -12    1    1    2    0    0 -0.30288944918E+02 -0.21581001691E+00 -0.27123772281E+02  0.40659141420E+02  0.00000000000E+00 0.  1.
         11    1    3    3    0    0  0.17897930931E+02 -0.72556528724E+01  0.91617346583E+01  0.21375635953E+02  0.51100000000E-03 0. -1.
        -11    1    3    3    0    0  0.59466602836E+01  0.12291674570E+02  0.64351321123E+01  0.15094997775E+02  0.51100000000E-03 0.  1.
        -12    1    3    3    0    0  0.64443537042E+01 -0.48202116811E+01  0.11526905511E+02  0.14058224851E+02  0.00000000000E+00 0.  1.
</event>
<event>
 7    1  0.1024956E-012  0.5052886E+02  0.7816164E-02  0.1300439E+00
        -11   -1    0    0    0    0  0.00000000000E+00  0.00000000000E+00  0.45593999997E+02  0.45594000000E+02  0.51100000000E-03 0. -1.
         11   -1    0    0    0    0 -0.00000000000E+00 -0.00000000000E+00 -0.45593999997E+02  0.45594000000E+02  0.51100000000E-03 0.  1.
    9900012    2    1    2    0    0  0.24105066921E+02  0.18468799695E+02  0.27037289637E+02  0.50528857801E+02  0.29999993772E+02 0.  0.
        -12    1    1    2    0    0 -0.24105066921E+02 -0.18468799695E+02 -0.27037289637E+02  0.40659142199E+02  0.00000000000E+00 0.  1.
         11    1    3    3    0    0  0.21877900942E+02  0.10808285688E+02  0.23438556456E+02  0.33835299882E+02  0.51100000000E-03 0. -1.
        -11    1    3    3    0    0  0.28579772981E+01  0.10636801883E+02 -0.11286939521E+01  0.11071745067E+02  0.51100000000E-03 0.  1.
         12    1    3    3    0    0 -0.63081131953E+00 -0.29762878750E+01  0.47274271339E+01  0.56218128519E+01  0.00000000000E+00 0. -1.
</event>
<event>
 7    1  0.1024956E-012  0.5052885E+02  0.7816164E-02  0.1300439E+00
        -11   -1    0    0    0    0  0.00000000000E+00  0.00000000000E+00  0.45593999997E+02  0.45594000000E+02  0.51100000000E-03 0.  1.
         11   -1    0    0    0    0 -0.00000000000E+00 -0.00000000000E+00 -0.45593999997E+02  0.45594000000E+02  0.51100000000E-03 0. -1.
    9900012    2    1    2    0    0  0.66471851004E+01 -0.35344805109E+02 -0.18966441418E+02  0.50528853206E+02  0.29999979806E+02 0.  0.
        -12    1    1    2    0    0 -0.66471851004E+01  0.35344805109E+02  0.18966441418E+02  0.40659146794E+02  0.00000000000E+00 0.  1.
         11    1    3    3    0    0  0.39212089146E+01 -0.77052942050E+01 -0.17442295488E+02  0.19467437178E+02  0.51100000000E-03 0. -1.
        -11    1    3    3    0    0 -0.26271606051E+01 -0.24222885891E+02  0.57858568333E+00  0.24371806158E+02  0.51100000000E-03 0.  1.
        -12    1    3    3    0    0  0.53531367909E+01 -0.34166250129E+01 -0.21027316132E+01  0.66896098704E+01  0.00000000000E+00 0.  1.
</event>
<event>
 7    1  0.1024956E-012  0.5052886E+02  0.7816164E-02  0.1300439E+00
        -11   -1    0    0    0    0  0.00000000000E+00  0.00000000000E+00  0.45593999997E+02  0.45594000000E+02  0.51100000000E-03 0.  1.
         11   -1    0    0    0    0 -0.00000000000E+00 -0.00000000000E+00 -0.45593999997E+02  0.45594000000E+02  0.51100000000E-03 0. -1.
    9900012    2    1    2    0    0 -0.11063201209E+02 -0.38528158091E+02 -0.68082652339E+01  0.50528857579E+02  0.29999993098E+02 0.  0.
        -12    1    1    2    0    0  0.11063201209E+02  0.38528158091E+02  0.68082652339E+01  0.40659142421E+02  0.00000000000E+00 0.  1.
         11    1    3    3    0    0 -0.31158490764E+01 -0.25224211576E+01 -0.11248597957E+02  0.11941611291E+02  0.51100000000E-03 0. -1.
        -11    1    3    3    0    0 -0.10490895720E+02 -0.26798281394E+02  0.33211478087E+01  0.28969584079E+02  0.51100000000E-03 0.  1.
         12    1    3    3    0    0  0.25435435870E+01 -0.92074555395E+01  0.11191849148E+01  0.96176622089E+01  0.00000000000E+00 0. -1.
</event>
<event>
 7    1  0.1024956E-012  0.5052886E+02  0.7816164E-02  0.1300439E+00
        -11   -1    0    0    0    0  0.00000000000E+00  0.00000000000E+00  0.45593999997E+02  0.45594000000E+02  0.51100000000E-03 0. -1.
         11   -1    0    0    0    0 -0.00000000000E+00 -0.00000000000E+00 -0.45593999997E+02  0.45594000000E+02  0.51100000000E-03 0.  1.
    9900012    2    1    2    0    0 -0.79864708104E+01 -0.22194567669E+01  0.39805222229E+02  0.50528863006E+02  0.30000009594E+02 0.  0.
        -12    1    1    2    0    0  0.79864708104E+01  0.22194567669E+01 -0.39805222229E+02  0.40659136994E+02  0.00000000000E+00 0.  1.
         11    1    3    3    0    0 -0.33620503692E-01 -0.15114252824E+02  0.25669902932E+02  0.29789019547E+02  0.51100000000E-03 0. -1.
        -11    1    3    3    0    0 -0.22413996303E+01  0.44344326246E+01  0.46873147015E+01  0.68307382015E+01  0.51100000000E-03 0.  1.
         12    1    3    3    0    0 -0.57114506763E+01  0.84603634324E+01  0.94480045953E+01  0.13909105258E+02  0.00000000000E+00 0. -1.
</event>
<event>
 7    1  0.1024956E-012  0.5052886E+02  0.7816164E-02  0.1300439E+00
        -11   -1    0    0    0    0  0.00000000000E+00  0.00000000000E+00  0.45593999997E+02  0.45594000000E+02  0.51100000000E-03 0.  1.
         11   -1    0    0    0    0 -0.00000000000E+00 -0.00000000000E+00 -0.45593999997E+02  0.45594000000E+02  0.51100000000E-03 0. -1.
    9900012    2    1    2    0    0 -0.24818896266E+02 -0.30962595362E+02 -0.88603290221E+01  0.50528863834E+02  0.30000012110E+02 0.  0.
        -12    1    1    2    0    0  0.24818896266E+02  0.30962595362E+02  0.88603290221E+01  0.40659136166E+02  0.00000000000E+00 0.  1.
         11    1    3    3    0    0 -0.12176400200E+02 -0.12005307606E+02 -0.17194458441E+02  0.24249567705E+02  0.51100000000E-03 0. -1.
        -11    1    3    3    0    0 -0.83135844793E+01 -0.14556710902E+02  0.10449956396E+02  0.19753863119E+02  0.51100000000E-03 0.  1.
         12    1    3    3    0    0 -0.43289115865E+01 -0.44005768537E+01 -0.21158269778E+01  0.65254330101E+01  0.00000000000E+00 0. -1.
</event>
<event>
 7    1  0.1024956E-012  0.5052890E+02  0.7816164E-02  0.1300439E+00
        -11   -1    0    0    0    0  0.00000000000E+00  0.00000000000E+00  0.45593999997E+02  0.45594000000E+02  0.51100000000E-03 0. -1.
         11   -1    0    0    0    0 -0.00000000000E+00 -0.00000000000E+00 -0.45593999997E+02  0.45594000000E+02  0.51100000000E-03 0.  1.
    9900012    2    1    2    0    0  0.40251032223E+02 -0.14369176744E+01  0.55634365561E+01  0.50528903186E+02  0.30000131724E+02 0.  0.
        -12    1    1    2    0    0 -0.40251032223E+02  0.14369176744E+01 -0.55634365561E+01  0.40659096814E+02  0.00000000000E+00 0.  1.
         11    1    3    3    0    0  0.86472785995E+01  0.15440249050E+01  0.46227996783E+00  0.87962004931E+01  0.51100000000E-03 0. -1.
        -11    1    3    3    0    0  0.27713336527E+02 -0.12840172758E+02  0.58832176779E+01  0.31104843810E+02  0.51100000000E-03 0.  1.
        -12    1    3    3    0    0  0.38904170958E+01  0.98592301784E+01 -0.78206108970E+00  0.10627858883E+02  0.00000000000E+00 0.  1.
</event>
<event>
 7    1  0.1024956E-012  0.5052885E+02  0.7816164E-02  0.1300439E+00
        -11   -1    0    0    0    0  0.00000000000E+00  0.00000000000E+00  0.45593999997E+02  0.45594000000E+02  0.51100000000E-03 0.  1.
         11   -1    0    0    0    0 -0.00000000000E+00 -0.00000000000E+00 -0.45593999997E+02  0.45594000000E+02  0.51100000000E-03 0. -1.
    9900012    2    1    2    0    0 -0.75047919807E+01  0.14533978011E+02 -0.37223755536E+02  0.50528851021E+02  0.29999973163E+02 0.  0.
        -12    1    1    2    0    0  0.75047919807E+01 -0.14533978011E+02  0.37223755536E+02  0.40659148979E+02  0.00000000000E+00 0.  1.
         11    1    3    3    0    0  0.14539247254E+01  0.84023242755E+01 -0.12671751314E+02  0.15273710485E+02  0.51100000000E-03 0. -1.
        -11    1    3    3    0    0 -0.20456964737E+01 -0.13576863429E+01  0.41363089638E+01  0.48101183325E+01  0.51100000000E-03 0.  1.
        -12    1    3    3    0    0 -0.69130202324E+01  0.74893400779E+01 -0.28688313186E+02  0.30445022204E+02  0.00000000000E+00 0.  1.
</event>
<event>
 7    1  0.1024956E-012  0.5052886E+02  0.7816164E-02  0.1300439E+00
        -11   -1    0    0    0    0  0.00000000000E+00  0.00000000000E+00  0.45593999997E+02  0.45594000000E+02  0.51100000000E-03 0.  1.
         11   -1    0    0    0    0 -0.00000000000E+00 -0.00000000000E+00 -0.45593999997E+02  0.45594000000E+02  0.51100000000E-03 0. -1.
    9900012    2    1    2    0    0  0.39081276887E+02  0.87064059077E+01 -0.70723484811E+01  0.50528858101E+02  0.29999994683E+02 0.  0.
        -12    1    1    2    0    0 -0.39081276887E+02 -0.87064059077E+01  0.70723484811E+01  0.40659141899E+02  0.00000000000E+00 0.  1.
         11    1    3    3    0    0  0.20639350195E+02 -0.28356849220E+01  0.68192678402E+01  0.21920910100E+02  0.51100000000E-03 0. -1.
        -11    1    3    3    0    0  0.58571343821E+01  0.64871120347E+01 -0.12102361947E+02  0.14928355927E+02  0.51100000000E-03 0.  1.
        -12    1    3    3    0    0  0.12584792310E+02  0.50549787950E+01 -0.17892543739E+01  0.13679592074E+02  0.00000000000E+00 0.  1.
</event>
<event>
 7    1  0.1024956E-012  0.5052880E+02  0.7816164E-02  0.1300439E+00
        -11   -1    0    0    0    0  0.00000000000E+00  0.00000000000E+00  0.45593999997E+02  0.45594000000E+02  0.51100000000E-03 0.  1.
         11   -1    0    0    0    0 -0.00000000000E+00 -0.00000000000E+00 -0.45593999997E+02  0.45594000000E+02  0.51100000000E-03 0. -1.
    9900012    2    1    2    0    0 -0.87240847967E+00 -0.11191713886E+02 -0.39078833805E+02  0.50528796764E+02  0.29999808243E+02 0.  0.
        -12    1    1    2    0    0  0.87240847967E+00  0.11191713886E+02  0.39078833805E+02  0.40659203236E+02  0.00000000000E+00 0.  1.
         11    1    3    3    0    0 -0.27017058691E+01 -0.29713250503E+01 -0.18010213457E+02  0.18452527637E+02  0.51100000000E-03 0. -1.
        -11    1    3    3    0    0  0.69814038983E+00 -0.88562468089E+01  0.18887258988E+01  0.90822790821E+01  0.51100000000E-03 0.  1.
        -12    1    3    3    0    0  0.11311569996E+01  0.63585797329E+00 -0.22957346247E+02  0.22993990045E+02  0.00000000000E+00 0.  1.
</event>
<event>
 7    1  0.1024956E-012  0.5052886E+02  0.7816164E-02  0.1300439E+00
        -11   -1    0    0    0    0  0.00000000000E+00  0.00000000000E+00  0.45593999997E+02  0.45594000000E+02  0.51100000000E-03 0.  1.
         11   -1    0    0    0    0 -0.00000000000E+00 -0.00000000000E+00 -0.45593999997E+02  0.45594000000E+02  0.51100000000E-03 0. -1.
    9900012    2    1    2    0    0  0.26103551304E+02  0.14311881399E+02 -0.27693693110E+02  0.50528856159E+02  0.29999988780E+02 0.  0.
        -12    1    1    2    0    0 -0.26103551304E+02 -0.14311881399E+02  0.27693693110E+02  0.40659143841E+02  0.00000000000E+00 0.  1.
         11    1    3    3    0    0  0.13916099127E+02 -0.46327939604E+01 -0.18614630900E+01  0.14784642028E+02  0.51100000000E-03 0. -1.
        -11    1    3    3    0    0  0.81815241056E+01  0.18879123696E+02 -0.20214297489E+02  0.28844002347E+02  0.51100000000E-03 0.  1.
         12    1    3    3    0    0  0.40059280711E+01  0.65551663350E-01 -0.56179325309E+01  0.69002117832E+01  0.00000000000E+00 0. -1.
</event>
<event>
 7    1  0.1024956E-012  0.5052885E+02  0.7816164E-02  0.1300439E+00
        -11   -1    0    0    0    0  0.00000000000E+00  0.00000000000E+00  0.45593999997E+02  0.45594000000E+02  0.51100000000E-03 0.  1.
         11   -1    0    0    0    0 -0.00000000000E+00 -0.00000000000E+00 -0.45593999997E+02  0.45594000000E+02  0.51100000000E-03 0. -1.
    9900012    2    1    2    0    0  0.99088741848E+01  0.18052616114E+02 -0.35058293660E+02  0.50528847396E+02  0.29999962144E+02 0.  0.
        -12    1    1    2    0    0 -0.99088741848E+01 -0.18052616114E+02  0.35058293660E+02  0.40659152604E+02  0.00000000000E+00 0.  1.
         11    1    3    3    0    0  0.15344140977E+02  0.30080784952E+01 -0.26774175238E+02  0.31005606888E+02  0.51100000000E-03 0. -1.
        -11    1    3    3    0    0 -0.22613340662E+01  0.79614208078E+01 -0.14660607001E+00  0.82776413693E+01  0.51100000000E-03 0.  1.
         12    1    3    3    0    0 -0.31739327264E+01  0.70831168109E+01 -0.81375123512E+01  0.11245599138E+02  0.00000000000E+00 0. -1.
</event>
<event>
 7    1  0.1024956E-012  0.5052887E+02  0.7816164E-02  0.1300439E+00
        -11   -1    0    0    0    0  0.00000000000E+00  0.00000000000E+00  0.45593999997E+02  0.45594000000E+02  0.51100000000E-03 0. -1.
         11   -1    0    0    0    0 -0.00000000000E+00 -0.00000000000E+00 -0.45593999997E+02  0.45594000000E+02  0.51100000000E-03 0.  1.
    9900012    2    1    2    0    0 -0.37643503641E+01  0.18146732434E+02  0.36189647713E+02  0.50528870235E+02  0.30000031565E+02 0.  0.
        -12    1    1    2    0    0  0.37643503641E+01 -0.18146732434E+02 -0.36189647713E+02  0.40659129765E+02  0.00000000000E+00 0.  1.
         11    1    3    3    0    0  0.47668990222E+01  0.11050177743E+02  0.25042041891E+02  0.27783693361E+02  0.51100000000E-03 0. -1.
        -11    1    3    3    0    0 -0.79538311977E+01  0.72798523922E+01 -0.77219235579E+00  0.10809993657E+02  0.51100000000E-03 0.  1.
         12    1    3    3    0    0 -0.57741818858E+00 -0.18329770162E+00  0.11919798178E+02  0.11935183217E+02  0.00000000000E+00 0. -1.
</event>
<event>
 7    1  0.1024956E-012  0.5052886E+02  0.7816164E-02  0.1300439E+00
        -11   -1    0    0    0    0  0.00000000000E+00  0.00000000000E+00  0.45593999997E+02  0.45594000000E+02  0.51100000000E-03 0. -1.
         11   -1    0    0    0    0 -0.00000000000E+00 -0.00000000000E+00 -0.45593999997E+02  0.45594000000E+02  0.51100000000E-03 0.  1.
    9900012    2    1    2    0    0  0.43554415953E+00  0.38014134680E+02  0.14418788710E+02  0.50528860781E+02  0.30000002829E+02 0.  0.
        -12    1    1    2    0    0 -0.43554415953E+00 -0.38014134680E+02 -0.14418788710E+02  0.40659139219E+02  0.00000000000E+00 0.  1.
         11    1    3    3    0    0  0.56891302968E+01  0.23156792312E+02  0.14205564168E+02  0.27756103604E+02  0.51100000000E-03 0. -1.
        -11    1    3    3    0    0 -0.14502228080E+01  0.70345523616E+01 -0.80407335395E+01  0.10781533714E+02  0.51100000000E-03 0.  1.
        -12    1    3    3    0    0 -0.38033633293E+01  0.78227900072E+01  0.82539580809E+01  0.11991223462E+02  0.00000000000E+00 0.  1.
</event>
<event>
 7    1  0.1024956E-012  0.5052886E+02  0.7816164E-02  0.1300439E+00
        -11   -1    0    0    0    0  0.00000000000E+00  0.00000000000E+00  0.45593999997E+02  0.45594000000E+02  0.51100000000E-03 0.  1.
         11   -1    0    0    0    0 -0.00000000000E+00 -0.00000000000E+00 -0.45593999997E+02  0.45594000000E+02  0.51100000000E-03 0. -1.
    9900012    2    1    2    0    0  0.55398303898E+01  0.22936402617E+02 -0.33111886422E+02  0.50528864395E+02  0.30000013814E+02 0.  0.
        -12    1    1    2    0    0 -0.55398303898E+01 -0.22936402617E+02  0.33111886422E+02  0.40659135605E+02  0.00000000000E+00 0.  1.
         11    1    3    3    0    0  0.49676815788E+01  0.39337639810E+01 -0.18517526355E+02  0.19571692362E+02  0.51100000000E-03 0. -1.
        -11    1    3    3    0    0 -0.60023588101E+01  0.15537582993E+02 -0.16329141175E+02  0.23325643578E+02  0.51100000000E-03 0.  1.
        -12    1    3    3    0    0  0.65745076212E+01  0.34650556422E+01  0.17347811078E+01  0.76315284548E+01  0.00000000000E+00 0.  1.
</event>
<event>
 7    1  0.1024956E-012  0.5052886E+02  0.7816164E-02  0.1300439E+00
        -11   -1    0    0    0    0  0.00000000000E+00  0.00000000000E+00  0.45593999997E+02  0.45594000000E+02  0.51100000000E-03 0. -1.
         11   -1    0    0    0    0 -0.00000000000E+00 -0.00000000000E+00 -0.45593999997E+02  0.45594000000E+02  0.51100000000E-03 0.  1.
    9900012    2    1    2    0    0 -0.24510043184E+02  0.25510057905E+02  0.20041471459E+02  0.50528857738E+02  0.29999993581E+02 0.  0.
        -12    1    1    2    0    0  0.24510043184E+02 -0.25510057905E+02 -0.20041471459E+02  0.40659142262E+02  0.00000000000E+00 0.  1.
         11    1    3    3    0    0 -0.68488383966E+01  0.17586734055E+02 -0.18967163289E+01  0.18968324522E+02  0.51100000000E-03 0. -1.
        -11    1    3    3    0    0 -0.61335879555E+01 -0.25495932175E+01  0.96835442465E+01  0.11742757607E+02  0.51100000000E-03 0.  1.
         12    1    3    3    0    0 -0.11527616832E+02  0.10472917068E+02  0.12254643541E+02  0.19817775609E+02  0.00000000000E+00 0. -1.
</event>
<event>
 7    1  0.1024956E-012  0.5052888E+02  0.7816164E-02  0.1300439E+00
        -11   -1    0    0    0    0  0.00000000000E+00  0.00000000000E+00  0.45593999997E+02  0.45594000000E+02  0.51100000000E-03 0.  1.
         11   -1    0    0    0    0 -0.00000000000E+00 -0.00000000000E+00 -0.45593999997E+02  0.45594000000E+02  0.51100000000E-03 0. -1.
    9900012    2    1    2    0    0 -0.26234499195E+02  0.20712684061E+02 -0.23149505758E+02  0.50528882377E+02  0.30000068474E+02 0.  0.
        -12    1    1    2    0    0  0.26234499195E+02 -0.20712684061E+02  0.23149505758E+02  0.40659117623E+02  0.00000000000E+00 0.  1.
         11    1    3    3    0    0 -0.10847097187E+02  0.69356799061E+01 -0.10146403016E+02  0.16392457642E+02  0.51100000000E-03 0. -1.
        -11    1    3    3    0    0 -0.47034365304E+00  0.16352197386E+02 -0.56485234223E+01  0.17306686558E+02  0.51100000000E-03 0.  1.
        -12    1    3    3    0    0 -0.14917058355E+02 -0.25751932308E+01 -0.73545793198E+01  0.16829738177E+02  0.00000000000E+00 0.  1.
</event>
<event>
 7    1  0.1024956E-012  0.5052885E+02  0.7816164E-02  0.1300439E+00
        -11   -1    0    0    0    0  0.00000000000E+00  0.00000000000E+00  0.45593999997E+02  0.45594000000E+02  0.51100000000E-03 0.  1.
         11   -1    0    0    0    0 -0.00000000000E+00 -0.00000000000E+00 -0.45593999997E+02  0.45594000000E+02  0.51100000000E-03 0. -1.
    9900012    2    1    2    0    0 -0.20654546872E+02 -0.11241879672E+02 -0.33168911402E+02  0.50528845451E+02  0.29999956232E+02 0.  0.
        -12    1    1    2    0    0  0.20654546872E+02  0.11241879672E+02  0.33168911402E+02  0.40659154549E+02  0.00000000000E+00 0.  1.
         11    1    3    3    0    0 -0.23170925761E+02 -0.10279617028E+02 -0.30900485681E+02  0.39967516091E+02  0.51100000000E-03 0. -1.
        -11    1    3    3    0    0  0.30356759514E+01  0.31481010664E+01 -0.41337083804E+01  0.60177582239E+01  0.51100000000E-03 0.  1.
         12    1    3    3    0    0 -0.51929706263E+00 -0.41103637097E+01  0.18652826595E+01  0.45435711357E+01  0.00000000000E+00 0. -1.
</event>
<event>
 7    1  0.1024956E-012  0.5052886E+02  0.7816164E-02  0.1300439E+00
        -11   -1    0    0    0    0  0.00000000000E+00  0.00000000000E+00  0.45593999997E+02  0.45594000000E+02  0.51100000000E-03 0. -1.
         11   -1    0    0    0    0 -0.00000000000E+00 -0.00000000000E+00 -0.45593999997E+02  0.45594000000E+02  0.51100000000E-03 0.  1.
    9900012    2    1    2    0    0 -0.36943062433E+02 -0.98682189087E+01  0.13820065808E+02  0.50528858035E+02  0.29999994484E+02 0.  0.
        -12    1    1    2    0    0  0.36943062433E+02  0.98682189087E+01 -0.13820065808E+02  0.40659141965E+02  0.00000000000E+00 0.  1.
         11    1    3    3    0    0  0.14582719917E+01  0.14977915067E+01  0.28561016256E+01  0.35393860140E+01  0.51100000000E-03 0.  1.
        -11    1    3    3    0    0 -0.36968194431E+02 -0.13949404622E+02  0.43568213388E+01  0.39751920472E+02  0.51100000000E-03 0. -1.
        -12    1    3    3    0    0 -0.14331399944E+01  0.25833942071E+01  0.66071428431E+01  0.72375515489E+01  0.00000000000E+00 0.  1.
</event>
<event>
 7    1  0.1359759E-012  0.5052886E+02  0.7816164E-02  0.1300439E+00
        -11   -1    0    0    0    0  0.00000000000E+00  0.00000000000E+00  0.45593999997E+02  0.45594000000E+02  0.51100000000E-03 0. -1.
         11   -1    0    0    0    0 -0.00000000000E+00 -0.00000000000E+00 -0.45593999997E+02  0.45594000000E+02  0.51100000000E-03 0.  1.
    9900012    2    1    2    0    0  0.33028389820E+02 -0.81275391679E+01  0.22276313836E+02  0.50528860989E+02  0.30000003461E+02 0.  0.
        -12    1    1    2    0    0 -0.33028389820E+02  0.81275391679E+01 -0.22276313836E+02  0.40659139011E+02  0.00000000000E+00 0.  1.
         11    1    3    3    0    0  0.18948624115E+02 -0.97154550726E+01  0.92849298438E+01  0.23230375493E+02  0.51100000000E-03 0. -1.
        -11    1    3    3    0    0  0.88907854256E+01  0.22857621223E+01  0.17903156231E+02  0.20119487500E+02  0.51100000000E-03 0.  1.
        -12    1    3    3    0    0  0.51889802801E+01 -0.69784621757E+00 -0.49117722391E+01  0.71789979955E+01  0.00000000000E+00 0.  1.
</event>
<event>
 7    1  0.1024956E-012  0.5052887E+02  0.7816164E-02  0.1300439E+00
        -11   -1    0    0    0    0  0.00000000000E+00  0.00000000000E+00  0.45593999997E+02  0.45594000000E+02  0.51100000000E-03 0.  1.
         11   -1    0    0    0    0 -0.00000000000E+00 -0.00000000000E+00 -0.45593999997E+02  0.45594000000E+02  0.51100000000E-03 0. -1.
    9900012    2    1    2    0    0  0.85907198442E+01 -0.31913138496E+02 -0.23683668628E+02  0.50528867744E+02  0.30000023995E+02 0.  0.
        -12    1    1    2    0    0 -0.85907198442E+01  0.31913138496E+02  0.23683668628E+02  0.40659132256E+02  0.00000000000E+00 0.  1.
         11    1    3    3    0    0  0.19590791029E+02 -0.21438435074E+02 -0.18046012702E+02  0.34191580342E+02  0.51100000000E-03 0. -1.
        -11    1    3    3    0    0 -0.75175622036E+01 -0.57513278852E+01 -0.35032130251E+01  0.10092770466E+02  0.51100000000E-03 0.  1.
         12    1    3    3    0    0 -0.34825089811E+01 -0.47233755375E+01 -0.21344429005E+01  0.62445169362E+01  0.00000000000E+00 0. -1.
</event>
<event>
 7    1  0.1024956E-012  0.5052886E+02  0.7816164E-02  0.1300439E+00
        -11   -1    0    0    0    0  0.00000000000E+00  0.00000000000E+00  0.45593999997E+02  0.45594000000E+02  0.51100000000E-03 0. -1.
         11   -1    0    0    0    0 -0.00000000000E+00 -0.00000000000E+00 -0.45593999997E+02  0.45594000000E+02  0.51100000000E-03 0.  1.
    9900012    2    1    2    0    0  0.21826367269E+02 -0.31185181470E+02 -0.14291954296E+02  0.50528858235E+02  0.29999995092E+02 0.  0.
        -12    1    1    2    0    0 -0.21826367269E+02  0.31185181470E+02  0.14291954296E+02  0.40659141765E+02  0.00000000000E+00 0.  1.
         11    1    3    3    0    0  0.24218320017E+02 -0.25885943858E+02 -0.14733834884E+02  0.38388735386E+02  0.51100000000E-03 0. -1.
        -11    1    3    3    0    0  0.14674849133E+01 -0.33832930125E+00  0.44416541815E+01  0.46900182106E+01  0.51100000000E-03 0.  1.
         12    1    3    3    0    0 -0.38594376619E+01 -0.49609083109E+01 -0.39997735930E+01  0.74501046389E+01  0.00000000000E+00 0. -1.
</event>
<event>
 7    1  0.1024956E-012  0.5052886E+02  0.7816164E-02  0.1300439E+00
        -11   -1    0    0    0    0  0.00000000000E+00  0.00000000000E+00  0.45593999997E+02  0.45594000000E+02  0.51100000000E-03 0.  1.
         11   -1    0    0    0    0 -0.00000000000E+00 -0.00000000000E+00 -0.45593999997E+02  0.45594000000E+02  0.51100000000E-03 0. -1.
    9900012    2    1    2    0    0  0.38963887010E+02  0.11033597156E+02  0.36388406469E+01  0.50528856891E+02  0.29999991004E+02 0.  0.
        -12    1    1    2    0    0 -0.38963887010E+02 -0.11033597156E+02 -0.36388406469E+01  0.40659143109E+02  0.00000000000E+00 0.  1.
         11    1    3    3    0    0  0.73780662301E+01  0.29989589985E+01 -0.94453201501E+01  0.12354905478E+02  0.51100000000E-03 0. -1.
        -11    1    3    3    0    0  0.21380433752E+02  0.85245179709E+01  0.15404856381E+02  0.27696569362E+02  0.51100000000E-03 0.  1.
        -12    1    3    3    0    0  0.10205387029E+02 -0.48987981384E+00 -0.23206955843E+01  0.10477382050E+02  0.00000000000E+00 0.  1.
</event>
<event>
 7    1  0.1024956E-012  0.5052887E+02  0.7816164E-02  0.1300439E+00
        -11   -1    0    0    0    0  0.00000000000E+00  0.00000000000E+00  0.45593999997E+02  0.45594000000E+02  0.51100000000E-03 0.  1.
         11   -1    0    0    0    0 -0.00000000000E+00 -0.00000000000E+00 -0.45593999997E+02  0.45594000000E+02  0.51100000000E-03 0. -1.
    9900012    2    1    2    0    0  0.23749525355E+02 -0.20596644435E+02 -0.25785710746E+02  0.50528873162E+02  0.30000040463E+02 0.  0.
        -12    1    1    2    0    0 -0.23749525355E+02  0.20596644435E+02  0.25785710746E+02  0.40659126838E+02  0.00000000000E+00 0.  1.
         11    1    3    3    0    0  0.11614827883E+02 -0.20106080668E+02 -0.28360241848E+02  0.36653267583E+02  0.51100000000E-03 0. -1.
        -11    1    3    3    0    0  0.84019727130E+01 -0.32078605167E+01  0.20903601870E+01  0.92332616413E+01  0.51100000000E-03 0.  1.
         12    1    3    3    0    0  0.37327247595E+01  0.27172967505E+01  0.48417091453E+00  0.46423439376E+01  0.00000000000E+00 0. -1.
</event>
<event>
 7    1  0.1024956E-012  0.5052887E+02  0.7816164E-02  0.1300439E+00
        -11   -1    0    0    0    0  0.00000000000E+00  0.00000000000E+00  0.45593999997E+02  0.45594000000E+02  0.51100000000E-03 0.  1.
         11   -1    0    0    0    0 -0.00000000000E+00 -0.00000000000E+00 -0.45593999997E+02  0.45594000000E+02  0.51100000000E-03 0. -1.
    9900012    2    1    2    0    0  0.62991344277E+00  0.38878134662E+02 -0.11885240474E+02  0.50528867117E+02  0.30000022087E+02 0.  0.
        -12    1    1    2    0    0 -0.62991344277E+00 -0.38878134662E+02  0.11885240474E+02  0.40659132883E+02  0.00000000000E+00 0.  1.
         11    1    3    3    0    0 -0.56117504444E+01  0.23231206079E+02  0.27304671678E+01  0.24054856685E+02  0.51100000000E-03 0. -1.
        -11    1    3    3    0    0  0.28953139623E+01 -0.23605390538E+01 -0.29338641154E+01  0.47500048920E+01  0.51100000000E-03 0.  1.
         12    1    3    3    0    0  0.33463499249E+01  0.18007467636E+02 -0.11681843526E+02  0.21724005539E+02  0.00000000000E+00 0. -1.
</event>
<event>
 7    1  0.1024956E-012  0.5052885E+02  0.7816164E-02  0.1300439E+00
        -11   -1    0    0    0    0  0.00000000000E+00  0.00000000000E+00  0.45593999997E+02  0.45594000000E+02  0.51100000000E-03 0.  1.
         11   -1    0    0    0    0 -0.00000000000E+00 -0.00000000000E+00 -0.45593999997E+02  0.45594000000E+02  0.51100000000E-03 0. -1.
    9900012    2    1    2    0    0  0.39362441536E+02 -0.10106989270E+02  0.12700900444E+01  0.50528853864E+02  0.29999981806E+02 0.  0.
        -12    1    1    2    0    0 -0.39362441536E+02  0.10106989270E+02 -0.12700900444E+01  0.40659146136E+02  0.00000000000E+00 0.  1.
         11    1    3    3    0    0 -0.22630828709E+01 -0.34189797179E+01 -0.56003701925E+01  0.69408294134E+01  0.51100000000E-03 0. -1.
        -11    1    3    3    0    0  0.70839782526E+01  0.19297784686E+01  0.23089875569E+01  0.76966367083E+01  0.51100000000E-03 0.  1.
         12    1    3    3    0    0  0.34541546154E+02 -0.86177880208E+01  0.45614726801E+01  0.35891387743E+02  0.00000000000E+00 0. -1.
</event>
<event>
 7    1  0.1024956E-012  0.5052887E+02  0.7816164E-02  0.1300439E+00
        -11   -1    0    0    0    0  0.00000000000E+00  0.00000000000E+00  0.45593999997E+02  0.45594000000E+02  0.51100000000E-03 0.  1.
         11   -1    0    0    0    0 -0.00000000000E+00 -0.00000000000E+00 -0.45593999997E+02  0.45594000000E+02  0.51100000000E-03 0. -1.
    9900012    2    1    2    0    0 -0.15257680834E+01  0.15054860955E+02 -0.37738411440E+02  0.50528874277E+02  0.30000043851E+02 0.  0.
        -12    1    1    2    0    0  0.15257680834E+01 -0.15054860955E+02  0.37738411440E+02  0.40659125723E+02  0.00000000000E+00 0.  1.
         11    1    3    3    0    0  0.19767004225E+01  0.13635419807E+01 -0.35911279192E+01  0.43200452876E+01  0.51100000000E-03 0. -1.
        -11    1    3    3    0    0  0.72597710917E+01  0.55578208917E+01  0.36863589697E+00  0.91503848036E+01  0.51100000000E-03 0.  1.
        -12    1    3    3    0    0 -0.10762239598E+02  0.81334980824E+01 -0.34515919417E+02  0.37058444185E+02  0.00000000000E+00 0.  1.
</event>
<event>
 7    1  0.1024956E-012  0.5052881E+02  0.7816164E-02  0.1300439E+00
        -11   -1    0    0    0    0  0.00000000000E+00  0.00000000000E+00  0.45593999997E+02  0.45594000000E+02  0.51100000000E-03 0.  1.
         11   -1    0    0    0    0 -0.00000000000E+00 -0.00000000000E+00 -0.45593999997E+02  0.45594000000E+02  0.51100000000E-03 0. -1.
    9900012    2    1    2    0    0  0.11313225756E+02 -0.35141264452E+02  0.17037369035E+02  0.50528812995E+02  0.29999857578E+02 0.  0.
        -12    1    1    2    0    0 -0.11313225756E+02  0.35141264452E+02 -0.17037369035E+02  0.40659187005E+02  0.00000000000E+00 0.  1.
         11    1    3    3    0    0  0.17087371195E+02 -0.28604674664E+02  0.93941495816E+01  0.34618719122E+02  0.51100000000E-03 0. -1.
        -11    1    3    3    0    0 -0.31978959323E+01  0.25424755452E+01  0.42129138421E+01  0.58685060785E+01  0.51100000000E-03 0.  1.
        -12    1    3    3    0    0 -0.25762495064E+01 -0.90790653334E+01  0.34303056114E+01  0.10041587794E+02  0.00000000000E+00 0.  1.
</event>
<event>
 7    1  0.1024956E-012  0.5052886E+02  0.7816164E-02  0.1300439E+00
        -11   -1    0    0    0    0  0.00000000000E+00  0.00000000000E+00  0.45593999997E+02  0.45594000000E+02  0.51100000000E-03 0.  1.
         11   -1    0    0    0    0 -0.00000000000E+00 -0.00000000000E+00 -0.45593999997E+02  0.45594000000E+02  0.51100000000E-03 0. -1.
    9900012    2    1    2    0    0  0.21962786043E+02 -0.23566647022E+02 -0.24807556057E+02  0.50528860067E+02  0.30000000659E+02 0.  0.
        -12    1    1    2    0    0 -0.21962786043E+02  0.23566647022E+02  0.24807556057E+02  0.40659139933E+02  0.00000000000E+00 0.  1.
         11    1    3    3    0    0  0.67936532809E+01 -0.11578666973E+02 -0.15474743899E+02  0.20486262538E+02  0.51100000000E-03 0. -1.
        -11    1    3    3    0    0  0.18754627567E+02 -0.55056560754E+01 -0.20481782561E+01  0.19653074529E+02  0.51100000000E-03 0.  1.
        -12    1    3    3    0    0 -0.35854948051E+01 -0.64823239730E+01 -0.72846339015E+01  0.10389523000E+02  0.00000000000E+00 0.  1.
</event>
<event>
 7    1  0.1024956E-012  0.5052886E+02  0.7816164E-02  0.1300439E+00
        -11   -1    0    0    0    0  0.00000000000E+00  0.00000000000E+00  0.45593999997E+02  0.45594000000E+02  0.51100000000E-03 0.  1.
         11   -1    0    0    0    0 -0.00000000000E+00 -0.00000000000E+00 -0.45593999997E+02  0.45594000000E+02  0.51100000000E-03 0. -1.
    9900012    2    1    2    0    0  0.13592648186E+02  0.12333428064E+02 -0.36280745021E+02  0.50528855988E+02  0.29999988260E+02 0.  0.
        -12    1    1    2    0    0 -0.13592648186E+02 -0.12333428064E+02  0.36280745021E+02  0.40659144012E+02  0.00000000000E+00 0.  1.
         11    1    3    3    0    0 -0.48699506749E+01  0.82123309133E+01 -0.16538554053E+02  0.19096663820E+02  0.51100000000E-03 0. -1.
        -11    1    3    3    0    0  0.88366364331E+01  0.43530611150E+01 -0.43859267594E+00  0.98604081212E+01  0.51100000000E-03 0.  1.
        -12    1    3    3    0    0  0.96259624283E+01 -0.23196396383E+00 -0.19303598292E+02  0.21571784047E+02  0.00000000000E+00 0.  1.
</event>
<event>
 7    1  0.1024956E-012  0.5052886E+02  0.7816164E-02  0.1300439E+00
        -11   -1    0    0    0    0  0.00000000000E+00  0.00000000000E+00  0.45593999997E+02  0.45594000000E+02  0.51100000000E-03 0. -1.
         11   -1    0    0    0    0 -0.00000000000E+00 -0.00000000000E+00 -0.45593999997E+02  0.45594000000E+02  0.51100000000E-03 0.  1.
    9900012    2    1    2    0    0 -0.15191151550E+01  0.39398650097E+02 -0.99299700216E+01  0.50528860253E+02  0.30000001226E+02 0.  0.
        -12    1    1    2    0    0  0.15191151550E+01 -0.39398650097E+02  0.99299700216E+01  0.40659139747E+02  0.00000000000E+00 0.  1.
         11    1    3    3    0    0 -0.10193460994E+02  0.34253885983E+02 -0.10270691461E+02  0.37184976204E+02  0.51100000000E-03 0. -1.
        -11    1    3    3    0    0  0.69820848610E+01  0.33151278421E+01 -0.37212364630E+01  0.85782971906E+01  0.51100000000E-03 0.  1.
         12    1    3    3    0    0  0.16922609782E+01  0.18296362720E+01  0.40619579022E+01  0.47655868585E+01  0.00000000000E+00 0. -1.
</event>
<event>
 7    1  0.1024956E-012  0.5052886E+02  0.7816164E-02  0.1300439E+00
        -11   -1    0    0    0    0  0.00000000000E+00  0.00000000000E+00  0.45593999997E+02  0.45594000000E+02  0.51100000000E-03 0.  1.
         11   -1    0    0    0    0 -0.00000000000E+00 -0.00000000000E+00 -0.45593999997E+02  0.45594000000E+02  0.51100000000E-03 0. -1.
    9900012    2    1    2    0    0 -0.85052540775E+01  0.23286094492E+02 -0.32227066486E+02  0.50528863783E+02  0.30000011955E+02 0.  0.
        -12    1    1    2    0    0  0.85052540775E+01 -0.23286094492E+02  0.32227066486E+02  0.40659136217E+02  0.00000000000E+00 0.  1.
         11    1    3    3    0    0 -0.41345639790E-01 -0.40858971539E+01  0.20973196849E+01  0.45929309962E+01  0.51100000000E-03 0. -1.
        -11    1    3    3    0    0 -0.41090667998E+01  0.90311623531E+01 -0.50914401972E+01  0.11152088905E+02  0.51100000000E-03 0.  1.
         12    1    3    3    0    0 -0.43548416379E+01  0.18340829293E+02 -0.29232945974E+02  0.34783843881E+02  0.00000000000E+00 0. -1.
</event>
<event>
 7    1  0.1024956E-012  0.5052886E+02  0.7816164E-02  0.1300439E+00
        -11   -1    0    0    0    0  0.00000000000E+00  0.00000000000E+00  0.45593999997E+02  0.45594000000E+02  0.51100000000E-03 0. -1.
         11   -1    0    0    0    0 -0.00000000000E+00 -0.00000000000E+00 -0.45593999997E+02  0.45594000000E+02  0.51100000000E-03 0.  1.
    9900012    2    1    2    0    0 -0.28549822201E+02 -0.21062773553E+02  0.19860324833E+02  0.50528864742E+02  0.30000014871E+02 0.  0.
        -12    1    1    2    0    0  0.28549822201E+02  0.21062773553E+02 -0.19860324833E+02  0.40659135258E+02  0.00000000000E+00 0.  1.
         11    1    3    3    0    0 -0.70592890957E+01 -0.20116565449E+02  0.21432422944E+01  0.21426694934E+02  0.51100000000E-03 0. -1.
        -11    1    3    3    0    0 -0.18931993693E+02 -0.32766276811E+00  0.11024238953E+02  0.21910307913E+02  0.51100000000E-03 0.  1.
        -12    1    3    3    0    0 -0.25585394115E+01 -0.61854533554E+00  0.66928435858E+01  0.71918618950E+01  0.00000000000E+00 0.  1.
</event>
<event>
 7    1  0.1024956E-012  0.5052887E+02  0.7816164E-02  0.1300439E+00
        -11   -1    0    0    0    0  0.00000000000E+00  0.00000000000E+00  0.45593999997E+02  0.45594000000E+02  0.51100000000E-03 0.  1.
         11   -1    0    0    0    0 -0.00000000000E+00 -0.00000000000E+00 -0.45593999997E+02  0.45594000000E+02  0.51100000000E-03 0. -1.
    9900012    2    1    2    0    0  0.16702383020E+02 -0.15354573801E+02 -0.33740661551E+02  0.50528870926E+02  0.30000033667E+02 0.  0.
        -12    1    1    2    0    0 -0.16702383020E+02  0.15354573801E+02  0.33740661551E+02  0.40659129074E+02  0.00000000000E+00 0.  1.
         11    1    3    3    0    0  0.47243798645E+01 -0.18473691544E+02 -0.11145126543E+02  0.22086441322E+02  0.51100000000E-03 0. -1.
        -11    1    3    3    0    0  0.94622873461E+01  0.49052799253E+01 -0.22981844591E+02  0.25333018652E+02  0.51100000000E-03 0.  1.
        -12    1    3    3    0    0  0.25157158095E+01 -0.17861621821E+01  0.38630958218E+00  0.31094109520E+01  0.00000000000E+00 0.  1.
</event>
<event>
 7    1  0.1024956E-012  0.5052886E+02  0.7816164E-02  0.1300439E+00
        -11   -1    0    0    0    0  0.00000000000E+00  0.00000000000E+00  0.45593999997E+02  0.45594000000E+02  0.51100000000E-03 0. -1.
         11   -1    0    0    0    0 -0.00000000000E+00 -0.00000000000E+00 -0.45593999997E+02  0.45594000000E+02  0.51100000000E-03 0.  1.
    9900012    2    1    2    0    0  0.32283827785E+02  0.12979962453E+02  0.21034277712E+02  0.50528858340E+02  0.29999995409E+02 0.  0.
        -12    1    1    2    0    0 -0.32283827785E+02 -0.12979962453E+02 -0.21034277712E+02  0.40659141660E+02  0.00000000000E+00 0.  1.
         11    1    3    3    0    0  0.87863894778E+01 -0.64519130479E+01  0.30619541157E+01  0.11322693377E+02  0.51100000000E-03 0.  1.
        -11    1    3    3    0    0  0.15286602672E+01  0.96817644802E+01  0.11503486799E+01  0.98689750232E+01  0.51100000000E-03 0. -1.
         12    1    3    3    0    0  0.21968778040E+02  0.97501110207E+01  0.16821974916E+02  0.29337189940E+02  0.00000000000E+00 0. -1.
</event>
<event>
 7    1  0.1024956E-012  0.5052886E+02  0.7816164E-02  0.1300439E+00
        -11   -1    0    0    0    0  0.00000000000E+00  0.00000000000E+00  0.45593999997E+02  0.45594000000E+02  0.51100000000E-03 0.  1.
         11   -1    0    0    0    0 -0.00000000000E+00 -0.00000000000E+00 -0.45593999997E+02  0.45594000000E+02  0.51100000000E-03 0. -1.
    9900012    2    1    2    0    0  0.13769896977E+01  0.39147449273E+02 -0.10897089770E+02  0.50528862642E+02  0.30000008487E+02 0.  0.
        -12    1    1    2    0    0 -0.13769896977E+01 -0.39147449273E+02  0.10897089770E+02  0.40659137358E+02  0.00000000000E+00 0.  1.
         11    1    3    3    0    0 -0.12048947200E+02  0.28995924386E+02 -0.12036413607E+02  0.33627607890E+02  0.51100000000E-03 0. -1.
        -11    1    3    3    0    0  0.73223134578E+01  0.48963184803E+01  0.59598621719E+00  0.88286697111E+01  0.51100000000E-03 0.  1.
         12    1    3    3    0    0  0.61036234398E+01  0.52552064066E+01  0.54333761962E+00  0.80725850408E+01  0.00000000000E+00 0. -1.
</event>
<event>
 7    1  0.1024956E-012  0.5052886E+02  0.7816164E-02  0.1300439E+00
        -11   -1    0    0    0    0  0.00000000000E+00  0.00000000000E+00  0.45593999997E+02  0.45594000000E+02  0.51100000000E-03 0. -1.
         11   -1    0    0    0    0 -0.00000000000E+00 -0.00000000000E+00 -0.45593999997E+02  0.45594000000E+02  0.51100000000E-03 0.  1.
    9900012    2    1    2    0    0  0.39499121070E+02 -0.84006691395E+01  0.47343224573E+01  0.50528860604E+02  0.30000002291E+02 0.  0.
        -12    1    1    2    0    0 -0.39499121070E+02  0.84006691395E+01 -0.47343224573E+01  0.40659139396E+02  0.00000000000E+00 0.  1.
         11    1    3    3    0    0  0.51251836072E+01  0.13039667017E+01 -0.89328849994E+01  0.10380957125E+02  0.51100000000E-03 0. -1.
        -11    1    3    3    0    0  0.25715747106E+02 -0.98416225411E+01  0.51698460626E+01  0.28015790048E+02  0.51100000000E-03 0.  1.
         12    1    3    3    0    0  0.86581903570E+01  0.13698669996E+00  0.84973613941E+01  0.12132113430E+02  0.00000000000E+00 0. -1.
</event>
<event>
 7    1  0.1024956E-012  0.5052886E+02  0.7816164E-02  0.1300439E+00
        -11   -1    0    0    0    0  0.00000000000E+00  0.00000000000E+00  0.45593999997E+02  0.45594000000E+02  0.51100000000E-03 0.  1.
         11   -1    0    0    0    0 -0.00000000000E+00 -0.00000000000E+00 -0.45593999997E+02  0.45594000000E+02  0.51100000000E-03 0. -1.
    9900012    2    1    2    0    0  0.33321230567E+02 -0.90542642917E+00 -0.23281778173E+02  0.50528863285E+02  0.30000010440E+02 0.  0.
        -12    1    1    2    0    0 -0.33321230567E+02  0.90542642917E+00  0.23281778173E+02  0.40659136715E+02  0.00000000000E+00 0.  1.
         11    1    3    3    0    0  0.11328318862E+02  0.84672157532E+01 -0.27097340743E+00  0.14145599235E+02  0.51100000000E-03 0. -1.
        -11    1    3    3    0    0  0.10572924385E+02 -0.11434654272E+02 -0.83034205987E+01  0.17648933177E+02  0.51100000000E-03 0.  1.
        -12    1    3    3    0    0  0.11419987320E+02  0.20620120901E+01 -0.14707384166E+02  0.18734330873E+02  0.00000000000E+00 0.  1.
</event>
<event>
 7    1  0.1024956E-012  0.5052887E+02  0.7816164E-02  0.1300439E+00
        -11   -1    0    0    0    0  0.00000000000E+00  0.00000000000E+00  0.45593999997E+02  0.45594000000E+02  0.51100000000E-03 0. -1.
         11   -1    0    0    0    0 -0.00000000000E+00 -0.00000000000E+00 -0.45593999997E+02  0.45594000000E+02  0.51100000000E-03 0.  1.
    9900012    2    1    2    0    0 -0.94008616522E+01  0.32229899045E+02  0.22935169818E+02  0.50528873019E+02  0.30000040029E+02 0.  0.
        -12    1    1    2    0    0  0.94008616522E+01 -0.32229899045E+02 -0.22935169818E+02  0.40659126981E+02  0.00000000000E+00 0.  1.
         11    1    3    3    0    0 -0.67561036039E+01 -0.21624755748E+01  0.27075424350E+01  0.75928929149E+01  0.51100000000E-03 0. -1.
        -11    1    3    3    0    0 -0.49462512578E+01  0.30956482752E+02  0.22140719374E+02  0.38379430435E+02  0.51100000000E-03 0.  1.
        -12    1    3    3    0    0  0.23014932095E+01  0.34358918681E+01 -0.19130919911E+01  0.45565496693E+01  0.00000000000E+00 0.  1.
</event>
<event>
 7    1  0.1024956E-012  0.5052886E+02  0.7816164E-02  0.1300439E+00
        -11   -1    0    0    0    0  0.00000000000E+00  0.00000000000E+00  0.45593999997E+02  0.45594000000E+02  0.51100000000E-03 0.  1.
         11   -1    0    0    0    0 -0.00000000000E+00 -0.00000000000E+00 -0.45593999997E+02  0.45594000000E+02  0.51100000000E-03 0. -1.
    9900012    2    1    2    0    0 -0.25026398185E+02  0.27869635574E+02 -0.15815438588E+02  0.50528864607E+02  0.30000014461E+02 0.  0.
        -12    1    1    2    0    0  0.25026398185E+02 -0.27869635574E+02  0.15815438588E+02  0.40659135393E+02  0.00000000000E+00 0.  1.
         11    1    3    3    0    0 -0.10787134980E+02  0.15490174321E+02 -0.16914845143E+02  0.25346001027E+02  0.51100000000E-03 0. -1.
        -11    1    3    3    0    0 -0.13711094253E+02  0.14496622402E+02  0.51273595311E+01  0.20601844158E+02  0.51100000000E-03 0.  1.
         12    1    3    3    0    0 -0.52816895188E+00 -0.21171611491E+01 -0.40279529757E+01  0.45810194223E+01  0.00000000000E+00 0. -1.
</event>
<event>
 7    1  0.1024956E-012  0.5052886E+02  0.7816164E-02  0.1300439E+00
        -11   -1    0    0    0    0  0.00000000000E+00  0.00000000000E+00  0.45593999997E+02  0.45594000000E+02  0.51100000000E-03 0.  1.
         11   -1    0    0    0    0 -0.00000000000E+00 -0.00000000000E+00 -0.45593999997E+02  0.45594000000E+02  0.51100000000E-03 0. -1.
    9900012    2    1    2    0    0  0.22645664108E+02 -0.10204308929E+02 -0.32190241160E+02  0.50528860196E+02  0.30000001052E+02 0.  0.
        -12    1    1    2    0    0 -0.22645664108E+02  0.10204308929E+02  0.32190241160E+02  0.40659139804E+02  0.00000000000E+00 0.  1.
         11    1    3    3    0    0  0.12518270301E+02  0.12800789031E+00 -0.20005862943E+02  0.23599958256E+02  0.51100000000E-03 0. -1.
        -11    1    3    3    0    0  0.10821834154E+02 -0.13072980979E+02 -0.28916416188E+01  0.17215589378E+02  0.51100000000E-03 0.  1.
        -12    1    3    3    0    0 -0.69444034616E+00  0.27406641594E+01 -0.92927365989E+01  0.97133125620E+01  0.00000000000E+00 0.  1.
</event>
<event>
 7    1  0.1024956E-012  0.5052887E+02  0.7816164E-02  0.1300439E+00
        -11   -1    0    0    0    0  0.00000000000E+00  0.00000000000E+00  0.45593999997E+02  0.45594000000E+02  0.51100000000E-03 0.  1.
         11   -1    0    0    0    0 -0.00000000000E+00 -0.00000000000E+00 -0.45593999997E+02  0.45594000000E+02  0.51100000000E-03 0. -1.
    9900012    2    1    2    0    0  0.17264358895E+02 -0.41678431785E+00 -0.36809418512E+02  0.50528867097E+02  0.30000022029E+02 0.  0.
        -12    1    1    2    0    0 -0.17264358895E+02  0.41678431785E+00  0.36809418512E+02  0.40659132903E+02  0.00000000000E+00 0.  1.
         11    1    3    3    0    0  0.21247020624E+02  0.20857465690E+00 -0.19717115528E+02  0.28986963169E+02  0.51100000000E-03 0. -1.
        -11    1    3    3    0    0 -0.79788276977E-02 -0.62333732942E+01 -0.78555850096E+01  0.10028221297E+02  0.51100000000E-03 0.  1.
         12    1    3    3    0    0 -0.39746829014E+01  0.56080143194E+01 -0.92367179745E+01  0.11513682630E+02  0.00000000000E+00 0. -1.
</event>
<event>
 7    1  0.1024956E-012  0.5052883E+02  0.7816164E-02  0.1300439E+00
        -11   -1    0    0    0    0  0.00000000000E+00  0.00000000000E+00  0.45593999997E+02  0.45594000000E+02  0.51100000000E-03 0. -1.
         11   -1    0    0    0    0 -0.00000000000E+00 -0.00000000000E+00 -0.45593999997E+02  0.45594000000E+02  0.51100000000E-03 0.  1.
    9900012    2    1    2    0    0 -0.30037987528E+02 -0.13457447864E+02  0.23870154496E+02  0.50528832849E+02  0.29999917929E+02 0.  0.
        -12    1    1    2    0    0  0.30037987528E+02  0.13457447864E+02 -0.23870154496E+02  0.40659167151E+02  0.00000000000E+00 0.  1.
         11    1    3    3    0    0 -0.21193236907E+02 -0.11833759069E+02  0.18446133552E+01  0.24343248407E+02  0.51100000000E-03 0. -1.
        -11    1    3    3    0    0 -0.69662143980E+01  0.41350881919E+01  0.12315518017E+02  0.14741067861E+02  0.51100000000E-03 0.  1.
        -12    1    3    3    0    0 -0.18785362224E+01 -0.57587769872E+01  0.97100231238E+01  0.11444516582E+02  0.00000000000E+00 0.  1.
</event>
<event>
 7    1  0.1024956E-012  0.5052887E+02  0.7816164E-02  0.1300439E+00
        -11   -1    0    0    0    0  0.00000000000E+00  0.00000000000E+00  0.45593999997E+02  0.45594000000E+02  0.51100000000E-03 0. -1.
         11   -1    0    0    0    0 -0.00000000000E+00 -0.00000000000E+00 -0.45593999997E+02  0.45594000000E+02  0.51100000000E-03 0.  1.
    9900012    2    1    2    0    0  0.26163469075E+01  0.14944962431E+02  0.37722238714E+02  0.50528874742E+02  0.30000045265E+02 0.  0.
        -12    1    1    2    0    0 -0.26163469075E+01 -0.14944962431E+02 -0.37722238714E+02  0.40659125258E+02  0.00000000000E+00 0.  1.
         11    1    3    3    0    0  0.65217591082E+01  0.26710175721E+01  0.35543673792E+01  0.78931112031E+01  0.51100000000E-03 0. -1.
        -11    1    3    3    0    0 -0.72468068603E+01 -0.39775009711E+01  0.71474419434E+01  0.10928067086E+02  0.51100000000E-03 0.  1.
        -12    1    3    3    0    0  0.33413946596E+01  0.16251445830E+02  0.27020429391E+02  0.31707696452E+02  0.00000000000E+00 0.  1.
</event>
<event>
 7    1  0.1024956E-012  0.5052885E+02  0.7816164E-02  0.1300439E+00
        -11   -1    0    0    0    0  0.00000000000E+00  0.00000000000E+00  0.45593999997E+02  0.45594000000E+02  0.51100000000E-03 0. -1.
         11   -1    0    0    0    0 -0.00000000000E+00 -0.00000000000E+00 -0.45593999997E+02  0.45594000000E+02  0.51100000000E-03 0.  1.
    9900012    2    1    2    0    0 -0.18388128525E+02  0.18081810940E+02  0.31433914381E+02  0.50528854278E+02  0.29999983065E+02 0.  0.
        -12    1    1    2    0    0  0.18388128525E+02 -0.18081810940E+02 -0.31433914381E+02  0.40659145722E+02  0.00000000000E+00 0.  1.
         11    1    3    3    0    0  0.35294279466E+01 -0.38694787934E+01  0.33520931250E+01  0.62182197085E+01  0.51100000000E-03 0. -1.
        -11    1    3    3    0    0 -0.11785460480E+02  0.15396473557E+02  0.81976755101E+01  0.21051136804E+02  0.51100000000E-03 0.  1.
         12    1    3    3    0    0 -0.10132095991E+02  0.65548161764E+01  0.19884145745E+02  0.23259497766E+02  0.00000000000E+00 0. -1.
</event>
<event>
 7    1  0.1024956E-012  0.5052886E+02  0.7816164E-02  0.1300439E+00
        -11   -1    0    0    0    0  0.00000000000E+00  0.00000000000E+00  0.45593999997E+02  0.45594000000E+02  0.51100000000E-03 0.  1.
         11   -1    0    0    0    0 -0.00000000000E+00 -0.00000000000E+00 -0.45593999997E+02  0.45594000000E+02  0.51100000000E-03 0. -1.
    9900012    2    1    2    0    0  0.31347374593E+02  0.10585348892E+02 -0.23631718561E+02  0.50528860472E+02  0.30000001889E+02 0.  0.
        -12    1    1    2    0    0 -0.31347374593E+02 -0.10585348892E+02  0.23631718561E+02  0.40659139528E+02  0.00000000000E+00 0.  1.
         11    1    3    3    0    0  0.33309840598E+02  0.90256904171E+01 -0.26029674279E+02  0.43226756893E+02  0.51100000000E-03 0. -1.
        -11    1    3    3    0    0  0.87506435292E+00 -0.19610372954E+01  0.16737519758E+01  0.27226551073E+01  0.51100000000E-03 0.  1.
         12    1    3    3    0    0 -0.28375303578E+01  0.35206957704E+01  0.72420374227E+00  0.45794484711E+01  0.00000000000E+00 0. -1.
</event>
<event>
 7    1  0.1024956E-012  0.5052886E+02  0.7816164E-02  0.1300439E+00
        -11   -1    0    0    0    0  0.00000000000E+00  0.00000000000E+00  0.45593999997E+02  0.45594000000E+02  0.51100000000E-03 0.  1.
         11   -1    0    0    0    0 -0.00000000000E+00 -0.00000000000E+00 -0.45593999997E+02  0.45594000000E+02  0.51100000000E-03 0. -1.
    9900012    2    1    2    0    0  0.24914209641E+02  0.37136623864E+01 -0.31916397814E+02  0.50528861054E+02  0.30000003661E+02 0.  0.
        -12    1    1    2    0    0 -0.24914209641E+02 -0.37136623864E+01  0.31916397814E+02  0.40659138946E+02  0.00000000000E+00 0.  1.
         11    1    3    3    0    0  0.34872562490E+01  0.19472286238E+01 -0.12824019423E+02  0.13431609356E+02  0.51100000000E-03 0. -1.
        -11    1    3    3    0    0  0.26590600937E+02  0.15133937138E+01 -0.15782757728E+02  0.30958776793E+02  0.51100000000E-03 0.  1.
        -12    1    3    3    0    0 -0.51636475451E+01  0.25304004886E+00 -0.33096206626E+01  0.61384749056E+01  0.00000000000E+00 0.  1.
</event>
<event>
 7    1  0.1024956E-012  0.5052883E+02  0.7816164E-02  0.1300439E+00
        -11   -1    0    0    0    0  0.00000000000E+00  0.00000000000E+00  0.45593999997E+02  0.45594000000E+02  0.51100000000E-03 0. -1.
         11   -1    0    0    0    0 -0.00000000000E+00 -0.00000000000E+00 -0.45593999997E+02  0.45594000000E+02  0.51100000000E-03 0.  1.
    9900012    2    1    2    0    0  0.20512765901E+02  0.31920813689E+02  0.14610152711E+02  0.50528825467E+02  0.29999895489E+02 0.  0.
        -12    1    1    2    0    0 -0.20512765901E+02 -0.31920813689E+02 -0.14610152711E+02  0.40659174533E+02  0.00000000000E+00 0.  1.
         11    1    3    3    0    0  0.10279997021E+02  0.27084282891E+02  0.98065478509E+01  0.30584393070E+02  0.51100000000E-03 0. -1.
        -11    1    3    3    0    0  0.85885979210E+01 -0.42064160063E+01  0.49152262178E+01  0.10752553134E+02  0.51100000000E-03 0.  1.
        -12    1    3    3    0    0  0.16441709589E+01  0.90429468048E+01 -0.11162135781E+00  0.91918792629E+01  0.00000000000E+00 0.  1.
</event>
<event>
 7    1  0.1024956E-012  0.5052885E+02  0.7816164E-02  0.1300439E+00
        -11   -1    0    0    0    0  0.00000000000E+00  0.00000000000E+00  0.45593999997E+02  0.45594000000E+02  0.51100000000E-03 0.  1.
         11   -1    0    0    0    0 -0.00000000000E+00 -0.00000000000E+00 -0.45593999997E+02  0.45594000000E+02  0.51100000000E-03 0. -1.
    9900012    2    1    2    0    0  0.29827290834E+01  0.72175835727E+01 -0.39902086619E+02  0.50528847254E+02  0.29999961714E+02 0.  0.
        -12    1    1    2    0    0 -0.29827290834E+01 -0.72175835727E+01  0.39902086619E+02  0.40659152746E+02  0.00000000000E+00 0.  1.
         11    1    3    3    0    0 -0.48628481427E+01 -0.38788995150E+01 -0.18317631946E+02  0.19344994026E+02  0.51100000000E-03 0. -1.
        -11    1    3    3    0    0  0.72708971295E+01  0.13879794094E+02 -0.23138517357E+02  0.27944688492E+02  0.51100000000E-03 0.  1.
         12    1    3    3    0    0  0.57468009663E+00 -0.27833110060E+01  0.15540626832E+01  0.32391647369E+01  0.00000000000E+00 0. -1.
</event>
<event>
 7    1  0.1024956E-012  0.5052886E+02  0.7816164E-02  0.1300439E+00
        -11   -1    0    0    0    0  0.00000000000E+00  0.00000000000E+00  0.45593999997E+02  0.45594000000E+02  0.51100000000E-03 0.  1.
         11   -1    0    0    0    0 -0.00000000000E+00 -0.00000000000E+00 -0.45593999997E+02  0.45594000000E+02  0.51100000000E-03 0. -1.
    9900012    2    1    2    0    0  0.51685242514E+01  0.58948535196E+01 -0.39896145658E+02  0.50528863520E+02  0.30000011156E+02 0.  0.
        -12    1    1    2    0    0 -0.51685242514E+01 -0.58948535196E+01  0.39896145658E+02  0.40659136480E+02  0.00000000000E+00 0.  1.
         11    1    3    3    0    0  0.33843724175E+01  0.10465779877E+02 -0.24246091986E+02  0.26624415523E+02  0.51100000000E-03 0. -1.
        -11    1    3    3    0    0  0.34420258380E+01 -0.12343317672E+01  0.30962793943E+01  0.47914573075E+01  0.51100000000E-03 0.  1.
         12    1    3    3    0    0 -0.16578740040E+01 -0.33365945905E+01 -0.18746333066E+02  0.19112990690E+02  0.00000000000E+00 0. -1.
</event>
<event>
 7    1  0.1024956E-012  0.5052886E+02  0.7816164E-02  0.1300439E+00
        -11   -1    0    0    0    0  0.00000000000E+00  0.00000000000E+00  0.45593999997E+02  0.45594000000E+02  0.51100000000E-03 0.  1.
         11   -1    0    0    0    0 -0.00000000000E+00 -0.00000000000E+00 -0.45593999997E+02  0.45594000000E+02  0.51100000000E-03 0. -1.
    9900012    2    1    2    0    0 -0.33104875186E+02  0.23585142703E+02  0.98680512771E+00  0.50528862014E+02  0.30000006578E+02 0.  0.
        -12    1    1    2    0    0  0.33104875186E+02 -0.23585142703E+02 -0.98680512771E+00  0.40659137986E+02  0.00000000000E+00 0.  1.
         11    1    3    3    0    0 -0.32821330178E+02  0.20944685781E+02 -0.19651782208E+01  0.38984375111E+02  0.51100000000E-03 0. -1.
        -11    1    3    3    0    0  0.42472905340E+01  0.85224316153E+00 -0.18445791938E+01  0.47083190153E+01  0.51100000000E-03 0.  1.
         12    1    3    3    0    0 -0.45308355423E+01  0.17882137606E+01  0.47965625423E+01  0.68361678876E+01  0.00000000000E+00 0. -1.
</event>
<event>
 7    1  0.1024956E-012  0.5052888E+02  0.7816164E-02  0.1300439E+00
        -11   -1    0    0    0    0  0.00000000000E+00  0.00000000000E+00  0.45593999997E+02  0.45594000000E+02  0.51100000000E-03 0.  1.
         11   -1    0    0    0    0 -0.00000000000E+00 -0.00000000000E+00 -0.45593999997E+02  0.45594000000E+02  0.51100000000E-03 0. -1.
    9900012    2    1    2    0    0  0.99859491527E+01  0.35813299844E+02 -0.16457604434E+02  0.50528875933E+02  0.30000048885E+02 0.  0.
        -12    1    1    2    0    0 -0.99859491527E+01 -0.35813299844E+02  0.16457604434E+02  0.40659124067E+02  0.00000000000E+00 0.  1.
         11    1    3    3    0    0  0.19763660808E+01  0.28465339736E+01 -0.14233068797E+02  0.14648857505E+02  0.51100000000E-03 0. -1.
        -11    1    3    3    0    0  0.29801025795E+01  0.23308376061E+02  0.31987137982E+01  0.23714830301E+02  0.51100000000E-03 0.  1.
         12    1    3    3    0    0  0.50294804923E+01  0.96583898096E+01 -0.54232494348E+01  0.12165188127E+02  0.00000000000E+00 0. -1.
</event>
<event>
 7    1  0.1024956E-012  0.5052886E+02  0.7816164E-02  0.1300439E+00
        -11   -1    0    0    0    0  0.00000000000E+00  0.00000000000E+00  0.45593999997E+02  0.45594000000E+02  0.51100000000E-03 0. -1.
         11   -1    0    0    0    0 -0.00000000000E+00 -0.00000000000E+00 -0.45593999997E+02  0.45594000000E+02  0.51100000000E-03 0.  1.
    9900012    2    1    2    0    0  0.16001003643E+02 -0.12837175402E+02  0.35104702381E+02  0.50528864260E+02  0.30000013404E+02 0.  0.
        -12    1    1    2    0    0 -0.16001003643E+02  0.12837175402E+02 -0.35104702381E+02  0.40659135740E+02  0.00000000000E+00 0.  1.
         11    1    3    3    0    0 -0.33676504858E+01 -0.21044896306E+01  0.15694300997E+02  0.16188916902E+02  0.51100000000E-03 0.  1.
        -11    1    3    3    0    0  0.14230814419E+02  0.71830425791E+00  0.47024405936E+01  0.15004832149E+02  0.51100000000E-03 0. -1.
         12    1    3    3    0    0  0.51378397101E+01 -0.11450990029E+02  0.14707960790E+02  0.19335115209E+02  0.00000000000E+00 0. -1.
</event>
<event>
 7    1  0.1024956E-012  0.5052887E+02  0.7816164E-02  0.1300439E+00
        -11   -1    0    0    0    0  0.00000000000E+00  0.00000000000E+00  0.45593999997E+02  0.45594000000E+02  0.51100000000E-03 0. -1.
         11   -1    0    0    0    0 -0.00000000000E+00 -0.00000000000E+00 -0.45593999997E+02  0.45594000000E+02  0.51100000000E-03 0.  1.
    9900012    2    1    2    0    0 -0.40472345279E+01  0.18697560932E+02  0.35877378263E+02  0.50528866178E+02  0.30000019235E+02 0.  0.
        -12    1    1    2    0    0  0.40472345279E+01 -0.18697560932E+02 -0.35877378263E+02  0.40659133822E+02  0.00000000000E+00 0.  1.
         11    1    3    3    0    0 -0.44387315106E+01  0.57442317978E+01  0.18679165142E+02  0.20040203268E+02  0.51100000000E-03 0. -1.
        -11    1    3    3    0    0  0.57086714279E+01  0.15188159306E+02  0.49720010482E+01  0.16970265386E+02  0.51100000000E-03 0.  1.
        -12    1    3    3    0    0 -0.53171744451E+01 -0.22348301716E+01  0.12226212072E+02  0.13518397524E+02  0.00000000000E+00 0.  1.
</event>
<event>
 7    1  0.1024956E-012  0.5052886E+02  0.7816164E-02  0.1300439E+00
        -11   -1    0    0    0    0  0.00000000000E+00  0.00000000000E+00  0.45593999997E+02  0.45594000000E+02  0.51100000000E-03 0.  1.
         11   -1    0    0    0    0 -0.00000000000E+00 -0.00000000000E+00 -0.45593999997E+02  0.45594000000E+02  0.51100000000E-03 0. -1.
    9900012    2    1    2    0    0 -0.17155221794E+01 -0.39208165671E+02  0.10627440565E+02  0.50528858782E+02  0.29999996754E+02 0.  0.
        -12    1    1    2    0    0  0.17155221794E+01  0.39208165671E+02 -0.10627440565E+02  0.40659141218E+02  0.00000000000E+00 0.  1.
         11    1    3    3    0    0 -0.54034568820E+01 -0.12009102008E+02 -0.18886411886E+01  0.13303489885E+02  0.51100000000E-03 0. -1.
        -11    1    3    3    0    0 -0.32152632073E+01  0.43401668575E+00  0.76776598793E+01  0.83350314612E+01  0.51100000000E-03 0.  1.
        -12    1    3    3    0    0  0.69031979099E+01 -0.27633080348E+02  0.48384218740E+01  0.28890337436E+02  0.00000000000E+00 0.  1.
</event>
<event>
 7    1  0.1024956E-012  0.5052887E+02  0.7816164E-02  0.1300439E+00
        -11   -1    0    0    0    0  0.00000000000E+00  0.00000000000E+00  0.45593999997E+02  0.45594000000E+02  0.51100000000E-03 0.  1.
         11   -1    0    0    0    0 -0.00000000000E+00 -0.00000000000E+00 -0.45593999997E+02  0.45594000000E+02  0.51100000000E-03 0. -1.
    9900012    2    1    2    0    0  0.39236567954E+02 -0.10634936043E+02 -0.74491467542E+00  0.50528867848E+02  0.30000024311E+02 0.  0.
        -12    1    1    2    0    0 -0.39236567954E+02  0.10634936043E+02  0.74491467542E+00  0.40659132152E+02  0.00000000000E+00 0.  1.
         11    1    3    3    0    0  0.39881488653E+02 -0.81866765307E+01  0.35088650525E+01  0.40864005481E+02  0.51100000000E-03 0. -1.
        -11    1    3    3    0    0 -0.12228115256E+01  0.27246352654E+01 -0.70822640631E-01  0.29872933342E+01  0.51100000000E-03 0.  1.
         12    1    3    3    0    0  0.57789082742E+00 -0.51728947777E+01 -0.41829570873E+01  0.66775690325E+01  0.00000000000E+00 0. -1.
</event>
<event>
 7    1  0.1024956E-012  0.5052881E+02  0.7816164E-02  0.1300439E+00
        -11   -1    0    0    0    0  0.00000000000E+00  0.00000000000E+00  0.45593999997E+02  0.45594000000E+02  0.51100000000E-03 0.  1.
         11   -1    0    0    0    0 -0.00000000000E+00 -0.00000000000E+00 -0.45593999997E+02  0.45594000000E+02  0.51100000000E-03 0. -1.
    9900012    2    1    2    0    0 -0.25855631263E+02  0.16546576589E+01 -0.31335576218E+02  0.50528807966E+02  0.29999842293E+02 0.  0.
        -12    1    1    2    0    0  0.25855631263E+02 -0.16546576589E+01  0.31335576218E+02  0.40659192034E+02  0.00000000000E+00 0.  1.
         11    1    3    3    0    0 -0.10985126480E+02  0.30014543712E+01 -0.14289545239E+02  0.18272187486E+02  0.51100000000E-03 0. -1.
        -11    1    3    3    0    0 -0.11456674939E+02 -0.38695628725E+01  0.24207292472E+01  0.12332430735E+02  0.51100000000E-03 0.  1.
        -12    1    3    3    0    0 -0.34138298429E+01  0.25227661602E+01 -0.19466760226E+02  0.19924189744E+02  0.00000000000E+00 0.  1.
</event>
<event>
 7    1  0.1024956E-012  0.5052886E+02  0.7816164E-02  0.1300439E+00
        -11   -1    0    0    0    0  0.00000000000E+00  0.00000000000E+00  0.45593999997E+02  0.45594000000E+02  0.51100000000E-03 0. -1.
         11   -1    0    0    0    0 -0.00000000000E+00 -0.00000000000E+00 -0.45593999997E+02  0.45594000000E+02  0.51100000000E-03 0.  1.
    9900012    2    1    2    0    0 -0.26966985614E+02 -0.28220487687E+02  0.11382070516E+02  0.50528858745E+02  0.29999996642E+02 0.  0.
        -12    1    1    2    0    0  0.26966985614E+02  0.28220487687E+02 -0.11382070516E+02  0.40659141255E+02  0.00000000000E+00 0.  1.
         11    1    3    3    0    0 -0.14885772041E+02 -0.17459131151E+02  0.86958337246E+01  0.24536197632E+02  0.51100000000E-03 0. -1.
        -11    1    3    3    0    0  0.50621516531E+01 -0.82637604401E+00 -0.22061483167E+01  0.55834906091E+01  0.51100000000E-03 0.  1.
        -12    1    3    3    0    0 -0.17143365226E+02 -0.99349804916E+01  0.48923851080E+01  0.20409170504E+02  0.00000000000E+00 0.  1.
</event>
<event>
 7    1  0.1024956E-012  0.5052886E+02  0.7816164E-02  0.1300439E+00
        -11   -1    0    0    0    0  0.00000000000E+00  0.00000000000E+00  0.45593999997E+02  0.45594000000E+02  0.51100000000E-03 0.  1.
         11   -1    0    0    0    0 -0.00000000000E+00 -0.00000000000E+00 -0.45593999997E+02  0.45594000000E+02  0.51100000000E-03 0. -1.
    9900012    2    1    2    0    0 -0.10729016872E+01  0.77103196962E+01 -0.39906962697E+02  0.50528858106E+02  0.29999994699E+02 0.  0.
        -12    1    1    2    0    0  0.10729016872E+01 -0.77103196962E+01  0.39906962697E+02  0.40659141894E+02  0.00000000000E+00 0.  1.
         11    1    3    3    0    0 -0.66642001549E+01  0.83109439514E+01 -0.23029927523E+01  0.10898950819E+02  0.51100000000E-03 0. -1.
        -11    1    3    3    0    0  0.38330428984E+01  0.85609237285E+00 -0.37079786038E+02  0.37287204841E+02  0.51100000000E-03 0.  1.
        -12    1    3    3    0    0  0.17582555693E+01 -0.14567166280E+01 -0.52418390713E+00  0.23427024459E+01  0.00000000000E+00 0.  1.
</event>
<event>
 7    1  0.1024956E-012  0.5052887E+02  0.7816164E-02  0.1300439E+00
        -11   -1    0    0    0    0  0.00000000000E+00  0.00000000000E+00  0.45593999997E+02  0.45594000000E+02  0.51100000000E-03 0.  1.
         11   -1    0    0    0    0 -0.00000000000E+00 -0.00000000000E+00 -0.45593999997E+02  0.45594000000E+02  0.51100000000E-03 0. -1.
    9900012    2    1    2    0    0  0.31470789919E+02 -0.11808923349E+02 -0.22875833448E+02  0.50528867634E+02  0.30000023661E+02 0.  0.
        -12    1    1    2    0    0 -0.31470789919E+02  0.11808923349E+02  0.22875833448E+02  0.40659132366E+02  0.00000000000E+00 0.  1.
         11    1    3    3    0    0  0.27387344516E+02 -0.39101986938E+01 -0.25103851707E+02  0.37357190261E+02  0.51100000000E-03 0. -1.
        -11    1    3    3    0    0  0.66306151569E+01 -0.43965560027E+01 -0.63376966181E+00  0.79810040903E+01  0.51100000000E-03 0.  1.
         12    1    3    3    0    0 -0.25471697536E+01 -0.35021686524E+01  0.28617879204E+01  0.51906732824E+01  0.00000000000E+00 0. -1.
</event>
<event>
 7    1  0.1024956E-012  0.5052886E+02  0.7816164E-02  0.1300439E+00
        -11   -1    0    0    0    0  0.00000000000E+00  0.00000000000E+00  0.45593999997E+02  0.45594000000E+02  0.51100000000E-03 0.  1.
         11   -1    0    0    0    0 -0.00000000000E+00 -0.00000000000E+00 -0.45593999997E+02  0.45594000000E+02  0.51100000000E-03 0. -1.
    9900012    2    1    2    0    0 -0.37419191318E+02  0.14841602381E+02  0.57180920001E+01  0.50528860606E+02  0.30000002297E+02 0.  0.
        -12    1    1    2    0    0  0.37419191318E+02 -0.14841602381E+02 -0.57180920001E+01  0.40659139394E+02  0.00000000000E+00 0.  1.
         11    1    3    3    0    0 -0.24210145608E+02 -0.37736653472E+00 -0.21006940294E+00  0.24213997714E+02  0.51100000000E-03 0. -1.
        -11    1    3    3    0    0 -0.78987919118E+00  0.73172585509E+01 -0.41749032910E+01  0.84614419331E+01  0.51100000000E-03 0.  1.
        -12    1    3    3    0    0 -0.12419166519E+02  0.79017103648E+01  0.10103064694E+02  0.17853420959E+02  0.00000000000E+00 0.  1.
</event>
<event>
 7    1  0.1024956E-012  0.5052885E+02  0.7816164E-02  0.1300439E+00
        -11   -1    0    0    0    0  0.00000000000E+00  0.00000000000E+00  0.45593999997E+02  0.45594000000E+02  0.51100000000E-03 0. -1.
         11   -1    0    0    0    0 -0.00000000000E+00 -0.00000000000E+00 -0.45593999997E+02  0.45594000000E+02  0.51100000000E-03 0.  1.
    9900012    2    1    2    0    0 -0.28398131338E+02  0.15726081028E+02  0.24482715590E+02  0.50528845426E+02  0.29999956157E+02 0.  0.
        -12    1    1    2    0    0  0.28398131338E+02 -0.15726081028E+02 -0.24482715590E+02  0.40659154574E+02  0.00000000000E+00 0.  1.
         11    1    3    3    0    0  0.43537860512E+01  0.26990743029E+01  0.10702977973E+02  0.11865672877E+02  0.51100000000E-03 0. -1.
        -11    1    3    3    0    0 -0.24707746726E+02  0.63941037683E+01  0.11488454795E+02  0.27988245839E+02  0.51100000000E-03 0.  1.
         12    1    3    3    0    0 -0.80441706632E+01  0.66329029568E+01  0.22912828219E+01  0.10674926710E+02  0.00000000000E+00 0. -1.
</event>
<event>
 7    1  0.1024956E-012  0.5052878E+02  0.7816164E-02  0.1300439E+00
        -11   -1    0    0    0    0  0.00000000000E+00  0.00000000000E+00  0.45593999997E+02  0.45594000000E+02  0.51100000000E-03 0.  1.
         11   -1    0    0    0    0 -0.00000000000E+00 -0.00000000000E+00 -0.45593999997E+02  0.45594000000E+02  0.51100000000E-03 0. -1.
    9900012    2    1    2    0    0  0.15123081636E+02  0.28894537791E+02 -0.24281059853E+02  0.50528784809E+02  0.29999771906E+02 0.  0.
        -12    1    1    2    0    0 -0.15123081636E+02 -0.28894537791E+02  0.24281059853E+02  0.40659215191E+02  0.00000000000E+00 0.  1.
         11    1    3    3    0    0 -0.40465534153E+01 -0.39182729901E+01 -0.61804950956E+01  0.83621754140E+01  0.51100000000E-03 0.  1.
        -11    1    3    3    0    0  0.15584892147E+02  0.25746665980E+02 -0.15307043550E+02  0.33765148523E+02  0.51100000000E-03 0. -1.
        -12    1    3    3    0    0  0.35847429045E+01  0.70661448018E+01 -0.27935212069E+01  0.84014608721E+01  0.00000000000E+00 0.  1.
</event>
<event>
 7    1  0.1024956E-012  0.5052897E+02  0.7816164E-02  0.1300438E+00
        -11   -1    0    0    0    0  0.00000000000E+00  0.00000000000E+00  0.45593999997E+02  0.45594000000E+02  0.51100000000E-03 0.  1.
         11   -1    0    0    0    0 -0.00000000000E+00 -0.00000000000E+00 -0.45593999997E+02  0.45594000000E+02  0.51100000000E-03 0. -1.
    9900012    2    1    2    0    0  0.81183850384E+01 -0.26677034164E+02 -0.29590272419E+02  0.50528972106E+02  0.30000341212E+02 0.  0.
        -12    1    1    2    0    0 -0.81183850384E+01  0.26677034164E+02  0.29590272419E+02  0.40659027894E+02  0.00000000000E+00 0.  1.
         11    1    3    3    0    0 -0.18229787693E+01 -0.75515584723E+00 -0.90067120529E+01  0.92203239755E+01  0.51100000000E-03 0. -1.
        -11    1    3    3    0    0  0.14449061339E+02 -0.22312421790E+02 -0.22900592934E+02  0.35086417553E+02  0.51100000000E-03 0.  1.
        -12    1    3    3    0    0 -0.45076975308E+01 -0.36094565269E+01  0.23170325673E+01  0.62222305781E+01  0.00000000000E+00 0.  1.
</event>
<event>
 7    1  0.1024956E-012  0.5052883E+02  0.7816164E-02  0.1300439E+00
        -11   -1    0    0    0    0  0.00000000000E+00  0.00000000000E+00  0.45593999997E+02  0.45594000000E+02  0.51100000000E-03 0. -1.
         11   -1    0    0    0    0 -0.00000000000E+00 -0.00000000000E+00 -0.45593999997E+02  0.45594000000E+02  0.51100000000E-03 0.  1.
    9900012    2    1    2    0    0  0.34458488724E+02 -0.14032409831E+02  0.16397324846E+02  0.50528828428E+02  0.29999904489E+02 0.  0.
        -12    1    1    2    0    0 -0.34458488724E+02  0.14032409831E+02 -0.16397324846E+02  0.40659171572E+02  0.00000000000E+00 0.  1.
         11    1    3    3    0    0  0.23914974538E+02 -0.32736239335E+01  0.20370286556E+02  0.31584667094E+02  0.51100000000E-03 0. -1.
        -11    1    3    3    0    0 -0.21974514506E+01 -0.15957896977E+01  0.14351837808E+00  0.27195469150E+01  0.51100000000E-03 0.  1.
         12    1    3    3    0    0  0.12740965637E+02 -0.91629962002E+01 -0.41164800875E+01  0.16224614419E+02  0.00000000000E+00 0. -1.
</event>
<event>
 7    1  0.1193195E-012  0.5052886E+02  0.7816164E-02  0.1300439E+00
        -11   -1    0    0    0    0  0.00000000000E+00  0.00000000000E+00  0.45593999997E+02  0.45594000000E+02  0.51100000000E-03 0. -1.
         11   -1    0    0    0    0 -0.00000000000E+00 -0.00000000000E+00 -0.45593999997E+02  0.45594000000E+02  0.51100000000E-03 0.  1.
    9900012    2    1    2    0    0 -0.32462642597E+02 -0.17777457334E+02  0.16831651077E+02  0.50528860417E+02  0.30000001723E+02 0.  0.
        -12    1    1    2    0    0  0.32462642597E+02  0.17777457334E+02 -0.16831651077E+02  0.40659139583E+02  0.00000000000E+00 0.  1.
         11    1    3    3    0    0 -0.16880854869E+02 -0.86066531173E+00  0.50157956507E+01  0.17631285040E+02  0.51100000000E-03 0. -1.
        -11    1    3    3    0    0  0.11638161835E+01 -0.77009350008E+01 -0.33691410325E+01  0.84858694047E+01  0.51100000000E-03 0.  1.
        -12    1    3    3    0    0 -0.16745603912E+02 -0.92158570213E+01  0.15184996459E+02  0.24411705972E+02  0.00000000000E+00 0.  1.
</event>
<event>
 7    1  0.1024956E-012  0.5052887E+02  0.7816164E-02  0.1300439E+00
        -11   -1    0    0    0    0  0.00000000000E+00  0.00000000000E+00  0.45593999997E+02  0.45594000000E+02  0.51100000000E-03 0.  1.
         11   -1    0    0    0    0 -0.00000000000E+00 -0.00000000000E+00 -0.45593999997E+02  0.45594000000E+02  0.51100000000E-03 0. -1.
    9900012    2    1    2    0    0 -0.36746013986E+02 -0.65950721945E+01 -0.16105915113E+02  0.50528867905E+02  0.30000024483E+02 0.  0.
        -12    1    1    2    0    0  0.36746013986E+02  0.65950721945E+01  0.16105915113E+02  0.40659132095E+02  0.00000000000E+00 0.  1.
         11    1    3    3    0    0 -0.27308079581E+02  0.23289330811E+01 -0.15656427664E+02  0.31563885489E+02  0.51100000000E-03 0. -1.
        -11    1    3    3    0    0 -0.22332796675E+01 -0.11119400806E+02 -0.11558994708E+01  0.11400206849E+02  0.51100000000E-03 0.  1.
         12    1    3    3    0    0 -0.72046547377E+01  0.21953955304E+01  0.70641202196E+00  0.75647755663E+01  0.00000000000E+00 0. -1.
</event>
<event>
 7    1  0.1024956E-012  0.5052886E+02  0.7816164E-02  0.1300439E+00
        -11   -1    0    0    0    0  0.00000000000E+00  0.00000000000E+00  0.45593999997E+02  0.45594000000E+02  0.51100000000E-03 0.  1.
         11   -1    0    0    0    0 -0.00000000000E+00 -0.00000000000E+00 -0.45593999997E+02  0.45594000000E+02  0.51100000000E-03 0. -1.
    9900012    2    1    2    0    0 -0.38159905687E+02 -0.13473525754E+02 -0.39308066930E+01  0.50528861549E+02  0.30000005166E+02 0.  0.
        -12    1    1    2    0    0  0.38159905687E+02  0.13473525754E+02  0.39308066930E+01  0.40659138451E+02  0.00000000000E+00 0.  1.
         11    1    3    3    0    0 -0.21722217932E+02 -0.44362263861E+01 -0.74868697047E+01  0.23400599879E+02  0.51100000000E-03 0. -1.
        -11    1    3    3    0    0  0.43032029947E+01 -0.27753435369E+01  0.16462670404E+01  0.53786878689E+01  0.51100000000E-03 0.  1.
        -12    1    3    3    0    0 -0.20740890750E+02 -0.62619558311E+01  0.19097959713E+01  0.21749573802E+02  0.00000000000E+00 0.  1.
</event>
<event>
 7    1  0.1024956E-012  0.5052886E+02  0.7816164E-02  0.1300439E+00
        -11   -1    0    0    0    0  0.00000000000E+00  0.00000000000E+00  0.45593999997E+02  0.45594000000E+02  0.51100000000E-03 0.  1.
         11   -1    0    0    0    0 -0.00000000000E+00 -0.00000000000E+00 -0.45593999997E+02  0.45594000000E+02  0.51100000000E-03 0. -1.
    9900012    2    1    2    0    0 -0.11904658195E+01 -0.14070210576E+02 -0.38128441131E+02  0.50528855178E+02  0.29999985800E+02 0.  0.
        -12    1    1    2    0    0  0.11904658195E+01  0.14070210576E+02  0.38128441131E+02  0.40659144822E+02  0.00000000000E+00 0.  1.
         11    1    3    3    0    0 -0.39872741634E+01 -0.55528616082E+01 -0.34880244852E+02  0.35543833621E+02  0.51100000000E-03 0. -1.
        -11    1    3    3    0    0  0.67799975757E+01 -0.24524869296E+01 -0.50403703609E+00  0.72275246704E+01  0.51100000000E-03 0.  1.
        -12    1    3    3    0    0 -0.39831892318E+01 -0.60648620383E+01 -0.27441592435E+01  0.77574968871E+01  0.00000000000E+00 0.  1.
</event>
<event>
 7    1  0.1024956E-012  0.5052885E+02  0.7816164E-02  0.1300439E+00
        -11   -1    0    0    0    0  0.00000000000E+00  0.00000000000E+00  0.45593999997E+02  0.45594000000E+02  0.51100000000E-03 0.  1.
         11   -1    0    0    0    0 -0.00000000000E+00 -0.00000000000E+00 -0.45593999997E+02  0.45594000000E+02  0.51100000000E-03 0. -1.
    9900012    2    1    2    0    0 -0.13320851880E+02 -0.37979517136E+02 -0.57686875185E+01  0.50528848848E+02  0.29999966559E+02 0.  0.
        -12    1    1    2    0    0  0.13320851880E+02  0.37979517136E+02  0.57686875185E+01  0.40659151152E+02  0.00000000000E+00 0.  1.
         11    1    3    3    0    0 -0.28164363582E+01 -0.65647537276E+01 -0.97397091848E+01  0.12078503240E+02  0.51100000000E-03 0. -1.
        -11    1    3    3    0    0 -0.16100965365E+02 -0.21532400621E+02  0.29289503324E+01  0.27045593218E+02  0.51100000000E-03 0.  1.
        -12    1    3    3    0    0  0.55965498434E+01 -0.98823627876E+01  0.10420713339E+01  0.11404752390E+02  0.00000000000E+00 0.  1.
</event>
<event>
 7    1  0.1024956E-012  0.5052886E+02  0.7816164E-02  0.1300439E+00
        -11   -1    0    0    0    0  0.00000000000E+00  0.00000000000E+00  0.45593999997E+02  0.45594000000E+02  0.51100000000E-03 0.  1.
         11   -1    0    0    0    0 -0.00000000000E+00 -0.00000000000E+00 -0.45593999997E+02  0.45594000000E+02  0.51100000000E-03 0. -1.
    9900012    2    1    2    0    0  0.21715694203E+02 -0.30888101497E+02 -0.15083748273E+02  0.50528860181E+02  0.30000001007E+02 0.  0.
        -12    1    1    2    0    0 -0.21715694203E+02  0.30888101497E+02  0.15083748273E+02  0.40659139819E+02  0.00000000000E+00 0.  1.
         11    1    3    3    0    0  0.22491785706E+02 -0.22658533524E+02 -0.11010050347E+01  0.31945293520E+02  0.51100000000E-03 0. -1.
        -11    1    3    3    0    0 -0.50287462773E+00  0.18094315740E+01 -0.40220663657E+01  0.44389124370E+01  0.51100000000E-03 0.  1.
         12    1    3    3    0    0 -0.27321687535E+00 -0.10038999547E+02 -0.99606768731E+01  0.14144654225E+02  0.00000000000E+00 0. -1.
</event>
<event>
 7    1  0.1024956E-012  0.5052887E+02  0.7816164E-02  0.1300439E+00
        -11   -1    0    0    0    0  0.00000000000E+00  0.00000000000E+00  0.45593999997E+02  0.45594000000E+02  0.51100000000E-03 0.  1.
         11   -1    0    0    0    0 -0.00000000000E+00 -0.00000000000E+00 -0.45593999997E+02  0.45594000000E+02  0.51100000000E-03 0. -1.
    9900012    2    1    2    0    0  0.38315558724E+02  0.12301168819E+02  0.58106504458E+01  0.50528874908E+02  0.30000045769E+02 0.  0.
        -12    1    1    2    0    0 -0.38315558724E+02 -0.12301168819E+02 -0.58106504458E+01  0.40659125092E+02  0.00000000000E+00 0.  1.
         11    1    3    3    0    0  0.14177894644E+02  0.11731653136E+02 -0.70718562879E+01  0.19714348416E+02  0.51100000000E-03 0. -1.
        -11    1    3    3    0    0  0.56352160849E+01 -0.60980211633E+01  0.43887859347E+01  0.93916433425E+01  0.51100000000E-03 0.  1.
         12    1    3    3    0    0  0.18502447995E+02  0.66675368463E+01  0.84937207989E+01  0.21422883149E+02  0.00000000000E+00 0. -1.
</event>
<event>
 7    1  0.1024956E-012  0.5052886E+02  0.7816164E-02  0.1300439E+00
        -11   -1    0    0    0    0  0.00000000000E+00  0.00000000000E+00  0.45593999997E+02  0.45594000000E+02  0.51100000000E-03 0.  1.
         11   -1    0    0    0    0 -0.00000000000E+00 -0.00000000000E+00 -0.45593999997E+02  0.45594000000E+02  0.51100000000E-03 0. -1.
    9900012    2    1    2    0    0  0.33085516009E+02 -0.23535899975E+02  0.21390439906E+01  0.50528862449E+02  0.30000007900E+02 0.  0.
        -12    1    1    2    0    0 -0.33085516009E+02  0.23535899975E+02 -0.21390439906E+01  0.40659137551E+02  0.00000000000E+00 0.  1.
         11    1    3    3    0    0  0.48479472506E+01 -0.70532420443E+01  0.57749932050E+01  0.10324793589E+02  0.51100000000E-03 0. -1.
        -11    1    3    3    0    0  0.23639058375E+02 -0.95548729577E+01 -0.12201641429E+02  0.28266247220E+02  0.51100000000E-03 0.  1.
        -12    1    3    3    0    0  0.45985103834E+01 -0.69277849733E+01  0.85656922150E+01  0.11937821640E+02  0.00000000000E+00 0.  1.
</event>
<event>
 7    1  0.1024956E-012  0.5052885E+02  0.7816164E-02  0.1300439E+00
        -11   -1    0    0    0    0  0.00000000000E+00  0.00000000000E+00  0.45593999997E+02  0.45594000000E+02  0.51100000000E-03 0.  1.
         11   -1    0    0    0    0 -0.00000000000E+00 -0.00000000000E+00 -0.45593999997E+02  0.45594000000E+02  0.51100000000E-03 0. -1.
    9900012    2    1    2    0    0  0.19918523355E+02 -0.18749857691E+02 -0.30080918399E+02  0.50528851118E+02  0.29999973458E+02 0.  0.
        -12    1    1    2    0    0 -0.19918523355E+02  0.18749857691E+02  0.30080918399E+02  0.40659148882E+02  0.00000000000E+00 0.  1.
         11    1    3    3    0    0  0.18450065247E+02 -0.17865284982E+02 -0.13881865237E+02  0.29193826364E+02  0.51100000000E-03 0. -1.
        -11    1    3    3    0    0  0.44369201275E+01  0.70523501339E+00 -0.17235773585E+02  0.17811667748E+02  0.51100000000E-03 0.  1.
         12    1    3    3    0    0 -0.29684620193E+01 -0.15898077230E+01  0.10367204223E+01  0.35233570058E+01  0.00000000000E+00 0. -1.
</event>
<event>
 7    1  0.1024956E-012  0.5052886E+02  0.7816164E-02  0.1300439E+00
        -11   -1    0    0    0    0  0.00000000000E+00  0.00000000000E+00  0.45593999997E+02  0.45594000000E+02  0.51100000000E-03 0.  1.
         11   -1    0    0    0    0 -0.00000000000E+00 -0.00000000000E+00 -0.45593999997E+02  0.45594000000E+02  0.51100000000E-03 0. -1.
    9900012    2    1    2    0    0  0.14881603625E+02  0.61396391019E+00 -0.37832875663E+02  0.50528861309E+02  0.30000004436E+02 0.  0.
        -12    1    1    2    0    0 -0.14881603625E+02 -0.61396391019E+00  0.37832875663E+02  0.40659138691E+02  0.00000000000E+00 0.  1.
         11    1    3    3    0    0  0.69013180727E+01 -0.47624168857E+00  0.36125948996E+01  0.78042193367E+01  0.51100000000E-03 0. -1.
        -11    1    3    3    0    0  0.34520818793E+01  0.30424681817E+01 -0.28551486539E+02  0.28919904318E+02  0.51100000000E-03 0.  1.
         12    1    3    3    0    0  0.45282036734E+01 -0.19522625829E+01 -0.12893984024E+02  0.13804737654E+02  0.00000000000E+00 0. -1.
</event>
<event>
 7    1  0.1024956E-012  0.5052885E+02  0.7816164E-02  0.1300439E+00
        -11   -1    0    0    0    0  0.00000000000E+00  0.00000000000E+00  0.45593999997E+02  0.45594000000E+02  0.51100000000E-03 0.  1.
         11   -1    0    0    0    0 -0.00000000000E+00 -0.00000000000E+00 -0.45593999997E+02  0.45594000000E+02  0.51100000000E-03 0. -1.
    9900012    2    1    2    0    0  0.12204443011E+02  0.37965737991E+02 -0.79259362651E+01  0.50528853968E+02  0.29999982120E+02 0.  0.
        -12    1    1    2    0    0 -0.12204443011E+02 -0.37965737991E+02  0.79259362651E+01  0.40659146032E+02  0.00000000000E+00 0.  1.
         11    1    3    3    0    0  0.21741673337E+02  0.24593151511E+02 -0.80708677472E+01  0.33803289295E+02  0.51100000000E-03 0. -1.
        -11    1    3    3    0    0 -0.20474822084E+01  0.39192799287E+01  0.13016908265E+01  0.46094834658E+01  0.51100000000E-03 0.  1.
         12    1    3    3    0    0 -0.74897481178E+01  0.94533065511E+01 -0.11567593444E+01  0.12116081206E+02  0.00000000000E+00 0. -1.
</event>
<event>
 7    1  0.1024956E-012  0.5052886E+02  0.7816164E-02  0.1300439E+00
        -11   -1    0    0    0    0  0.00000000000E+00  0.00000000000E+00  0.45593999997E+02  0.45594000000E+02  0.51100000000E-03 0.  1.
         11   -1    0    0    0    0 -0.00000000000E+00 -0.00000000000E+00 -0.45593999997E+02  0.45594000000E+02  0.51100000000E-03 0. -1.
    9900012    2    1    2    0    0  0.14923367553E+02  0.37269498168E+02 -0.64376152685E+01  0.50528864702E+02  0.30000014749E+02 0.  0.
        -12    1    1    2    0    0 -0.14923367553E+02 -0.37269498168E+02  0.64376152685E+01  0.40659135298E+02  0.00000000000E+00 0.  1.
         11    1    3    3    0    0  0.17908563842E+01 -0.23284683357E+01 -0.54217778514E+01  0.61664095478E+01  0.51100000000E-03 0. -1.
        -11    1    3    3    0    0  0.57406422242E+01  0.18433302799E+02  0.70262023479E+01  0.20545294958E+02  0.51100000000E-03 0.  1.
         12    1    3    3    0    0  0.73918689443E+01  0.21164663705E+02 -0.80420397650E+01  0.23817160196E+02  0.00000000000E+00 0. -1.
</event>
<event>
 7    1  0.1024956E-012  0.5052885E+02  0.7816164E-02  0.1300439E+00
        -11   -1    0    0    0    0  0.00000000000E+00  0.00000000000E+00  0.45593999997E+02  0.45594000000E+02  0.51100000000E-03 0. -1.
         11   -1    0    0    0    0 -0.00000000000E+00 -0.00000000000E+00 -0.45593999997E+02  0.45594000000E+02  0.51100000000E-03 0.  1.
    9900012    2    1    2    0    0  0.12508949156E+02 -0.10934848036E+02  0.37109588061E+02  0.50528852977E+02  0.29999979109E+02 0.  0.
        -12    1    1    2    0    0 -0.12508949156E+02  0.10934848036E+02 -0.37109588061E+02  0.40659147023E+02  0.00000000000E+00 0.  1.
         11    1    3    3    0    0  0.60357974267E+01  0.19302890473E+01  0.31539687233E+02  0.32169997473E+02  0.51100000000E-03 0. -1.
        -11    1    3    3    0    0  0.80284553017E+01 -0.11089363189E+02  0.16588651344E+01  0.13790645535E+02  0.51100000000E-03 0.  1.
         12    1    3    3    0    0 -0.15553035719E+01 -0.17757738934E+01  0.39110356939E+01  0.45682099689E+01  0.00000000000E+00 0. -1.
</event>
<event>
 7    1  0.1024956E-012  0.5052886E+02  0.7816164E-02  0.1300439E+00
        -11   -1    0    0    0    0  0.00000000000E+00  0.00000000000E+00  0.45593999997E+02  0.45594000000E+02  0.51100000000E-03 0.  1.
         11   -1    0    0    0    0 -0.00000000000E+00 -0.00000000000E+00 -0.45593999997E+02  0.45594000000E+02  0.51100000000E-03 0. -1.
    9900012    2    1    2    0    0  0.14879684255E+02 -0.21961154867E+02 -0.30813440501E+02  0.50528862747E+02  0.30000008805E+02 0.  0.
        -12    1    1    2    0    0 -0.14879684255E+02  0.21961154867E+02  0.30813440501E+02  0.40659137253E+02  0.00000000000E+00 0.  1.
         11    1    3    3    0    0 -0.10904472974E+01 -0.23272110893E+02 -0.15854974944E+02  0.28180852568E+02  0.51100000000E-03 0. -1.
        -11    1    3    3    0    0  0.78138512280E+01  0.46387375974E+00 -0.44008275576E+01  0.89799072005E+01  0.51100000000E-03 0.  1.
         12    1    3    3    0    0  0.81562803246E+01  0.84708226612E+00 -0.10557637999E+02  0.13368102978E+02  0.00000000000E+00 0. -1.
</event>
<event>
 7    1  0.1024956E-012  0.5052890E+02  0.7816164E-02  0.1300439E+00
        -11   -1    0    0    0    0  0.00000000000E+00  0.00000000000E+00  0.45593999997E+02  0.45594000000E+02  0.51100000000E-03 0.  1.
         11   -1    0    0    0    0 -0.00000000000E+00 -0.00000000000E+00 -0.45593999997E+02  0.45594000000E+02  0.51100000000E-03 0. -1.
    9900012    2    1    2    0    0 -0.36404192348E+02  0.15552407388E+02 -0.92746697094E+01  0.50528903917E+02  0.30000133945E+02 0.  0.
        -12    1    1    2    0    0  0.36404192348E+02 -0.15552407388E+02  0.92746697094E+01  0.40659096083E+02  0.00000000000E+00 0.  1.
         11    1    3    3    0    0 -0.17744155080E+02  0.34648810939E+01 -0.78789696601E+01  0.19721526403E+02  0.51100000000E-03 0. -1.
        -11    1    3    3    0    0 -0.11281379157E+02  0.17556168671E+02  0.21144168510E+01  0.20975207579E+02  0.51100000000E-03 0.  1.
        -12    1    3    3    0    0 -0.73786581110E+01 -0.54686423775E+01 -0.35101169003E+01  0.98321699347E+01  0.00000000000E+00 0.  1.
</event>
<event>
 7    1  0.1024956E-012  0.5052872E+02  0.7816164E-02  0.1300439E+00
        -11   -1    0    0    0    0  0.00000000000E+00  0.00000000000E+00  0.45593999997E+02  0.45594000000E+02  0.51100000000E-03 0.  1.
         11   -1    0    0    0    0 -0.00000000000E+00 -0.00000000000E+00 -0.45593999997E+02  0.45594000000E+02  0.51100000000E-03 0. -1.
    9900012    2    1    2    0    0 -0.10214980639E+02 -0.11157376775E+02 -0.37740480851E+02  0.50528723312E+02  0.29999584975E+02 0.  0.
        -12    1    1    2    0    0  0.10214980639E+02  0.11157376775E+02  0.37740480851E+02  0.40659276688E+02  0.00000000000E+00 0.  1.
         11    1    3    3    0    0  0.12302289529E+01  0.58636270437E+01 -0.28104535542E+01  0.66177212714E+01  0.51100000000E-03 0.  1.
        -11    1    3    3    0    0 -0.97144809431E+01 -0.17027599014E+02 -0.36591385954E+02  0.41511923521E+02  0.51100000000E-03 0. -1.
         12    1    3    3    0    0 -0.17307286491E+01  0.65951954029E-02  0.16613586567E+01  0.23990785189E+01  0.00000000000E+00 0. -1.
</event>
<event>
 7    1  0.1024956E-012  0.5052883E+02  0.7816164E-02  0.1300439E+00
        -11   -1    0    0    0    0  0.00000000000E+00  0.00000000000E+00  0.45593999997E+02  0.45594000000E+02  0.51100000000E-03 0. -1.
         11   -1    0    0    0    0 -0.00000000000E+00 -0.00000000000E+00 -0.45593999997E+02  0.45594000000E+02  0.51100000000E-03 0.  1.
    9900012    2    1    2    0    0 -0.33225720947E+02 -0.16656000031E+02  0.16486278194E+02  0.50528828364E+02  0.29999904294E+02 0.  0.
        -12    1    1    2    0    0  0.33225720947E+02  0.16656000031E+02 -0.16486278194E+02  0.40659171636E+02  0.00000000000E+00 0.  1.
         11    1    3    3    0    0 -0.34778716796E+02 -0.11882078359E+02  0.13242936419E+02  0.39065564035E+02  0.51100000000E-03 0. -1.
        -11    1    3    3    0    0  0.63253155269E+00 -0.57738428659E+01 -0.19251160491E+01  0.61191036655E+01  0.51100000000E-03 0.  1.
         12    1    3    3    0    0  0.92046429677E+00  0.99992119357E+00  0.51684578235E+01  0.53441606627E+01  0.00000000000E+00 0. -1.
</event>
<event>
 7    1  0.1024956E-012  0.5052887E+02  0.7816164E-02  0.1300439E+00
        -11   -1    0    0    0    0  0.00000000000E+00  0.00000000000E+00  0.45593999997E+02  0.45594000000E+02  0.51100000000E-03 0. -1.
         11   -1    0    0    0    0 -0.00000000000E+00 -0.00000000000E+00 -0.45593999997E+02  0.45594000000E+02  0.51100000000E-03 0.  1.
    9900012    2    1    2    0    0  0.14891787397E+02  0.17744404850E+02  0.33414607124E+02  0.50528865668E+02  0.30000017684E+02 0.  0.
        -12    1    1    2    0    0 -0.14891787397E+02 -0.17744404850E+02 -0.33414607124E+02  0.40659134332E+02  0.00000000000E+00 0.  1.
         11    1    3    3    0    0 -0.34654200952E+01  0.99808385172E+01  0.22219381814E+01  0.10796447725E+02  0.51100000000E-03 0. -1.
        -11    1    3    3    0    0  0.14677510471E+02 -0.11880039323E+01  0.21282947905E+02  0.25880582273E+02  0.51100000000E-03 0.  1.
        -12    1    3    3    0    0  0.36796970212E+01  0.89515702654E+01  0.99097210375E+01  0.13851835670E+02  0.00000000000E+00 0.  1.
</event>
<event>
 7    1  0.1024956E-012  0.5052886E+02  0.7816164E-02  0.1300439E+00
        -11   -1    0    0    0    0  0.00000000000E+00  0.00000000000E+00  0.45593999997E+02  0.45594000000E+02  0.51100000000E-03 0. -1.
         11   -1    0    0    0    0 -0.00000000000E+00 -0.00000000000E+00 -0.45593999997E+02  0.45594000000E+02  0.51100000000E-03 0.  1.
    9900012    2    1    2    0    0  0.12898351296E+02 -0.35823614102E+02  0.14264185458E+02  0.50528858589E+02  0.29999996167E+02 0.  0.
        -12    1    1    2    0    0 -0.12898351296E+02  0.35823614102E+02 -0.14264185458E+02  0.40659141411E+02  0.00000000000E+00 0.  1.
         11    1    3    3    0    0  0.79451460597E+01 -0.24098988978E+02  0.18506225812E+02  0.31406480378E+02  0.51100000000E-03 0. -1.
        -11    1    3    3    0    0  0.46257269878E+01 -0.20967074830E+01 -0.74082088136E+01  0.89819313359E+01  0.51100000000E-03 0.  1.
        -12    1    3    3    0    0  0.32747824844E+00 -0.96279176417E+01  0.31661684594E+01  0.10140446875E+02  0.00000000000E+00 0.  1.
</event>
<event>
 7    1  0.1024956E-012  0.5052886E+02  0.7816164E-02  0.1300439E+00
        -11   -1    0    0    0    0  0.00000000000E+00  0.00000000000E+00  0.45593999997E+02  0.45594000000E+02  0.51100000000E-03 0.  1.
         11   -1    0    0    0    0 -0.00000000000E+00 -0.00000000000E+00 -0.45593999997E+02  0.45594000000E+02  0.51100000000E-03 0. -1.
    9900012    2    1    2    0    0  0.20660837425E+02  0.29053120599E+02 -0.19550241339E+02  0.50528856427E+02  0.29999989595E+02 0.  0.
        -12    1    1    2    0    0 -0.20660837425E+02 -0.29053120599E+02  0.19550241339E+02  0.40659143573E+02  0.00000000000E+00 0.  1.
         11    1    3    3    0    0  0.12200735392E+02  0.24559939732E+02 -0.20574409968E+02  0.34283449790E+02  0.51100000000E-03 0. -1.
        -11    1    3    3    0    0  0.16824771262E-01 -0.34694512933E+01  0.28588237715E+01  0.44955810489E+01  0.51100000000E-03 0.  1.
         12    1    3    3    0    0  0.84432772623E+01  0.79626321602E+01 -0.18346551433E+01  0.11749825588E+02  0.00000000000E+00 0. -1.
</event>
<event>
 7    1  0.1024956E-012  0.5052889E+02  0.7816164E-02  0.1300439E+00
        -11   -1    0    0    0    0  0.00000000000E+00  0.00000000000E+00  0.45593999997E+02  0.45594000000E+02  0.51100000000E-03 0.  1.
         11   -1    0    0    0    0 -0.00000000000E+00 -0.00000000000E+00 -0.45593999997E+02  0.45594000000E+02  0.51100000000E-03 0. -1.
    9900012    2    1    2    0    0 -0.35512683401E+02 -0.10766273853E+02 -0.16616252915E+02  0.50528890370E+02  0.30000092767E+02 0.  0.
        -12    1    1    2    0    0  0.35512683401E+02  0.10766273853E+02  0.16616252915E+02  0.40659109630E+02  0.00000000000E+00 0.  1.
         11    1    3    3    0    0 -0.16364676231E+02  0.29399253768E+01 -0.13358540248E+02  0.21328300148E+02  0.51100000000E-03 0. -1.
        -11    1    3    3    0    0 -0.46866095854E+01 -0.11644244883E+02 -0.66492119972E+01  0.14204392586E+02  0.51100000000E-03 0.  1.
        -12    1    3    3    0    0 -0.14461397584E+02 -0.20619543463E+01  0.33914993302E+01  0.14996197636E+02  0.00000000000E+00 0.  1.
</event>
<event>
 7    1  0.1024956E-012  0.5052887E+02  0.7816164E-02  0.1300439E+00
        -11   -1    0    0    0    0  0.00000000000E+00  0.00000000000E+00  0.45593999997E+02  0.45594000000E+02  0.51100000000E-03 0.  1.
         11   -1    0    0    0    0 -0.00000000000E+00 -0.00000000000E+00 -0.45593999997E+02  0.45594000000E+02  0.51100000000E-03 0. -1.
    9900012    2    1    2    0    0  0.35054321904E+02 -0.18371674701E+01 -0.20517908941E+02  0.50528865039E+02  0.30000015773E+02 0.  0.
        -12    1    1    2    0    0 -0.35054321904E+02  0.18371674701E+01  0.20517908941E+02  0.40659134961E+02  0.00000000000E+00 0.  1.
         11    1    3    3    0    0  0.21180979730E+02  0.10012813070E+02 -0.32357141549E+01  0.23650796483E+02  0.51100000000E-03 0. -1.
        -11    1    3    3    0    0  0.58584314288E+01 -0.63004511581E+01 -0.14291057945E+02  0.16680864517E+02  0.51100000000E-03 0.  1.
         12    1    3    3    0    0  0.80149107450E+01 -0.55495293825E+01 -0.29911368411E+01  0.10197204039E+02  0.00000000000E+00 0. -1.
</event>
<event>
 7    1  0.1024956E-012  0.5052880E+02  0.7816164E-02  0.1300439E+00
        -11   -1    0    0    0    0  0.00000000000E+00  0.00000000000E+00  0.45593999997E+02  0.45594000000E+02  0.51100000000E-03 0. -1.
         11   -1    0    0    0    0 -0.00000000000E+00 -0.00000000000E+00 -0.45593999997E+02  0.45594000000E+02  0.51100000000E-03 0.  1.
    9900012    2    1    2    0    0  0.23017385430E+02  0.93457416976E+00  0.33503686886E+02  0.50528800600E+02  0.29999819904E+02 0.  0.
        -12    1    1    2    0    0 -0.23017385430E+02 -0.93457416976E+00 -0.33503686886E+02  0.40659199400E+02  0.00000000000E+00 0.  1.
         11    1    3    3    0    0  0.64533671824E+01  0.61397018980E+01  0.29178975299E+02  0.30508269160E+02  0.51100000000E-03 0. -1.
        -11    1    3    3    0    0  0.12238680623E+02 -0.71731033973E+01  0.53464679461E+01  0.15159928611E+02  0.51100000000E-03 0.  1.
         12    1    3    3    0    0  0.43253376244E+01  0.19679756690E+01 -0.10217563597E+01  0.48606028286E+01  0.00000000000E+00 0. -1.
</event>
<event>
 7    1  0.1024956E-012  0.5052886E+02  0.7816164E-02  0.1300439E+00
        -11   -1    0    0    0    0  0.00000000000E+00  0.00000000000E+00  0.45593999997E+02  0.45594000000E+02  0.51100000000E-03 0.  1.
         11   -1    0    0    0    0 -0.00000000000E+00 -0.00000000000E+00 -0.45593999997E+02  0.45594000000E+02  0.51100000000E-03 0. -1.
    9900012    2    1    2    0    0 -0.96371665015E+00 -0.71854122445E+01 -0.40007583681E+02  0.50528860180E+02  0.30000001003E+02 0.  0.
        -12    1    1    2    0    0  0.96371665015E+00  0.71854122445E+01  0.40007583681E+02  0.40659139820E+02  0.00000000000E+00 0.  1.
         11    1    3    3    0    0  0.95589166856E+01 -0.73039111984E+01 -0.23404469116E+02  0.26315189186E+02  0.51100000000E-03 0. -1.
        -11    1    3    3    0    0 -0.84881694014E+01 -0.64220691222E+01 -0.86343966817E+01  0.13705648395E+02  0.51100000000E-03 0.  1.
         12    1    3    3    0    0 -0.20344639344E+01  0.65405680762E+01 -0.79687178831E+01  0.10508022600E+02  0.00000000000E+00 0. -1.
</event>
<event>
 7    1  0.1024956E-012  0.5052887E+02  0.7816164E-02  0.1300439E+00
        -11   -1    0    0    0    0  0.00000000000E+00  0.00000000000E+00  0.45593999997E+02  0.45594000000E+02  0.51100000000E-03 0.  1.
         11   -1    0    0    0    0 -0.00000000000E+00 -0.00000000000E+00 -0.45593999997E+02  0.45594000000E+02  0.51100000000E-03 0. -1.
    9900012    2    1    2    0    0  0.18097158220E+02 -0.30248030526E+01 -0.36283722905E+02  0.50528866746E+02  0.30000020960E+02 0.  0.
        -12    1    1    2    0    0 -0.18097158220E+02  0.30248030526E+01  0.36283722905E+02  0.40659133254E+02  0.00000000000E+00 0.  1.
         11    1    3    3    0    0  0.22071677867E+02  0.54743553831E-01 -0.27171865521E+02  0.35006745591E+02  0.51100000000E-03 0. -1.
        -11    1    3    3    0    0 -0.19160509038E+01 -0.17423030142E+01  0.25322806063E+01  0.36220596612E+01  0.51100000000E-03 0.  1.
         12    1    3    3    0    0 -0.20584687438E+01 -0.13372435922E+01 -0.11644137991E+02  0.11900061493E+02  0.00000000000E+00 0. -1.
</event>
<event>
 7    1  0.1024956E-012  0.5052888E+02  0.7816164E-02  0.1300439E+00
        -11   -1    0    0    0    0  0.00000000000E+00  0.00000000000E+00  0.45593999997E+02  0.45594000000E+02  0.51100000000E-03 0.  1.
         11   -1    0    0    0    0 -0.00000000000E+00 -0.00000000000E+00 -0.45593999997E+02  0.45594000000E+02  0.51100000000E-03 0. -1.
    9900012    2    1    2    0    0 -0.28107051385E+02  0.28854209780E+02 -0.55310316206E+01  0.50528879616E+02  0.30000060081E+02 0.  0.
        -12    1    1    2    0    0  0.28107051385E+02 -0.28854209780E+02  0.55310316206E+01  0.40659120384E+02  0.00000000000E+00 0.  1.
         11    1    3    3    0    0 -0.13148299765E+02  0.36830163347E+01  0.59670746980E+01  0.14901287755E+02  0.51100000000E-03 0. -1.
        -11    1    3    3    0    0 -0.12172160856E+02  0.26183255672E+02 -0.61638901574E+01  0.29524869511E+02  0.51100000000E-03 0.  1.
        -12    1    3    3    0    0 -0.27865907635E+01 -0.10120622264E+01 -0.53342161612E+01  0.61027223505E+01  0.00000000000E+00 0.  1.
</event>
<event>
 7    1  0.1024956E-012  0.5052874E+02  0.7816164E-02  0.1300439E+00
        -11   -1    0    0    0    0  0.00000000000E+00  0.00000000000E+00  0.45593999997E+02  0.45594000000E+02  0.51100000000E-03 0. -1.
         11   -1    0    0    0    0 -0.00000000000E+00 -0.00000000000E+00 -0.45593999997E+02  0.45594000000E+02  0.51100000000E-03 0.  1.
    9900012    2    1    2    0    0  0.84172560259E+01 -0.34193520229E+02  0.20325555674E+02  0.50528742283E+02  0.29999642642E+02 0.  0.
        -12    1    1    2    0    0 -0.84172560259E+01  0.34193520229E+02 -0.20325555674E+02  0.40659257717E+02  0.00000000000E+00 0.  1.
         11    1    3    3    0    0  0.13226286681E+02 -0.11110369299E+02  0.10786165649E+02  0.20364585314E+02  0.51100000000E-03 0.  1.
        -11    1    3    3    0    0 -0.77714658355E+01 -0.13307799324E+02  0.12146628586E+02  0.19622277909E+02  0.51100000000E-03 0. -1.
        -12    1    3    3    0    0  0.29624351805E+01 -0.97753516054E+01 -0.26072385612E+01  0.10541879060E+02  0.00000000000E+00 0.  1.
</event>
<event>
 7    1  0.1024956E-012  0.5052883E+02  0.7816164E-02  0.1300439E+00
        -11   -1    0    0    0    0  0.00000000000E+00  0.00000000000E+00  0.45593999997E+02  0.45594000000E+02  0.51100000000E-03 0.  1.
         11   -1    0    0    0    0 -0.00000000000E+00 -0.00000000000E+00 -0.45593999997E+02  0.45594000000E+02  0.51100000000E-03 0. -1.
    9900012    2    1    2    0    0 -0.19151085744E+02  0.16108035361E+02 -0.32045823839E+02  0.50528834811E+02  0.29999923891E+02 0.  0.
        -12    1    1    2    0    0  0.19151085744E+02 -0.16108035361E+02  0.32045823839E+02  0.40659165189E+02  0.00000000000E+00 0.  1.
         11    1    3    3    0    0 -0.67393031911E+00  0.29510883897E+01 -0.21867229269E+02  0.22075751876E+02  0.51100000000E-03 0. -1.
        -11    1    3    3    0    0 -0.11851749414E+02  0.28774284788E+01 -0.10682658539E+02  0.16213042668E+02  0.51100000000E-03 0.  1.
         12    1    3    3    0    0 -0.66254060103E+01  0.10279518493E+02  0.50406396874E+00  0.12240040267E+02  0.00000000000E+00 0. -1.
</event>
<event>
 7    1  0.1024956E-012  0.5052887E+02  0.7816164E-02  0.1300439E+00
        -11   -1    0    0    0    0  0.00000000000E+00  0.00000000000E+00  0.45593999997E+02  0.45594000000E+02  0.51100000000E-03 0. -1.
         11   -1    0    0    0    0 -0.00000000000E+00 -0.00000000000E+00 -0.45593999997E+02  0.45594000000E+02  0.51100000000E-03 0.  1.
    9900012    2    1    2    0    0 -0.16373646460E+02  0.71470921509E+01  0.36523799673E+02  0.50528866129E+02  0.30000019085E+02 0.  0.
        -12    1    1    2    0    0  0.16373646460E+02 -0.71470921509E+01 -0.36523799673E+02  0.40659133871E+02  0.00000000000E+00 0.  1.
         11    1    3    3    0    0 -0.20941381697E-01 -0.78425887015E+01  0.26922636172E+01  0.82918586414E+01  0.51100000000E-03 0. -1.
        -11    1    3    3    0    0 -0.12495176333E+02  0.13740836086E+02  0.17888286265E+02  0.25786252029E+02  0.51100000000E-03 0.  1.
         12    1    3    3    0    0 -0.38575287448E+01  0.12488447667E+01  0.15943249790E+02  0.16450755458E+02  0.00000000000E+00 0. -1.
</event>
<event>
 7    1  0.1024956E-012  0.5052886E+02  0.7816164E-02  0.1300439E+00
        -11   -1    0    0    0    0  0.00000000000E+00  0.00000000000E+00  0.45593999997E+02  0.45594000000E+02  0.51100000000E-03 0.  1.
         11   -1    0    0    0    0 -0.00000000000E+00 -0.00000000000E+00 -0.45593999997E+02  0.45594000000E+02  0.51100000000E-03 0. -1.
    9900012    2    1    2    0    0 -0.40238158513E+02 -0.29547841598E+01 -0.50324162271E+01  0.50528863720E+02  0.30000011763E+02 0.  0.
        -12    1    1    2    0    0  0.40238158513E+02  0.29547841598E+01  0.50324162271E+01  0.40659136280E+02  0.00000000000E+00 0.  1.
         11    1    3    3    0    0 -0.68654540954E+01  0.85734205690E+01 -0.82765850475E+01  0.13752812821E+02  0.51100000000E-03 0. -1.
        -11    1    3    3    0    0 -0.21288581423E+01 -0.38490375059E+01  0.10826305434E+01  0.45298141095E+01  0.51100000000E-03 0.  1.
         12    1    3    3    0    0 -0.31243846276E+02 -0.76791672229E+01  0.21615382769E+01  0.32246236789E+02  0.00000000000E+00 0. -1.
</event>
<event>
 7    1  0.1024956E-012  0.5052887E+02  0.7816164E-02  0.1300439E+00
        -11   -1    0    0    0    0  0.00000000000E+00  0.00000000000E+00  0.45593999997E+02  0.45594000000E+02  0.51100000000E-03 0.  1.
         11   -1    0    0    0    0 -0.00000000000E+00 -0.00000000000E+00 -0.45593999997E+02  0.45594000000E+02  0.51100000000E-03 0. -1.
    9900012    2    1    2    0    0  0.11279988404E+02 -0.22574112507E+02 -0.31880033499E+02  0.50528865359E+02  0.30000016746E+02 0.  0.
        -12    1    1    2    0    0 -0.11279988404E+02  0.22574112507E+02  0.31880033499E+02  0.40659134641E+02  0.00000000000E+00 0.  1.
         11    1    3    3    0    0  0.11373194858E+02  0.72055041203E+00 -0.94834025164E+01  0.14825777474E+02  0.51100000000E-03 0. -1.
        -11    1    3    3    0    0 -0.69215793452E+01 -0.14908801608E+02 -0.16887953148E+02  0.23566577771E+02  0.51100000000E-03 0.  1.
        -12    1    3    3    0    0  0.68283728918E+01 -0.83858613105E+01 -0.55086778338E+01  0.12136510114E+02  0.00000000000E+00 0.  1.
</event>
<event>
 7    1  0.1024956E-012  0.5052899E+02  0.7816164E-02  0.1300438E+00
        -11   -1    0    0    0    0  0.00000000000E+00  0.00000000000E+00  0.45593999997E+02  0.45594000000E+02  0.51100000000E-03 0.  1.
         11   -1    0    0    0    0 -0.00000000000E+00 -0.00000000000E+00 -0.45593999997E+02  0.45594000000E+02  0.51100000000E-03 0. -1.
    9900012    2    1    2    0    0 -0.38207021303E+02  0.56925013472E+01 -0.12687558118E+02  0.50528988952E+02  0.30000392416E+02 0.  0.
        -12    1    1    2    0    0  0.38207021303E+02 -0.56925013472E+01  0.12687558118E+02  0.40659011048E+02  0.00000000000E+00 0.  1.
         11    1    3    3    0    0 -0.20040254187E+02  0.10325173702E+02 -0.12606875004E+02  0.25829330179E+02  0.51100000000E-03 0. -1.
        -11    1    3    3    0    0 -0.39987129448E+01 -0.82703831439E+01 -0.32285690030E+01  0.97371762144E+01  0.51100000000E-03 0.  1.
         12    1    3    3    0    0 -0.14168054170E+02  0.36377107892E+01  0.31478858889E+01  0.14962482559E+02  0.00000000000E+00 0. -1.
</event>
<event>
 7    1  0.1024956E-012  0.5052879E+02  0.7816164E-02  0.1300439E+00
        -11   -1    0    0    0    0  0.00000000000E+00  0.00000000000E+00  0.45593999997E+02  0.45594000000E+02  0.51100000000E-03 0. -1.
         11   -1    0    0    0    0 -0.00000000000E+00 -0.00000000000E+00 -0.45593999997E+02  0.45594000000E+02  0.51100000000E-03 0.  1.
    9900012    2    1    2    0    0  0.86069901604E+01  0.32394433052E+02  0.23015035600E+02  0.50528789038E+02  0.29999784759E+02 0.  0.
        -12    1    1    2    0    0 -0.86069901604E+01 -0.32394433052E+02 -0.23015035600E+02  0.40659210962E+02  0.00000000000E+00 0.  1.
         11    1    3    3    0    0  0.12480008930E+02  0.19048797883E+02  0.16765231019E+01  0.22834580216E+02  0.51100000000E-03 0. -1.
        -11    1    3    3    0    0 -0.73213219657E+01  0.11746489047E+02  0.16333849994E+02  0.21409727138E+02  0.51100000000E-03 0.  1.
         12    1    3    3    0    0  0.34483031960E+01  0.15991461225E+01  0.50046625042E+01  0.62844816837E+01  0.00000000000E+00 0. -1.
</event>
<event>
 7    1  0.1024956E-012  0.5052886E+02  0.7816164E-02  0.1300439E+00
        -11   -1    0    0    0    0  0.00000000000E+00  0.00000000000E+00  0.45593999997E+02  0.45594000000E+02  0.51100000000E-03 0.  1.
         11   -1    0    0    0    0 -0.00000000000E+00 -0.00000000000E+00 -0.45593999997E+02  0.45594000000E+02  0.51100000000E-03 0. -1.
    9900012    2    1    2    0    0 -0.10040742002E+02 -0.27555192429E+01 -0.39303382771E+02  0.50528864699E+02  0.30000014738E+02 0.  0.
        -12    1    1    2    0    0  0.10040742002E+02  0.27555192429E+01  0.39303382771E+02  0.40659135301E+02  0.00000000000E+00 0.  1.
         11    1    3    3    0    0 -0.14499212081E+01 -0.10066922173E+02 -0.14143284026E+02  0.17420610691E+02  0.51100000000E-03 0.  1.
        -11    1    3    3    0    0  0.50922532724E+00  0.60291367028E+01  0.28210563688E+00  0.60571762123E+01  0.51100000000E-03 0. -1.
         12    1    3    3    0    0 -0.91000461210E+01  0.12822662275E+01 -0.25442204381E+02  0.27051077795E+02  0.00000000000E+00 0. -1.
</event>
<event>
 7    1  0.1024956E-012  0.5052885E+02  0.7816164E-02  0.1300439E+00
        -11   -1    0    0    0    0  0.00000000000E+00  0.00000000000E+00  0.45593999997E+02  0.45594000000E+02  0.51100000000E-03 0. -1.
         11   -1    0    0    0    0 -0.00000000000E+00 -0.00000000000E+00 -0.45593999997E+02  0.45594000000E+02  0.51100000000E-03 0.  1.
    9900012    2    1    2    0    0  0.97446308238E+00  0.32870465443E+02  0.23911273407E+02  0.50528854993E+02  0.29999985236E+02 0.  0.
        -12    1    1    2    0    0 -0.97446308238E+00 -0.32870465443E+02 -0.23911273407E+02  0.40659145007E+02  0.00000000000E+00 0.  1.
         11    1    3    3    0    0  0.97056092026E+01  0.78362529350E+01  0.22320304926E+01  0.12672319063E+02  0.51100000000E-03 0. -1.
        -11    1    3    3    0    0 -0.92869260382E+01  0.48062533064E+01  0.48029836301E+01  0.11507202879E+02  0.51100000000E-03 0.  1.
         12    1    3    3    0    0  0.55577991803E+00  0.20227959202E+02  0.16876259285E+02  0.26349333051E+02  0.00000000000E+00 0. -1.
</event>
<event>
 7    1  0.1024956E-012  0.5052886E+02  0.7816164E-02  0.1300439E+00
        -11   -1    0    0    0    0  0.00000000000E+00  0.00000000000E+00  0.45593999997E+02  0.45594000000E+02  0.51100000000E-03 0.  1.
         11   -1    0    0    0    0 -0.00000000000E+00 -0.00000000000E+00 -0.45593999997E+02  0.45594000000E+02  0.51100000000E-03 0. -1.
    9900012    2    1    2    0    0 -0.14876195893E+02 -0.37804544172E+02  0.16372399303E+01  0.50528864263E+02  0.30000013413E+02 0.  0.
        -12    1    1    2    0    0  0.14876195893E+02  0.37804544172E+02 -0.16372399303E+01  0.40659135737E+02  0.00000000000E+00 0.  1.
         11    1    3    3    0    0 -0.37945217319E+01 -0.26067749588E+02  0.84953029541E+01  0.27678441725E+02  0.51100000000E-03 0. -1.
        -11    1    3    3    0    0 -0.63888584527E+01  0.65863215366E+00  0.22087490220E+01  0.67918981990E+01  0.51100000000E-03 0.  1.
         12    1    3    3    0    0 -0.46928157088E+01 -0.12395426737E+02 -0.90668120458E+01  0.16058524339E+02  0.00000000000E+00 0. -1.
</event>
<event>
 7    1  0.1064651E-012  0.5052885E+02  0.7816164E-02  0.1300439E+00
        -11   -1    0    0    0    0  0.00000000000E+00  0.00000000000E+00  0.45593999997E+02  0.45594000000E+02  0.51100000000E-03 0. -1.
         11   -1    0    0    0    0 -0.00000000000E+00 -0.00000000000E+00 -0.45593999997E+02  0.45594000000E+02  0.51100000000E-03 0.  1.
    9900012    2    1    2    0    0  0.92839494319E+01 -0.34880943329E+02  0.18716158096E+02  0.50528849757E+02  0.29999969322E+02 0.  0.
        -12    1    1    2    0    0 -0.92839494319E+01  0.34880943329E+02 -0.18716158096E+02  0.40659150243E+02  0.00000000000E+00 0.  1.
         11    1    3    3    0    0 -0.77935778350E+01 -0.18840600024E+02  0.14379446470E+02  0.24949479871E+02  0.51100000000E-03 0. -1.
        -11    1    3    3    0    0  0.88161228701E+01 -0.37535089232E+01 -0.14338745983E+01  0.96885937227E+01  0.51100000000E-03 0.  1.
        -12    1    3    3    0    0  0.82614043968E+01 -0.12286834382E+02  0.57705862240E+01  0.15890776164E+02  0.00000000000E+00 0.  1.
</event>
<event>
 7    1  0.1024956E-012  0.5052886E+02  0.7816164E-02  0.1300439E+00
        -11   -1    0    0    0    0  0.00000000000E+00  0.00000000000E+00  0.45593999997E+02  0.45594000000E+02  0.51100000000E-03 0.  1.
         11   -1    0    0    0    0 -0.00000000000E+00 -0.00000000000E+00 -0.45593999997E+02  0.45594000000E+02  0.51100000000E-03 0. -1.
    9900012    2    1    2    0    0  0.11076593283E+02  0.30336665260E+02 -0.24701446858E+02  0.50528860133E+02  0.30000000859E+02 0.  0.
        -12    1    1    2    0    0 -0.11076593283E+02 -0.30336665260E+02  0.24701446858E+02  0.40659139867E+02  0.00000000000E+00 0.  1.
         11    1    3    3    0    0  0.11791770083E+02  0.11368738707E+02 -0.15822997968E+02  0.22774137227E+02  0.51100000000E-03 0. -1.
        -11    1    3    3    0    0 -0.93586582361E+01  0.94948671586E+01 -0.30907065933E+01  0.13685373720E+02  0.51100000000E-03 0.  1.
        -12    1    3    3    0    0  0.86434814358E+01  0.94730593945E+01 -0.57877422973E+01  0.14069349186E+02  0.00000000000E+00 0.  1.
</event>
<event>
 7    1  0.1029028E-012  0.5052886E+02  0.7816164E-02  0.1300439E+00
        -11   -1    0    0    0    0  0.00000000000E+00  0.00000000000E+00  0.45593999997E+02  0.45594000000E+02  0.51100000000E-03 0. -1.
         11   -1    0    0    0    0 -0.00000000000E+00 -0.00000000000E+00 -0.45593999997E+02  0.45594000000E+02  0.51100000000E-03 0.  1.
    9900012    2    1    2    0    0  0.18329838975E+02 -0.35053873065E+02 -0.94025746928E+01  0.50528862963E+02  0.30000009463E+02 0.  0.
        -12    1    1    2    0    0 -0.18329838975E+02  0.35053873065E+02  0.94025746928E+01  0.40659137037E+02  0.00000000000E+00 0.  1.
         11    1    3    3    0    0  0.93079745367E+01 -0.11794744203E+02 -0.54710787683E-01  0.15025224602E+02  0.51100000000E-03 0. -1.
        -11    1    3    3    0    0  0.39619227362E+01 -0.21883093418E+02 -0.15732916139E+02  0.27241352019E+02  0.51100000000E-03 0.  1.
        -12    1    3    3    0    0  0.50599417022E+01 -0.13760354438E+01  0.63850522342E+01  0.82622863425E+01  0.00000000000E+00 0.  1.
</event>
<event>
 7    1  0.1024956E-012  0.5052886E+02  0.7816164E-02  0.1300439E+00
        -11   -1    0    0    0    0  0.00000000000E+00  0.00000000000E+00  0.45593999997E+02  0.45594000000E+02  0.51100000000E-03 0.  1.
         11   -1    0    0    0    0 -0.00000000000E+00 -0.00000000000E+00 -0.45593999997E+02  0.45594000000E+02  0.51100000000E-03 0. -1.
    9900012    2    1    2    0    0 -0.11146123769E+02  0.15491733921E+02 -0.35901752305E+02  0.50528859410E+02  0.29999998662E+02 0.  0.
        -12    1    1    2    0    0  0.11146123769E+02 -0.15491733921E+02  0.35901752305E+02  0.40659140590E+02  0.00000000000E+00 0.  1.
         11    1    3    3    0    0 -0.16500748517E+02  0.19780368098E+02 -0.32581110754E+02  0.41533919174E+02  0.51100000000E-03 0. -1.
        -11    1    3    3    0    0  0.22657681113E+01 -0.99107946938E+00  0.10701240835E+01  0.26946445896E+01  0.51100000000E-03 0.  1.
        -12    1    3    3    0    0  0.30888566375E+01 -0.32975547072E+01 -0.43907656350E+01  0.63002956467E+01  0.00000000000E+00 0.  1.
</event>
<event>
 7    1  0.1024956E-012  0.5052883E+02  0.7816164E-02  0.1300439E+00
        -11   -1    0    0    0    0  0.00000000000E+00  0.00000000000E+00  0.45593999997E+02  0.45594000000E+02  0.51100000000E-03 0.  1.
         11   -1    0    0    0    0 -0.00000000000E+00 -0.00000000000E+00 -0.45593999997E+02  0.45594000000E+02  0.51100000000E-03 0. -1.
    9900012    2    1    2    0    0 -0.26531896263E+02  0.27318507510E+02  0.14245193066E+02  0.50528832555E+02  0.29999917033E+02 0.  0.
        -12    1    1    2    0    0  0.26531896263E+02 -0.27318507510E+02 -0.14245193066E+02  0.40659167445E+02  0.00000000000E+00 0.  1.
         11    1    3    3    0    0 -0.53604910221E+01  0.12097319928E+00  0.40599266929E+01  0.67255113951E+01  0.51100000000E-03 0. -1.
        -11    1    3    3    0    0 -0.41881962978E+01  0.25147499548E+02  0.63206102041E+01  0.26265715969E+02  0.51100000000E-03 0.  1.
        -12    1    3    3    0    0 -0.16983208943E+02  0.20500347630E+01  0.38646561687E+01  0.17537605191E+02  0.00000000000E+00 0.  1.
</event>
<event>
 7    1  0.1024956E-012  0.5052887E+02  0.7816164E-02  0.1300439E+00
        -11   -1    0    0    0    0  0.00000000000E+00  0.00000000000E+00  0.45593999997E+02  0.45594000000E+02  0.51100000000E-03 0.  1.
         11   -1    0    0    0    0 -0.00000000000E+00 -0.00000000000E+00 -0.45593999997E+02  0.45594000000E+02  0.51100000000E-03 0. -1.
    9900012    2    1    2    0    0  0.32856468026E+01 -0.27290709972E+02 -0.29959753609E+02  0.50528866193E+02  0.30000019279E+02 0.  0.
        -12    1    1    2    0    0 -0.32856468026E+01  0.27290709972E+02  0.29959753609E+02  0.40659133807E+02  0.00000000000E+00 0.  1.
         11    1    3    3    0    0  0.58617659533E+01 -0.13742018321E+02 -0.83530636890E+01  0.17116572112E+02  0.51100000000E-03 0. -1.
        -11    1    3    3    0    0 -0.11104998765E+02 -0.12595913345E+02 -0.12788669416E+02  0.21107536480E+02  0.51100000000E-03 0.  1.
        -12    1    3    3    0    0  0.85288796147E+01 -0.95277830561E+00 -0.88180205043E+01  0.12304757600E+02  0.00000000000E+00 0.  1.
</event>
<event>
 7    1  0.1024956E-012  0.5052887E+02  0.7816164E-02  0.1300439E+00
        -11   -1    0    0    0    0  0.00000000000E+00  0.00000000000E+00  0.45593999997E+02  0.45594000000E+02  0.51100000000E-03 0. -1.
         11   -1    0    0    0    0 -0.00000000000E+00 -0.00000000000E+00 -0.45593999997E+02  0.45594000000E+02  0.51100000000E-03 0.  1.
    9900012    2    1    2    0    0  0.13851450731E+02  0.17146381648E+02  0.34165831823E+02  0.50528866277E+02  0.30000019535E+02 0.  0.
        -12    1    1    2    0    0 -0.13851450731E+02 -0.17146381648E+02 -0.34165831823E+02  0.40659133723E+02  0.00000000000E+00 0.  1.
         11    1    3    3    0    0 -0.35226273401E+01  0.13414068536E+02  0.45193179506E+01  0.14586650509E+02  0.51100000000E-03 0.  1.
        -11    1    3    3    0    0  0.13333659264E+02  0.70332929309E+01  0.22832431545E+02  0.27360073270E+02  0.51100000000E-03 0. -1.
         12    1    3    3    0    0  0.40404188073E+01 -0.33009798187E+01  0.68140823267E+01  0.85821424981E+01  0.00000000000E+00 0. -1.
</event>
<event>
 7    1  0.1024956E-012  0.5052886E+02  0.7816164E-02  0.1300439E+00
        -11   -1    0    0    0    0  0.00000000000E+00  0.00000000000E+00  0.45593999997E+02  0.45594000000E+02  0.51100000000E-03 0.  1.
         11   -1    0    0    0    0 -0.00000000000E+00 -0.00000000000E+00 -0.45593999997E+02  0.45594000000E+02  0.51100000000E-03 0. -1.
    9900012    2    1    2    0    0  0.18261952396E+02  0.12381072181E+02 -0.34152240616E+02  0.50528863355E+02  0.30000010654E+02 0.  0.
        -12    1    1    2    0    0 -0.18261952396E+02 -0.12381072181E+02  0.34152240616E+02  0.40659136645E+02  0.00000000000E+00 0.  1.
         11    1    3    3    0    0  0.38085335133E+01 -0.45748406052E+01 -0.15087228891E+02  0.16219080429E+02  0.51100000000E-03 0. -1.
        -11    1    3    3    0    0  0.69102286785E+01  0.28705331446E+01  0.21177638936E+01  0.77766409904E+01  0.51100000000E-03 0.  1.
        -12    1    3    3    0    0  0.75431902039E+01  0.14085379641E+02 -0.21182775618E+02  0.26533141936E+02  0.00000000000E+00 0.  1.
</event>
<event>
 7    1  0.1024956E-012  0.5052886E+02  0.7816164E-02  0.1300439E+00
        -11   -1    0    0    0    0  0.00000000000E+00  0.00000000000E+00  0.45593999997E+02  0.45594000000E+02  0.51100000000E-03 0.  1.
         11   -1    0    0    0    0 -0.00000000000E+00 -0.00000000000E+00 -0.45593999997E+02  0.45594000000E+02  0.51100000000E-03 0. -1.
    9900012    2    1    2    0    0 -0.21425948430E+02  0.32193384660E+02 -0.12557096579E+02  0.50528856422E+02  0.29999989581E+02 0.  0.
        -12    1    1    2    0    0  0.21425948430E+02 -0.32193384660E+02  0.12557096579E+02  0.40659143578E+02  0.00000000000E+00 0.  1.
         11    1    3    3    0    0 -0.16895453965E+02  0.23773562436E+02 -0.20352633069E+02  0.35564987117E+02  0.51100000000E-03 0. -1.
        -11    1    3    3    0    0 -0.53316053185E+01  0.13369452938E+01  0.22786365393E+01  0.59502624086E+01  0.51100000000E-03 0.  1.
         12    1    3    3    0    0  0.80111085264E+00  0.70828769304E+01  0.55168999512E+01  0.90136068963E+01  0.00000000000E+00 0. -1.
</event>
<event>
 7    1  0.1024956E-012  0.5052885E+02  0.7816164E-02  0.1300439E+00
        -11   -1    0    0    0    0  0.00000000000E+00  0.00000000000E+00  0.45593999997E+02  0.45594000000E+02  0.51100000000E-03 0. -1.
         11   -1    0    0    0    0 -0.00000000000E+00 -0.00000000000E+00 -0.45593999997E+02  0.45594000000E+02  0.51100000000E-03 0.  1.
    9900012    2    1    2    0    0  0.17356803604E+01  0.35015971093E+01  0.40470884603E+02  0.50528852577E+02  0.29999977892E+02 0.  0.
        -12    1    1    2    0    0 -0.17356803604E+01 -0.35015971093E+01 -0.40470884603E+02  0.40659147423E+02  0.00000000000E+00 0.  1.
         11    1    3    3    0    0  0.96118850558E+01  0.56748743853E+01  0.29748770374E+02  0.31773918119E+02  0.51100000000E-03 0. -1.
        -11    1    3    3    0    0 -0.48031646357E+01 -0.24608543065E+01 -0.19301554512E+01  0.57316397970E+01  0.51100000000E-03 0.  1.
        -12    1    3    3    0    0 -0.30730400598E+01  0.28757703055E+00  0.12652269680E+02  0.13023294661E+02  0.00000000000E+00 0.  1.
</event>
<event>
 7    1  0.1024956E-012  0.5052887E+02  0.7816164E-02  0.1300439E+00
        -11   -1    0    0    0    0  0.00000000000E+00  0.00000000000E+00  0.45593999997E+02  0.45594000000E+02  0.51100000000E-03 0.  1.
         11   -1    0    0    0    0 -0.00000000000E+00 -0.00000000000E+00 -0.45593999997E+02  0.45594000000E+02  0.51100000000E-03 0. -1.
    9900012    2    1    2    0    0 -0.29188320341E+02  0.26494518214E+02  0.99622988177E+01  0.50528868953E+02  0.30000027670E+02 0.  0.
        -12    1    1    2    0    0  0.29188320341E+02 -0.26494518214E+02 -0.99622988177E+01  0.40659131047E+02  0.00000000000E+00 0.  1.
         11    1    3    3    0    0 -0.15540226353E+02  0.17058168875E+01 -0.67590074780E+01  0.17032105821E+02  0.51100000000E-03 0. -1.
        -11    1    3    3    0    0 -0.12627417126E+02  0.18897309995E+02  0.15150261057E+02  0.27314655383E+02  0.51100000000E-03 0.  1.
         12    1    3    3    0    0 -0.10206768622E+01  0.58913913319E+01  0.15710452384E+01  0.61821077492E+01  0.00000000000E+00 0. -1.
</event>
<event>
 7    1  0.1024956E-012  0.5052887E+02  0.7816164E-02  0.1300439E+00
        -11   -1    0    0    0    0  0.00000000000E+00  0.00000000000E+00  0.45593999997E+02  0.45594000000E+02  0.51100000000E-03 0.  1.
         11   -1    0    0    0    0 -0.00000000000E+00 -0.00000000000E+00 -0.45593999997E+02  0.45594000000E+02  0.51100000000E-03 0. -1.
    9900012    2    1    2    0    0  0.92802137470E+01 -0.29462925564E+02 -0.26438206090E+02  0.50528867062E+02  0.30000021923E+02 0.  0.
        -12    1    1    2    0    0 -0.92802137470E+01  0.29462925564E+02  0.26438206090E+02  0.40659132938E+02  0.00000000000E+00 0.  1.
         11    1    3    3    0    0  0.32510809107E+01 -0.29662270871E+02 -0.15761228927E+02  0.33746646913E+02  0.51100000000E-03 0. -1.
        -11    1    3    3    0    0  0.12067432635E+01  0.72146207379E+00  0.24294840271E+01  0.28069787543E+01  0.51100000000E-03 0.  1.
         12    1    3    3    0    0  0.48223895727E+01 -0.52211676650E+00 -0.13106461191E+02  0.13975241395E+02  0.00000000000E+00 0. -1.
</event>
<event>
 7    1  0.1024956E-012  0.5052886E+02  0.7816164E-02  0.1300439E+00
        -11   -1    0    0    0    0  0.00000000000E+00  0.00000000000E+00  0.45593999997E+02  0.45594000000E+02  0.51100000000E-03 0.  1.
         11   -1    0    0    0    0 -0.00000000000E+00 -0.00000000000E+00 -0.45593999997E+02  0.45594000000E+02  0.51100000000E-03 0. -1.
    9900012    2    1    2    0    0  0.16955917041E+02  0.25310622971E+02 -0.26926468387E+02  0.50528862556E+02  0.30000008225E+02 0.  0.
        -12    1    1    2    0    0 -0.16955917041E+02 -0.25310622971E+02  0.26926468387E+02  0.40659137444E+02  0.00000000000E+00 0.  1.
         11    1    3    3    0    0  0.57042475694E+01  0.13658616258E+02  0.30513448634E+01  0.15113138131E+02  0.51100000000E-03 0.  1.
        -11    1    3    3    0    0  0.21854054276E-01  0.38423297465E+01 -0.21381449111E+01  0.43972308789E+01  0.51100000000E-03 0. -1.
         12    1    3    3    0    0  0.11229815418E+02  0.78096769665E+01 -0.27839668340E+02  0.31018493546E+02  0.00000000000E+00 0. -1.
</event>
<event>
 7    1  0.1024956E-012  0.5052886E+02  0.7816164E-02  0.1300439E+00
        -11   -1    0    0    0    0  0.00000000000E+00  0.00000000000E+00  0.45593999997E+02  0.45594000000E+02  0.51100000000E-03 0.  1.
         11   -1    0    0    0    0 -0.00000000000E+00 -0.00000000000E+00 -0.45593999997E+02  0.45594000000E+02  0.51100000000E-03 0. -1.
    9900012    2    1    2    0    0 -0.29206905842E+01 -0.22648716031E+02 -0.33640316520E+02  0.50528859983E+02  0.30000000405E+02 0.  0.
        -12    1    1    2    0    0  0.29206905842E+01  0.22648716031E+02  0.33640316520E+02  0.40659140017E+02  0.00000000000E+00 0.  1.
         11    1    3    3    0    0  0.37921164734E+01 -0.10084616787E+02 -0.33742635427E+02  0.35420969621E+02  0.51100000000E-03 0. -1.
        -11    1    3    3    0    0 -0.36628122109E+01 -0.21840277736E+01 -0.35552130874E+00  0.42793184353E+01  0.51100000000E-03 0.  1.
         12    1    3    3    0    0 -0.30499948467E+01 -0.10380071471E+02  0.45784021619E+00  0.10828571927E+02  0.00000000000E+00 0. -1.
</event>
<event>
 7    1  0.1024956E-012  0.5052886E+02  0.7816164E-02  0.1300439E+00
        -11   -1    0    0    0    0  0.00000000000E+00  0.00000000000E+00  0.45593999997E+02  0.45594000000E+02  0.51100000000E-03 0. -1.
         11   -1    0    0    0    0 -0.00000000000E+00 -0.00000000000E+00 -0.45593999997E+02  0.45594000000E+02  0.51100000000E-03 0.  1.
    9900012    2    1    2    0    0 -0.62429805803E+01  0.64050713156E+01  0.39663152673E+02  0.50528862958E+02  0.30000009447E+02 0.  0.
        -12    1    1    2    0    0  0.62429805803E+01 -0.64050713156E+01 -0.39663152673E+02  0.40659137042E+02  0.00000000000E+00 0.  1.
         11    1    3    3    0    0 -0.30596407238E+01  0.10232642821E+02  0.10312206841E+02  0.14846211323E+02  0.51100000000E-03 0. -1.
        -11    1    3    3    0    0  0.37990752724E+01 -0.86685715690E+01  0.70017879471E+01  0.11772941038E+02  0.51100000000E-03 0.  1.
        -12    1    3    3    0    0 -0.69824151289E+01  0.48410000632E+01  0.22349157885E+02  0.23909710596E+02  0.00000000000E+00 0.  1.
</event>
<event>
 7    1  0.1024956E-012  0.5052887E+02  0.7816164E-02  0.1300439E+00
        -11   -1    0    0    0    0  0.00000000000E+00  0.00000000000E+00  0.45593999997E+02  0.45594000000E+02  0.51100000000E-03 0.  1.
         11   -1    0    0    0    0 -0.00000000000E+00 -0.00000000000E+00 -0.45593999997E+02  0.45594000000E+02  0.51100000000E-03 0. -1.
    9900012    2    1    2    0    0  0.93287849948E+01 -0.36204565655E+02 -0.15980247613E+02  0.50528866739E+02  0.30000020940E+02 0.  0.
        -12    1    1    2    0    0 -0.93287849948E+01  0.36204565655E+02  0.15980247613E+02  0.40659133261E+02  0.00000000000E+00 0.  1.
         11    1    3    3    0    0  0.15930629378E+02 -0.13574265271E+02 -0.10798475724E+02  0.23551065968E+02  0.51100000000E-03 0. -1.
        -11    1    3    3    0    0 -0.87950530917E+01 -0.10249950111E+02 -0.35719240385E+00  0.13510811331E+02  0.51100000000E-03 0.  1.
         12    1    3    3    0    0  0.21932087085E+01 -0.12380350274E+02 -0.48245794848E+01  0.13466989439E+02  0.00000000000E+00 0. -1.
</event>
<event>
 7    1  0.1024956E-012  0.5052891E+02  0.7816164E-02  0.1300439E+00
        -11   -1    0    0    0    0  0.00000000000E+00  0.00000000000E+00  0.45593999997E+02  0.45594000000E+02  0.51100000000E-03 0. -1.
         11   -1    0    0    0    0 -0.00000000000E+00 -0.00000000000E+00 -0.45593999997E+02  0.45594000000E+02  0.51100000000E-03 0.  1.
    9900012    2    1    2    0    0 -0.40637135762E+02  0.33733532689E+00 -0.12926939657E+01  0.50528909310E+02  0.30000150337E+02 0.  0.
        -12    1    1    2    0    0  0.40637135762E+02 -0.33733532689E+00  0.12926939657E+01  0.40659090690E+02  0.00000000000E+00 0.  1.
         11    1    3    3    0    0 -0.30631554311E+02 -0.70213950629E+01  0.60703733408E+01  0.32006898333E+02  0.51100000000E-03 0. -1.
        -11    1    3    3    0    0 -0.71092765673E+01  0.63022916712E+01 -0.10474903695E+02  0.14141580580E+02  0.51100000000E-03 0.  1.
        -12    1    3    3    0    0 -0.28963048839E+01  0.10564387186E+01  0.31118363888E+01  0.43804303964E+01  0.00000000000E+00 0.  1.
</event>
<event>
 7    1  0.1024956E-012  0.5052885E+02  0.7816164E-02  0.1300439E+00
        -11   -1    0    0    0    0  0.00000000000E+00  0.00000000000E+00  0.45593999997E+02  0.45594000000E+02  0.51100000000E-03 0.  1.
         11   -1    0    0    0    0 -0.00000000000E+00 -0.00000000000E+00 -0.45593999997E+02  0.45594000000E+02  0.51100000000E-03 0. -1.
    9900012    2    1    2    0    0  0.29551519040E+02  0.20181442966E+02 -0.19302417531E+02  0.50528852932E+02  0.29999978974E+02 0.  0.
        -12    1    1    2    0    0 -0.29551519040E+02 -0.20181442966E+02  0.19302417531E+02  0.40659147068E+02  0.00000000000E+00 0.  1.
         11    1    3    3    0    0  0.77032796324E+01 -0.14258417878E+01 -0.17470016149E+02  0.19146148605E+02  0.51100000000E-03 0. -1.
        -11    1    3    3    0    0  0.19366796229E+02  0.16373785996E+02 -0.27834515416E+01  0.25513158698E+02  0.51100000000E-03 0.  1.
         12    1    3    3    0    0  0.24814431786E+01  0.52334987577E+01  0.95105015940E+00  0.58695456298E+01  0.00000000000E+00 0. -1.
</event>
<event>
 7    1  0.1024956E-012  0.5052888E+02  0.7816164E-02  0.1300439E+00
        -11   -1    0    0    0    0  0.00000000000E+00  0.00000000000E+00  0.45593999997E+02  0.45594000000E+02  0.51100000000E-03 0. -1.
         11   -1    0    0    0    0 -0.00000000000E+00 -0.00000000000E+00 -0.45593999997E+02  0.45594000000E+02  0.51100000000E-03 0.  1.
    9900012    2    1    2    0    0  0.24654448052E+02  0.25897517178E+02  0.19355643627E+02  0.50528878700E+02  0.30000057296E+02 0.  0.
        -12    1    1    2    0    0 -0.24654448052E+02 -0.25897517178E+02 -0.19355643627E+02  0.40659121300E+02  0.00000000000E+00 0.  1.
         11    1    3    3    0    0  0.16954430041E+02  0.23318808618E+02  0.89818845158E+01  0.30197579093E+02  0.51100000000E-03 0. -1.
        -11    1    3    3    0    0 -0.31951747231E+01 -0.30491378500E+01  0.24004042798E+00  0.44231213874E+01  0.51100000000E-03 0.  1.
         12    1    3    3    0    0  0.10895192733E+02  0.56278464099E+01  0.10133718683E+02  0.15908178219E+02  0.00000000000E+00 0. -1.
</event>
<event>
 7    1  0.1024956E-012  0.5052887E+02  0.7816164E-02  0.1300439E+00
        -11   -1    0    0    0    0  0.00000000000E+00  0.00000000000E+00  0.45593999997E+02  0.45594000000E+02  0.51100000000E-03 0. -1.
         11   -1    0    0    0    0 -0.00000000000E+00 -0.00000000000E+00 -0.45593999997E+02  0.45594000000E+02  0.51100000000E-03 0.  1.
    9900012    2    1    2    0    0  0.13614667562E+02  0.28415788155E+02  0.25697257673E+02  0.50528865218E+02  0.30000016318E+02 0.  0.
        -12    1    1    2    0    0 -0.13614667562E+02 -0.28415788155E+02 -0.25697257673E+02  0.40659134782E+02  0.00000000000E+00 0.  1.
         11    1    3    3    0    0 -0.32797827002E+01  0.23415779970E+02  0.13381918870E+02  0.27168575213E+02  0.51100000000E-03 0. -1.
        -11    1    3    3    0    0  0.14161773822E+02  0.57517629353E+01  0.59681419836E+01  0.16409062546E+02  0.51100000000E-03 0.  1.
         12    1    3    3    0    0  0.27326764401E+01 -0.75175475082E+00  0.63471968196E+01  0.69512274599E+01  0.00000000000E+00 0. -1.
</event>
<event>
 7    1  0.1024956E-012  0.5052887E+02  0.7816164E-02  0.1300439E+00
        -11   -1    0    0    0    0  0.00000000000E+00  0.00000000000E+00  0.45593999997E+02  0.45594000000E+02  0.51100000000E-03 0.  1.
         11   -1    0    0    0    0 -0.00000000000E+00 -0.00000000000E+00 -0.45593999997E+02  0.45594000000E+02  0.51100000000E-03 0. -1.
    9900012    2    1    2    0    0  0.22684025498E+02 -0.21394678318E+02 -0.26093443751E+02  0.50528867201E+02  0.30000022345E+02 0.  0.
        -12    1    1    2    0    0 -0.22684025498E+02  0.21394678318E+02  0.26093443751E+02  0.40659132799E+02  0.00000000000E+00 0.  1.
         11    1    3    3    0    0 -0.31387989249E+01 -0.33012007151E+01 -0.58650281608E+01  0.74262063290E+01  0.51100000000E-03 0. -1.
        -11    1    3    3    0    0  0.26855637980E+02 -0.95507446213E+01 -0.11184551314E+02  0.30619212963E+02  0.51100000000E-03 0.  1.
        -12    1    3    3    0    0 -0.10328135570E+01 -0.85427329814E+01 -0.90438642768E+01  0.12483447909E+02  0.00000000000E+00 0.  1.
</event>
<event>
 7    1  0.1024956E-012  0.5052880E+02  0.7816164E-02  0.1300439E+00
        -11   -1    0    0    0    0  0.00000000000E+00  0.00000000000E+00  0.45593999997E+02  0.45594000000E+02  0.51100000000E-03 0.  1.
         11   -1    0    0    0    0 -0.00000000000E+00 -0.00000000000E+00 -0.45593999997E+02  0.45594000000E+02  0.51100000000E-03 0. -1.
    9900012    2    1    2    0    0 -0.39418796755E+02  0.42737134356E+01  0.90035772966E+01  0.50528799709E+02  0.29999817196E+02 0.  0.
        -12    1    1    2    0    0  0.39418796755E+02 -0.42737134356E+01 -0.90035772966E+01  0.40659200291E+02  0.00000000000E+00 0.  1.
         11    1    3    3    0    0 -0.22966519927E+02 -0.39456123072E+01  0.21175429573E+01  0.23398993194E+02  0.51100000000E-03 0. -1.
        -11    1    3    3    0    0 -0.95907099544E+01  0.14033755106E+02  0.27054362643E+01  0.17211838526E+02  0.51100000000E-03 0.  1.
        -12    1    3    3    0    0 -0.68615668733E+01 -0.58144293632E+01  0.41805980750E+01  0.99179679895E+01  0.00000000000E+00 0.  1.
</event>
<event>
 7    1  0.1024956E-012  0.5052887E+02  0.7816164E-02  0.1300439E+00
        -11   -1    0    0    0    0  0.00000000000E+00  0.00000000000E+00  0.45593999997E+02  0.45594000000E+02  0.51100000000E-03 0.  1.
         11   -1    0    0    0    0 -0.00000000000E+00 -0.00000000000E+00 -0.45593999997E+02  0.45594000000E+02  0.51100000000E-03 0. -1.
    9900012    2    1    2    0    0 -0.34451954474E+02 -0.15699984095E+02 -0.14823576051E+02  0.50528867267E+02  0.30000022545E+02 0.  0.
        -12    1    1    2    0    0  0.34451954474E+02  0.15699984095E+02  0.14823576051E+02  0.40659132733E+02  0.00000000000E+00 0.  1.
         11    1    3    3    0    0 -0.11360591656E+02  0.55517784817E+01 -0.68317956714E+01  0.14372150828E+02  0.51100000000E-03 0. -1.
        -11    1    3    3    0    0 -0.41509896413E+01 -0.12822580564E+02  0.10934225659E+01  0.13522013921E+02  0.51100000000E-03 0.  1.
        -12    1    3    3    0    0 -0.18940373177E+02 -0.84291820135E+01 -0.90852029453E+01  0.22634702518E+02  0.00000000000E+00 0.  1.
</event>
<event>
 7    1  0.1024956E-012  0.5052883E+02  0.7816164E-02  0.1300439E+00
        -11   -1    0    0    0    0  0.00000000000E+00  0.00000000000E+00  0.45593999997E+02  0.45594000000E+02  0.51100000000E-03 0. -1.
         11   -1    0    0    0    0 -0.00000000000E+00 -0.00000000000E+00 -0.45593999997E+02  0.45594000000E+02  0.51100000000E-03 0.  1.
    9900012    2    1    2    0    0 -0.55106797494E+01 -0.13932874094E+02  0.37797824170E+02  0.50528830262E+02  0.29999910064E+02 0.  0.
        -12    1    1    2    0    0  0.55106797494E+01  0.13932874094E+02 -0.37797824170E+02  0.40659169738E+02  0.00000000000E+00 0.  1.
         11    1    3    3    0    0  0.70678596044E+01 -0.11687925140E+02  0.19164773949E+02  0.23534034806E+02  0.51100000000E-03 0. -1.
        -11    1    3    3    0    0 -0.61203246145E+01  0.43311428434E+01  0.15571485659E+02  0.17282602166E+02  0.51100000000E-03 0.  1.
        -12    1    3    3    0    0 -0.64582147394E+01 -0.65760917975E+01  0.30615645615E+01  0.97121932905E+01  0.00000000000E+00 0.  1.
</event>
<event>
 7    1  0.1024956E-012  0.5052888E+02  0.7816164E-02  0.1300439E+00
        -11   -1    0    0    0    0  0.00000000000E+00  0.00000000000E+00  0.45593999997E+02  0.45594000000E+02  0.51100000000E-03 0.  1.
         11   -1    0    0    0    0 -0.00000000000E+00 -0.00000000000E+00 -0.45593999997E+02  0.45594000000E+02  0.51100000000E-03 0. -1.
    9900012    2    1    2    0    0  0.22506615908E+02  0.83083659492E+01 -0.32826627553E+02  0.50528878258E+02  0.30000055952E+02 0.  0.
        -12    1    1    2    0    0 -0.22506615908E+02 -0.83083659492E+01  0.32826627553E+02  0.40659121742E+02  0.00000000000E+00 0.  1.
         11    1    3    3    0    0  0.83915302691E+01  0.19192807631E+01 -0.15772833068E+02  0.17968964415E+02  0.51100000000E-03 0. -1.
        -11    1    3    3    0    0  0.10139904917E+02 -0.36052438669E+01  0.17442863599E+01  0.10902201165E+02  0.51100000000E-03 0.  1.
        -12    1    3    3    0    0  0.39751807217E+01  0.99943290530E+01 -0.18798080844E+02  0.21657712678E+02  0.00000000000E+00 0.  1.
</event>
<event>
 7    1  0.1024956E-012  0.5052886E+02  0.7816164E-02  0.1300439E+00
        -11   -1    0    0    0    0  0.00000000000E+00  0.00000000000E+00  0.45593999997E+02  0.45594000000E+02  0.51100000000E-03 0.  1.
         11   -1    0    0    0    0 -0.00000000000E+00 -0.00000000000E+00 -0.45593999997E+02  0.45594000000E+02  0.51100000000E-03 0. -1.
    9900012    2    1    2    0    0  0.49096991704E+01  0.10770772180E+02 -0.38897960710E+02  0.50528855558E+02  0.29999986956E+02 0.  0.
        -12    1    1    2    0    0 -0.49096991704E+01 -0.10770772180E+02  0.38897960710E+02  0.40659144442E+02  0.00000000000E+00 0.  1.
         11    1    3    3    0    0 -0.57405300140E+01  0.16324048139E+02 -0.29117353152E+02  0.33871056779E+02  0.51100000000E-03 0. -1.
        -11    1    3    3    0    0  0.13870012034E+01 -0.37574687174E+01 -0.23177176597E+01  0.46275435073E+01  0.51100000000E-03 0.  1.
         12    1    3    3    0    0  0.92632279810E+01 -0.17958072417E+01 -0.74628898984E+01  0.12030255272E+02  0.00000000000E+00 0. -1.
</event>
<event>
 7    1  0.1024956E-012  0.5052886E+02  0.7816164E-02  0.1300439E+00
        -11   -1    0    0    0    0  0.00000000000E+00  0.00000000000E+00  0.45593999997E+02  0.45594000000E+02  0.51100000000E-03 0. -1.
         11   -1    0    0    0    0 -0.00000000000E+00 -0.00000000000E+00 -0.45593999997E+02  0.45594000000E+02  0.51100000000E-03 0.  1.
    9900012    2    1    2    0    0 -0.27630593011E+02 -0.23534460739E+02 -0.18326068328E+02  0.50528864584E+02  0.30000014391E+02 0.  0.
        -12    1    1    2    0    0  0.27630593011E+02  0.23534460739E+02  0.18326068328E+02  0.40659135416E+02  0.00000000000E+00 0.  1.
         11    1    3    3    0    0 -0.16334740805E+02 -0.51734376688E+01 -0.18327637499E+02  0.25089649480E+02  0.51100000000E-03 0. -1.
        -11    1    3    3    0    0  0.26194468655E+01 -0.43792756113E+00 -0.66801699250E+00  0.27385268656E+01  0.51100000000E-03 0.  1.
         12    1    3    3    0    0 -0.13915299072E+02 -0.17923095509E+02  0.66958616422E+00  0.22700688238E+02  0.00000000000E+00 0. -1.
</event>
<event>
 7    1  0.1024956E-012  0.5052886E+02  0.7816164E-02  0.1300439E+00
        -11   -1    0    0    0    0  0.00000000000E+00  0.00000000000E+00  0.45593999997E+02  0.45594000000E+02  0.51100000000E-03 0.  1.
         11   -1    0    0    0    0 -0.00000000000E+00 -0.00000000000E+00 -0.45593999997E+02  0.45594000000E+02  0.51100000000E-03 0. -1.
    9900012    2    1    2    0    0 -0.12196771975E+02  0.18447912909E+01 -0.38742756505E+02  0.50528859784E+02  0.29999999800E+02 0.  0.
        -12    1    1    2    0    0  0.12196771975E+02 -0.18447912909E+01  0.38742756505E+02  0.40659140216E+02  0.00000000000E+00 0.  1.
         11    1    3    3    0    0 -0.35105508358E+01 -0.48477483671E+01  0.29543106772E+01  0.66747721489E+01  0.51100000000E-03 0. -1.
        -11    1    3    3    0    0 -0.78735286522E+00  0.27227658754E+01 -0.22982293096E+02  0.23156406776E+02  0.51100000000E-03 0.  1.
         12    1    3    3    0    0 -0.78988682737E+01  0.39697737825E+01 -0.18714774086E+02  0.20697680860E+02  0.00000000000E+00 0. -1.
</event>
<event>
 7    1  0.1024956E-012  0.5052886E+02  0.7816164E-02  0.1300439E+00
        -11   -1    0    0    0    0  0.00000000000E+00  0.00000000000E+00  0.45593999997E+02  0.45594000000E+02  0.51100000000E-03 0.  1.
         11   -1    0    0    0    0 -0.00000000000E+00 -0.00000000000E+00 -0.45593999997E+02  0.45594000000E+02  0.51100000000E-03 0. -1.
    9900012    2    1    2    0    0  0.34698511121E+02 -0.96449480874E+01 -0.18872031431E+02  0.50528864890E+02  0.30000015318E+02 0.  0.
        -12    1    1    2    0    0 -0.34698511121E+02  0.96449480874E+01  0.18872031431E+02  0.40659135110E+02  0.00000000000E+00 0.  1.
         11    1    3    3    0    0  0.14693656413E+02  0.57635581645E+01 -0.19040874822E+02  0.24732105769E+02  0.51100000000E-03 0. -1.
        -11    1    3    3    0    0  0.14897982055E+02 -0.10411771961E+02 -0.21091714281E+01  0.18297635613E+02  0.51100000000E-03 0.  1.
        -12    1    3    3    0    0  0.51068726529E+01 -0.49967342909E+01  0.22780148191E+01  0.74991235076E+01  0.00000000000E+00 0.  1.
</event>
<event>
 7    1  0.1024956E-012  0.5052886E+02  0.7816164E-02  0.1300439E+00
        -11   -1    0    0    0    0  0.00000000000E+00  0.00000000000E+00  0.45593999997E+02  0.45594000000E+02  0.51100000000E-03 0.  1.
         11   -1    0    0    0    0 -0.00000000000E+00 -0.00000000000E+00 -0.45593999997E+02  0.45594000000E+02  0.51100000000E-03 0. -1.
    9900012    2    1    2    0    0  0.10049309630E+02 -0.26566612439E+02 -0.29092816409E+02  0.50528862194E+02  0.30000007125E+02 0.  0.
        -12    1    1    2    0    0 -0.10049309630E+02  0.26566612439E+02  0.29092816409E+02  0.40659137806E+02  0.00000000000E+00 0.  1.
         11    1    3    3    0    0  0.59896854746E+01 -0.21153850059E+02 -0.31314772329E+02  0.38261948077E+02  0.51100000000E-03 0. -1.
        -11    1    3    3    0    0  0.56806627689E+01  0.26564591183E+00  0.27899979512E+01  0.63343970568E+01  0.51100000000E-03 0.  1.
         12    1    3    3    0    0 -0.16210386137E+01 -0.56784082921E+01 -0.56804203119E+00  0.59325170601E+01  0.00000000000E+00 0. -1.
</event>
<event>
 7    1  0.1024956E-012  0.5052884E+02  0.7816164E-02  0.1300439E+00
        -11   -1    0    0    0    0  0.00000000000E+00  0.00000000000E+00  0.45593999997E+02  0.45594000000E+02  0.51100000000E-03 0.  1.
         11   -1    0    0    0    0 -0.00000000000E+00 -0.00000000000E+00 -0.45593999997E+02  0.45594000000E+02  0.51100000000E-03 0. -1.
    9900012    2    1    2    0    0  0.49408812442E+01 -0.26890089623E+02 -0.30094487660E+02  0.50528838487E+02  0.29999935066E+02 0.  0.
        -12    1    1    2    0    0 -0.49408812442E+01  0.26890089623E+02  0.30094487660E+02  0.40659161513E+02  0.00000000000E+00 0.  1.
         11    1    3    3    0    0 -0.46121451588E+01 -0.10859594141E+02 -0.27068293938E+02  0.29527871661E+02  0.51100000000E-03 0. -1.
        -11    1    3    3    0    0  0.84872717537E+01 -0.13249881199E+02 -0.59549393448E+01  0.16824221720E+02  0.51100000000E-03 0.  1.
         12    1    3    3    0    0  0.10657546493E+01 -0.27806142828E+01  0.29287456226E+01  0.41767451064E+01  0.00000000000E+00 0. -1.
</event>
<event>
 7    1  0.1024956E-012  0.5052890E+02  0.7816164E-02  0.1300439E+00
        -11   -1    0    0    0    0  0.00000000000E+00  0.00000000000E+00  0.45593999997E+02  0.45594000000E+02  0.51100000000E-03 0.  1.
         11   -1    0    0    0    0 -0.00000000000E+00 -0.00000000000E+00 -0.45593999997E+02  0.45594000000E+02  0.51100000000E-03 0. -1.
    9900012    2    1    2    0    0  0.38486937185E+02 -0.67566615310E+01 -0.11236794831E+02  0.50528900563E+02  0.30000123751E+02 0.  0.
        -12    1    1    2    0    0 -0.38486937185E+02  0.67566615310E+01  0.11236794831E+02  0.40659099437E+02  0.00000000000E+00 0.  1.
         11    1    3    3    0    0  0.19927179222E+02 -0.11463169546E+02 -0.13807090042E+02  0.26816645269E+02  0.51100000000E-03 0. -1.
        -11    1    3    3    0    0  0.75107087743E+01 -0.39005588606E+01  0.44817569727E+01  0.95765991636E+01  0.51100000000E-03 0.  1.
         12    1    3    3    0    0  0.11049049189E+02  0.86070668753E+01 -0.19114617612E+01  0.14135656131E+02  0.00000000000E+00 0. -1.
</event>
<event>
 7    1  0.1024956E-012  0.5052886E+02  0.7816164E-02  0.1300439E+00
        -11   -1    0    0    0    0  0.00000000000E+00  0.00000000000E+00  0.45593999997E+02  0.45594000000E+02  0.51100000000E-03 0.  1.
         11   -1    0    0    0    0 -0.00000000000E+00 -0.00000000000E+00 -0.45593999997E+02  0.45594000000E+02  0.51100000000E-03 0. -1.
    9900012    2    1    2    0    0  0.24405368895E+02 -0.29082593489E+02 -0.14551509637E+02  0.50528859482E+02  0.29999998881E+02 0.  0.
        -12    1    1    2    0    0 -0.24405368895E+02  0.29082593489E+02  0.14551509637E+02  0.40659140518E+02  0.00000000000E+00 0.  1.
         11    1    3    3    0    0  0.14415151907E+02 -0.30450641285E+00 -0.44997341251E+01  0.15104202598E+02  0.51100000000E-03 0.  1.
        -11    1    3    3    0    0  0.11874727877E+02 -0.18978151932E+02 -0.11779124654E+02  0.25296782222E+02  0.51100000000E-03 0. -1.
        -12    1    3    3    0    0 -0.18845108883E+01 -0.97999351440E+01  0.17273491426E+01  0.10127874662E+02  0.00000000000E+00 0.  1.
</event>
<event>
 7    1  0.1024956E-012  0.5052887E+02  0.7816164E-02  0.1300439E+00
        -11   -1    0    0    0    0  0.00000000000E+00  0.00000000000E+00  0.45593999997E+02  0.45594000000E+02  0.51100000000E-03 0. -1.
         11   -1    0    0    0    0 -0.00000000000E+00 -0.00000000000E+00 -0.45593999997E+02  0.45594000000E+02  0.51100000000E-03 0.  1.
    9900012    2    1    2    0    0 -0.18566769901E+02  0.32673980232E+02  0.15519372040E+02  0.50528870186E+02  0.30000031417E+02 0.  0.
        -12    1    1    2    0    0  0.18566769901E+02 -0.32673980232E+02 -0.15519372040E+02  0.40659129814E+02  0.00000000000E+00 0.  1.
         11    1    3    3    0    0 -0.12297066030E+02  0.67337352093E+01  0.15246895171E+02  0.20713011259E+02  0.51100000000E-03 0. -1.
        -11    1    3    3    0    0 -0.18222862878E+01  0.60304410599E+01 -0.57663409744E+01  0.85403533408E+01  0.51100000000E-03 0.  1.
         12    1    3    3    0    0 -0.44474175835E+01  0.19909803963E+02  0.60388178432E+01  0.21275505586E+02  0.00000000000E+00 0. -1.
</event>
<event>
 7    1  0.1026581E-012  0.5052887E+02  0.7816164E-02  0.1300439E+00
        -11   -1    0    0    0    0  0.00000000000E+00  0.00000000000E+00  0.45593999997E+02  0.45594000000E+02  0.51100000000E-03 0.  1.
         11   -1    0    0    0    0 -0.00000000000E+00 -0.00000000000E+00 -0.45593999997E+02  0.45594000000E+02  0.51100000000E-03 0. -1.
    9900012    2    1    2    0    0  0.33671891013E+02 -0.22254796940E+02 -0.49084599491E+01  0.50528865598E+02  0.30000017473E+02 0.  0.
        -12    1    1    2    0    0 -0.33671891013E+02  0.22254796940E+02  0.49084599491E+01  0.40659134402E+02  0.00000000000E+00 0.  1.
         11    1    3    3    0    0  0.20917710318E+02 -0.15180748089E+02  0.10083148563E+01  0.25865467647E+02  0.51100000000E-03 0. -1.
        -11    1    3    3    0    0  0.74691550882E+01  0.54514890735E+01 -0.60813778430E+01  0.11067527618E+02  0.51100000000E-03 0.  1.
        -12    1    3    3    0    0  0.52850256068E+01 -0.12525537924E+02  0.16460303753E+00  0.13595870333E+02  0.00000000000E+00 0.  1.
</event>
<event>
 7    1  0.1024956E-012  0.5052886E+02  0.7816164E-02  0.1300439E+00
        -11   -1    0    0    0    0  0.00000000000E+00  0.00000000000E+00  0.45593999997E+02  0.45594000000E+02  0.51100000000E-03 0.  1.
         11   -1    0    0    0    0 -0.00000000000E+00 -0.00000000000E+00 -0.45593999997E+02  0.45594000000E+02  0.51100000000E-03 0. -1.
    9900012    2    1    2    0    0 -0.22026894657E+02  0.12396273585E+02 -0.31848296377E+02  0.50528859956E+02  0.30000000321E+02 0.  0.
        -12    1    1    2    0    0  0.22026894657E+02 -0.12396273585E+02  0.31848296377E+02  0.40659140044E+02  0.00000000000E+00 0.  1.
         11    1    3    3    0    0 -0.90848251659E+00  0.55617170168E+01 -0.25157277640E+02  0.25780741944E+02  0.51100000000E-03 0. -1.
        -11    1    3    3    0    0 -0.15076902343E+02  0.80586566928E+01 -0.72276188111E+01  0.18560533556E+02  0.51100000000E-03 0.  1.
         12    1    3    3    0    0 -0.60415097977E+01 -0.12241001245E+01  0.53660007438E+00  0.61875844552E+01  0.00000000000E+00 0. -1.
</event>
<event>
 7    1  0.1024956E-012  0.5052886E+02  0.7816164E-02  0.1300439E+00
        -11   -1    0    0    0    0  0.00000000000E+00  0.00000000000E+00  0.45593999997E+02  0.45594000000E+02  0.51100000000E-03 0. -1.
         11   -1    0    0    0    0 -0.00000000000E+00 -0.00000000000E+00 -0.45593999997E+02  0.45594000000E+02  0.51100000000E-03 0.  1.
    9900012    2    1    2    0    0  0.33451174884E+02  0.14510309453E+02  0.17989873428E+02  0.50528859238E+02  0.29999998140E+02 0.  0.
        -12    1    1    2    0    0 -0.33451174884E+02 -0.14510309453E+02 -0.17989873428E+02  0.40659140762E+02  0.00000000000E+00 0.  1.
         11    1    3    3    0    0  0.22955098708E+02 -0.62746085509E+00  0.52962516350E+01  0.23566513222E+02  0.51100000000E-03 0. -1.
        -11    1    3    3    0    0 -0.17477217551E+00  0.12820593230E+02  0.76893173689E+01  0.14950710951E+02  0.51100000000E-03 0.  1.
         12    1    3    3    0    0  0.10670848352E+02  0.23171770778E+01  0.50043044243E+01  0.12011635065E+02  0.00000000000E+00 0. -1.
</event>
<event>
 7    1  0.1024956E-012  0.5052885E+02  0.7816164E-02  0.1300439E+00
        -11   -1    0    0    0    0  0.00000000000E+00  0.00000000000E+00  0.45593999997E+02  0.45594000000E+02  0.51100000000E-03 0.  1.
         11   -1    0    0    0    0 -0.00000000000E+00 -0.00000000000E+00 -0.45593999997E+02  0.45594000000E+02  0.51100000000E-03 0. -1.
    9900012    2    1    2    0    0 -0.26941973559E+02 -0.19508684308E+02 -0.23381783643E+02  0.50528849628E+02  0.29999968928E+02 0.  0.
        -12    1    1    2    0    0  0.26941973559E+02  0.19508684308E+02  0.23381783643E+02  0.40659150372E+02  0.00000000000E+00 0.  1.
         11    1    3    3    0    0 -0.46974489063E+01 -0.87513710704E-01 -0.71379081474E+01  0.85453740619E+01  0.51100000000E-03 0. -1.
        -11    1    3    3    0    0 -0.18584886993E+02 -0.61859407344E+01  0.13864893582E+01  0.19636349974E+02  0.51100000000E-03 0.  1.
        -12    1    3    3    0    0 -0.36596376600E+01 -0.13235229863E+02 -0.17630364854E+02  0.22347125592E+02  0.00000000000E+00 0.  1.
</event>
<event>
 7    1  0.1024956E-012  0.5052886E+02  0.7816164E-02  0.1300439E+00
        -11   -1    0    0    0    0  0.00000000000E+00  0.00000000000E+00  0.45593999997E+02  0.45594000000E+02  0.51100000000E-03 0.  1.
         11   -1    0    0    0    0 -0.00000000000E+00 -0.00000000000E+00 -0.45593999997E+02  0.45594000000E+02  0.51100000000E-03 0. -1.
    9900012    2    1    2    0    0 -0.16931304789E+02 -0.27677963822E+02 -0.24503612696E+02  0.50528858367E+02  0.29999995492E+02 0.  0.
        -12    1    1    2    0    0  0.16931304789E+02  0.27677963822E+02  0.24503612696E+02  0.40659141633E+02  0.00000000000E+00 0.  1.
         11    1    3    3    0    0 -0.15864423449E+02 -0.19679397411E+02 -0.37565123489E+01  0.25555234280E+02  0.51100000000E-03 0.  1.
        -11    1    3    3    0    0  0.48321773102E+01 -0.41528068284E+01 -0.13165348280E+02  0.14626077318E+02  0.51100000000E-03 0. -1.
         12    1    3    3    0    0 -0.58990586508E+01 -0.38457595827E+01 -0.75817520666E+01  0.10347546769E+02  0.00000000000E+00 0. -1.
</event>
<event>
 7    1  0.1024956E-012  0.5052886E+02  0.7816164E-02  0.1300439E+00
        -11   -1    0    0    0    0  0.00000000000E+00  0.00000000000E+00  0.45593999997E+02  0.45594000000E+02  0.51100000000E-03 0.  1.
         11   -1    0    0    0    0 -0.00000000000E+00 -0.00000000000E+00 -0.45593999997E+02  0.45594000000E+02  0.51100000000E-03 0. -1.
    9900012    2    1    2    0    0  0.42676237227E+01 -0.25719207131E+02 -0.31200568075E+02  0.50528859873E+02  0.30000000070E+02 0.  0.
        -12    1    1    2    0    0 -0.42676237227E+01  0.25719207131E+02  0.31200568075E+02  0.40659140127E+02  0.00000000000E+00 0.  1.
         11    1    3    3    0    0  0.21261181791E+01  0.85932200715E+00 -0.19554365628E+02  0.19688372919E+02  0.51100000000E-03 0.  1.
        -11    1    3    3    0    0  0.11089513142E+01 -0.16100173156E+02 -0.14826487200E+01  0.16206282614E+02  0.51100000000E-03 0. -1.
        -12    1    3    3    0    0  0.10325542294E+01 -0.10478355982E+02 -0.10163553727E+02  0.14634204341E+02  0.00000000000E+00 0.  1.
</event>
<event>
 7    1  0.1024956E-012  0.5052886E+02  0.7816164E-02  0.1300439E+00
        -11   -1    0    0    0    0  0.00000000000E+00  0.00000000000E+00  0.45593999997E+02  0.45594000000E+02  0.51100000000E-03 0.  1.
         11   -1    0    0    0    0 -0.00000000000E+00 -0.00000000000E+00 -0.45593999997E+02  0.45594000000E+02  0.51100000000E-03 0. -1.
    9900012    2    1    2    0    0 -0.94198418853E+01  0.12210640377E+02 -0.37620906314E+02  0.50528858944E+02  0.29999997245E+02 0.  0.
        -12    1    1    2    0    0  0.94198418853E+01 -0.12210640377E+02  0.37620906314E+02  0.40659141056E+02  0.00000000000E+00 0.  1.
         11    1    3    3    0    0  0.77512569171E+01  0.76100458907E+01 -0.25557018737E+02  0.27769695520E+02  0.51100000000E-03 0. -1.
        -11    1    3    3    0    0 -0.14447204863E+02  0.37390620036E+01 -0.12959797949E+02  0.19765087304E+02  0.51100000000E-03 0.  1.
         12    1    3    3    0    0 -0.27238939395E+01  0.86153248315E+00  0.89591037249E+00  0.29940761194E+01  0.00000000000E+00 0. -1.
</event>
<event>
 7    1  0.1024956E-012  0.5052885E+02  0.7816164E-02  0.1300439E+00
        -11   -1    0    0    0    0  0.00000000000E+00  0.00000000000E+00  0.45593999997E+02  0.45594000000E+02  0.51100000000E-03 0.  1.
         11   -1    0    0    0    0 -0.00000000000E+00 -0.00000000000E+00 -0.45593999997E+02  0.45594000000E+02  0.51100000000E-03 0. -1.
    9900012    2    1    2    0    0 -0.26536709741E+02  0.22428319469E+02 -0.21117283573E+02  0.50528854122E+02  0.29999982588E+02 0.  0.
        -12    1    1    2    0    0  0.26536709741E+02 -0.22428319469E+02  0.21117283573E+02  0.40659145878E+02  0.00000000000E+00 0.  1.
         11    1    3    3    0    0  0.21033639653E+01 -0.34655415109E+00 -0.77850874066E+00  0.22694307371E+01  0.51100000000E-03 0.  1.
        -11    1    3    3    0    0 -0.22726555982E+02  0.27671782951E+01 -0.11056787310E+02  0.25424519039E+02  0.51100000000E-03 0. -1.
        -12    1    3    3    0    0 -0.59135177241E+01  0.20007695325E+02 -0.92819875226E+01  0.22834904345E+02  0.00000000000E+00 0.  1.
</event>
<event>
 7    1  0.1024956E-012  0.5052886E+02  0.7816164E-02  0.1300439E+00
        -11   -1    0    0    0    0  0.00000000000E+00  0.00000000000E+00  0.45593999997E+02  0.45594000000E+02  0.51100000000E-03 0. -1.
         11   -1    0    0    0    0 -0.00000000000E+00 -0.00000000000E+00 -0.45593999997E+02  0.45594000000E+02  0.51100000000E-03 0.  1.
    9900012    2    1    2    0    0  0.37758721696E+01 -0.40027508410E+02 -0.60586059257E+01  0.50528863930E+02  0.30000012402E+02 0.  0.
        -12    1    1    2    0    0 -0.37758721696E+01  0.40027508410E+02  0.60586059257E+01  0.40659136070E+02  0.00000000000E+00 0.  1.
         11    1    3    3    0    0  0.20094250341E+01 -0.26772062361E+02 -0.98626799001E+01  0.28601635741E+02  0.51100000000E-03 0. -1.
        -11    1    3    3    0    0  0.19872688620E+01  0.29027215877E+01  0.45488510829E+01  0.57503979498E+01  0.51100000000E-03 0.  1.
        -12    1    3    3    0    0 -0.22082172657E+00 -0.16158167637E+02 -0.74477710854E+00  0.16176830239E+02  0.00000000000E+00 0.  1.
</event>
<event>
 7    1  0.1024956E-012  0.5052887E+02  0.7816164E-02  0.1300439E+00
        -11   -1    0    0    0    0  0.00000000000E+00  0.00000000000E+00  0.45593999997E+02  0.45594000000E+02  0.51100000000E-03 0.  1.
         11   -1    0    0    0    0 -0.00000000000E+00 -0.00000000000E+00 -0.45593999997E+02  0.45594000000E+02  0.51100000000E-03 0. -1.
    9900012    2    1    2    0    0  0.36077913242E+02  0.13757543330E+02 -0.12738887628E+02  0.50528867196E+02  0.30000022330E+02 0.  0.
        -12    1    1    2    0    0 -0.36077913242E+02 -0.13757543330E+02  0.12738887628E+02  0.40659132804E+02  0.00000000000E+00 0.  1.
         11    1    3    3    0    0  0.25321082544E+02  0.48963047111E+00 -0.16059764899E+02  0.29988547948E+02  0.51100000000E-03 0. -1.
        -11    1    3    3    0    0  0.89618592619E+01  0.12188753412E+02 -0.15796020023E+01  0.15211041185E+02  0.51100000000E-03 0.  1.
         12    1    3    3    0    0  0.17949714362E+01  0.10791594466E+01  0.49004792734E+01  0.53292780634E+01  0.00000000000E+00 0. -1.
</event>
<event>
 7    1  0.1024956E-012  0.5052886E+02  0.7816164E-02  0.1300439E+00
        -11   -1    0    0    0    0  0.00000000000E+00  0.00000000000E+00  0.45593999997E+02  0.45594000000E+02  0.51100000000E-03 0.  1.
         11   -1    0    0    0    0 -0.00000000000E+00 -0.00000000000E+00 -0.45593999997E+02  0.45594000000E+02  0.51100000000E-03 0. -1.
    9900012    2    1    2    0    0  0.35004818999E+02  0.10571249205E+02 -0.17778562035E+02  0.50528856736E+02  0.29999990536E+02 0.  0.
        -12    1    1    2    0    0 -0.35004818999E+02 -0.10571249205E+02  0.17778562035E+02  0.40659143264E+02  0.00000000000E+00 0.  1.
         11    1    3    3    0    0  0.64134472132E+01 -0.62101707699E+01 -0.90211012656E+01  0.12691682097E+02  0.51100000000E-03 0. -1.
        -11    1    3    3    0    0  0.18362362737E+02  0.17842784857E+02 -0.99820668669E+01  0.27480593078E+02  0.51100000000E-03 0.  1.
         12    1    3    3    0    0  0.10229009049E+02 -0.10613648821E+01  0.12246060974E+01  0.10356581561E+02  0.00000000000E+00 0. -1.
</event>
<event>
 7    1  0.1024956E-012  0.5052885E+02  0.7816164E-02  0.1300439E+00
        -11   -1    0    0    0    0  0.00000000000E+00  0.00000000000E+00  0.45593999997E+02  0.45594000000E+02  0.51100000000E-03 0.  1.
         11   -1    0    0    0    0 -0.00000000000E+00 -0.00000000000E+00 -0.45593999997E+02  0.45594000000E+02  0.51100000000E-03 0. -1.
    9900012    2    1    2    0    0  0.31329765243E+02  0.12444122947E+02  0.22732263305E+02  0.50528853660E+02  0.29999981185E+02 0.  0.
        -12    1    1    2    0    0 -0.31329765243E+02 -0.12444122947E+02 -0.22732263305E+02  0.40659146340E+02  0.00000000000E+00 0.  1.
         11    1    3    3    0    0  0.25405958299E+02 -0.89127133293E+00  0.20903872194E+02  0.32912443766E+02  0.51100000000E-03 0. -1.
        -11    1    3    3    0    0  0.35631137195E+01  0.54682430298E+01 -0.38993801615E+01  0.76028038983E+01  0.51100000000E-03 0.  1.
         12    1    3    3    0    0  0.23606932254E+01  0.78671512499E+01  0.57277712726E+01  0.10013605996E+02  0.00000000000E+00 0. -1.
</event>
<event>
 7    1  0.1024956E-012  0.5052886E+02  0.7816164E-02  0.1300439E+00
        -11   -1    0    0    0    0  0.00000000000E+00  0.00000000000E+00  0.45593999997E+02  0.45594000000E+02  0.51100000000E-03 0.  1.
         11   -1    0    0    0    0 -0.00000000000E+00 -0.00000000000E+00 -0.45593999997E+02  0.45594000000E+02  0.51100000000E-03 0. -1.
    9900012    2    1    2    0    0  0.19793579266E+02  0.26107687859E+02 -0.24078378045E+02  0.50528862837E+02  0.30000009080E+02 0.  0.
        -12    1    1    2    0    0 -0.19793579266E+02 -0.26107687859E+02  0.24078378045E+02  0.40659137163E+02  0.00000000000E+00 0.  1.
         11    1    3    3    0    0  0.63866232301E+01 -0.12143823272E+01 -0.96394089605E+01  0.11626774535E+02  0.51100000000E-03 0. -1.
        -11    1    3    3    0    0  0.11857949075E+02  0.30410905913E+02 -0.13489316572E+02  0.35318491142E+02  0.51100000000E-03 0.  1.
        -12    1    3    3    0    0  0.15490069611E+01 -0.30888357266E+01 -0.94965251326E+00  0.35835971603E+01  0.00000000000E+00 0.  1.
</event>
<event>
 7    1  0.1024956E-012  0.5052886E+02  0.7816164E-02  0.1300439E+00
        -11   -1    0    0    0    0  0.00000000000E+00  0.00000000000E+00  0.45593999997E+02  0.45594000000E+02  0.51100000000E-03 0.  1.
         11   -1    0    0    0    0 -0.00000000000E+00 -0.00000000000E+00 -0.45593999997E+02  0.45594000000E+02  0.51100000000E-03 0. -1.
    9900012    2    1    2    0    0  0.38195499554E+02 -0.73250765114E+01 -0.11858022172E+02  0.50528860537E+02  0.30000002088E+02 0.  0.
        -12    1    1    2    0    0 -0.38195499554E+02  0.73250765114E+01  0.11858022172E+02  0.40659139463E+02  0.00000000000E+00 0.  1.
         11    1    3    3    0    0  0.29286137521E+02  0.29384824558E+01 -0.13362992353E+02  0.32324636037E+02  0.51100000000E-03 0. -1.
        -11    1    3    3    0    0  0.21351918375E+01 -0.71749031742E+01 -0.44163704136E+01  0.86915250465E+01  0.51100000000E-03 0.  1.
         12    1    3    3    0    0  0.67741701954E+01 -0.30886557930E+01  0.59213405953E+01  0.95126994534E+01  0.00000000000E+00 0. -1.
</event>
<event>
 7    1  0.1024956E-012  0.5052885E+02  0.7816164E-02  0.1300439E+00
        -11   -1    0    0    0    0  0.00000000000E+00  0.00000000000E+00  0.45593999997E+02  0.45594000000E+02  0.51100000000E-03 0.  1.
         11   -1    0    0    0    0 -0.00000000000E+00 -0.00000000000E+00 -0.45593999997E+02  0.45594000000E+02  0.51100000000E-03 0. -1.
    9900012    2    1    2    0    0  0.12848488917E+02 -0.37562220788E+02 -0.87842185935E+01  0.50528848579E+02  0.29999965742E+02 0.  0.
        -12    1    1    2    0    0 -0.12848488917E+02  0.37562220788E+02  0.87842185935E+01  0.40659151421E+02  0.00000000000E+00 0.  1.
         11    1    3    3    0    0 -0.12020886459E+01  0.36871990682E+01 -0.93758014951E+00  0.39899261747E+01  0.51100000000E-03 0. -1.
        -11    1    3    3    0    0 -0.26729129299E+01 -0.10450678900E+02 -0.10323218917E+01  0.10836366631E+02  0.51100000000E-03 0.  1.
         12    1    3    3    0    0  0.16723490493E+02 -0.30798740956E+02 -0.68143165523E+01  0.35702555774E+02  0.00000000000E+00 0. -1.
</event>
<event>
 7    1  0.1242125E-012  0.5052885E+02  0.7816164E-02  0.1300439E+00
        -11   -1    0    0    0    0  0.00000000000E+00  0.00000000000E+00  0.45593999997E+02  0.45594000000E+02  0.51100000000E-03 0. -1.
         11   -1    0    0    0    0 -0.00000000000E+00 -0.00000000000E+00 -0.45593999997E+02  0.45594000000E+02  0.51100000000E-03 0.  1.
    9900012    2    1    2    0    0 -0.84399275759E+01 -0.30263468757E+02  0.25808068419E+02  0.50528852023E+02  0.29999976210E+02 0.  0.
        -12    1    1    2    0    0  0.84399275759E+01  0.30263468757E+02 -0.25808068419E+02  0.40659147977E+02  0.00000000000E+00 0.  1.
         11    1    3    3    0    0 -0.40236245442E+01 -0.21903850201E+02  0.17367047678E+02  0.28241504093E+02  0.51100000000E-03 0. -1.
        -11    1    3    3    0    0 -0.64421855049E+01  0.34687223841E+01  0.71285976367E+01  0.10215218724E+02  0.51100000000E-03 0.  1.
        -12    1    3    3    0    0  0.20258824732E+01 -0.11828340939E+02  0.13124231047E+01  0.12072129206E+02  0.00000000000E+00 0.  1.
</event>
<event>
 7    1  0.1024956E-012  0.5052889E+02  0.7816164E-02  0.1300439E+00
        -11   -1    0    0    0    0  0.00000000000E+00  0.00000000000E+00  0.45593999997E+02  0.45594000000E+02  0.51100000000E-03 0. -1.
         11   -1    0    0    0    0 -0.00000000000E+00 -0.00000000000E+00 -0.45593999997E+02  0.45594000000E+02  0.51100000000E-03 0.  1.
    9900012    2    1    2    0    0  0.40099803964E+02  0.45520555303E+01 -0.49444882501E+01  0.50528887226E+02  0.30000083213E+02 0.  0.
        -12    1    1    2    0    0 -0.40099803964E+02 -0.45520555303E+01  0.49444882501E+01  0.40659112774E+02  0.00000000000E+00 0.  1.
         11    1    3    3    0    0  0.21993521937E+01 -0.25096884250E+01 -0.87767835460E+01  0.93897612183E+01  0.51100000000E-03 0. -1.
        -11    1    3    3    0    0  0.52501422466E+01  0.52440734144E+01  0.40163651749E+01  0.84377419411E+01  0.51100000000E-03 0.  1.
         12    1    3    3    0    0  0.32650309523E+02  0.18176705408E+01 -0.18406987899E+00  0.32701384067E+02  0.00000000000E+00 0. -1.
</event>
<event>
 7    1  0.1024956E-012  0.5052885E+02  0.7816164E-02  0.1300439E+00
        -11   -1    0    0    0    0  0.00000000000E+00  0.00000000000E+00  0.45593999997E+02  0.45594000000E+02  0.51100000000E-03 0.  1.
         11   -1    0    0    0    0 -0.00000000000E+00 -0.00000000000E+00 -0.45593999997E+02  0.45594000000E+02  0.51100000000E-03 0. -1.
    9900012    2    1    2    0    0  0.21127168388E+02  0.26414272297E+02 -0.22563135773E+02  0.50528854399E+02  0.29999983433E+02 0.  0.
        -12    1    1    2    0    0 -0.21127168388E+02 -0.26414272297E+02  0.22563135773E+02  0.40659145601E+02  0.00000000000E+00 0.  1.
         11    1    3    3    0    0  0.80504111508E+01  0.11497299558E+02 -0.19700404542E+02  0.24188901509E+02  0.51100000000E-03 0. -1.
        -11    1    3    3    0    0 -0.34021730243E+01 -0.24767026196E+00  0.11272644112E+01  0.35926100762E+01  0.51100000000E-03 0.  1.
        -12    1    3    3    0    0  0.16478930262E+02  0.15164643000E+02 -0.39899956422E+01  0.22747342815E+02  0.00000000000E+00 0.  1.
</event>
<event>
 7    1  0.1024956E-012  0.5052886E+02  0.7816164E-02  0.1300439E+00
        -11   -1    0    0    0    0  0.00000000000E+00  0.00000000000E+00  0.45593999997E+02  0.45594000000E+02  0.51100000000E-03 0.  1.
         11   -1    0    0    0    0 -0.00000000000E+00 -0.00000000000E+00 -0.45593999997E+02  0.45594000000E+02  0.51100000000E-03 0. -1.
    9900012    2    1    2    0    0 -0.39625771598E+02  0.62374133567E+01 -0.66376713413E+01  0.50528858581E+02  0.29999996143E+02 0.  0.
        -12    1    1    2    0    0  0.39625771598E+02 -0.62374133567E+01  0.66376713413E+01  0.40659141419E+02  0.00000000000E+00 0.  1.
         11    1    3    3    0    0 -0.25032179610E+02 -0.86410959331E+01 -0.11479154133E+02  0.28862597506E+02  0.51100000000E-03 0. -1.
        -11    1    3    3    0    0 -0.99479301361E+01  0.78556311981E+01  0.33960941027E+01  0.13122717361E+02  0.51100000000E-03 0.  1.
         12    1    3    3    0    0 -0.46456618520E+01  0.70228780917E+01  0.14453886886E+01  0.85435437141E+01  0.00000000000E+00 0. -1.
</event>
<event>
 7    1  0.1024956E-012  0.5052886E+02  0.7816164E-02  0.1300439E+00
        -11   -1    0    0    0    0  0.00000000000E+00  0.00000000000E+00  0.45593999997E+02  0.45594000000E+02  0.51100000000E-03 0. -1.
         11   -1    0    0    0    0 -0.00000000000E+00 -0.00000000000E+00 -0.45593999997E+02  0.45594000000E+02  0.51100000000E-03 0.  1.
    9900012    2    1    2    0    0 -0.31422777892E+02 -0.22826301484E+02  0.12030577571E+02  0.50528858266E+02  0.29999995184E+02 0.  0.
        -12    1    1    2    0    0  0.31422777892E+02  0.22826301484E+02 -0.12030577571E+02  0.40659141734E+02  0.00000000000E+00 0.  1.
         11    1    3    3    0    0 -0.18707932169E+01 -0.64045841956E+01  0.10422799205E+02  0.12375512494E+02  0.51100000000E-03 0. -1.
        -11    1    3    3    0    0 -0.14228365804E+02 -0.15380265241E+02 -0.48265957352E+01  0.21501045997E+02  0.51100000000E-03 0.  1.
        -12    1    3    3    0    0 -0.15323618871E+02 -0.10414520475E+01  0.64343741014E+01  0.16652299774E+02  0.00000000000E+00 0.  1.
</event>
<event>
 7    1  0.1024956E-012  0.5052885E+02  0.7816164E-02  0.1300439E+00
        -11   -1    0    0    0    0  0.00000000000E+00  0.00000000000E+00  0.45593999997E+02  0.45594000000E+02  0.51100000000E-03 0.  1.
         11   -1    0    0    0    0 -0.00000000000E+00 -0.00000000000E+00 -0.45593999997E+02  0.45594000000E+02  0.51100000000E-03 0. -1.
    9900012    2    1    2    0    0  0.28516433813E+02  0.26781224444E+02  0.11079039003E+02  0.50528854838E+02  0.29999984764E+02 0.  0.
        -12    1    1    2    0    0 -0.28516433813E+02 -0.26781224444E+02 -0.11079039003E+02  0.40659145162E+02  0.00000000000E+00 0.  1.
         11    1    3    3    0    0  0.14034171665E+02 -0.33365219065E+01  0.49822340602E+01  0.15261487780E+02  0.51100000000E-03 0.  1.
        -11    1    3    3    0    0 -0.13946297319E+01  0.25635224058E+01  0.20905649706E+00  0.29258065716E+01  0.51100000000E-03 0. -1.
         12    1    3    3    0    0  0.15876891880E+02  0.27554223944E+02  0.58877484455E+01  0.32341560486E+02  0.00000000000E+00 0. -1.
</event>
<event>
 7    1  0.1024956E-012  0.5052887E+02  0.7816164E-02  0.1300439E+00
        -11   -1    0    0    0    0  0.00000000000E+00  0.00000000000E+00  0.45593999997E+02  0.45594000000E+02  0.51100000000E-03 0. -1.
         11   -1    0    0    0    0 -0.00000000000E+00 -0.00000000000E+00 -0.45593999997E+02  0.45594000000E+02  0.51100000000E-03 0.  1.
    9900012    2    1    2    0    0 -0.35922170695E+02  0.10248796218E+02  0.16053804503E+02  0.50528870516E+02  0.30000032422E+02 0.  0.
        -12    1    1    2    0    0  0.35922170695E+02 -0.10248796218E+02 -0.16053804503E+02  0.40659129484E+02  0.00000000000E+00 0.  1.
         11    1    3    3    0    0 -0.25139045336E+02  0.10734197361E+02  0.19173976130E+02  0.33389159233E+02  0.51100000000E-03 0. -1.
        -11    1    3    3    0    0 -0.62900288276E+01 -0.58572268431E+01  0.15344983652E+01  0.87307648255E+01  0.51100000000E-03 0.  1.
        -12    1    3    3    0    0 -0.44930965315E+01  0.53718256999E+01 -0.46546699927E+01  0.84089464579E+01  0.00000000000E+00 0.  1.
</event>
<event>
 7    1  0.1024956E-012  0.5052885E+02  0.7816164E-02  0.1300439E+00
        -11   -1    0    0    0    0  0.00000000000E+00  0.00000000000E+00  0.45593999997E+02  0.45594000000E+02  0.51100000000E-03 0.  1.
         11   -1    0    0    0    0 -0.00000000000E+00 -0.00000000000E+00 -0.45593999997E+02  0.45594000000E+02  0.51100000000E-03 0. -1.
    9900012    2    1    2    0    0 -0.16068070344E+02 -0.36978435077E+02  0.52515358605E+01  0.50528853744E+02  0.29999981441E+02 0.  0.
        -12    1    1    2    0    0  0.16068070344E+02  0.36978435077E+02 -0.52515358605E+01  0.40659146256E+02  0.00000000000E+00 0.  1.
         11    1    3    3    0    0 -0.15277409241E+02 -0.24430257616E+02 -0.60897424969E+01  0.29450325707E+02  0.51100000000E-03 0. -1.
        -11    1    3    3    0    0 -0.25293553041E+01  0.36440096125E-01  0.73329867449E+01  0.77570394479E+01  0.51100000000E-03 0.  1.
        -12    1    3    3    0    0  0.17386942010E+01 -0.12584617557E+02  0.40082916125E+01  0.13321488589E+02  0.00000000000E+00 0.  1.
</event>
<event>
 7    1  0.1024956E-012  0.5052886E+02  0.7816164E-02  0.1300439E+00
        -11   -1    0    0    0    0  0.00000000000E+00  0.00000000000E+00  0.45593999997E+02  0.45594000000E+02  0.51100000000E-03 0.  1.
         11   -1    0    0    0    0 -0.00000000000E+00 -0.00000000000E+00 -0.45593999997E+02  0.45594000000E+02  0.51100000000E-03 0. -1.
    9900012    2    1    2    0    0  0.28210312272E+02  0.29241762718E+02  0.15043671685E+01  0.50528861717E+02  0.30000005675E+02 0.  0.
        -12    1    1    2    0    0 -0.28210312272E+02 -0.29241762718E+02 -0.15043671685E+01  0.40659138283E+02  0.00000000000E+00 0.  1.
         11    1    3    3    0    0  0.20676621648E+02  0.32683143763E+02  0.82568563866E+00  0.38683230553E+02  0.51100000000E-03 0. -1.
        -11    1    3    3    0    0  0.13954866314E+01 -0.31533668662E+01  0.36488687370E+01  0.50204928894E+01  0.51100000000E-03 0.  1.
        -12    1    3    3    0    0  0.61382039922E+01 -0.28801417862E+00 -0.29701872072E+01  0.68251382742E+01  0.00000000000E+00 0.  1.
</event>
<event>
 7    1  0.1024956E-012  0.5052886E+02  0.7816164E-02  0.1300439E+00
        -11   -1    0    0    0    0  0.00000000000E+00  0.00000000000E+00  0.45593999997E+02  0.45594000000E+02  0.51100000000E-03 0.  1.
         11   -1    0    0    0    0 -0.00000000000E+00 -0.00000000000E+00 -0.45593999997E+02  0.45594000000E+02  0.51100000000E-03 0. -1.
    9900012    2    1    2    0    0 -0.22175153772E+02  0.33232925785E+02  0.75499044004E+01  0.50528857640E+02  0.29999993281E+02 0.  0.
        -12    1    1    2    0    0  0.22175153772E+02 -0.33232925785E+02 -0.75499044004E+01  0.40659142360E+02  0.00000000000E+00 0.  1.
         11    1    3    3    0    0 -0.17578647838E+01 -0.14338100736E+01 -0.13502570945E+01  0.26399042421E+01  0.51100000000E-03 0. -1.
        -11    1    3    3    0    0 -0.20816200058E+01  0.21995442305E+02 -0.35223447437E+01  0.22372740932E+02  0.51100000000E-03 0.  1.
        -12    1    3    3    0    0 -0.18335668983E+02  0.12671293553E+02  0.12422506239E+02  0.25516212466E+02  0.00000000000E+00 0.  1.
</event>
<event>
 7    1  0.1024956E-012  0.5052886E+02  0.7816164E-02  0.1300439E+00
        -11   -1    0    0    0    0  0.00000000000E+00  0.00000000000E+00  0.45593999997E+02  0.45594000000E+02  0.51100000000E-03 0. -1.
         11   -1    0    0    0    0 -0.00000000000E+00 -0.00000000000E+00 -0.45593999997E+02  0.45594000000E+02  0.51100000000E-03 0.  1.
    9900012    2    1    2    0    0  0.78730717132E+01  0.37782363474E+02  0.12793506059E+02  0.50528855332E+02  0.29999986267E+02 0.  0.
        -12    1    1    2    0    0 -0.78730717132E+01 -0.37782363474E+02 -0.12793506059E+02  0.40659144668E+02  0.00000000000E+00 0.  1.
         11    1    3    3    0    0  0.20838072476E+01  0.15401735793E+02  0.12060291130E+02  0.19672476724E+02  0.51100000000E-03 0. -1.
        -11    1    3    3    0    0  0.10474451794E+02  0.23568454710E+02  0.19727868261E+01  0.25866543757E+02  0.51100000000E-03 0.  1.
        -12    1    3    3    0    0 -0.46851873280E+01 -0.11878270291E+01 -0.12395718969E+01  0.49898348507E+01  0.00000000000E+00 0.  1.
</event>
<event>
 7    1  0.1024956E-012  0.5052886E+02  0.7816164E-02  0.1300439E+00
        -11   -1    0    0    0    0  0.00000000000E+00  0.00000000000E+00  0.45593999997E+02  0.45594000000E+02  0.51100000000E-03 0.  1.
         11   -1    0    0    0    0 -0.00000000000E+00 -0.00000000000E+00 -0.45593999997E+02  0.45594000000E+02  0.51100000000E-03 0. -1.
    9900012    2    1    2    0    0 -0.36432034572E+02  0.10336575461E+02 -0.14799582989E+02  0.50528860905E+02  0.30000003206E+02 0.  0.
        -12    1    1    2    0    0  0.36432034572E+02 -0.10336575461E+02  0.14799582989E+02  0.40659139095E+02  0.00000000000E+00 0.  1.
         11    1    3    3    0    0 -0.20042287894E+02  0.13022442852E+02 -0.21663250168E+02  0.32257925073E+02  0.51100000000E-03 0. -1.
        -11    1    3    3    0    0 -0.13643425891E+02 -0.34508037219E+01  0.59256411362E+01  0.15269719693E+02  0.51100000000E-03 0.  1.
         12    1    3    3    0    0 -0.27463207875E+01  0.76493633020E+00  0.93802604335E+00  0.30012161393E+01  0.00000000000E+00 0. -1.
</event>
<event>
 7    1  0.1024956E-012  0.5052884E+02  0.7816164E-02  0.1300439E+00
        -11   -1    0    0    0    0  0.00000000000E+00  0.00000000000E+00  0.45593999997E+02  0.45594000000E+02  0.51100000000E-03 0.  1.
         11   -1    0    0    0    0 -0.00000000000E+00 -0.00000000000E+00 -0.45593999997E+02  0.45594000000E+02  0.51100000000E-03 0. -1.
    9900012    2    1    2    0    0 -0.40444233442E+02  0.41723714607E+01  0.14989428756E+00  0.50528841492E+02  0.29999944198E+02 0.  0.
        -12    1    1    2    0    0  0.40444233442E+02 -0.41723714607E+01 -0.14989428756E+00  0.40659158508E+02  0.00000000000E+00 0.  1.
         11    1    3    3    0    0 -0.27587337203E+02  0.47867936608E+01 -0.28177376652E+01  0.28140970369E+02  0.51100000000E-03 0. -1.
        -11    1    3    3    0    0 -0.57092444495E+01 -0.78024120968E+01  0.65035465839E+01  0.11652005198E+02  0.51100000000E-03 0.  1.
        -12    1    3    3    0    0 -0.71476517892E+01  0.71879898968E+01 -0.35359146312E+01  0.10735865924E+02  0.00000000000E+00 0.  1.
</event>
<event>
 7    1  0.1024956E-012  0.5052887E+02  0.7816164E-02  0.1300439E+00
        -11   -1    0    0    0    0  0.00000000000E+00  0.00000000000E+00  0.45593999997E+02  0.45594000000E+02  0.51100000000E-03 0. -1.
         11   -1    0    0    0    0 -0.00000000000E+00 -0.00000000000E+00 -0.45593999997E+02  0.45594000000E+02  0.51100000000E-03 0.  1.
    9900012    2    1    2    0    0  0.25326838181E+02  0.34604655584E+01  0.31618679841E+02  0.50528874714E+02  0.30000045182E+02 0.  0.
        -12    1    1    2    0    0 -0.25326838181E+02 -0.34604655584E+01 -0.31618679841E+02  0.40659125286E+02  0.00000000000E+00 0.  1.
         11    1    3    3    0    0  0.63845024027E+01 -0.11454091164E+02  0.72855166580E+01  0.15001227568E+02  0.51100000000E-03 0. -1.
        -11    1    3    3    0    0  0.15366939293E+02  0.67788397933E+01  0.13734628146E+02  0.21696439863E+02  0.51100000000E-03 0.  1.
         12    1    3    3    0    0  0.35753964852E+01  0.81357169289E+01  0.10598535037E+02  0.13831207283E+02  0.00000000000E+00 0. -1.
</event>
<event>
 7    1  0.1024956E-012  0.5052887E+02  0.7816164E-02  0.1300439E+00
        -11   -1    0    0    0    0  0.00000000000E+00  0.00000000000E+00  0.45593999997E+02  0.45594000000E+02  0.51100000000E-03 0. -1.
         11   -1    0    0    0    0 -0.00000000000E+00 -0.00000000000E+00 -0.45593999997E+02  0.45594000000E+02  0.51100000000E-03 0.  1.
    9900012    2    1    2    0    0  0.24888292458E+02  0.21864437195E+02 -0.23572961846E+02  0.50528865165E+02  0.30000016156E+02 0.  0.
        -12    1    1    2    0    0 -0.24888292458E+02 -0.21864437195E+02  0.23572961846E+02  0.40659134835E+02  0.00000000000E+00 0.  1.
         11    1    3    3    0    0  0.13851889606E+02  0.44948416217E+01 -0.43816563274E+01  0.15207805867E+02  0.51100000000E-03 0. -1.
        -11    1    3    3    0    0 -0.34098952884E+01 -0.87390029951E+00 -0.94672197423E+01  0.10100462243E+02  0.51100000000E-03 0.  1.
        -12    1    3    3    0    0  0.14446298140E+02  0.18243495873E+02 -0.97240857764E+01  0.25220597055E+02  0.00000000000E+00 0.  1.
</event>
<event>
 7    1  0.1024956E-012  0.5052886E+02  0.7816164E-02  0.1300439E+00
        -11   -1    0    0    0    0  0.00000000000E+00  0.00000000000E+00  0.45593999997E+02  0.45594000000E+02  0.51100000000E-03 0.  1.
         11   -1    0    0    0    0 -0.00000000000E+00 -0.00000000000E+00 -0.45593999997E+02  0.45594000000E+02  0.51100000000E-03 0. -1.
    9900012    2    1    2    0    0  0.51223982006E+01 -0.37941348922E+02 -0.13688707413E+02  0.50528860413E+02  0.30000001712E+02 0.  0.
        -12    1    1    2    0    0 -0.51223982006E+01  0.37941348922E+02  0.13688707413E+02  0.40659139587E+02  0.00000000000E+00 0.  1.
         11    1    3    3    0    0  0.11663879208E+02 -0.73087141364E+01 -0.87970548920E+01  0.16335591680E+02  0.51100000000E-03 0. -1.
        -11    1    3    3    0    0 -0.96666359577E-01 -0.24813695002E+02 -0.57391592568E+01  0.25468937026E+02  0.51100000000E-03 0.  1.
        -12    1    3    3    0    0 -0.64448146483E+01 -0.58189397836E+01  0.84750673582E+00  0.87243317064E+01  0.00000000000E+00 0.  1.
</event>
<event>
 7    1  0.1024956E-012  0.5052888E+02  0.7816164E-02  0.1300439E+00
        -11   -1    0    0    0    0  0.00000000000E+00  0.00000000000E+00  0.45593999997E+02  0.45594000000E+02  0.51100000000E-03 0.  1.
         11   -1    0    0    0    0 -0.00000000000E+00 -0.00000000000E+00 -0.45593999997E+02  0.45594000000E+02  0.51100000000E-03 0. -1.
    9900012    2    1    2    0    0  0.17908043614E+02  0.25246379398E+02  0.26364486963E+02  0.50528882061E+02  0.30000067512E+02 0.  0.
        -12    1    1    2    0    0 -0.17908043614E+02 -0.25246379398E+02 -0.26364486963E+02  0.40659117939E+02  0.00000000000E+00 0.  1.
         11    1    3    3    0    0  0.69611886062E+01  0.26120491928E+01  0.20353022827E+02  0.21668559857E+02  0.51100000000E-03 0. -1.
        -11    1    3    3    0    0  0.30471880463E+00  0.14878747671E+02  0.47981328766E+01  0.15636242041E+02  0.51100000000E-03 0.  1.
         12    1    3    3    0    0  0.10642136203E+02  0.77555825340E+01  0.12133312592E+01  0.13224080163E+02  0.00000000000E+00 0. -1.
</event>
<event>
 7    1  0.1024956E-012  0.5052893E+02  0.7816164E-02  0.1300439E+00
        -11   -1    0    0    0    0  0.00000000000E+00  0.00000000000E+00  0.45593999997E+02  0.45594000000E+02  0.51100000000E-03 0.  1.
         11   -1    0    0    0    0 -0.00000000000E+00 -0.00000000000E+00 -0.45593999997E+02  0.45594000000E+02  0.51100000000E-03 0. -1.
    9900012    2    1    2    0    0 -0.16273861236E+02 -0.36201404815E+02 -0.88192791040E+01  0.50528930236E+02  0.30000213946E+02 0.  0.
        -12    1    1    2    0    0  0.16273861236E+02  0.36201404815E+02  0.88192791040E+01  0.40659069764E+02  0.00000000000E+00 0.  1.
         11    1    3    3    0    0 -0.11869157369E+02 -0.38275827587E+01  0.19904276639E+01  0.12628898961E+02  0.51100000000E-03 0. -1.
        -11    1    3    3    0    0 -0.41637024368E+01 -0.34214096664E+02 -0.10368647164E+02  0.35992355755E+02  0.51100000000E-03 0.  1.
         12    1    3    3    0    0 -0.24100143072E+00  0.18402746072E+01 -0.44105960383E+00  0.19076755210E+01  0.00000000000E+00 0. -1.
</event>
<event>
 7    1  0.1024956E-012  0.5052887E+02  0.7816164E-02  0.1300439E+00
        -11   -1    0    0    0    0  0.00000000000E+00  0.00000000000E+00  0.45593999997E+02  0.45594000000E+02  0.51100000000E-03 0. -1.
         11   -1    0    0    0    0 -0.00000000000E+00 -0.00000000000E+00 -0.45593999997E+02  0.45594000000E+02  0.51100000000E-03 0.  1.
    9900012    2    1    2    0    0 -0.24578878141E+02 -0.31985206454E+02 -0.50980791222E+01  0.50528867037E+02  0.30000021845E+02 0.  0.
        -12    1    1    2    0    0  0.24578878141E+02  0.31985206454E+02  0.50980791222E+01  0.40659132963E+02  0.00000000000E+00 0.  1.
         11    1    3    3    0    0 -0.12533325027E+02  0.14590707686E+01  0.38600643785E+01  0.13195196892E+02  0.51100000000E-03 0. -1.
        -11    1    3    3    0    0 -0.73209677193E+00 -0.11663282861E+02 -0.33543461544E+01  0.12158115445E+02  0.51100000000E-03 0.  1.
        -12    1    3    3    0    0 -0.11313456342E+02 -0.21780994362E+02 -0.56037973463E+01  0.25175554701E+02  0.00000000000E+00 0.  1.
</event>
<event>
 7    1  0.1024956E-012  0.5052887E+02  0.7816164E-02  0.1300439E+00
        -11   -1    0    0    0    0  0.00000000000E+00  0.00000000000E+00  0.45593999997E+02  0.45594000000E+02  0.51100000000E-03 0. -1.
         11   -1    0    0    0    0 -0.00000000000E+00 -0.00000000000E+00 -0.45593999997E+02  0.45594000000E+02  0.51100000000E-03 0.  1.
    9900012    2    1    2    0    0 -0.32010510452E+02  0.15927062945E+02  0.19360291335E+02  0.50528868258E+02  0.30000025556E+02 0.  0.
        -12    1    1    2    0    0  0.32010510452E+02 -0.15927062945E+02 -0.19360291335E+02  0.40659131742E+02  0.00000000000E+00 0.  1.
         11    1    3    3    0    0 -0.29930371707E+02  0.15964746962E+02  0.13732397937E+02  0.36596161676E+02  0.51100000000E-03 0. -1.
        -11    1    3    3    0    0  0.20494588030E+01 -0.19703010451E+01  0.82131835105E+01  0.86913031952E+01  0.51100000000E-03 0.  1.
         12    1    3    3    0    0 -0.41295975482E+01  0.19326170281E+01 -0.25852901127E+01  0.52414033860E+01  0.00000000000E+00 0. -1.
</event>
<event>
 7    1  0.1024956E-012  0.5052887E+02  0.7816164E-02  0.1300439E+00
        -11   -1    0    0    0    0  0.00000000000E+00  0.00000000000E+00  0.45593999997E+02  0.45594000000E+02  0.51100000000E-03 0.  1.
         11   -1    0    0    0    0 -0.00000000000E+00 -0.00000000000E+00 -0.45593999997E+02  0.45594000000E+02  0.51100000000E-03 0. -1.
    9900012    2    1    2    0    0 -0.15775866083E+02 -0.81535850313E+00 -0.37464942954E+02  0.50528871742E+02  0.30000036147E+02 0.  0.
        -12    1    1    2    0    0  0.15775866083E+02  0.81535850313E+00  0.37464942954E+02  0.40659128258E+02  0.00000000000E+00 0.  1.
         11    1    3    3    0    0 -0.87435644913E+01 -0.86886396234E+01 -0.18025210531E+02  0.21836908972E+02  0.51100000000E-03 0. -1.
        -11    1    3    3    0    0  0.13308157092E+01 -0.15716383405E+01  0.25880841441E+01  0.33074608574E+01  0.51100000000E-03 0.  1.
         12    1    3    3    0    0 -0.83631173004E+01  0.94449194608E+01 -0.22027816568E+02  0.25384501912E+02  0.00000000000E+00 0. -1.
</event>
<event>
 7    1  0.1024956E-012  0.5052887E+02  0.7816164E-02  0.1300439E+00
        -11   -1    0    0    0    0  0.00000000000E+00  0.00000000000E+00  0.45593999997E+02  0.45594000000E+02  0.51100000000E-03 0. -1.
         11   -1    0    0    0    0 -0.00000000000E+00 -0.00000000000E+00 -0.45593999997E+02  0.45594000000E+02  0.51100000000E-03 0.  1.
    9900012    2    1    2    0    0 -0.39401536200E+02 -0.68400444703E+01 -0.73415241819E+01  0.50528865226E+02  0.30000016341E+02 0.  0.
        -12    1    1    2    0    0  0.39401536200E+02  0.68400444703E+01  0.73415241819E+01  0.40659134774E+02  0.00000000000E+00 0.  1.
         11    1    3    3    0    0 -0.14779953290E+02 -0.95545298833E+01 -0.27707218274E+01  0.17816087120E+02  0.51100000000E-03 0. -1.
        -11    1    3    3    0    0 -0.48187175077E+01  0.41927765202E+01  0.72027164590E+01  0.96269693059E+01  0.51100000000E-03 0.  1.
        -12    1    3    3    0    0 -0.19802865402E+02 -0.14782911072E+01 -0.11773518814E+02  0.23085808800E+02  0.00000000000E+00 0.  1.
</event>
<event>
 7    1  0.1024956E-012  0.5052887E+02  0.7816164E-02  0.1300439E+00
        -11   -1    0    0    0    0  0.00000000000E+00  0.00000000000E+00  0.45593999997E+02  0.45594000000E+02  0.51100000000E-03 0.  1.
         11   -1    0    0    0    0 -0.00000000000E+00 -0.00000000000E+00 -0.45593999997E+02  0.45594000000E+02  0.51100000000E-03 0. -1.
    9900012    2    1    2    0    0  0.70731932890E+01  0.91623348975E+01 -0.38976745498E+02  0.50528866540E+02  0.30000020335E+02 0.  0.
        -12    1    1    2    0    0 -0.70731932890E+01 -0.91623348975E+01  0.38976745498E+02  0.40659133460E+02  0.00000000000E+00 0.  1.
         11    1    3    3    0    0  0.38848523840E+01 -0.46661590151E+01 -0.63103755020E+01  0.87570518576E+01  0.51100000000E-03 0. -1.
        -11    1    3    3    0    0 -0.32520503037E+01  0.11032289824E+02 -0.32790860712E+02  0.34749500665E+02  0.51100000000E-03 0.  1.
        -12    1    3    3    0    0  0.64403912087E+01  0.27962040880E+01  0.12449071612E+00  0.70223140176E+01  0.00000000000E+00 0.  1.
</event>
<event>
 7    1  0.1024956E-012  0.5052886E+02  0.7816164E-02  0.1300439E+00
        -11   -1    0    0    0    0  0.00000000000E+00  0.00000000000E+00  0.45593999997E+02  0.45594000000E+02  0.51100000000E-03 0.  1.
         11   -1    0    0    0    0 -0.00000000000E+00 -0.00000000000E+00 -0.45593999997E+02  0.45594000000E+02  0.51100000000E-03 0. -1.
    9900012    2    1    2    0    0  0.62052882571E+01 -0.38509960617E+01 -0.39997869822E+02  0.50528863717E+02  0.30000011753E+02 0.  0.
        -12    1    1    2    0    0 -0.62052882571E+01  0.38509960617E+01  0.39997869822E+02  0.40659136283E+02  0.00000000000E+00 0.  1.
         11    1    3    3    0    0  0.97561313991E+01 -0.52353237783E+01 -0.27927295527E+02  0.30042046379E+02  0.51100000000E-03 0. -1.
        -11    1    3    3    0    0 -0.82171878206E+01 -0.29886493304E+01 -0.27173775902E+01  0.91563279609E+01  0.51100000000E-03 0.  1.
        -12    1    3    3    0    0  0.46663446787E+01  0.43729770470E+01 -0.93531967050E+01  0.11330489377E+02  0.00000000000E+00 0.  1.
</event>
<event>
 7    1  0.1024956E-012  0.5052887E+02  0.7816164E-02  0.1300439E+00
        -11   -1    0    0    0    0  0.00000000000E+00  0.00000000000E+00  0.45593999997E+02  0.45594000000E+02  0.51100000000E-03 0. -1.
         11   -1    0    0    0    0 -0.00000000000E+00 -0.00000000000E+00 -0.45593999997E+02  0.45594000000E+02  0.51100000000E-03 0.  1.
    9900012    2    1    2    0    0  0.10217094231E+02  0.38450625213E+02  0.83860252828E+01  0.50528868014E+02  0.30000024815E+02 0.  0.
        -12    1    1    2    0    0 -0.10217094231E+02 -0.38450625213E+02 -0.83860252828E+01  0.40659131986E+02  0.00000000000E+00 0.  1.
         11    1    3    3    0    0 -0.47943714536E+01  0.56956124403E+00  0.66236792957E+01  0.81965556985E+01  0.51100000000E-03 0.  1.
        -11    1    3    3    0    0  0.14463817833E+02  0.35436917128E+02 -0.13970342022E+01  0.38300506872E+02  0.51100000000E-03 0. -1.
         12    1    3    3    0    0  0.54764785182E+00  0.24441468420E+01  0.31593801893E+01  0.40318054436E+01  0.00000000000E+00 0. -1.
</event>
<event>
 7    1  0.1024956E-012  0.5052886E+02  0.7816164E-02  0.1300439E+00
        -11   -1    0    0    0    0  0.00000000000E+00  0.00000000000E+00  0.45593999997E+02  0.45594000000E+02  0.51100000000E-03 0. -1.
         11   -1    0    0    0    0 -0.00000000000E+00 -0.00000000000E+00 -0.45593999997E+02  0.45594000000E+02  0.51100000000E-03 0.  1.
    9900012    2    1    2    0    0  0.65860846073E+01  0.37442108358E+02 -0.14417969908E+02  0.50528857793E+02  0.29999993747E+02 0.  0.
        -12    1    1    2    0    0 -0.65860846073E+01 -0.37442108358E+02  0.14417969908E+02  0.40659142207E+02  0.00000000000E+00 0.  1.
         11    1    3    3    0    0  0.10348548081E+02  0.30534862934E+02 -0.10679545182E+02  0.33963553809E+02  0.51100000000E-03 0. -1.
        -11    1    3    3    0    0 -0.60372179811E+01  0.19713242269E+01 -0.75955459782E+01  0.99008302241E+01  0.51100000000E-03 0.  1.
         12    1    3    3    0    0  0.22747545078E+01  0.49359211972E+01  0.38571212525E+01  0.66644737596E+01  0.00000000000E+00 0. -1.
</event>
<event>
 7    1  0.1024956E-012  0.5052887E+02  0.7816164E-02  0.1300439E+00
        -11   -1    0    0    0    0  0.00000000000E+00  0.00000000000E+00  0.45593999997E+02  0.45594000000E+02  0.51100000000E-03 0.  1.
         11   -1    0    0    0    0 -0.00000000000E+00 -0.00000000000E+00 -0.45593999997E+02  0.45594000000E+02  0.51100000000E-03 0. -1.
    9900012    2    1    2    0    0 -0.26799559084E+02  0.20320180453E+02 -0.22848173061E+02  0.50528866795E+02  0.30000021111E+02 0.  0.
        -12    1    1    2    0    0  0.26799559084E+02 -0.20320180453E+02  0.22848173061E+02  0.40659133205E+02  0.00000000000E+00 0.  1.
         11    1    3    3    0    0 -0.25943477083E+01  0.38892096889E+01 -0.43601779040E+01  0.63927884097E+01  0.51100000000E-03 0. -1.
        -11    1    3    3    0    0 -0.27846024978E+02  0.13168726785E+02 -0.22224174195E+02  0.37983290947E+02  0.51100000000E-03 0.  1.
        -12    1    3    3    0    0  0.36408136020E+01  0.32622439788E+01  0.37361790383E+01  0.61527874389E+01  0.00000000000E+00 0.  1.
</event>
<event>
 7    1  0.1024956E-012  0.5052886E+02  0.7816164E-02  0.1300439E+00
        -11   -1    0    0    0    0  0.00000000000E+00  0.00000000000E+00  0.45593999997E+02  0.45594000000E+02  0.51100000000E-03 0. -1.
         11   -1    0    0    0    0 -0.00000000000E+00 -0.00000000000E+00 -0.45593999997E+02  0.45594000000E+02  0.51100000000E-03 0.  1.
    9900012    2    1    2    0    0 -0.23772098077E+02  0.32596198633E+02 -0.50538004381E+01  0.50528859439E+02  0.29999998751E+02 0.  0.
        -12    1    1    2    0    0  0.23772098077E+02 -0.32596198633E+02  0.50538004381E+01  0.40659140561E+02  0.00000000000E+00 0.  1.
         11    1    3    3    0    0  0.29801978294E+01  0.92481938566E+01  0.53400698986E+01  0.11087245623E+02  0.51100000000E-03 0. -1.
        -11    1    3    3    0    0 -0.20351377131E+02  0.23998289460E+02 -0.72950574234E+01  0.32300376332E+02  0.51100000000E-03 0.  1.
        -12    1    3    3    0    0 -0.64009187750E+01 -0.65028468379E+00 -0.30988129134E+01  0.71412374842E+01  0.00000000000E+00 0.  1.
</event>
<event>
 7    1  0.1024956E-012  0.5052886E+02  0.7816164E-02  0.1300439E+00
        -11   -1    0    0    0    0  0.00000000000E+00  0.00000000000E+00  0.45593999997E+02  0.45594000000E+02  0.51100000000E-03 0.  1.
         11   -1    0    0    0    0 -0.00000000000E+00 -0.00000000000E+00 -0.45593999997E+02  0.45594000000E+02  0.51100000000E-03 0. -1.
    9900012    2    1    2    0    0 -0.12420659882E+02 -0.38689206257E+02  0.14276808463E+01  0.50528859019E+02  0.29999997473E+02 0.  0.
        -12    1    1    2    0    0  0.12420659882E+02  0.38689206257E+02 -0.14276808463E+01  0.40659140981E+02  0.00000000000E+00 0.  1.
         11    1    3    3    0    0 -0.60017498420E+01 -0.33920033687E+02  0.41116074152E+01  0.34691425486E+02  0.51100000000E-03 0. -1.
        -11    1    3    3    0    0  0.33036649369E+01  0.17334143041E+01  0.36870327206E+00  0.37489824658E+01  0.51100000000E-03 0.  1.
         12    1    3    3    0    0 -0.97225749769E+01 -0.65025868749E+01 -0.30526298410E+01  0.12088451067E+02  0.00000000000E+00 0. -1.
</event>
<event>
 7    1  0.1024956E-012  0.5052888E+02  0.7816164E-02  0.1300439E+00
        -11   -1    0    0    0    0  0.00000000000E+00  0.00000000000E+00  0.45593999997E+02  0.45594000000E+02  0.51100000000E-03 0.  1.
         11   -1    0    0    0    0 -0.00000000000E+00 -0.00000000000E+00 -0.45593999997E+02  0.45594000000E+02  0.51100000000E-03 0. -1.
    9900012    2    1    2    0    0 -0.35283621677E+02 -0.19667874989E+02  0.46265703508E+01  0.50528875336E+02  0.30000047070E+02 0.  0.
        -12    1    1    2    0    0  0.35283621677E+02  0.19667874989E+02 -0.46265703508E+01  0.40659124664E+02  0.00000000000E+00 0.  1.
         11    1    3    3    0    0 -0.22280516786E+02 -0.14133804086E+02 -0.70075878291E+01  0.27300039077E+02  0.51100000000E-03 0. -1.
        -11    1    3    3    0    0 -0.14669346390E+02 -0.48095052772E+00  0.95707513196E+01  0.17521995263E+02  0.51100000000E-03 0.  1.
         12    1    3    3    0    0  0.16662414990E+01 -0.50531203760E+01  0.20634068603E+01  0.57068409947E+01  0.00000000000E+00 0. -1.
</event>
<event>
 7    1  0.1024956E-012  0.5052888E+02  0.7816164E-02  0.1300439E+00
        -11   -1    0    0    0    0  0.00000000000E+00  0.00000000000E+00  0.45593999997E+02  0.45594000000E+02  0.51100000000E-03 0. -1.
         11   -1    0    0    0    0 -0.00000000000E+00 -0.00000000000E+00 -0.45593999997E+02  0.45594000000E+02  0.51100000000E-03 0.  1.
    9900012    2    1    2    0    0  0.74723729800E+01 -0.49483127895E+01  0.39659074561E+02  0.50528876147E+02  0.30000049537E+02 0.  0.
        -12    1    1    2    0    0 -0.74723729800E+01  0.49483127895E+01 -0.39659074561E+02  0.40659123853E+02  0.00000000000E+00 0.  1.
         11    1    3    3    0    0 -0.43752583668E+00 -0.18782495648E+01 -0.26564084437E+01  0.32826447213E+01  0.51100000000E-03 0. -1.
        -11    1    3    3    0    0 -0.52521216332E+01 -0.36676754718E+01  0.22923281937E+02  0.23801543648E+02  0.51100000000E-03 0.  1.
         12    1    3    3    0    0  0.13162020450E+02  0.59761224722E+00  0.19392201068E+02  0.23444687777E+02  0.00000000000E+00 0. -1.
</event>
<event>
 7    1  0.1024956E-012  0.5052885E+02  0.7816164E-02  0.1300439E+00
        -11   -1    0    0    0    0  0.00000000000E+00  0.00000000000E+00  0.45593999997E+02  0.45594000000E+02  0.51100000000E-03 0. -1.
         11   -1    0    0    0    0 -0.00000000000E+00 -0.00000000000E+00 -0.45593999997E+02  0.45594000000E+02  0.51100000000E-03 0.  1.
    9900012    2    1    2    0    0  0.24604771961E+02  0.49547322982E+01  0.31987840664E+02  0.50528854340E+02  0.29999983253E+02 0.  0.
        -12    1    1    2    0    0 -0.24604771961E+02 -0.49547322982E+01 -0.31987840664E+02  0.40659145660E+02  0.00000000000E+00 0.  1.
         11    1    3    3    0    0 -0.23911188828E+01  0.90316487611E+00  0.12625900264E+02  0.12882022902E+02  0.51100000000E-03 0. -1.
        -11    1    3    3    0    0  0.23921891290E+02  0.73240919096E+01  0.21202862049E+02  0.32794215413E+02  0.51100000000E-03 0.  1.
        -12    1    3    3    0    0  0.30739995536E+01 -0.32725244875E+01 -0.18409216488E+01  0.48526160258E+01  0.00000000000E+00 0.  1.
</event>
<event>
 7    1  0.1024956E-012  0.5052885E+02  0.7816164E-02  0.1300439E+00
        -11   -1    0    0    0    0  0.00000000000E+00  0.00000000000E+00  0.45593999997E+02  0.45594000000E+02  0.51100000000E-03 0.  1.
         11   -1    0    0    0    0 -0.00000000000E+00 -0.00000000000E+00 -0.45593999997E+02  0.45594000000E+02  0.51100000000E-03 0. -1.
    9900012    2    1    2    0    0  0.37708263664E+02  0.45052250913E+01 -0.14524336056E+02  0.50528849252E+02  0.29999967786E+02 0.  0.
        -12    1    1    2    0    0 -0.37708263664E+02 -0.45052250913E+01  0.14524336056E+02  0.40659150748E+02  0.00000000000E+00 0.  1.
         11    1    3    3    0    0  0.24944545830E+02  0.64621252400E+00 -0.16243328836E+02  0.29774043884E+02  0.51100000000E-03 0. -1.
        -11    1    3    3    0    0  0.44300560856E+01 -0.40079164778E+01  0.60509434091E+01  0.85030998945E+01  0.51100000000E-03 0.  1.
        -12    1    3    3    0    0  0.83336617488E+01  0.78669290451E+01 -0.43319506289E+01  0.12251705473E+02  0.00000000000E+00 0.  1.
</event>
<event>
 7    1  0.1024956E-012  0.5052885E+02  0.7816164E-02  0.1300439E+00
        -11   -1    0    0    0    0  0.00000000000E+00  0.00000000000E+00  0.45593999997E+02  0.45594000000E+02  0.51100000000E-03 0.  1.
         11   -1    0    0    0    0 -0.00000000000E+00 -0.00000000000E+00 -0.45593999997E+02  0.45594000000E+02  0.51100000000E-03 0. -1.
    9900012    2    1    2    0    0  0.24420838956E+02 -0.56041881164E+00 -0.32503460251E+02  0.50528851302E+02  0.29999974017E+02 0.  0.
        -12    1    1    2    0    0 -0.24420838956E+02  0.56041881164E+00  0.32503460251E+02  0.40659148698E+02  0.00000000000E+00 0.  1.
         11    1    3    3    0    0  0.93158166977E+01  0.44363986866E+01 -0.22571963549E+02  0.24818533654E+02  0.51100000000E-03 0. -1.
        -11    1    3    3    0    0  0.40899495080E+01 -0.83944622916E+01  0.15213178015E+01  0.94609244927E+01  0.51100000000E-03 0.  1.
        -12    1    3    3    0    0  0.11015072750E+02  0.33976447933E+01 -0.11452814504E+02  0.16249393155E+02  0.00000000000E+00 0.  1.
</event>
<event>
 7    1  0.1024956E-012  0.5052887E+02  0.7816164E-02  0.1300439E+00
        -11   -1    0    0    0    0  0.00000000000E+00  0.00000000000E+00  0.45593999997E+02  0.45594000000E+02  0.51100000000E-03 0. -1.
         11   -1    0    0    0    0 -0.00000000000E+00 -0.00000000000E+00 -0.45593999997E+02  0.45594000000E+02  0.51100000000E-03 0.  1.
    9900012    2    1    2    0    0 -0.38304211296E+02  0.10951434591E+02  0.81251695094E+01  0.50528869388E+02  0.30000028992E+02 0.  0.
        -12    1    1    2    0    0  0.38304211296E+02 -0.10951434591E+02 -0.81251695094E+01  0.40659130612E+02  0.00000000000E+00 0.  1.
         11    1    3    3    0    0 -0.25564924672E+02  0.17832356380E+01  0.37687441190E+01  0.25902678149E+02  0.51100000000E-03 0. -1.
        -11    1    3    3    0    0  0.71403896822E+00  0.84592337775E+01  0.68710411742E+01  0.10921524382E+02  0.51100000000E-03 0.  1.
        -12    1    3    3    0    0 -0.13453325592E+02  0.70896517507E+00 -0.25146157838E+01  0.13704666857E+02  0.00000000000E+00 0.  1.
</event>
<event>
 7    1  0.1024956E-012  0.5052886E+02  0.7816164E-02  0.1300439E+00
        -11   -1    0    0    0    0  0.00000000000E+00  0.00000000000E+00  0.45593999997E+02  0.45594000000E+02  0.51100000000E-03 0.  1.
         11   -1    0    0    0    0 -0.00000000000E+00 -0.00000000000E+00 -0.45593999997E+02  0.45594000000E+02  0.51100000000E-03 0. -1.
    9900012    2    1    2    0    0 -0.31619897028E+01  0.23001053628E+02 -0.33378426861E+02  0.50528855559E+02  0.29999986958E+02 0.  0.
        -12    1    1    2    0    0  0.31619897028E+01 -0.23001053628E+02  0.33378426861E+02  0.40659144441E+02  0.00000000000E+00 0.  1.
         11    1    3    3    0    0 -0.10198543293E+00  0.86133470666E+01 -0.15233852164E+02  0.17500582868E+02  0.51100000000E-03 0. -1.
        -11    1    3    3    0    0 -0.38564295760E+01 -0.59896831269E+01 -0.36137543329E+01  0.79879643011E+01  0.51100000000E-03 0.  1.
        -12    1    3    3    0    0  0.79642530612E+00  0.20377389689E+02 -0.14530820364E+02  0.25040308390E+02  0.00000000000E+00 0.  1.
</event>
<event>
 7    1  0.1024956E-012  0.5052886E+02  0.7816164E-02  0.1300439E+00
        -11   -1    0    0    0    0  0.00000000000E+00  0.00000000000E+00  0.45593999997E+02  0.45594000000E+02  0.51100000000E-03 0.  1.
         11   -1    0    0    0    0 -0.00000000000E+00 -0.00000000000E+00 -0.45593999997E+02  0.45594000000E+02  0.51100000000E-03 0. -1.
    9900012    2    1    2    0    0  0.69708051368E+01  0.16965320972E+02 -0.36287067411E+02  0.50528862020E+02  0.30000006597E+02 0.  0.
        -12    1    1    2    0    0 -0.69708051368E+01 -0.16965320972E+02  0.36287067411E+02  0.40659137980E+02  0.00000000000E+00 0.  1.
         11    1    3    3    0    0 -0.65775577998E+01  0.12867069683E+02 -0.62479675062E+01  0.15743660536E+02  0.51100000000E-03 0. -1.
        -11    1    3    3    0    0  0.13350732645E+02  0.41265167672E-02 -0.24401495668E+02  0.27815015195E+02  0.51100000000E-03 0.  1.
         12    1    3    3    0    0  0.19763029122E+00  0.40941247719E+01 -0.56376042371E+01  0.69701862898E+01  0.00000000000E+00 0. -1.
</event>
<event>
 7    1  0.1024956E-012  0.5052885E+02  0.7816164E-02  0.1300439E+00
        -11   -1    0    0    0    0  0.00000000000E+00  0.00000000000E+00  0.45593999997E+02  0.45594000000E+02  0.51100000000E-03 0. -1.
         11   -1    0    0    0    0 -0.00000000000E+00 -0.00000000000E+00 -0.45593999997E+02  0.45594000000E+02  0.51100000000E-03 0.  1.
    9900012    2    1    2    0    0  0.22799795117E+02 -0.32707297261E+02 -0.79729881801E+01  0.50528849836E+02  0.29999969562E+02 0.  0.
        -12    1    1    2    0    0 -0.22799795117E+02  0.32707297261E+02  0.79729881801E+01  0.40659150164E+02  0.00000000000E+00 0.  1.
         11    1    3    3    0    0  0.93856893400E+01 -0.38032967905E+01 -0.33361785285E+01  0.10662378642E+02  0.51100000000E-03 0. -1.
        -11    1    3    3    0    0  0.18515976304E+01 -0.21118520978E+02 -0.11727681444E+02  0.24227233734E+02  0.51100000000E-03 0.  1.
        -12    1    3    3    0    0  0.11562508147E+02 -0.77854794921E+01  0.70908717922E+01  0.15639237461E+02  0.00000000000E+00 0.  1.
</event>
<event>
 7    1  0.1024956E-012  0.5052885E+02  0.7816164E-02  0.1300439E+00
        -11   -1    0    0    0    0  0.00000000000E+00  0.00000000000E+00  0.45593999997E+02  0.45594000000E+02  0.51100000000E-03 0.  1.
         11   -1    0    0    0    0 -0.00000000000E+00 -0.00000000000E+00 -0.45593999997E+02  0.45594000000E+02  0.51100000000E-03 0. -1.
    9900012    2    1    2    0    0  0.30082597657E+02  0.12027079185E+00 -0.27353044988E+02  0.50528853219E+02  0.29999979843E+02 0.  0.
        -12    1    1    2    0    0 -0.30082597657E+02 -0.12027079185E+00  0.27353044988E+02  0.40659146781E+02  0.00000000000E+00 0.  1.
         11    1    3    3    0    0  0.18973731361E+02 -0.79501708037E+01 -0.18533899751E+02  0.27689585367E+02  0.51100000000E-03 0. -1.
        -11    1    3    3    0    0  0.84171963435E+01  0.12689939077E+02 -0.42587796088E+01  0.15812050850E+02  0.51100000000E-03 0.  1.
        -12    1    3    3    0    0  0.26916699522E+01 -0.46194974816E+01 -0.45603656290E+01  0.70272170014E+01  0.00000000000E+00 0.  1.
</event>
<event>
 7    1  0.1024956E-012  0.5052886E+02  0.7816164E-02  0.1300439E+00
        -11   -1    0    0    0    0  0.00000000000E+00  0.00000000000E+00  0.45593999997E+02  0.45594000000E+02  0.51100000000E-03 0.  1.
         11   -1    0    0    0    0 -0.00000000000E+00 -0.00000000000E+00 -0.45593999997E+02  0.45594000000E+02  0.51100000000E-03 0. -1.
    9900012    2    1    2    0    0 -0.83121389174E+01 -0.36196729078E+02 -0.16549036478E+02  0.50528862556E+02  0.30000008226E+02 0.  0.
        -12    1    1    2    0    0  0.83121389174E+01  0.36196729078E+02  0.16549036478E+02  0.40659137444E+02  0.00000000000E+00 0.  1.
         11    1    3    3    0    0  0.37343461483E+01 -0.23469870985E+02 -0.10564864417E+01  0.23788576020E+02  0.51100000000E-03 0. -1.
        -11    1    3    3    0    0 -0.62805994975E+01 -0.43993922021E+01 -0.14700896273E+02  0.16580619207E+02  0.51100000000E-03 0.  1.
         12    1    3    3    0    0 -0.57658855682E+01 -0.83274658911E+01 -0.79165376291E+00  0.10159667329E+02  0.00000000000E+00 0. -1.
</event>
<event>
 7    1  0.1024956E-012  0.5052885E+02  0.7816164E-02  0.1300439E+00
        -11   -1    0    0    0    0  0.00000000000E+00  0.00000000000E+00  0.45593999997E+02  0.45594000000E+02  0.51100000000E-03 0. -1.
         11   -1    0    0    0    0 -0.00000000000E+00 -0.00000000000E+00 -0.45593999997E+02  0.45594000000E+02  0.51100000000E-03 0.  1.
    9900012    2    1    2    0    0  0.21415141751E+01  0.22619435583E+02  0.33718567649E+02  0.50528846623E+02  0.29999959794E+02 0.  0.
        -12    1    1    2    0    0 -0.21415141751E+01 -0.22619435583E+02 -0.33718567649E+02  0.40659153377E+02  0.00000000000E+00 0.  1.
         11    1    3    3    0    0 -0.43026039234E+01  0.19363262038E+02  0.89004640746E+01  0.21740896446E+02  0.51100000000E-03 0. -1.
        -11    1    3    3    0    0 -0.10761560051E+01 -0.22441747590E+01  0.15179983856E+02  0.15382663691E+02  0.51100000000E-03 0.  1.
         12    1    3    3    0    0  0.75202741036E+01  0.55003483046E+01  0.96381197179E+01  0.13405286486E+02  0.00000000000E+00 0. -1.
</event>
<event>
 7    1  0.1024956E-012  0.5052886E+02  0.7816164E-02  0.1300439E+00
        -11   -1    0    0    0    0  0.00000000000E+00  0.00000000000E+00  0.45593999997E+02  0.45594000000E+02  0.51100000000E-03 0. -1.
         11   -1    0    0    0    0 -0.00000000000E+00 -0.00000000000E+00 -0.45593999997E+02  0.45594000000E+02  0.51100000000E-03 0.  1.
    9900012    2    1    2    0    0 -0.37290887827E+02 -0.76110947677E+01  0.14304775765E+02  0.50528859721E+02  0.29999999609E+02 0.  0.
        -12    1    1    2    0    0  0.37290887827E+02  0.76110947677E+01 -0.14304775765E+02  0.40659140279E+02  0.00000000000E+00 0.  1.
         11    1    3    3    0    0 -0.23555760560E+02 -0.12387464707E+02  0.20679055785E+02  0.33703805213E+02  0.51100000000E-03 0. -1.
        -11    1    3    3    0    0 -0.87907126042E+01  0.38995562556E+01 -0.13316374466E+01  0.97085748507E+01  0.51100000000E-03 0.  1.
         12    1    3    3    0    0 -0.49444146635E+01  0.87681368362E+00 -0.50426425732E+01  0.71164796579E+01  0.00000000000E+00 0. -1.
</event>
<event>
 7    1  0.1024956E-012  0.5052883E+02  0.7816164E-02  0.1300439E+00
        -11   -1    0    0    0    0  0.00000000000E+00  0.00000000000E+00  0.45593999997E+02  0.45594000000E+02  0.51100000000E-03 0. -1.
         11   -1    0    0    0    0 -0.00000000000E+00 -0.00000000000E+00 -0.45593999997E+02  0.45594000000E+02  0.51100000000E-03 0.  1.
    9900012    2    1    2    0    0  0.16046640069E+02 -0.29003239767E+02 -0.23547509021E+02  0.50528834298E+02  0.29999922331E+02 0.  0.
        -12    1    1    2    0    0 -0.16046640069E+02  0.29003239767E+02  0.23547509021E+02  0.40659165702E+02  0.00000000000E+00 0.  1.
         11    1    3    3    0    0 -0.41627624802E+00 -0.22741654982E+02 -0.10091065805E+02  0.24883443624E+02  0.51100000000E-03 0. -1.
        -11    1    3    3    0    0  0.15640221166E+02 -0.56432041137E+01 -0.53395039736E+01  0.17463463967E+02  0.51100000000E-03 0.  1.
         12    1    3    3    0    0  0.82269515137E+00 -0.61838067150E+00 -0.81169392422E+01  0.81819267064E+01  0.00000000000E+00 0. -1.
</event>
<event>
 7    1  0.1024956E-012  0.5052886E+02  0.7816164E-02  0.1300439E+00
        -11   -1    0    0    0    0  0.00000000000E+00  0.00000000000E+00  0.45593999997E+02  0.45594000000E+02  0.51100000000E-03 0.  1.
         11   -1    0    0    0    0 -0.00000000000E+00 -0.00000000000E+00 -0.45593999997E+02  0.45594000000E+02  0.51100000000E-03 0. -1.
    9900012    2    1    2    0    0  0.87480926421E+01  0.18909329565E+02 -0.34915237219E+02  0.50528860074E+02  0.30000000682E+02 0.  0.
        -12    1    1    2    0    0 -0.87480926421E+01 -0.18909329565E+02  0.34915237219E+02  0.40659139926E+02  0.00000000000E+00 0.  1.
         11    1    3    3    0    0  0.17721382868E+02  0.10298498687E+02 -0.25944110562E+02  0.33063625921E+02  0.51100000000E-03 0. -1.
        -11    1    3    3    0    0 -0.26490228173E+01  0.42317562748E+01 -0.83745257351E+01  0.97497571562E+01  0.51100000000E-03 0.  1.
         12    1    3    3    0    0 -0.63242674082E+01  0.43790746027E+01 -0.59660092155E+00  0.77154769967E+01  0.00000000000E+00 0. -1.
</event>
<event>
 7    1  0.1024956E-012  0.5052886E+02  0.7816164E-02  0.1300439E+00
        -11   -1    0    0    0    0  0.00000000000E+00  0.00000000000E+00  0.45593999997E+02  0.45594000000E+02  0.51100000000E-03 0.  1.
         11   -1    0    0    0    0 -0.00000000000E+00 -0.00000000000E+00 -0.45593999997E+02  0.45594000000E+02  0.51100000000E-03 0. -1.
    9900012    2    1    2    0    0  0.55055751786E+01  0.74101844394E+00 -0.40277852392E+02  0.50528857613E+02  0.29999993200E+02 0.  0.
        -12    1    1    2    0    0 -0.55055751786E+01 -0.74101844394E+00  0.40277852392E+02  0.40659142387E+02  0.00000000000E+00 0.  1.
         11    1    3    3    0    0  0.98573621978E+01  0.77622400901E+01 -0.29139592273E+02  0.31725948352E+02  0.51100000000E-03 0. -1.
        -11    1    3    3    0    0 -0.44207177027E+01 -0.23782137051E+01  0.15806951778E+01  0.52628170157E+01  0.51100000000E-03 0.  1.
         12    1    3    3    0    0  0.68930683505E-01 -0.46430079410E+01 -0.12718955296E+02  0.13540092245E+02  0.00000000000E+00 0. -1.
</event>
<event>
 7    1  0.1024956E-012  0.5052885E+02  0.7816164E-02  0.1300439E+00
        -11   -1    0    0    0    0  0.00000000000E+00  0.00000000000E+00  0.45593999997E+02  0.45594000000E+02  0.51100000000E-03 0.  1.
         11   -1    0    0    0    0 -0.00000000000E+00 -0.00000000000E+00 -0.45593999997E+02  0.45594000000E+02  0.51100000000E-03 0. -1.
    9900012    2    1    2    0    0 -0.24749074860E+02  0.10281569931E+01 -0.32242710719E+02  0.50528853332E+02  0.29999980189E+02 0.  0.
        -12    1    1    2    0    0  0.24749074860E+02 -0.10281569931E+01  0.32242710719E+02  0.40659146668E+02  0.00000000000E+00 0.  1.
         11    1    3    3    0    0 -0.88147295755E+01  0.99806463667E+01 -0.18424663299E+01  0.13442746811E+02  0.51100000000E-03 0. -1.
        -11    1    3    3    0    0 -0.54218446636E+01  0.97488163972E+00 -0.34438390080E+01  0.64966777003E+01  0.51100000000E-03 0.  1.
         12    1    3    3    0    0 -0.10512500621E+02 -0.99273710133E+01 -0.26956405381E+02  0.30589428821E+02  0.00000000000E+00 0. -1.
</event>
<event>
 7    1  0.1024956E-012  0.5052886E+02  0.7816164E-02  0.1300439E+00
        -11   -1    0    0    0    0  0.00000000000E+00  0.00000000000E+00  0.45593999997E+02  0.45594000000E+02  0.51100000000E-03 0.  1.
         11   -1    0    0    0    0 -0.00000000000E+00 -0.00000000000E+00 -0.45593999997E+02  0.45594000000E+02  0.51100000000E-03 0. -1.
    9900012    2    1    2    0    0 -0.26414746265E+02 -0.45213626834E+01  0.30577505215E+02  0.50528863685E+02  0.30000011657E+02 0.  0.
        -12    1    1    2    0    0  0.26414746265E+02  0.45213626834E+01 -0.30577505215E+02  0.40659136315E+02  0.00000000000E+00 0.  1.
         11    1    3    3    0    0 -0.41556919999E+01 -0.11470188896E+02  0.98396201144E+01  0.15673325543E+02  0.51100000000E-03 0. -1.
        -11    1    3    3    0    0 -0.11457121654E+02  0.73967779334E+01  0.28157166356E+01  0.13925021394E+02  0.51100000000E-03 0.  1.
        -12    1    3    3    0    0 -0.10801932610E+02 -0.44795172069E+00  0.17922168465E+02  0.20930516748E+02  0.00000000000E+00 0.  1.
</event>
<event>
 7    1  0.1024956E-012  0.5052887E+02  0.7816164E-02  0.1300439E+00
        -11   -1    0    0    0    0  0.00000000000E+00  0.00000000000E+00  0.45593999997E+02  0.45594000000E+02  0.51100000000E-03 0.  1.
         11   -1    0    0    0    0 -0.00000000000E+00 -0.00000000000E+00 -0.45593999997E+02  0.45594000000E+02  0.51100000000E-03 0. -1.
    9900012    2    1    2    0    0 -0.48962986983E+01  0.76682909646E+01 -0.39628128048E+02  0.50528868678E+02  0.30000026834E+02 0.  0.
        -12    1    1    2    0    0  0.48962986983E+01 -0.76682909646E+01  0.39628128048E+02  0.40659131322E+02  0.00000000000E+00 0.  1.
         11    1    3    3    0    0  0.20865800219E+01  0.15917255518E+01 -0.11160655079E+02  0.11465061207E+02  0.51100000000E-03 0. -1.
        -11    1    3    3    0    0 -0.11965169406E+02 -0.18324391219E+01 -0.38038885660E+01  0.12688289110E+02  0.51100000000E-03 0.  1.
        -12    1    3    3    0    0  0.49822906861E+01  0.79090045347E+01 -0.24663584403E+02  0.26375518361E+02  0.00000000000E+00 0.  1.
</event>
<event>
 7    1  0.1024956E-012  0.5052886E+02  0.7816164E-02  0.1300439E+00
        -11   -1    0    0    0    0  0.00000000000E+00  0.00000000000E+00  0.45593999997E+02  0.45594000000E+02  0.51100000000E-03 0. -1.
         11   -1    0    0    0    0 -0.00000000000E+00 -0.00000000000E+00 -0.45593999997E+02  0.45594000000E+02  0.51100000000E-03 0.  1.
    9900012    2    1    2    0    0  0.37867954251E+02 -0.12867866141E+02  0.73213231011E+01  0.50528859452E+02  0.29999998789E+02 0.  0.
        -12    1    1    2    0    0 -0.37867954251E+02  0.12867866141E+02 -0.73213231011E+01  0.40659140548E+02  0.00000000000E+00 0.  1.
         11    1    3    3    0    0  0.70171919509E+01 -0.63849590782E+01 -0.36395881096E+01  0.10161460878E+02  0.51100000000E-03 0. -1.
        -11    1    3    3    0    0  0.13496060233E+02 -0.11373020245E+02  0.13417636783E+02  0.22170300142E+02  0.51100000000E-03 0.  1.
        -12    1    3    3    0    0  0.17354702068E+02  0.48901131820E+01 -0.24567255722E+01  0.18197098431E+02  0.00000000000E+00 0.  1.
</event>
<event>
 7    1  0.1024956E-012  0.5052886E+02  0.7816164E-02  0.1300439E+00
        -11   -1    0    0    0    0  0.00000000000E+00  0.00000000000E+00  0.45593999997E+02  0.45594000000E+02  0.51100000000E-03 0. -1.
         11   -1    0    0    0    0 -0.00000000000E+00 -0.00000000000E+00 -0.45593999997E+02  0.45594000000E+02  0.51100000000E-03 0.  1.
    9900012    2    1    2    0    0 -0.22361054913E+02 -0.13201727028E+02  0.31286785675E+02  0.50528864111E+02  0.30000012951E+02 0.  0.
        -12    1    1    2    0    0  0.22361054913E+02  0.13201727028E+02 -0.31286785675E+02  0.40659135889E+02  0.00000000000E+00 0.  1.
         11    1    3    3    0    0 -0.19755775062E+02 -0.64315391606E+01  0.31617810239E+02  0.37833071100E+02  0.51100000000E-03 0. -1.
        -11    1    3    3    0    0  0.32522839021E+01 -0.25792618581E+01 -0.28838282632E+01  0.50543454597E+01  0.51100000000E-03 0.  1.
        -12    1    3    3    0    0 -0.58575637537E+01 -0.41909260097E+01  0.25528036993E+01  0.76414475510E+01  0.00000000000E+00 0.  1.
</event>
<event>
 7    1  0.1024956E-012  0.5052886E+02  0.7816164E-02  0.1300439E+00
        -11   -1    0    0    0    0  0.00000000000E+00  0.00000000000E+00  0.45593999997E+02  0.45594000000E+02  0.51100000000E-03 0. -1.
         11   -1    0    0    0    0 -0.00000000000E+00 -0.00000000000E+00 -0.45593999997E+02  0.45594000000E+02  0.51100000000E-03 0.  1.
    9900012    2    1    2    0    0 -0.31129262912E+01 -0.39241329135E+01  0.40349430534E+02  0.50528859900E+02  0.30000000153E+02 0.  0.
        -12    1    1    2    0    0  0.31129262912E+01  0.39241329135E+01 -0.40349430534E+02  0.40659140100E+02  0.00000000000E+00 0.  1.
         11    1    3    3    0    0 -0.70093098798E+01  0.96815801483E+01  0.23186578034E+02  0.26086027301E+02  0.51100000000E-03 0. -1.
        -11    1    3    3    0    0 -0.16379649340E+01 -0.49757166424E+01  0.10463736274E+01  0.53418707640E+01  0.51100000000E-03 0.  1.
         12    1    3    3    0    0  0.55343485226E+01 -0.86299964194E+01  0.16116478873E+02  0.19100961835E+02  0.00000000000E+00 0. -1.
</event>
<event>
 7    1  0.1024956E-012  0.5052886E+02  0.7816164E-02  0.1300439E+00
        -11   -1    0    0    0    0  0.00000000000E+00  0.00000000000E+00  0.45593999997E+02  0.45594000000E+02  0.51100000000E-03 0. -1.
         11   -1    0    0    0    0 -0.00000000000E+00 -0.00000000000E+00 -0.45593999997E+02  0.45594000000E+02  0.51100000000E-03 0.  1.
    9900012    2    1    2    0    0  0.73893346592E+01 -0.35666115942E+02  0.18069077121E+02  0.50528860301E+02  0.30000001370E+02 0.  0.
        -12    1    1    2    0    0 -0.73893346592E+01  0.35666115942E+02 -0.18069077121E+02  0.40659139699E+02  0.00000000000E+00 0.  1.
         11    1    3    3    0    0  0.17776075622E+02 -0.29788181635E+02  0.11301179691E+02  0.36483438603E+02  0.51100000000E-03 0. -1.
        -11    1    3    3    0    0 -0.32058065388E+01 -0.32838937284E+00  0.15359246104E+01  0.35698879274E+01  0.51100000000E-03 0.  1.
         12    1    3    3    0    0 -0.71809344242E+01 -0.55495449339E+01  0.52319728201E+01  0.10475533770E+02  0.00000000000E+00 0. -1.
</event>
<event>
 7    1  0.1024956E-012  0.5052885E+02  0.7816164E-02  0.1300439E+00
        -11   -1    0    0    0    0  0.00000000000E+00  0.00000000000E+00  0.45593999997E+02  0.45594000000E+02  0.51100000000E-03 0.  1.
         11   -1    0    0    0    0 -0.00000000000E+00 -0.00000000000E+00 -0.45593999997E+02  0.45594000000E+02  0.51100000000E-03 0. -1.
    9900012    2    1    2    0    0  0.79682662906E+01  0.19885313869E+02 -0.34557884372E+02  0.50528851612E+02  0.29999974960E+02 0.  0.
        -12    1    1    2    0    0 -0.79682662906E+01 -0.19885313869E+02  0.34557884372E+02  0.40659148388E+02  0.00000000000E+00 0.  1.
         11    1    3    3    0    0  0.94058877980E+01  0.19457300878E+02 -0.23882312907E+02  0.32209038371E+02  0.51100000000E-03 0. -1.
        -11    1    3    3    0    0 -0.26316052993E+01 -0.23560503572E+01 -0.13634867002E+02  0.14084953609E+02  0.51100000000E-03 0.  1.
        -12    1    3    3    0    0  0.11939837919E+01  0.27840633479E+01  0.29592955375E+01  0.42348596316E+01  0.00000000000E+00 0.  1.
</event>
<event>
 7    1  0.1024956E-012  0.5052888E+02  0.7816164E-02  0.1300439E+00
        -11   -1    0    0    0    0  0.00000000000E+00  0.00000000000E+00  0.45593999997E+02  0.45594000000E+02  0.51100000000E-03 0. -1.
         11   -1    0    0    0    0 -0.00000000000E+00 -0.00000000000E+00 -0.45593999997E+02  0.45594000000E+02  0.51100000000E-03 0.  1.
    9900012    2    1    2    0    0  0.51541709021E+00  0.31484288185E+02  0.25722326301E+02  0.50528878912E+02  0.30000057941E+02 0.  0.
        -12    1    1    2    0    0 -0.51541709021E+00 -0.31484288185E+02 -0.25722326301E+02  0.40659121088E+02  0.00000000000E+00 0.  1.
         11    1    3    3    0    0  0.33183135474E+01 -0.19676174141E+01  0.28961557272E+01  0.48239445835E+01  0.51100000000E-03 0. -1.
        -11    1    3    3    0    0 -0.83186703135E+00  0.36183142498E+02  0.20321272860E+02  0.41507420237E+02  0.51100000000E-03 0.  1.
        -12    1    3    3    0    0 -0.19710294259E+01 -0.27312368989E+01  0.25048977139E+01  0.41975140920E+01  0.00000000000E+00 0.  1.
</event>
<event>
 7    1  0.1024956E-012  0.5052886E+02  0.7816164E-02  0.1300439E+00
        -11   -1    0    0    0    0  0.00000000000E+00  0.00000000000E+00  0.45593999997E+02  0.45594000000E+02  0.51100000000E-03 0.  1.
         11   -1    0    0    0    0 -0.00000000000E+00 -0.00000000000E+00 -0.45593999997E+02  0.45594000000E+02  0.51100000000E-03 0. -1.
    9900012    2    1    2    0    0  0.14419137246E+02  0.27910744683E+01 -0.37913900569E+02  0.50528862380E+02  0.30000007691E+02 0.  0.
        -12    1    1    2    0    0 -0.14419137246E+02 -0.27910744683E+01  0.37913900569E+02  0.40659137620E+02  0.00000000000E+00 0.  1.
         11    1    3    3    0    0  0.21314044742E+01  0.73681954684E+01  0.18117572456E+01  0.78813484932E+01  0.51100000000E-03 0. -1.
        -11    1    3    3    0    0  0.19121836953E+01 -0.46433759258E+01 -0.10611348262E+02  0.11739595336E+02  0.51100000000E-03 0.  1.
         12    1    3    3    0    0  0.10375549077E+02  0.66254925691E-01 -0.29114309553E+02  0.30907918551E+02  0.00000000000E+00 0. -1.
</event>
<event>
 7    1  0.1024956E-012  0.5052887E+02  0.7816164E-02  0.1300439E+00
        -11   -1    0    0    0    0  0.00000000000E+00  0.00000000000E+00  0.45593999997E+02  0.45594000000E+02  0.51100000000E-03 0.  1.
         11   -1    0    0    0    0 -0.00000000000E+00 -0.00000000000E+00 -0.45593999997E+02  0.45594000000E+02  0.51100000000E-03 0. -1.
    9900012    2    1    2    0    0  0.33824519756E+02 -0.11531822848E+02  0.19392886665E+02  0.50528866609E+02  0.30000020543E+02 0.  0.
        -12    1    1    2    0    0 -0.33824519756E+02  0.11531822848E+02 -0.19392886665E+02  0.40659133391E+02  0.00000000000E+00 0.  1.
         11    1    3    3    0    0  0.32851227493E+02 -0.73078265957E+01  0.22568406224E+02  0.40520864220E+02  0.51100000000E-03 0. -1.
        -11    1    3    3    0    0 -0.34937567831E+01 -0.34488758929E+00 -0.62745374375E+00  0.35663682326E+01  0.51100000000E-03 0.  1.
         12    1    3    3    0    0  0.44670490462E+01 -0.38791086632E+01 -0.25480658154E+01  0.64416341561E+01  0.00000000000E+00 0. -1.
</event>
<event>
 7    1  0.1024956E-012  0.5052885E+02  0.7816164E-02  0.1300439E+00
        -11   -1    0    0    0    0  0.00000000000E+00  0.00000000000E+00  0.45593999997E+02  0.45594000000E+02  0.51100000000E-03 0.  1.
         11   -1    0    0    0    0 -0.00000000000E+00 -0.00000000000E+00 -0.45593999997E+02  0.45594000000E+02  0.51100000000E-03 0. -1.
    9900012    2    1    2    0    0 -0.66921297086E+01 -0.81061815310E+01 -0.39276856181E+02  0.50528853298E+02  0.29999980086E+02 0.  0.
        -12    1    1    2    0    0  0.66921297086E+01  0.81061815310E+01  0.39276856181E+02  0.40659146702E+02  0.00000000000E+00 0.  1.
         11    1    3    3    0    0  0.29214248259E+01  0.72751029054E+01 -0.15806656333E+02  0.17644042337E+02  0.51100000000E-03 0. -1.
        -11    1    3    3    0    0 -0.12722930564E+02 -0.15054992985E+02 -0.21599289260E+02  0.29241324743E+02  0.51100000000E-03 0.  1.
        -12    1    3    3    0    0  0.31093760291E+01 -0.32629145186E+00 -0.18709105880E+01  0.36434862193E+01  0.00000000000E+00 0.  1.
</event>
<event>
 7    1  0.1024956E-012  0.5052885E+02  0.7816164E-02  0.1300439E+00
        -11   -1    0    0    0    0  0.00000000000E+00  0.00000000000E+00  0.45593999997E+02  0.45594000000E+02  0.51100000000E-03 0.  1.
         11   -1    0    0    0    0 -0.00000000000E+00 -0.00000000000E+00 -0.45593999997E+02  0.45594000000E+02  0.51100000000E-03 0. -1.
    9900012    2    1    2    0    0  0.24325928356E+02  0.15040204097E+02 -0.28899959738E+02  0.50528853397E+02  0.29999980384E+02 0.  0.
        -12    1    1    2    0    0 -0.24325928356E+02 -0.15040204097E+02  0.28899959738E+02  0.40659146603E+02  0.00000000000E+00 0.  1.
         11    1    3    3    0    0 -0.10194369303E+01  0.14250992747E+02 -0.15823185538E+02  0.21319081752E+02  0.51100000000E-03 0. -1.
        -11    1    3    3    0    0  0.52109407666E+01 -0.21351396682E+01 -0.16182876444E+01  0.58593156799E+01  0.51100000000E-03 0.  1.
         12    1    3    3    0    0  0.20134424519E+02  0.29243510189E+01 -0.11458486555E+02  0.23350455964E+02  0.00000000000E+00 0. -1.
</event>
<event>
 7    1  0.1024956E-012  0.5052886E+02  0.7816164E-02  0.1300439E+00
        -11   -1    0    0    0    0  0.00000000000E+00  0.00000000000E+00  0.45593999997E+02  0.45594000000E+02  0.51100000000E-03 0.  1.
         11   -1    0    0    0    0 -0.00000000000E+00 -0.00000000000E+00 -0.45593999997E+02  0.45594000000E+02  0.51100000000E-03 0. -1.
    9900012    2    1    2    0    0 -0.67742891056E+01 -0.15842523910E+02 -0.36827829626E+02  0.50528860908E+02  0.30000003217E+02 0.  0.
        -12    1    1    2    0    0  0.67742891056E+01  0.15842523910E+02  0.36827829626E+02  0.40659139092E+02  0.00000000000E+00 0.  1.
         11    1    3    3    0    0 -0.48149978213E+01 -0.13461947284E+02 -0.18778422530E+02  0.23601639385E+02  0.51100000000E-03 0. -1.
        -11    1    3    3    0    0 -0.22747717486E+01  0.10101993186E+00  0.40716884261E+01  0.46651300555E+01  0.51100000000E-03 0.  1.
        -12    1    3    3    0    0  0.31548046428E+00 -0.24815965573E+01 -0.22121095522E+02  0.22262091467E+02  0.00000000000E+00 0.  1.
</event>
<event>
 7    1  0.1024956E-012  0.5052886E+02  0.7816164E-02  0.1300439E+00
        -11   -1    0    0    0    0  0.00000000000E+00  0.00000000000E+00  0.45593999997E+02  0.45594000000E+02  0.51100000000E-03 0.  1.
         11   -1    0    0    0    0 -0.00000000000E+00 -0.00000000000E+00 -0.45593999997E+02  0.45594000000E+02  0.51100000000E-03 0. -1.
    9900012    2    1    2    0    0  0.33257782133E+02 -0.11173925821E+02 -0.20548208627E+02  0.50528861194E+02  0.30000004086E+02 0.  0.
        -12    1    1    2    0    0 -0.33257782133E+02  0.11173925821E+02  0.20548208627E+02  0.40659138806E+02  0.00000000000E+00 0.  1.
         11    1    3    3    0    0  0.19122157916E+02 -0.19498984838E+02 -0.52080956831E+01  0.27802726377E+02  0.51100000000E-03 0. -1.
        -11    1    3    3    0    0  0.28114588660E+01  0.34063116340E+01 -0.42829637100E+01  0.61523197500E+01  0.51100000000E-03 0.  1.
         12    1    3    3    0    0  0.11324165351E+02  0.49187473826E+01 -0.11057149234E+02  0.16573815067E+02  0.00000000000E+00 0. -1.
</event>
<event>
 7    1  0.1024956E-012  0.5052886E+02  0.7816164E-02  0.1300439E+00
        -11   -1    0    0    0    0  0.00000000000E+00  0.00000000000E+00  0.45593999997E+02  0.45594000000E+02  0.51100000000E-03 0. -1.
         11   -1    0    0    0    0 -0.00000000000E+00 -0.00000000000E+00 -0.45593999997E+02  0.45594000000E+02  0.51100000000E-03 0.  1.
    9900012    2    1    2    0    0 -0.25296964203E+02 -0.88472675217E+01  0.30577034686E+02  0.50528860921E+02  0.30000003256E+02 0.  0.
        -12    1    1    2    0    0  0.25296964203E+02  0.88472675217E+01 -0.30577034686E+02  0.40659139079E+02  0.00000000000E+00 0.  1.
         11    1    3    3    0    0 -0.69459868870E+01  0.10245746893E+02  0.10307480308E+02  0.16107954985E+02  0.51100000000E-03 0. -1.
        -11    1    3    3    0    0 -0.46279642873E+01 -0.94647472321E+01  0.46790311698E+01  0.11527915100E+02  0.51100000000E-03 0.  1.
         12    1    3    3    0    0 -0.13723013029E+02 -0.96282671826E+01  0.15590523208E+02  0.22892990836E+02  0.00000000000E+00 0. -1.
</event>
<event>
 7    1  0.1024956E-012  0.5052886E+02  0.7816164E-02  0.1300439E+00
        -11   -1    0    0    0    0  0.00000000000E+00  0.00000000000E+00  0.45593999997E+02  0.45594000000E+02  0.51100000000E-03 0.  1.
         11   -1    0    0    0    0 -0.00000000000E+00 -0.00000000000E+00 -0.45593999997E+02  0.45594000000E+02  0.51100000000E-03 0. -1.
    9900012    2    1    2    0    0 -0.26708841744E+02  0.14381295082E+02 -0.27073632396E+02  0.50528862692E+02  0.30000008639E+02 0.  0.
        -12    1    1    2    0    0  0.26708841744E+02 -0.14381295082E+02  0.27073632396E+02  0.40659137308E+02  0.00000000000E+00 0.  1.
         11    1    3    3    0    0 -0.13947744694E+02 -0.51825722367E+01 -0.16083286086E+02  0.21910516393E+02  0.51100000000E-03 0. -1.
        -11    1    3    3    0    0 -0.69597067802E+01  0.11266746223E+02  0.56526777790E+00  0.13255060047E+02  0.51100000000E-03 0.  1.
        -12    1    3    3    0    0 -0.58013902696E+01  0.82971210958E+01 -0.11555614087E+02  0.15363286252E+02  0.00000000000E+00 0.  1.
</event>
<event>
 7    1  0.1024956E-012  0.5052886E+02  0.7816164E-02  0.1300439E+00
        -11   -1    0    0    0    0  0.00000000000E+00  0.00000000000E+00  0.45593999997E+02  0.45594000000E+02  0.51100000000E-03 0.  1.
         11   -1    0    0    0    0 -0.00000000000E+00 -0.00000000000E+00 -0.45593999997E+02  0.45594000000E+02  0.51100000000E-03 0. -1.
    9900012    2    1    2    0    0  0.16871924853E+02 -0.31514936523E+02 -0.19372990334E+02  0.50528858018E+02  0.29999994431E+02 0.  0.
        -12    1    1    2    0    0 -0.16871924853E+02  0.31514936523E+02  0.19372990334E+02  0.40659141982E+02  0.00000000000E+00 0.  1.
         11    1    3    3    0    0  0.12353764313E+02 -0.83150358803E+01 -0.17986368020E+00  0.14892537245E+02  0.51100000000E-03 0. -1.
        -11    1    3    3    0    0 -0.61520577953E+01 -0.26185660055E+01 -0.28304424611E+01  0.72605859150E+01  0.51100000000E-03 0.  1.
        -12    1    3    3    0    0  0.10670218335E+02 -0.20581334637E+02 -0.16362684192E+02  0.28375734858E+02  0.00000000000E+00 0.  1.
</event>
<event>
 7    1  0.1025772E-012  0.5052884E+02  0.7816164E-02  0.1300439E+00
        -11   -1    0    0    0    0  0.00000000000E+00  0.00000000000E+00  0.45593999997E+02  0.45594000000E+02  0.51100000000E-03 0.  1.
         11   -1    0    0    0    0 -0.00000000000E+00 -0.00000000000E+00 -0.45593999997E+02  0.45594000000E+02  0.51100000000E-03 0. -1.
    9900012    2    1    2    0    0  0.14093317488E+02 -0.38048240344E+02 -0.26224039717E+01  0.50528841208E+02  0.29999943334E+02 0.  0.
        -12    1    1    2    0    0 -0.14093317488E+02  0.38048240344E+02  0.26224039717E+01  0.40659158792E+02  0.00000000000E+00 0.  1.
         11    1    3    3    0    0  0.15927120871E+02 -0.31775992492E+02 -0.28492505578E+01  0.35658170272E+02  0.51100000000E-03 0. -1.
        -11    1    3    3    0    0 -0.70516883312E+01 -0.36887534309E+01 -0.26347541194E+01  0.83830268832E+01  0.51100000000E-03 0.  1.
        -12    1    3    3    0    0  0.52178849485E+01 -0.25834944209E+01  0.28616007055E+01  0.64876440528E+01  0.00000000000E+00 0.  1.
</event>
<event>
 7    1  0.1024956E-012  0.5052886E+02  0.7816164E-02  0.1300439E+00
        -11   -1    0    0    0    0  0.00000000000E+00  0.00000000000E+00  0.45593999997E+02  0.45594000000E+02  0.51100000000E-03 0.  1.
         11   -1    0    0    0    0 -0.00000000000E+00 -0.00000000000E+00 -0.45593999997E+02  0.45594000000E+02  0.51100000000E-03 0. -1.
    9900012    2    1    2    0    0 -0.31836123529E+02  0.20722818229E+02 -0.14497991154E+02  0.50528859524E+02  0.29999999010E+02 0.  0.
        -12    1    1    2    0    0  0.31836123529E+02 -0.20722818229E+02  0.14497991154E+02  0.40659140476E+02  0.00000000000E+00 0.  1.
         11    1    3    3    0    0 -0.43268233040E+01 -0.23420928174E+01 -0.13561304901E+02  0.14426218824E+02  0.51100000000E-03 0. -1.
        -11    1    3    3    0    0 -0.16713934347E+02  0.16172738796E+02  0.39948182303E-01  0.23257572479E+02  0.51100000000E-03 0.  1.
         12    1    3    3    0    0 -0.10795365878E+02  0.68921722511E+01 -0.97663443499E+00  0.12845068221E+02  0.00000000000E+00 0. -1.
</event>
<event>
 7    1  0.1024956E-012  0.5052886E+02  0.7816164E-02  0.1300439E+00
        -11   -1    0    0    0    0  0.00000000000E+00  0.00000000000E+00  0.45593999997E+02  0.45594000000E+02  0.51100000000E-03 0.  1.
         11   -1    0    0    0    0 -0.00000000000E+00 -0.00000000000E+00 -0.45593999997E+02  0.45594000000E+02  0.51100000000E-03 0. -1.
    9900012    2    1    2    0    0  0.40807048827E+01  0.36228924132E+02  0.17999414464E+02  0.50528855676E+02  0.29999987314E+02 0.  0.
        -12    1    1    2    0    0 -0.40807048827E+01 -0.36228924132E+02 -0.17999414464E+02  0.40659144324E+02  0.00000000000E+00 0.  1.
         11    1    3    3    0    0 -0.83814394229E+01  0.26942768133E+02  0.15683253366E+02  0.32281972026E+02  0.51100000000E-03 0. -1.
        -11    1    3    3    0    0  0.11299333196E+02  0.63761877661E+01 -0.17732619894E+01  0.13094852403E+02  0.51100000000E-03 0.  1.
         12    1    3    3    0    0  0.11628111092E+01  0.29099682328E+01  0.40894230869E+01  0.51520312475E+01  0.00000000000E+00 0. -1.
</event>
<event>
 7    1  0.1024956E-012  0.5052886E+02  0.7816164E-02  0.1300439E+00
        -11   -1    0    0    0    0  0.00000000000E+00  0.00000000000E+00  0.45593999997E+02  0.45594000000E+02  0.51100000000E-03 0.  1.
         11   -1    0    0    0    0 -0.00000000000E+00 -0.00000000000E+00 -0.45593999997E+02  0.45594000000E+02  0.51100000000E-03 0. -1.
    9900012    2    1    2    0    0  0.10936787234E+02 -0.22485494630E+02 -0.32061738201E+02  0.50528857852E+02  0.29999993926E+02 0.  0.
        -12    1    1    2    0    0 -0.10936787234E+02  0.22485494630E+02  0.32061738201E+02  0.40659142148E+02  0.00000000000E+00 0.  1.
         11    1    3    3    0    0 -0.93994421265E+01 -0.97270540215E+01 -0.14339435166E+02  0.19712546598E+02  0.51100000000E-03 0. -1.
        -11    1    3    3    0    0  0.11242468460E+02 -0.83675562741E+01 -0.57356265686E+01  0.15142869855E+02  0.51100000000E-03 0.  1.
         12    1    3    3    0    0  0.90937609013E+01 -0.43908843343E+01 -0.11986676466E+02  0.15673441398E+02  0.00000000000E+00 0. -1.
</event>
<event>
 7    1  0.1024956E-012  0.5052888E+02  0.7816164E-02  0.1300439E+00
        -11   -1    0    0    0    0  0.00000000000E+00  0.00000000000E+00  0.45593999997E+02  0.45594000000E+02  0.51100000000E-03 0.  1.
         11   -1    0    0    0    0 -0.00000000000E+00 -0.00000000000E+00 -0.45593999997E+02  0.45594000000E+02  0.51100000000E-03 0. -1.
    9900012    2    1    2    0    0  0.28783552707E+02 -0.27905090554E+02  0.67806180141E+01  0.50528883361E+02  0.30000071463E+02 0.  0.
        -12    1    1    2    0    0 -0.28783552707E+02  0.27905090554E+02 -0.67806180141E+01  0.40659116639E+02  0.00000000000E+00 0.  1.
         11    1    3    3    0    0  0.96532085896E+01 -0.23563168161E+02 -0.55225835996E+01  0.26055829669E+02  0.51100000000E-03 0. -1.
        -11    1    3    3    0    0  0.47740426366E+01  0.21350255228E+01  0.44854499844E+01  0.68897807587E+01  0.51100000000E-03 0.  1.
         12    1    3    3    0    0  0.14356301481E+02 -0.64769479155E+01  0.78177516293E+01  0.17583272933E+02  0.00000000000E+00 0. -1.
</event>
<event>
 7    1  0.1254369E-012  0.5052886E+02  0.7816164E-02  0.1300439E+00
        -11   -1    0    0    0    0  0.00000000000E+00  0.00000000000E+00  0.45593999997E+02  0.45594000000E+02  0.51100000000E-03 0. -1.
         11   -1    0    0    0    0 -0.00000000000E+00 -0.00000000000E+00 -0.45593999997E+02  0.45594000000E+02  0.51100000000E-03 0.  1.
    9900012    2    1    2    0    0 -0.41218946863E+01  0.22560744041E+02  0.33573622957E+02  0.50528863930E+02  0.30000012403E+02 0.  0.
        -12    1    1    2    0    0  0.41218946863E+01 -0.22560744041E+02 -0.33573622957E+02  0.40659136070E+02  0.00000000000E+00 0.  1.
         11    1    3    3    0    0  0.39502083029E+01  0.67358000758E+01  0.12242261555E+02  0.14520610061E+02  0.51100000000E-03 0. -1.
        -11    1    3    3    0    0 -0.11167231782E+02  0.19304008977E+02  0.11415090961E+02  0.25053066283E+02  0.51100000000E-03 0.  1.
        -12    1    3    3    0    0  0.30951287924E+01 -0.34790650124E+01  0.99162704408E+01  0.10955187587E+02  0.00000000000E+00 0.  1.
</event>
<event>
 7    1  0.1024956E-012  0.5052900E+02  0.7816164E-02  0.1300438E+00
        -11   -1    0    0    0    0  0.00000000000E+00  0.00000000000E+00  0.45593999997E+02  0.45594000000E+02  0.51100000000E-03 0.  1.
         11   -1    0    0    0    0 -0.00000000000E+00 -0.00000000000E+00 -0.45593999997E+02  0.45594000000E+02  0.51100000000E-03 0. -1.
    9900012    2    1    2    0    0  0.12251945483E+02 -0.36304895015E+02 -0.13601435029E+02  0.50528996016E+02  0.30000413886E+02 0.  0.
        -12    1    1    2    0    0 -0.12251945483E+02  0.36304895015E+02  0.13601435029E+02  0.40659003984E+02  0.00000000000E+00 0.  1.
         11    1    3    3    0    0 -0.61910536170E+01 -0.23005828333E+02 -0.49464250572E+01  0.24332373564E+02  0.51100000000E-03 0. -1.
        -11    1    3    3    0    0  0.40128585810E+01  0.12594066957E+01 -0.18890424829E+01  0.46105987658E+01  0.51100000000E-03 0.  1.
         12    1    3    3    0    0  0.14430140519E+02 -0.14558473377E+02 -0.67659674892E+01  0.21586023685E+02  0.00000000000E+00 0. -1.
</event>
<event>
 7    1  0.1024956E-012  0.5052886E+02  0.7816164E-02  0.1300439E+00
        -11   -1    0    0    0    0  0.00000000000E+00  0.00000000000E+00  0.45593999997E+02  0.45594000000E+02  0.51100000000E-03 0. -1.
         11   -1    0    0    0    0 -0.00000000000E+00 -0.00000000000E+00 -0.45593999997E+02  0.45594000000E+02  0.51100000000E-03 0.  1.
    9900012    2    1    2    0    0  0.33694863211E+02  0.15879961552E+02  0.16298741043E+02  0.50528856560E+02  0.29999989999E+02 0.  0.
        -12    1    1    2    0    0 -0.33694863211E+02 -0.15879961552E+02 -0.16298741043E+02  0.40659143440E+02  0.00000000000E+00 0.  1.
         11    1    3    3    0    0  0.17483293291E+02 -0.13312788925E+01  0.13528297032E+02  0.22146166003E+02  0.51100000000E-03 0. -1.
        -11    1    3    3    0    0  0.12241818981E+02  0.98022176027E+01 -0.54723485623E+01  0.16610003039E+02  0.51100000000E-03 0.  1.
         12    1    3    3    0    0  0.39697509394E+01  0.74090228414E+01  0.82427925734E+01  0.11772687518E+02  0.00000000000E+00 0. -1.
</event>
<event>
 7    1  0.1024956E-012  0.5052884E+02  0.7816164E-02  0.1300439E+00
        -11   -1    0    0    0    0  0.00000000000E+00  0.00000000000E+00  0.45593999997E+02  0.45594000000E+02  0.51100000000E-03 0. -1.
         11   -1    0    0    0    0 -0.00000000000E+00 -0.00000000000E+00 -0.45593999997E+02  0.45594000000E+02  0.51100000000E-03 0.  1.
    9900012    2    1    2    0    0 -0.27930761158E+02  0.22553962938E+02 -0.19088185811E+02  0.50528837433E+02  0.29999931863E+02 0.  0.
        -12    1    1    2    0    0  0.27930761158E+02 -0.22553962938E+02  0.19088185811E+02  0.40659162567E+02  0.00000000000E+00 0.  1.
         11    1    3    3    0    0 -0.24669006515E+02  0.18927258577E+02 -0.16295581815E+02  0.35104800051E+02  0.51100000000E-03 0. -1.
        -11    1    3    3    0    0  0.36427307039E+01  0.24052398928E+01 -0.62363680266E+01  0.76122895601E+01  0.51100000000E-03 0.  1.
         12    1    3    3    0    0 -0.69044853468E+01  0.12214644688E+01  0.34437640302E+01  0.78117478229E+01  0.00000000000E+00 0. -1.
</event>
<event>
 7    1  0.1024956E-012  0.5052886E+02  0.7816164E-02  0.1300439E+00
        -11   -1    0    0    0    0  0.00000000000E+00  0.00000000000E+00  0.45593999997E+02  0.45594000000E+02  0.51100000000E-03 0.  1.
         11   -1    0    0    0    0 -0.00000000000E+00 -0.00000000000E+00 -0.45593999997E+02  0.45594000000E+02  0.51100000000E-03 0. -1.
    9900012    2    1    2    0    0 -0.77601133066E+01 -0.23333514722E+02 -0.32380449219E+02  0.50528858846E+02  0.29999996948E+02 0.  0.
        -12    1    1    2    0    0  0.77601133066E+01  0.23333514722E+02  0.32380449219E+02  0.40659141154E+02  0.00000000000E+00 0.  1.
         11    1    3    3    0    0 -0.22011671062E+00 -0.17971514939E+02 -0.26854091141E+02  0.32313557709E+02  0.51100000000E-03 0. -1.
        -11    1    3    3    0    0 -0.80284595193E+01 -0.99229974793E+01 -0.42680960926E+01  0.13458777275E+02  0.51100000000E-03 0.  1.
         12    1    3    3    0    0  0.48846292341E+00  0.45609976970E+01 -0.12582619854E+01  0.47565238614E+01  0.00000000000E+00 0. -1.
</event>
<event>
 7    1  0.1024956E-012  0.5052885E+02  0.7816164E-02  0.1300439E+00
        -11   -1    0    0    0    0  0.00000000000E+00  0.00000000000E+00  0.45593999997E+02  0.45594000000E+02  0.51100000000E-03 0.  1.
         11   -1    0    0    0    0 -0.00000000000E+00 -0.00000000000E+00 -0.45593999997E+02  0.45594000000E+02  0.51100000000E-03 0. -1.
    9900012    2    1    2    0    0  0.17812381470E+02 -0.25316913450E+02 -0.26361711099E+02  0.50528845405E+02  0.29999956094E+02 0.  0.
        -12    1    1    2    0    0 -0.17812381470E+02  0.25316913450E+02  0.26361711099E+02  0.40659154595E+02  0.00000000000E+00 0.  1.
         11    1    3    3    0    0  0.13415790428E+02 -0.18052225515E+02 -0.20147933670E+02  0.30196117471E+02  0.51100000000E-03 0. -1.
        -11    1    3    3    0    0 -0.21842769334E+01  0.30992471540E+01  0.31203576115E+01  0.49105020648E+01  0.51100000000E-03 0.  1.
        -12    1    3    3    0    0  0.65808679753E+01 -0.10363935089E+02 -0.93341350402E+01  0.15422225870E+02  0.00000000000E+00 0.  1.
</event>
<event>
 7    1  0.1024956E-012  0.5052886E+02  0.7816164E-02  0.1300439E+00
        -11   -1    0    0    0    0  0.00000000000E+00  0.00000000000E+00  0.45593999997E+02  0.45594000000E+02  0.51100000000E-03 0.  1.
         11   -1    0    0    0    0 -0.00000000000E+00 -0.00000000000E+00 -0.45593999997E+02  0.45594000000E+02  0.51100000000E-03 0. -1.
    9900012    2    1    2    0    0  0.17084604948E+02  0.42017367146E+01 -0.36655522459E+02  0.50528860260E+02  0.30000001246E+02 0.  0.
        -12    1    1    2    0    0 -0.17084604948E+02 -0.42017367146E+01  0.36655522459E+02  0.40659139740E+02  0.00000000000E+00 0.  1.
         11    1    3    3    0    0  0.37218071403E+01 -0.52851325352E+01 -0.14823784199E+02  0.16171859897E+02  0.51100000000E-03 0. -1.
        -11    1    3    3    0    0  0.11866736380E+02  0.11051355998E+02 -0.44147492589E+01  0.16806008241E+02  0.51100000000E-03 0.  1.
        -12    1    3    3    0    0  0.14960614275E+01 -0.15644867483E+01 -0.17416989001E+02  0.17550992122E+02  0.00000000000E+00 0.  1.
</event>
<event>
 7    1  0.1024956E-012  0.5052885E+02  0.7816164E-02  0.1300439E+00
        -11   -1    0    0    0    0  0.00000000000E+00  0.00000000000E+00  0.45593999997E+02  0.45594000000E+02  0.51100000000E-03 0.  1.
         11   -1    0    0    0    0 -0.00000000000E+00 -0.00000000000E+00 -0.45593999997E+02  0.45594000000E+02  0.51100000000E-03 0. -1.
    9900012    2    1    2    0    0 -0.18991200077E+02 -0.30518591469E+02 -0.19003054978E+02  0.50528853377E+02  0.29999980324E+02 0.  0.
        -12    1    1    2    0    0  0.18991200077E+02  0.30518591469E+02  0.19003054978E+02  0.40659146623E+02  0.00000000000E+00 0.  1.
         11    1    3    3    0    0 -0.81425046721E+00 -0.10379384462E+02  0.46005950294E+01  0.11382447036E+02  0.51100000000E-03 0. -1.
        -11    1    3    3    0    0 -0.12121965370E+02 -0.15281219488E+02 -0.24517432629E+02  0.31329893336E+02  0.51100000000E-03 0.  1.
        -12    1    3    3    0    0 -0.60549842398E+01 -0.48579875181E+01  0.91378262137E+00  0.78165130045E+01  0.00000000000E+00 0.  1.
</event>
<event>
 7    1  0.1024956E-012  0.5052886E+02  0.7816164E-02  0.1300439E+00
        -11   -1    0    0    0    0  0.00000000000E+00  0.00000000000E+00  0.45593999997E+02  0.45594000000E+02  0.51100000000E-03 0.  1.
         11   -1    0    0    0    0 -0.00000000000E+00 -0.00000000000E+00 -0.45593999997E+02  0.45594000000E+02  0.51100000000E-03 0. -1.
    9900012    2    1    2    0    0 -0.67493597569E+01 -0.30427738404E+02 -0.26110623828E+02  0.50528858369E+02  0.29999995497E+02 0.  0.
        -12    1    1    2    0    0  0.67493597569E+01  0.30427738404E+02  0.26110623828E+02  0.40659141631E+02  0.00000000000E+00 0.  1.
         11    1    3    3    0    0  0.68227722265E+01 -0.28597577577E+02 -0.18597656735E+02  0.34788568531E+02  0.51100000000E-03 0. -1.
        -11    1    3    3    0    0 -0.21428910496E+01 -0.90292541026E+00 -0.83527481032E+00  0.24708178032E+01  0.51100000000E-03 0.  1.
         12    1    3    3    0    0 -0.11429240934E+02 -0.92723541605E+00 -0.66776922827E+01  0.13269472034E+02  0.00000000000E+00 0. -1.
</event>
<event>
 7    1  0.1024956E-012  0.5052886E+02  0.7816164E-02  0.1300439E+00
        -11   -1    0    0    0    0  0.00000000000E+00  0.00000000000E+00  0.45593999997E+02  0.45594000000E+02  0.51100000000E-03 0. -1.
         11   -1    0    0    0    0 -0.00000000000E+00 -0.00000000000E+00 -0.45593999997E+02  0.45594000000E+02  0.51100000000E-03 0.  1.
    9900012    2    1    2    0    0  0.72405136016E-01 -0.14340651452E+02  0.38046106155E+02  0.50528859329E+02  0.29999998416E+02 0.  0.
        -12    1    1    2    0    0 -0.72405136016E-01  0.14340651452E+02 -0.38046106155E+02  0.40659140671E+02  0.00000000000E+00 0.  1.
         11    1    3    3    0    0 -0.12877385680E+02 -0.11007833052E+02  0.24476236847E+02  0.29767190342E+02  0.51100000000E-03 0. -1.
        -11    1    3    3    0    0  0.98273299801E+01 -0.36513143896E+01  0.49605822694E+01  0.11598098466E+02  0.51100000000E-03 0.  1.
         12    1    3    3    0    0  0.31224608359E+01  0.31849598958E+00  0.86092870390E+01  0.91635705207E+01  0.00000000000E+00 0. -1.
</event>
<event>
 7    1  0.1024956E-012  0.5052887E+02  0.7816164E-02  0.1300439E+00
        -11   -1    0    0    0    0  0.00000000000E+00  0.00000000000E+00  0.45593999997E+02  0.45594000000E+02  0.51100000000E-03 0.  1.
         11   -1    0    0    0    0 -0.00000000000E+00 -0.00000000000E+00 -0.45593999997E+02  0.45594000000E+02  0.51100000000E-03 0. -1.
    9900012    2    1    2    0    0 -0.21579351533E+02  0.83242812491E+01 -0.33439542191E+02  0.50528867534E+02  0.30000023358E+02 0.  0.
        -12    1    1    2    0    0  0.21579351533E+02 -0.83242812491E+01  0.33439542191E+02  0.40659132466E+02  0.00000000000E+00 0.  1.
         11    1    3    3    0    0 -0.10333775533E+02 -0.46508528869E+01 -0.18645592686E+02  0.21819153884E+02  0.51100000000E-03 0. -1.
        -11    1    3    3    0    0 -0.72195031149E+01  0.16631067078E+02 -0.75213883119E+01  0.19628675446E+02  0.51100000000E-03 0.  1.
        -12    1    3    3    0    0 -0.40260728858E+01 -0.36559329421E+01 -0.72725611925E+01  0.90810382038E+01  0.00000000000E+00 0.  1.
</event>
<event>
 7    1  0.1024956E-012  0.5052885E+02  0.7816164E-02  0.1300439E+00
        -11   -1    0    0    0    0  0.00000000000E+00  0.00000000000E+00  0.45593999997E+02  0.45594000000E+02  0.51100000000E-03 0.  1.
         11   -1    0    0    0    0 -0.00000000000E+00 -0.00000000000E+00 -0.45593999997E+02  0.45594000000E+02  0.51100000000E-03 0. -1.
    9900012    2    1    2    0    0  0.13954430704E+02 -0.20892567487E+02 -0.31967808150E+02  0.50528852561E+02  0.29999977846E+02 0.  0.
        -12    1    1    2    0    0 -0.13954430704E+02  0.20892567487E+02  0.31967808150E+02  0.40659147439E+02  0.00000000000E+00 0.  1.
         11    1    3    3    0    0  0.95431256079E+01 -0.12399403856E+01  0.11417418890E+01  0.96908345012E+01  0.51100000000E-03 0.  1.
        -11    1    3    3    0    0  0.18939243986E+01 -0.11961432635E+02 -0.29666848257E+02  0.32043481491E+02  0.51100000000E-03 0. -1.
        -12    1    3    3    0    0  0.25173806977E+01 -0.76911944671E+01 -0.34427017829E+01  0.87945365696E+01  0.00000000000E+00 0.  1.
</event>
<event>
 7    1  0.1024956E-012  0.5052886E+02  0.7816164E-02  0.1300439E+00
        -11   -1    0    0    0    0  0.00000000000E+00  0.00000000000E+00  0.45593999997E+02  0.45594000000E+02  0.51100000000E-03 0. -1.
         11   -1    0    0    0    0 -0.00000000000E+00 -0.00000000000E+00 -0.45593999997E+02  0.45594000000E+02  0.51100000000E-03 0.  1.
    9900012    2    1    2    0    0  0.90999556885E+00 -0.10637911913E+02  0.39232284051E+02  0.50528863589E+02  0.30000011366E+02 0.  0.
        -12    1    1    2    0    0 -0.90999556885E+00  0.10637911913E+02 -0.39232284051E+02  0.40659136411E+02  0.00000000000E+00 0.  1.
         11    1    3    3    0    0 -0.10294711677E+02 -0.23268398855E+01  0.19249967108E+02  0.21953507836E+02  0.51100000000E-03 0. -1.
        -11    1    3    3    0    0  0.10681693170E+02 -0.54244629056E+01  0.44681002989E+01  0.12786214738E+02  0.51100000000E-03 0.  1.
        -12    1    3    3    0    0  0.52301407599E+00 -0.28866091223E+01  0.15514216644E+02  0.15789141016E+02  0.00000000000E+00 0.  1.
</event>
<event>
 7    1  0.1133067E-012  0.5052887E+02  0.7816164E-02  0.1300439E+00
        -11   -1    0    0    0    0  0.00000000000E+00  0.00000000000E+00  0.45593999997E+02  0.45594000000E+02  0.51100000000E-03 0.  1.
         11   -1    0    0    0    0 -0.00000000000E+00 -0.00000000000E+00 -0.45593999997E+02  0.45594000000E+02  0.51100000000E-03 0. -1.
    9900012    2    1    2    0    0  0.37398850628E+01 -0.39976621181E+02  0.64068817250E+01  0.50528866773E+02  0.30000021043E+02 0.  0.
        -12    1    1    2    0    0 -0.37398850628E+01  0.39976621181E+02 -0.64068817250E+01  0.40659133227E+02  0.00000000000E+00 0.  1.
         11    1    3    3    0    0 -0.58158060655E+01 -0.22679314541E+02  0.86049143466E+01  0.24944327199E+02  0.51100000000E-03 0. -1.
        -11    1    3    3    0    0  0.31706954138E+01  0.21836539333E+01 -0.32767201500E+01  0.50555463711E+01  0.51100000000E-03 0.  1.
        -12    1    3    3    0    0  0.63849957145E+01 -0.19480960573E+02  0.10786875285E+01  0.20528993203E+02  0.00000000000E+00 0.  1.
</event>
<event>
 7    1  0.1024956E-012  0.5052886E+02  0.7816164E-02  0.1300439E+00
        -11   -1    0    0    0    0  0.00000000000E+00  0.00000000000E+00  0.45593999997E+02  0.45594000000E+02  0.51100000000E-03 0.  1.
         11   -1    0    0    0    0 -0.00000000000E+00 -0.00000000000E+00 -0.45593999997E+02  0.45594000000E+02  0.51100000000E-03 0. -1.
    9900012    2    1    2    0    0  0.23699503966E+02 -0.32156774988E+02 -0.75789789721E+01  0.50528860952E+02  0.30000003349E+02 0.  0.
        -12    1    1    2    0    0 -0.23699503966E+02  0.32156774988E+02  0.75789789721E+01  0.40659139048E+02  0.00000000000E+00 0.  1.
         11    1    3    3    0    0  0.16481528459E+02 -0.29134077049E+02 -0.67437022668E+01  0.34145464506E+02  0.51100000000E-03 0. -1.
        -11    1    3    3    0    0  0.13732628751E+01 -0.74884302228E+00  0.65271625899E+01  0.67119645806E+01  0.51100000000E-03 0.  1.
         12    1    3    3    0    0  0.58447126322E+01 -0.22738549170E+01 -0.73624392952E+01  0.96714318646E+01  0.00000000000E+00 0. -1.
</event>
<event>
 7    1  0.1024956E-012  0.5052886E+02  0.7816164E-02  0.1300439E+00
        -11   -1    0    0    0    0  0.00000000000E+00  0.00000000000E+00  0.45593999997E+02  0.45594000000E+02  0.51100000000E-03 0.  1.
         11   -1    0    0    0    0 -0.00000000000E+00 -0.00000000000E+00 -0.45593999997E+02  0.45594000000E+02  0.51100000000E-03 0. -1.
    9900012    2    1    2    0    0  0.32815983889E+02  0.21981496342E+02 -0.96483657514E+01  0.50528856604E+02  0.29999990133E+02 0.  0.
        -12    1    1    2    0    0 -0.32815983889E+02 -0.21981496342E+02  0.96483657514E+01  0.40659143396E+02  0.00000000000E+00 0.  1.
         11    1    3    3    0    0  0.10295581215E+02  0.78475014854E+01  0.28446253238E+01  0.13254213127E+02  0.51100000000E-03 0. -1.
        -11    1    3    3    0    0  0.10104516468E+02 -0.47748512195E+01 -0.90765024924E+01  0.14397338469E+02  0.51100000000E-03 0.  1.
        -12    1    3    3    0    0  0.12415886206E+02  0.18908846076E+02 -0.34164885828E+01  0.22877305008E+02  0.00000000000E+00 0.  1.
</event>
<event>
 7    1  0.1024956E-012  0.5052887E+02  0.7816164E-02  0.1300439E+00
        -11   -1    0    0    0    0  0.00000000000E+00  0.00000000000E+00  0.45593999997E+02  0.45594000000E+02  0.51100000000E-03 0.  1.
         11   -1    0    0    0    0 -0.00000000000E+00 -0.00000000000E+00 -0.45593999997E+02  0.45594000000E+02  0.51100000000E-03 0. -1.
    9900012    2    1    2    0    0 -0.21147169502E+02 -0.21064541953E+02 -0.27608829153E+02  0.50528866305E+02  0.30000019621E+02 0.  0.
        -12    1    1    2    0    0  0.21147169502E+02  0.21064541953E+02  0.27608829153E+02  0.40659133695E+02  0.00000000000E+00 0.  1.
         11    1    3    3    0    0  0.29902300430E+01 -0.10195100626E+02  0.11885705362E+00  0.10625237868E+02  0.51100000000E-03 0. -1.
        -11    1    3    3    0    0 -0.18456548174E+02 -0.30414661488E+01 -0.15365109635E+02  0.24207050238E+02  0.51100000000E-03 0.  1.
         12    1    3    3    0    0 -0.56808513702E+01 -0.78279751775E+01 -0.12362576572E+02  0.15696578199E+02  0.00000000000E+00 0. -1.
</event>
<event>
 7    1  0.1024956E-012  0.5052886E+02  0.7816164E-02  0.1300439E+00
        -11   -1    0    0    0    0  0.00000000000E+00  0.00000000000E+00  0.45593999997E+02  0.45594000000E+02  0.51100000000E-03 0.  1.
         11   -1    0    0    0    0 -0.00000000000E+00 -0.00000000000E+00 -0.45593999997E+02  0.45594000000E+02  0.51100000000E-03 0. -1.
    9900012    2    1    2    0    0 -0.24781737912E+02 -0.28934023545E+00 -0.32232713219E+02  0.50528855234E+02  0.29999985968E+02 0.  0.
        -12    1    1    2    0    0  0.24781737912E+02  0.28934023545E+00  0.32232713219E+02  0.40659144766E+02  0.00000000000E+00 0.  1.
         11    1    3    3    0    0 -0.15447586510E+02 -0.33018010866E+01 -0.13805104487E+02  0.20978816209E+02  0.51100000000E-03 0. -1.
        -11    1    3    3    0    0  0.56764152755E+01  0.54406728198E+01 -0.55524684139E+01  0.96256177392E+01  0.51100000000E-03 0.  1.
        -12    1    3    3    0    0 -0.15010566677E+02 -0.24282119687E+01 -0.12875140318E+02  0.19924421285E+02  0.00000000000E+00 0.  1.
</event>
<event>
 7    1  0.1024956E-012  0.5052885E+02  0.7816164E-02  0.1300439E+00
        -11   -1    0    0    0    0  0.00000000000E+00  0.00000000000E+00  0.45593999997E+02  0.45594000000E+02  0.51100000000E-03 0.  1.
         11   -1    0    0    0    0 -0.00000000000E+00 -0.00000000000E+00 -0.45593999997E+02  0.45594000000E+02  0.51100000000E-03 0. -1.
    9900012    2    1    2    0    0 -0.17810238217E+02  0.22755888956E+02 -0.28602993150E+02  0.50528852387E+02  0.29999977314E+02 0.  0.
        -12    1    1    2    0    0  0.17810238217E+02 -0.22755888956E+02  0.28602993150E+02  0.40659147613E+02  0.00000000000E+00 0.  1.
         11    1    3    3    0    0 -0.21856025673E+01  0.13764017249E+02 -0.21110210012E+02  0.25295572664E+02  0.51100000000E-03 0. -1.
        -11    1    3    3    0    0 -0.95406371566E+01  0.75341655449E+01  0.34425447500E+01  0.12634813906E+02  0.51100000000E-03 0.  1.
        -12    1    3    3    0    0 -0.60839984934E+01  0.14577061622E+01 -0.10935327888E+02  0.12598465817E+02  0.00000000000E+00 0.  1.
</event>
<event>
 7    1  0.1024956E-012  0.5052886E+02  0.7816164E-02  0.1300439E+00
        -11   -1    0    0    0    0  0.00000000000E+00  0.00000000000E+00  0.45593999997E+02  0.45594000000E+02  0.51100000000E-03 0.  1.
         11   -1    0    0    0    0 -0.00000000000E+00 -0.00000000000E+00 -0.45593999997E+02  0.45594000000E+02  0.51100000000E-03 0. -1.
    9900012    2    1    2    0    0 -0.38443590505E+02 -0.90438238897E+01  0.96677501717E+01  0.50528858410E+02  0.29999995622E+02 0.  0.
        -12    1    1    2    0    0  0.38443590505E+02  0.90438238897E+01 -0.96677501717E+01  0.40659141590E+02  0.00000000000E+00 0.  1.
         11    1    3    3    0    0 -0.73681910100E+01  0.25039209002E+01  0.13104482223E+02  0.15240974813E+02  0.51100000000E-03 0. -1.
        -11    1    3    3    0    0 -0.81030717221E+01 -0.44759584281E+01 -0.61277993392E+01  0.11101526930E+02  0.51100000000E-03 0.  1.
         12    1    3    3    0    0 -0.22972327773E+02 -0.70717863618E+01  0.26910672874E+01  0.24186356667E+02  0.00000000000E+00 0. -1.
</event>
<event>
 7    1  0.1407438E-012  0.5052887E+02  0.7816164E-02  0.1300439E+00
        -11   -1    0    0    0    0  0.00000000000E+00  0.00000000000E+00  0.45593999997E+02  0.45594000000E+02  0.51100000000E-03 0. -1.
         11   -1    0    0    0    0 -0.00000000000E+00 -0.00000000000E+00 -0.45593999997E+02  0.45594000000E+02  0.51100000000E-03 0.  1.
    9900012    2    1    2    0    0 -0.14714325221E+02 -0.33342813517E+02  0.18025275348E+02  0.50528866570E+02  0.30000020425E+02 0.  0.
        -12    1    1    2    0    0  0.14714325221E+02  0.33342813517E+02 -0.18025275348E+02  0.40659133430E+02  0.00000000000E+00 0.  1.
         11    1    3    3    0    0 -0.17241177603E+02 -0.15896618564E+02  0.70484854726E+01  0.24487585316E+02  0.51100000000E-03 0. -1.
        -11    1    3    3    0    0  0.29426152856E+01 -0.20406618815E+02  0.98042930170E+01  0.22830095006E+02  0.51100000000E-03 0.  1.
        -12    1    3    3    0    0 -0.41576290382E+00  0.29604238615E+01  0.11724968582E+01  0.32111862473E+01  0.00000000000E+00 0.  1.
</event>
<event>
 7    1  0.1024956E-012  0.5052886E+02  0.7816164E-02  0.1300439E+00
        -11   -1    0    0    0    0  0.00000000000E+00  0.00000000000E+00  0.45593999997E+02  0.45594000000E+02  0.51100000000E-03 0.  1.
         11   -1    0    0    0    0 -0.00000000000E+00 -0.00000000000E+00 -0.45593999997E+02  0.45594000000E+02  0.51100000000E-03 0. -1.
    9900012    2    1    2    0    0 -0.22171604948E+02  0.34082008379E+02  0.51146164015E-01  0.50528856169E+02  0.29999988812E+02 0.  0.
        -12    1    1    2    0    0  0.22171604948E+02 -0.34082008379E+02 -0.51146164015E-01  0.40659143831E+02  0.00000000000E+00 0.  1.
         11    1    3    3    0    0 -0.95650668348E+01  0.26666301503E+02  0.94556425554E+01  0.29866223661E+02  0.51100000000E-03 0. -1.
        -11    1    3    3    0    0 -0.12141661780E+02  0.12656621136E+01 -0.67351924714E+01  0.13942190260E+02  0.51100000000E-03 0.  1.
         12    1    3    3    0    0 -0.46487633355E+00  0.61500447623E+01 -0.26693039200E+01  0.67204422474E+01  0.00000000000E+00 0. -1.
</event>
<event>
 7    1  0.1024956E-012  0.5052886E+02  0.7816164E-02  0.1300439E+00
        -11   -1    0    0    0    0  0.00000000000E+00  0.00000000000E+00  0.45593999997E+02  0.45594000000E+02  0.51100000000E-03 0.  1.
         11   -1    0    0    0    0 -0.00000000000E+00 -0.00000000000E+00 -0.45593999997E+02  0.45594000000E+02  0.51100000000E-03 0. -1.
    9900012    2    1    2    0    0  0.19202780513E+02 -0.47017702473E+01 -0.35529039025E+02  0.50528855433E+02  0.29999986573E+02 0.  0.
        -12    1    1    2    0    0 -0.19202780513E+02  0.47017702473E+01  0.35529039025E+02  0.40659144567E+02  0.00000000000E+00 0.  1.
         11    1    3    3    0    0  0.39069482035E+01  0.44942504054E+01 -0.84011507800E+01  0.10297663116E+02  0.51100000000E-03 0. -1.
        -11    1    3    3    0    0  0.21389286679E+02 -0.98473118951E+01 -0.20732318743E+02  0.31373558563E+02  0.51100000000E-03 0.  1.
        -12    1    3    3    0    0 -0.60934543698E+01  0.65129124242E+00 -0.63955695023E+01  0.88576337528E+01  0.00000000000E+00 0.  1.
</event>
<event>
 7    1  0.1024956E-012  0.5052883E+02  0.7816164E-02  0.1300439E+00
        -11   -1    0    0    0    0  0.00000000000E+00  0.00000000000E+00  0.45593999997E+02  0.45594000000E+02  0.51100000000E-03 0.  1.
         11   -1    0    0    0    0 -0.00000000000E+00 -0.00000000000E+00 -0.45593999997E+02  0.45594000000E+02  0.51100000000E-03 0. -1.
    9900012    2    1    2    0    0  0.24330689350E+02 -0.91187733322E+00 -0.32563079192E+02  0.50528830174E+02  0.29999909795E+02 0.  0.
        -12    1    1    2    0    0 -0.24330689350E+02  0.91187733322E+00  0.32563079192E+02  0.40659169826E+02  0.00000000000E+00 0.  1.
         11    1    3    3    0    0 -0.22524421326E+01 -0.39983109541E+01 -0.13372893613E+02  0.14138397006E+02  0.51100000000E-03 0. -1.
        -11    1    3    3    0    0  0.69865846255E+01  0.17068358885E+01  0.20298372312E+01  0.74730109678E+01  0.51100000000E-03 0.  1.
         12    1    3    3    0    0  0.19596546857E+02  0.13795977324E+01 -0.21220022810E+02  0.28917422200E+02  0.00000000000E+00 0. -1.
</event>
<event>
 7    1  0.1024956E-012  0.5052886E+02  0.7816164E-02  0.1300439E+00
        -11   -1    0    0    0    0  0.00000000000E+00  0.00000000000E+00  0.45593999997E+02  0.45594000000E+02  0.51100000000E-03 0.  1.
         11   -1    0    0    0    0 -0.00000000000E+00 -0.00000000000E+00 -0.45593999997E+02  0.45594000000E+02  0.51100000000E-03 0. -1.
    9900012    2    1    2    0    0  0.22239268773E+02 -0.19404886521E+02 -0.27964821751E+02  0.50528856477E+02  0.29999989748E+02 0.  0.
        -12    1    1    2    0    0 -0.22239268773E+02  0.19404886521E+02  0.27964821751E+02  0.40659143523E+02  0.00000000000E+00 0.  1.
         11    1    3    3    0    0  0.97988385557E+01  0.60965501764E+01 -0.27861527213E+01  0.11872144218E+02  0.51100000000E-03 0.  1.
        -11    1    3    3    0    0  0.38513585643E+01 -0.15558206191E+02 -0.11784208044E+02  0.19893674929E+02  0.51100000000E-03 0. -1.
         12    1    3    3    0    0  0.85890716532E+01 -0.99432305057E+01 -0.13394460986E+02  0.18763037330E+02  0.00000000000E+00 0. -1.
</event>
<event>
 7    1  0.1024956E-012  0.5052885E+02  0.7816164E-02  0.1300439E+00
        -11   -1    0    0    0    0  0.00000000000E+00  0.00000000000E+00  0.45593999997E+02  0.45594000000E+02  0.51100000000E-03 0.  1.
         11   -1    0    0    0    0 -0.00000000000E+00 -0.00000000000E+00 -0.45593999997E+02  0.45594000000E+02  0.51100000000E-03 0. -1.
    9900012    2    1    2    0    0 -0.35249243806E+02  0.47520107030E+01 -0.19699642272E+02  0.50528847276E+02  0.29999961780E+02 0.  0.
        -12    1    1    2    0    0  0.35249243806E+02 -0.47520107030E+01  0.19699642272E+02  0.40659152724E+02  0.00000000000E+00 0.  1.
         11    1    3    3    0    0 -0.89408694184E+01  0.14019802956E+02 -0.10956914874E+02  0.19913513118E+02  0.51100000000E-03 0. -1.
        -11    1    3    3    0    0 -0.18440723457E+02 -0.36382267639E+01 -0.92067652710E+01  0.20929918839E+02  0.51100000000E-03 0.  1.
         12    1    3    3    0    0 -0.78676509302E+01 -0.56295654888E+01  0.46403787276E+00  0.96854153189E+01  0.00000000000E+00 0. -1.
</event>
<event>
 7    1  0.1024956E-012  0.5052886E+02  0.7816164E-02  0.1300439E+00
        -11   -1    0    0    0    0  0.00000000000E+00  0.00000000000E+00  0.45593999997E+02  0.45594000000E+02  0.51100000000E-03 0.  1.
         11   -1    0    0    0    0 -0.00000000000E+00 -0.00000000000E+00 -0.45593999997E+02  0.45594000000E+02  0.51100000000E-03 0. -1.
    9900012    2    1    2    0    0  0.15889670296E+02  0.37042179354E+02 -0.53442441580E+01  0.50528860571E+02  0.30000002193E+02 0.  0.
        -12    1    1    2    0    0 -0.15889670296E+02 -0.37042179354E+02  0.53442441580E+01  0.40659139429E+02  0.00000000000E+00 0.  1.
         11    1    3    3    0    0  0.78673918009E+01  0.16318848143E+02 -0.93479180010E+01  0.20385883098E+02  0.51100000000E-03 0. -1.
        -11    1    3    3    0    0  0.69172924663E+01  0.11768863999E+00  0.63297751513E+01  0.93770378802E+01  0.51100000000E-03 0.  1.
        -12    1    3    3    0    0  0.11049860292E+01  0.20605642571E+02 -0.23261013082E+01  0.20765939593E+02  0.00000000000E+00 0.  1.
</event>
<event>
 7    1  0.1024956E-012  0.5052885E+02  0.7816164E-02  0.1300439E+00
        -11   -1    0    0    0    0  0.00000000000E+00  0.00000000000E+00  0.45593999997E+02  0.45594000000E+02  0.51100000000E-03 0.  1.
         11   -1    0    0    0    0 -0.00000000000E+00 -0.00000000000E+00 -0.45593999997E+02  0.45594000000E+02  0.51100000000E-03 0. -1.
    9900012    2    1    2    0    0 -0.10195311961E+01 -0.36203383390E+02 -0.18478144720E+02  0.50528852874E+02  0.29999978796E+02 0.  0.
        -12    1    1    2    0    0  0.10195311961E+01  0.36203383390E+02  0.18478144720E+02  0.40659147126E+02  0.00000000000E+00 0.  1.
         11    1    3    3    0    0 -0.27048400387E+00 -0.10470619371E+01 -0.24526207368E+01  0.26804568707E+01  0.51100000000E-03 0. -1.
        -11    1    3    3    0    0  0.81640957294E+01 -0.59942680073E+01  0.45074015208E+01  0.11086044234E+02  0.51100000000E-03 0.  1.
        -12    1    3    3    0    0 -0.89131429216E+01 -0.29162053445E+02 -0.20532925504E+02  0.36762351770E+02  0.00000000000E+00 0.  1.
</event>
<event>
 7    1  0.1024956E-012  0.5052887E+02  0.7816164E-02  0.1300439E+00
        -11   -1    0    0    0    0  0.00000000000E+00  0.00000000000E+00  0.45593999997E+02  0.45594000000E+02  0.51100000000E-03 0.  1.
         11   -1    0    0    0    0 -0.00000000000E+00 -0.00000000000E+00 -0.45593999997E+02  0.45594000000E+02  0.51100000000E-03 0. -1.
    9900012    2    1    2    0    0  0.10493672066E+02 -0.39176293853E+02  0.28750784684E+01  0.50528865360E+02  0.30000016748E+02 0.  0.
        -12    1    1    2    0    0 -0.10493672066E+02  0.39176293853E+02 -0.28750784684E+01  0.40659134640E+02  0.00000000000E+00 0.  1.
         11    1    3    3    0    0  0.29945561807E+01 -0.37060719906E+01 -0.59783559679E+01  0.76448071695E+01  0.51100000000E-03 0. -1.
        -11    1    3    3    0    0  0.99372105901E+01 -0.35853159693E+02  0.39745776010E+01  0.37416500126E+02  0.51100000000E-03 0.  1.
        -12    1    3    3    0    0 -0.24380947046E+01  0.38293783082E+00  0.48788568353E+01  0.54675580647E+01  0.00000000000E+00 0.  1.
</event>
<event>
 7    1  0.1024956E-012  0.5052887E+02  0.7816164E-02  0.1300439E+00
        -11   -1    0    0    0    0  0.00000000000E+00  0.00000000000E+00  0.45593999997E+02  0.45594000000E+02  0.51100000000E-03 0. -1.
         11   -1    0    0    0    0 -0.00000000000E+00 -0.00000000000E+00 -0.45593999997E+02  0.45594000000E+02  0.51100000000E-03 0.  1.
    9900012    2    1    2    0    0  0.30183588758E+02 -0.83883652963E+01  0.25918155068E+02  0.50528874766E+02  0.30000045339E+02 0.  0.
        -12    1    1    2    0    0 -0.30183588758E+02  0.83883652963E+01 -0.25918155068E+02  0.40659125234E+02  0.00000000000E+00 0.  1.
         11    1    3    3    0    0  0.78991087416E+01 -0.68339555144E+01  0.24487615550E+02  0.26622212201E+02  0.51100000000E-03 0. -1.
        -11    1    3    3    0    0  0.11881469587E+02 -0.49947777421E+01  0.12363882468E+01  0.12947809869E+02  0.51100000000E-03 0.  1.
         12    1    3    3    0    0  0.10403010430E+02  0.34403679602E+01  0.19415127114E+00  0.10958852696E+02  0.00000000000E+00 0. -1.
</event>
<event>
 7    1  0.1024956E-012  0.5052886E+02  0.7816164E-02  0.1300439E+00
        -11   -1    0    0    0    0  0.00000000000E+00  0.00000000000E+00  0.45593999997E+02  0.45594000000E+02  0.51100000000E-03 0.  1.
         11   -1    0    0    0    0 -0.00000000000E+00 -0.00000000000E+00 -0.45593999997E+02  0.45594000000E+02  0.51100000000E-03 0. -1.
    9900012    2    1    2    0    0 -0.25155553061E+02  0.21719650336E+02 -0.23422652850E+02  0.50528859244E+02  0.29999998157E+02 0.  0.
        -12    1    1    2    0    0  0.25155553061E+02 -0.21719650336E+02  0.23422652850E+02  0.40659140756E+02  0.00000000000E+00 0.  1.
         11    1    3    3    0    0 -0.89635692505E+01 -0.44009076313E+01 -0.13963888593E+01  0.10082830148E+02  0.51100000000E-03 0.  1.
        -11    1    3    3    0    0 -0.18754418455E+02  0.24167150257E+02 -0.20830031024E+02  0.37009046946E+02  0.51100000000E-03 0. -1.
        -12    1    3    3    0    0  0.25624346441E+01  0.19534077103E+01 -0.11962329668E+01  0.34369821499E+01  0.00000000000E+00 0.  1.
</event>
<event>
 7    1  0.1024956E-012  0.5052886E+02  0.7816164E-02  0.1300439E+00
        -11   -1    0    0    0    0  0.00000000000E+00  0.00000000000E+00  0.45593999997E+02  0.45594000000E+02  0.51100000000E-03 0.  1.
         11   -1    0    0    0    0 -0.00000000000E+00 -0.00000000000E+00 -0.45593999997E+02  0.45594000000E+02  0.51100000000E-03 0. -1.
    9900012    2    1    2    0    0 -0.40293065463E+02 -0.22955552866E+01  0.49361245229E+01  0.50528855595E+02  0.29999987065E+02 0.  0.
        -12    1    1    2    0    0  0.40293065463E+02  0.22955552866E+01 -0.49361245229E+01  0.40659144405E+02  0.00000000000E+00 0.  1.
         11    1    3    3    0    0 -0.17099550165E+02  0.49374084948E+01  0.74098077394E+01  0.19278948869E+02  0.51100000000E-03 0. -1.
        -11    1    3    3    0    0 -0.35618226836E+01  0.57019426609E+00 -0.85399773049E+01  0.92705401655E+01  0.51100000000E-03 0.  1.
        -12    1    3    3    0    0 -0.19631692614E+02 -0.78031580475E+01  0.60662940883E+01  0.21979366560E+02  0.00000000000E+00 0.  1.
</event>
<event>
 7    1  0.1024956E-012  0.5052886E+02  0.7816164E-02  0.1300439E+00
        -11   -1    0    0    0    0  0.00000000000E+00  0.00000000000E+00  0.45593999997E+02  0.45594000000E+02  0.51100000000E-03 0.  1.
         11   -1    0    0    0    0 -0.00000000000E+00 -0.00000000000E+00 -0.45593999997E+02  0.45594000000E+02  0.51100000000E-03 0. -1.
    9900012    2    1    2    0    0 -0.21468611560E+02  0.26919414705E+02 -0.21624280364E+02  0.50528859925E+02  0.30000000228E+02 0.  0.
        -12    1    1    2    0    0  0.21468611560E+02 -0.26919414705E+02  0.21624280364E+02  0.40659140075E+02  0.00000000000E+00 0.  1.
         11    1    3    3    0    0 -0.22625539708E+01  0.14242571629E+01 -0.15558001894E+02  0.15786040736E+02  0.51100000000E-03 0. -1.
        -11    1    3    3    0    0 -0.19562590801E+02  0.17929095080E+02 -0.36109168805E+01  0.26780331032E+02  0.51100000000E-03 0.  1.
         12    1    3    3    0    0  0.35653321124E+00  0.75660624617E+01 -0.24553615901E+01  0.79624881566E+01  0.00000000000E+00 0. -1.
</event>
<event>
 7    1  0.1024956E-012  0.5052885E+02  0.7816164E-02  0.1300439E+00
        -11   -1    0    0    0    0  0.00000000000E+00  0.00000000000E+00  0.45593999997E+02  0.45594000000E+02  0.51100000000E-03 0. -1.
         11   -1    0    0    0    0 -0.00000000000E+00 -0.00000000000E+00 -0.45593999997E+02  0.45594000000E+02  0.51100000000E-03 0.  1.
    9900012    2    1    2    0    0 -0.70072703184E+01 -0.27674459035E+01  0.39955044931E+02  0.50528853309E+02  0.29999980119E+02 0.  0.
        -12    1    1    2    0    0  0.70072703184E+01  0.27674459035E+01 -0.39955044931E+02  0.40659146691E+02  0.00000000000E+00 0.  1.
         11    1    3    3    0    0 -0.89808932790E+01 -0.16819041973E+01 -0.61219915033E+00  0.91575124285E+01  0.51100000000E-03 0. -1.
        -11    1    3    3    0    0  0.23799421090E+00 -0.32874348170E+01  0.75856064398E+01  0.82707493155E+01  0.51100000000E-03 0.  1.
         12    1    3    3    0    0  0.17356287497E+01  0.22018931108E+01  0.32981637642E+02  0.33100591565E+02  0.00000000000E+00 0. -1.
</event>
<event>
 7    1  0.1024956E-012  0.5052875E+02  0.7816164E-02  0.1300439E+00
        -11   -1    0    0    0    0  0.00000000000E+00  0.00000000000E+00  0.45593999997E+02  0.45594000000E+02  0.51100000000E-03 0. -1.
         11   -1    0    0    0    0 -0.00000000000E+00 -0.00000000000E+00 -0.45593999997E+02  0.45594000000E+02  0.51100000000E-03 0.  1.
    9900012    2    1    2    0    0  0.86737246381E+01 -0.39398232286E+02  0.50715550623E+01  0.50528746722E+02  0.29999656136E+02 0.  0.
        -12    1    1    2    0    0 -0.86737246381E+01  0.39398232286E+02 -0.50715550623E+01  0.40659253278E+02  0.00000000000E+00 0.  1.
         11    1    3    3    0    0  0.12206688831E+02 -0.20404237877E+02 -0.26393795009E+01  0.23922844730E+02  0.51100000000E-03 0. -1.
        -11    1    3    3    0    0 -0.84695401017E+01 -0.42575887616E+01  0.55334376670E+00  0.94955969366E+01  0.51100000000E-03 0.  1.
        -12    1    3    3    0    0  0.49365759086E+01 -0.14736405647E+02  0.71575907964E+01  0.17110305056E+02  0.00000000000E+00 0.  1.
</event>
<event>
 7    1  0.1024956E-012  0.5052886E+02  0.7816164E-02  0.1300439E+00
        -11   -1    0    0    0    0  0.00000000000E+00  0.00000000000E+00  0.45593999997E+02  0.45594000000E+02  0.51100000000E-03 0.  1.
         11   -1    0    0    0    0 -0.00000000000E+00 -0.00000000000E+00 -0.45593999997E+02  0.45594000000E+02  0.51100000000E-03 0. -1.
    9900012    2    1    2    0    0  0.23000520569E+02  0.29967611950E+01 -0.33394032514E+02  0.50528856728E+02  0.29999990511E+02 0.  0.
        -12    1    1    2    0    0 -0.23000520569E+02 -0.29967611950E+01  0.33394032514E+02  0.40659143272E+02  0.00000000000E+00 0.  1.
         11    1    3    3    0    0 -0.52168068899E+01 -0.47630141954E+01 -0.97985782723E+01  0.12079466659E+02  0.51100000000E-03 0. -1.
        -11    1    3    3    0    0  0.23256755918E+02  0.94131035463E+01 -0.20249119996E+02  0.32241434135E+02  0.51100000000E-03 0.  1.
         12    1    3    3    0    0  0.49605715406E+01 -0.16533281559E+01 -0.33463342456E+01  0.62079559344E+01  0.00000000000E+00 0. -1.
</event>
<event>
 7    1  0.1024956E-012  0.5052886E+02  0.7816164E-02  0.1300439E+00
        -11   -1    0    0    0    0  0.00000000000E+00  0.00000000000E+00  0.45593999997E+02  0.45594000000E+02  0.51100000000E-03 0.  1.
         11   -1    0    0    0    0 -0.00000000000E+00 -0.00000000000E+00 -0.45593999997E+02  0.45594000000E+02  0.51100000000E-03 0. -1.
    9900012    2    1    2    0    0 -0.30441490085E+02  0.28183579987E+01 -0.26805555708E+02  0.50528864775E+02  0.30000014971E+02 0.  0.
        -12    1    1    2    0    0  0.30441490085E+02 -0.28183579987E+01  0.26805555708E+02  0.40659135225E+02  0.00000000000E+00 0.  1.
         11    1    3    3    0    0 -0.31196446880E+02 -0.68996402284E+01 -0.15617501937E+02  0.35563038400E+02  0.51100000000E-03 0. -1.
        -11    1    3    3    0    0  0.20885262542E+00  0.86695330711E+01 -0.10417717497E+02  0.13554824278E+02  0.51100000000E-03 0.  1.
         12    1    3    3    0    0  0.54610416896E+00  0.10484651559E+01 -0.77033627351E+00  0.14110020981E+01  0.00000000000E+00 0. -1.
</event>
<event>
 7    1  0.1024956E-012  0.5052886E+02  0.7816164E-02  0.1300439E+00
        -11   -1    0    0    0    0  0.00000000000E+00  0.00000000000E+00  0.45593999997E+02  0.45594000000E+02  0.51100000000E-03 0.  1.
         11   -1    0    0    0    0 -0.00000000000E+00 -0.00000000000E+00 -0.45593999997E+02  0.45594000000E+02  0.51100000000E-03 0. -1.
    9900012    2    1    2    0    0 -0.77706572638E+00  0.23287136851E+02 -0.33320730357E+02  0.50528860248E+02  0.30000001210E+02 0.  0.
        -12    1    1    2    0    0  0.77706572638E+00 -0.23287136851E+02  0.33320730357E+02  0.40659139752E+02  0.00000000000E+00 0.  1.
         11    1    3    3    0    0  0.58631002780E+01  0.93883771629E+01 -0.11517624349E+02  0.15974142904E+02  0.51100000000E-03 0. -1.
        -11    1    3    3    0    0 -0.11761778097E+02  0.49377891943E+00 -0.13744181676E+02  0.18096567957E+02  0.51100000000E-03 0.  1.
        -12    1    3    3    0    0  0.51216120929E+01  0.13404980769E+02 -0.80589243324E+01  0.16458149387E+02  0.00000000000E+00 0.  1.
</event>
<event>
 7    1  0.1024956E-012  0.5052886E+02  0.7816164E-02  0.1300439E+00
        -11   -1    0    0    0    0  0.00000000000E+00  0.00000000000E+00  0.45593999997E+02  0.45594000000E+02  0.51100000000E-03 0.  1.
         11   -1    0    0    0    0 -0.00000000000E+00 -0.00000000000E+00 -0.45593999997E+02  0.45594000000E+02  0.51100000000E-03 0. -1.
    9900012    2    1    2    0    0 -0.24018851587E+02  0.19811636337E+02 -0.26148790656E+02  0.50528863035E+02  0.30000009682E+02 0.  0.
        -12    1    1    2    0    0  0.24018851587E+02 -0.19811636337E+02  0.26148790656E+02  0.40659136965E+02  0.00000000000E+00 0.  1.
         11    1    3    3    0    0 -0.28929108687E+01 -0.30105024382E+01 -0.14286478981E+02  0.14884070013E+02  0.51100000000E-03 0. -1.
        -11    1    3    3    0    0 -0.79766840322E+01  0.17778482472E+02 -0.77802183368E+01  0.20981747419E+02  0.51100000000E-03 0.  1.
         12    1    3    3    0    0 -0.13149256687E+02  0.50436563036E+01 -0.40820933386E+01  0.14663045603E+02  0.00000000000E+00 0. -1.
</event>
<event>
 7    1  0.1024956E-012  0.5052886E+02  0.7816164E-02  0.1300439E+00
        -11   -1    0    0    0    0  0.00000000000E+00  0.00000000000E+00  0.45593999997E+02  0.45594000000E+02  0.51100000000E-03 0.  1.
         11   -1    0    0    0    0 -0.00000000000E+00 -0.00000000000E+00 -0.45593999997E+02  0.45594000000E+02  0.51100000000E-03 0. -1.
    9900012    2    1    2    0    0 -0.13176174757E+02 -0.33695745178E+01 -0.38317101662E+02  0.50528857197E+02  0.29999991936E+02 0.  0.
        -12    1    1    2    0    0  0.13176174757E+02  0.33695745178E+01  0.38317101662E+02  0.40659142803E+02  0.00000000000E+00 0.  1.
         11    1    3    3    0    0 -0.46315193928E+01 -0.46318356980E+01 -0.14293445678E+02  0.15722832551E+02  0.51100000000E-03 0. -1.
        -11    1    3    3    0    0  0.67508776585E+01 -0.21075683114E+01 -0.12737971338E+01  0.71860109064E+01  0.51100000000E-03 0.  1.
        -12    1    3    3    0    0 -0.15295533023E+02  0.33698294916E+01 -0.22749858851E+02  0.27620013740E+02  0.00000000000E+00 0.  1.
</event>
<event>
 7    1  0.1024956E-012  0.5052886E+02  0.7816164E-02  0.1300439E+00
        -11   -1    0    0    0    0  0.00000000000E+00  0.00000000000E+00  0.45593999997E+02  0.45594000000E+02  0.51100000000E-03 0. -1.
         11   -1    0    0    0    0 -0.00000000000E+00 -0.00000000000E+00 -0.45593999997E+02  0.45594000000E+02  0.51100000000E-03 0.  1.
    9900012    2    1    2    0    0  0.45427305401E+01  0.32780780234E+02 -0.23620957221E+02  0.50528861131E+02  0.30000003894E+02 0.  0.
        -12    1    1    2    0    0 -0.45427305401E+01 -0.32780780234E+02  0.23620957221E+02  0.40659138869E+02  0.00000000000E+00 0.  1.
         11    1    3    3    0    0  0.36658472031E+00  0.24624714465E+02 -0.20946140636E+02  0.32330353457E+02  0.51100000000E-03 0. -1.
        -11    1    3    3    0    0  0.47704147557E+01 -0.36690877588E+01  0.17318759258E+00  0.60207189045E+01  0.51100000000E-03 0.  1.
        -12    1    3    3    0    0 -0.59426893592E+00  0.11825153528E+02 -0.28480041775E+01  0.12177788770E+02  0.00000000000E+00 0.  1.
</event>
<event>
 7    1  0.1024956E-012  0.5052886E+02  0.7816164E-02  0.1300439E+00
        -11   -1    0    0    0    0  0.00000000000E+00  0.00000000000E+00  0.45593999997E+02  0.45594000000E+02  0.51100000000E-03 0.  1.
         11   -1    0    0    0    0 -0.00000000000E+00 -0.00000000000E+00 -0.45593999997E+02  0.45594000000E+02  0.51100000000E-03 0. -1.
    9900012    2    1    2    0    0 -0.83253413577E+01  0.44459721254E+01 -0.39548547896E+02  0.50528860590E+02  0.30000002249E+02 0.  0.
        -12    1    1    2    0    0  0.83253413577E+01 -0.44459721254E+01  0.39548547896E+02  0.40659139410E+02  0.00000000000E+00 0.  1.
         11    1    3    3    0    0  0.32793887367E+01 -0.54585932710E+00 -0.11702901888E+02  0.12165946973E+02  0.51100000000E-03 0. -1.
        -11    1    3    3    0    0 -0.17959293217E+01  0.16162276163E+01  0.41089905627E+01  0.47666925160E+01  0.51100000000E-03 0.  1.
        -12    1    3    3    0    0 -0.98088007727E+01  0.33756038362E+01 -0.31954636571E+02  0.33596221101E+02  0.00000000000E+00 0.  1.
</event>
<event>
 7    1  0.1024956E-012  0.5052886E+02  0.7816164E-02  0.1300439E+00
        -11   -1    0    0    0    0  0.00000000000E+00  0.00000000000E+00  0.45593999997E+02  0.45594000000E+02  0.51100000000E-03 0. -1.
         11   -1    0    0    0    0 -0.00000000000E+00 -0.00000000000E+00 -0.45593999997E+02  0.45594000000E+02  0.51100000000E-03 0.  1.
    9900012    2    1    2    0    0  0.26652236272E+02  0.11935870262E+02  0.28290621839E+02  0.50528856118E+02  0.29999988655E+02 0.  0.
        -12    1    1    2    0    0 -0.26652236272E+02 -0.11935870262E+02 -0.28290621839E+02  0.40659143882E+02  0.00000000000E+00 0.  1.
         11    1    3    3    0    0  0.19033045955E+02  0.11196344137E+02  0.21513890541E+02  0.30829570980E+02  0.51100000000E-03 0. -1.
        -11    1    3    3    0    0 -0.11790045183E+01  0.48593692834E+01 -0.30693204458E+01  0.58672182290E+01  0.51100000000E-03 0.  1.
        -12    1    3    3    0    0  0.87981948358E+01 -0.41198431586E+01  0.98460517437E+01  0.13832066908E+02  0.00000000000E+00 0.  1.
</event>
<event>
 7    1  0.1024956E-012  0.5052886E+02  0.7816164E-02  0.1300439E+00
        -11   -1    0    0    0    0  0.00000000000E+00  0.00000000000E+00  0.45593999997E+02  0.45594000000E+02  0.51100000000E-03 0.  1.
         11   -1    0    0    0    0 -0.00000000000E+00 -0.00000000000E+00 -0.45593999997E+02  0.45594000000E+02  0.51100000000E-03 0. -1.
    9900012    2    1    2    0    0  0.39542349329E+02  0.37957477961E+01 -0.86695375402E+01  0.50528856220E+02  0.29999988966E+02 0.  0.
        -12    1    1    2    0    0 -0.39542349329E+02 -0.37957477961E+01  0.86695375402E+01  0.40659143780E+02  0.00000000000E+00 0.  1.
         11    1    3    3    0    0  0.27431677654E+02  0.24203623548E+01  0.25040146427E+01  0.27651856763E+02  0.51100000000E-03 0. -1.
        -11    1    3    3    0    0 -0.12112020024E+01  0.53981749309E+01 -0.95981144948E+00  0.56150281526E+01  0.51100000000E-03 0.  1.
        -12    1    3    3    0    0  0.13321873677E+02 -0.40227894896E+01 -0.10213740733E+02  0.17261971304E+02  0.00000000000E+00 0.  1.
</event>
<event>
 7    1  0.1024956E-012  0.5052898E+02  0.7816164E-02  0.1300438E+00
        -11   -1    0    0    0    0  0.00000000000E+00  0.00000000000E+00  0.45593999997E+02  0.45594000000E+02  0.51100000000E-03 0.  1.
         11   -1    0    0    0    0 -0.00000000000E+00 -0.00000000000E+00 -0.45593999997E+02  0.45594000000E+02  0.51100000000E-03 0. -1.
    9900012    2    1    2    0    0  0.18496270689E+02  0.36724601264E+01 -0.36021613659E+02  0.50528983246E+02  0.30000375074E+02 0.  0.
        -12    1    1    2    0    0 -0.18496270689E+02 -0.36724601264E+01  0.36021613659E+02  0.40659016754E+02  0.00000000000E+00 0.  1.
         11    1    3    3    0    0  0.18257145839E+02 -0.82333790871E+00 -0.20211929461E+02  0.27249281684E+02  0.51100000000E-03 0. -1.
        -11    1    3    3    0    0 -0.55375936741E+01 -0.33151190993E+01 -0.10173881842E+02  0.12048353844E+02  0.51100000000E-03 0.  1.
        -12    1    3    3    0    0  0.57767185240E+01  0.78109171345E+01 -0.56358023557E+01  0.11231347719E+02  0.00000000000E+00 0.  1.
</event>
<event>
 7    1  0.1024956E-012  0.5052886E+02  0.7816164E-02  0.1300439E+00
        -11   -1    0    0    0    0  0.00000000000E+00  0.00000000000E+00  0.45593999997E+02  0.45594000000E+02  0.51100000000E-03 0. -1.
         11   -1    0    0    0    0 -0.00000000000E+00 -0.00000000000E+00 -0.45593999997E+02  0.45594000000E+02  0.51100000000E-03 0.  1.
    9900012    2    1    2    0    0 -0.10725434587E+02 -0.11928962953E+01  0.39200864701E+02  0.50528859061E+02  0.29999997600E+02 0.  0.
        -12    1    1    2    0    0  0.10725434587E+02  0.11928962953E+01 -0.39200864701E+02  0.40659140939E+02  0.00000000000E+00 0.  1.
         11    1    3    3    0    0 -0.88469411299E+01  0.52903237993E+00  0.58083994619E+01  0.10596496930E+02  0.51100000000E-03 0. -1.
        -11    1    3    3    0    0  0.80278090158E+01 -0.69013621814E+01  0.14049568394E+02  0.17591614192E+02  0.51100000000E-03 0.  1.
        -12    1    3    3    0    0 -0.99063024725E+01  0.51794335061E+01  0.19342896844E+02  0.22340747939E+02  0.00000000000E+00 0.  1.
</event>
<event>
 7    1  0.1024956E-012  0.5052886E+02  0.7816164E-02  0.1300439E+00
        -11   -1    0    0    0    0  0.00000000000E+00  0.00000000000E+00  0.45593999997E+02  0.45594000000E+02  0.51100000000E-03 0.  1.
         11   -1    0    0    0    0 -0.00000000000E+00 -0.00000000000E+00 -0.45593999997E+02  0.45594000000E+02  0.51100000000E-03 0. -1.
    9900012    2    1    2    0    0 -0.16149103388E+02 -0.33428052347E+02 -0.16581234094E+02  0.50528861445E+02  0.30000004848E+02 0.  0.
        -12    1    1    2    0    0  0.16149103388E+02  0.33428052347E+02  0.16581234094E+02  0.40659138555E+02  0.00000000000E+00 0.  1.
         11    1    3    3    0    0  0.54810721652E+01 -0.21388452624E+02 -0.96656378839E+01  0.24102543719E+02  0.51100000000E-03 0. -1.
        -11    1    3    3    0    0 -0.35705400423E+01 -0.16523268242E+01  0.11293728023E+01  0.40932167443E+01  0.51100000000E-03 0.  1.
         12    1    3    3    0    0 -0.18059635511E+02 -0.10387272898E+02 -0.80449690124E+01  0.22333100982E+02  0.00000000000E+00 0. -1.
</event>
<event>
 7    1  0.1024956E-012  0.5052885E+02  0.7816164E-02  0.1300439E+00
        -11   -1    0    0    0    0  0.00000000000E+00  0.00000000000E+00  0.45593999997E+02  0.45594000000E+02  0.51100000000E-03 0.  1.
         11   -1    0    0    0    0 -0.00000000000E+00 -0.00000000000E+00 -0.45593999997E+02  0.45594000000E+02  0.51100000000E-03 0. -1.
    9900012    2    1    2    0    0 -0.28332111298E+02 -0.49043022291E+00 -0.29158486595E+02  0.50528851055E+02  0.29999973267E+02 0.  0.
        -12    1    1    2    0    0  0.28332111298E+02  0.49043022291E+00  0.29158486595E+02  0.40659148945E+02  0.00000000000E+00 0.  1.
         11    1    3    3    0    0 -0.37297564273E+01 -0.18833718018E+01 -0.23972010548E+01  0.48171304227E+01  0.51100000000E-03 0. -1.
        -11    1    3    3    0    0 -0.29371782996E+01 -0.94190502214E+01 -0.33791606915E+00  0.98721685038E+01  0.51100000000E-03 0.  1.
        -12    1    3    3    0    0 -0.21665176571E+02  0.10811991800E+02 -0.26423369471E+02  0.35839552128E+02  0.00000000000E+00 0.  1.
</event>
<event>
 7    1  0.1024956E-012  0.5052890E+02  0.7816164E-02  0.1300439E+00
        -11   -1    0    0    0    0  0.00000000000E+00  0.00000000000E+00  0.45593999997E+02  0.45594000000E+02  0.51100000000E-03 0. -1.
         11   -1    0    0    0    0 -0.00000000000E+00 -0.00000000000E+00 -0.45593999997E+02  0.45594000000E+02  0.51100000000E-03 0.  1.
    9900012    2    1    2    0    0 -0.38530349964E+02  0.11590022101E+02 -0.58520322756E+01  0.50528895701E+02  0.30000108973E+02 0.  0.
        -12    1    1    2    0    0  0.38530349964E+02 -0.11590022101E+02  0.58520322756E+01  0.40659104299E+02  0.00000000000E+00 0.  1.
         11    1    3    3    0    0 -0.37338970619E+02  0.12550277169E+02 -0.11489646334E+02  0.41033159238E+02  0.51100000000E-03 0. -1.
        -11    1    3    3    0    0  0.81127877283E+00  0.96687107584E+00 -0.14264035054E+01  0.19046364866E+01  0.51100000000E-03 0.  1.
         12    1    3    3    0    0 -0.20026581176E+01 -0.19271261438E+01  0.70640175638E+01  0.75910999765E+01  0.00000000000E+00 0. -1.
</event>
<event>
 7    1  0.1024956E-012  0.5052886E+02  0.7816164E-02  0.1300439E+00
        -11   -1    0    0    0    0  0.00000000000E+00  0.00000000000E+00  0.45593999997E+02  0.45594000000E+02  0.51100000000E-03 0.  1.
         11   -1    0    0    0    0 -0.00000000000E+00 -0.00000000000E+00 -0.45593999997E+02  0.45594000000E+02  0.51100000000E-03 0. -1.
    9900012    2    1    2    0    0  0.79069583235E+01  0.32522366583E+02 -0.23085522719E+02  0.50528859856E+02  0.30000000018E+02 0.  0.
        -12    1    1    2    0    0 -0.79069583235E+01 -0.32522366583E+02  0.23085522719E+02  0.40659140144E+02  0.00000000000E+00 0.  1.
         11    1    3    3    0    0 -0.53058580742E+01  0.71242336652E+01 -0.32889115282E+01  0.94722634317E+01  0.51100000000E-03 0. -1.
        -11    1    3    3    0    0  0.14125058731E+02  0.92261416631E+01 -0.18142318211E+02  0.24774637928E+02  0.51100000000E-03 0.  1.
        -12    1    3    3    0    0 -0.91224233376E+00  0.16171991254E+02 -0.16542929797E+01  0.16281958496E+02  0.00000000000E+00 0.  1.
</event>
<event>
 7    1  0.1024956E-012  0.5052886E+02  0.7816164E-02  0.1300439E+00
        -11   -1    0    0    0    0  0.00000000000E+00  0.00000000000E+00  0.45593999997E+02  0.45594000000E+02  0.51100000000E-03 0.  1.
         11   -1    0    0    0    0 -0.00000000000E+00 -0.00000000000E+00 -0.45593999997E+02  0.45594000000E+02  0.51100000000E-03 0. -1.
    9900012    2    1    2    0    0  0.13799383889E+02  0.32646567717E+02 -0.19923453069E+02  0.50528863738E+02  0.30000011817E+02 0.  0.
        -12    1    1    2    0    0 -0.13799383889E+02 -0.32646567717E+02  0.19923453069E+02  0.40659136262E+02  0.00000000000E+00 0.  1.
         11    1    3    3    0    0  0.69529718172E+01  0.12638905879E+02 -0.14765992216E+02  0.20642681155E+02  0.51100000000E-03 0. -1.
        -11    1    3    3    0    0 -0.44835235657E+01  0.17179836343E+02 -0.33821279969E+01  0.18074500004E+02  0.51100000000E-03 0.  1.
        -12    1    3    3    0    0  0.11329935637E+02  0.28278254950E+01 -0.17753328564E+01  0.11811682578E+02  0.00000000000E+00 0.  1.
</event>
<event>
 7    1  0.1024956E-012  0.5052887E+02  0.7816164E-02  0.1300439E+00
        -11   -1    0    0    0    0  0.00000000000E+00  0.00000000000E+00  0.45593999997E+02  0.45594000000E+02  0.51100000000E-03 0.  1.
         11   -1    0    0    0    0 -0.00000000000E+00 -0.00000000000E+00 -0.45593999997E+02  0.45594000000E+02  0.51100000000E-03 0. -1.
    9900012    2    1    2    0    0 -0.56308899927E+00 -0.38458412395E+02 -0.13183271597E+02  0.50528865686E+02  0.30000017738E+02 0.  0.
        -12    1    1    2    0    0  0.56308899927E+00  0.38458412395E+02  0.13183271597E+02  0.40659134314E+02  0.00000000000E+00 0.  1.
         11    1    3    3    0    0 -0.10720614364E+02 -0.21686415313E+02  0.33447112560E+01  0.24421696811E+02  0.51100000000E-03 0. -1.
        -11    1    3    3    0    0  0.79436557777E+01 -0.12683408716E+02 -0.15059991649E+02  0.21231435950E+02  0.51100000000E-03 0.  1.
         12    1    3    3    0    0  0.22138695875E+01 -0.40885883667E+01 -0.14679912039E+01  0.48757329251E+01  0.00000000000E+00 0. -1.
</event>
<event>
 7    1  0.1024956E-012  0.5052886E+02  0.7816164E-02  0.1300439E+00
        -11   -1    0    0    0    0  0.00000000000E+00  0.00000000000E+00  0.45593999997E+02  0.45594000000E+02  0.51100000000E-03 0.  1.
         11   -1    0    0    0    0 -0.00000000000E+00 -0.00000000000E+00 -0.45593999997E+02  0.45594000000E+02  0.51100000000E-03 0. -1.
    9900012    2    1    2    0    0  0.35191290625E+02  0.37138680632E+01 -0.20023629841E+02  0.50528861988E+02  0.30000006500E+02 0.  0.
        -12    1    1    2    0    0 -0.35191290625E+02 -0.37138680632E+01  0.20023629841E+02  0.40659138012E+02  0.00000000000E+00 0.  1.
         11    1    3    3    0    0  0.85807809043E+01  0.39961497461E+01 -0.13510256319E+02  0.16496243202E+02  0.51100000000E-03 0. -1.
        -11    1    3    3    0    0  0.37791931788E+01 -0.72962679352E+01  0.23665015637E+01  0.85509155520E+01  0.51100000000E-03 0.  1.
        -12    1    3    3    0    0  0.22831316542E+02  0.70139862523E+01 -0.88798750858E+01  0.25481703234E+02  0.00000000000E+00 0.  1.
</event>
<event>
 7    1  0.1024956E-012  0.5052888E+02  0.7816164E-02  0.1300439E+00
        -11   -1    0    0    0    0  0.00000000000E+00  0.00000000000E+00  0.45593999997E+02  0.45594000000E+02  0.51100000000E-03 0. -1.
         11   -1    0    0    0    0 -0.00000000000E+00 -0.00000000000E+00 -0.45593999997E+02  0.45594000000E+02  0.51100000000E-03 0.  1.
    9900012    2    1    2    0    0  0.58757286561E+01  0.32762940074E+02  0.23350149053E+02  0.50528881831E+02  0.30000066812E+02 0.  0.
        -12    1    1    2    0    0 -0.58757286561E+01 -0.32762940074E+02 -0.23350149053E+02  0.40659118169E+02  0.00000000000E+00 0.  1.
         11    1    3    3    0    0 -0.26621764787E+01  0.16165607680E+02  0.26452295521E+02  0.31114915939E+02  0.51100000000E-03 0. -1.
        -11    1    3    3    0    0  0.40030159530E+01  0.12034027677E+02 -0.14014695415E+01  0.12759548424E+02  0.51100000000E-03 0.  1.
         12    1    3    3    0    0  0.45348891818E+01  0.45633047166E+01 -0.17006769265E+01  0.66544174678E+01  0.00000000000E+00 0. -1.
</event>
<event>
 7    1  0.1024956E-012  0.5052885E+02  0.7816164E-02  0.1300439E+00
        -11   -1    0    0    0    0  0.00000000000E+00  0.00000000000E+00  0.45593999997E+02  0.45594000000E+02  0.51100000000E-03 0. -1.
         11   -1    0    0    0    0 -0.00000000000E+00 -0.00000000000E+00 -0.45593999997E+02  0.45594000000E+02  0.51100000000E-03 0.  1.
    9900012    2    1    2    0    0 -0.33624787401E+02 -0.22508321193E+02  0.39894189360E+01  0.50528852023E+02  0.29999976210E+02 0.  0.
        -12    1    1    2    0    0  0.33624787401E+02  0.22508321193E+02 -0.39894189360E+01  0.40659147977E+02  0.00000000000E+00 0.  1.
         11    1    3    3    0    0 -0.39697949476E+01 -0.85317334062E+01  0.39862772641E+01  0.10219596544E+02  0.51100000000E-03 0. -1.
        -11    1    3    3    0    0 -0.27253668112E+02 -0.33479066676E+01 -0.56496192218E+01  0.28033713672E+02  0.51100000000E-03 0.  1.
        -12    1    3    3    0    0 -0.24013243415E+01 -0.10628681120E+02  0.56527608937E+01  0.12275541807E+02  0.00000000000E+00 0.  1.
</event>
<event>
 7    1  0.1024956E-012  0.5052887E+02  0.7816164E-02  0.1300439E+00
        -11   -1    0    0    0    0  0.00000000000E+00  0.00000000000E+00  0.45593999997E+02  0.45594000000E+02  0.51100000000E-03 0.  1.
         11   -1    0    0    0    0 -0.00000000000E+00 -0.00000000000E+00 -0.45593999997E+02  0.45594000000E+02  0.51100000000E-03 0. -1.
    9900012    2    1    2    0    0 -0.22803930736E+02 -0.33250896671E+02  0.52462574023E+01  0.50528873065E+02  0.30000040168E+02 0.  0.
        -12    1    1    2    0    0  0.22803930736E+02  0.33250896671E+02 -0.52462574023E+01  0.40659126935E+02  0.00000000000E+00 0.  1.
         11    1    3    3    0    0 -0.25545568510E+02 -0.24395911617E+02  0.47122550545E+01  0.35636244501E+02  0.51100000000E-03 0. -1.
        -11    1    3    3    0    0 -0.64495370691E+00 -0.15312091628E+01  0.52774175551E+01  0.55327843891E+01  0.51100000000E-03 0.  1.
         12    1    3    3    0    0  0.33865914810E+01 -0.73237758904E+01 -0.47434152074E+01  0.93598441750E+01  0.00000000000E+00 0. -1.
</event>
<event>
 7    1  0.1024956E-012  0.5052886E+02  0.7816164E-02  0.1300439E+00
        -11   -1    0    0    0    0  0.00000000000E+00  0.00000000000E+00  0.45593999997E+02  0.45594000000E+02  0.51100000000E-03 0.  1.
         11   -1    0    0    0    0 -0.00000000000E+00 -0.00000000000E+00 -0.45593999997E+02  0.45594000000E+02  0.51100000000E-03 0. -1.
    9900012    2    1    2    0    0  0.29314584600E+02  0.24941459495E+02 -0.13105128798E+02  0.50528859910E+02  0.30000000183E+02 0.  0.
        -12    1    1    2    0    0 -0.29314584600E+02 -0.24941459495E+02  0.13105128798E+02  0.40659140090E+02  0.00000000000E+00 0.  1.
         11    1    3    3    0    0  0.33666820903E+02  0.16719609399E+02 -0.85819920374E+01  0.38557110314E+02  0.51100000000E-03 0. -1.
        -11    1    3    3    0    0 -0.23741822340E+01 -0.16547451212E+00 -0.38002248268E+00  0.24100913765E+01  0.51100000000E-03 0.  1.
         12    1    3    3    0    0 -0.19780540689E+01  0.83873246088E+01 -0.41431142778E+01  0.95616582197E+01  0.00000000000E+00 0. -1.
</event>
<event>
 7    1  0.1024956E-012  0.5052886E+02  0.7816164E-02  0.1300439E+00
        -11   -1    0    0    0    0  0.00000000000E+00  0.00000000000E+00  0.45593999997E+02  0.45594000000E+02  0.51100000000E-03 0.  1.
         11   -1    0    0    0    0 -0.00000000000E+00 -0.00000000000E+00 -0.45593999997E+02  0.45594000000E+02  0.51100000000E-03 0. -1.
    9900012    2    1    2    0    0 -0.16873697591E+02  0.14567155043E+02 -0.34003557144E+02  0.50528861115E+02  0.30000003845E+02 0.  0.
        -12    1    1    2    0    0  0.16873697591E+02 -0.14567155043E+02  0.34003557144E+02  0.40659138885E+02  0.00000000000E+00 0.  1.
         11    1    3    3    0    0 -0.15415200565E+02  0.21447295649E+01 -0.28357593191E+02  0.32347818554E+02  0.51100000000E-03 0. -1.
        -11    1    3    3    0    0  0.41359335317E+01  0.51955440020E+01  0.12176808602E+01  0.67514717355E+01  0.51100000000E-03 0.  1.
        -12    1    3    3    0    0 -0.55944305587E+01  0.72268814759E+01 -0.68636448129E+01  0.11429570826E+02  0.00000000000E+00 0.  1.
</event>
<event>
 7    1  0.1024956E-012  0.5052886E+02  0.7816164E-02  0.1300439E+00
        -11   -1    0    0    0    0  0.00000000000E+00  0.00000000000E+00  0.45593999997E+02  0.45594000000E+02  0.51100000000E-03 0.  1.
         11   -1    0    0    0    0 -0.00000000000E+00 -0.00000000000E+00 -0.45593999997E+02  0.45594000000E+02  0.51100000000E-03 0. -1.
    9900012    2    1    2    0    0 -0.28232630306E+02 -0.26226421524E+02  0.12971467358E+02  0.50528861232E+02  0.30000004201E+02 0.  0.
        -12    1    1    2    0    0  0.28232630306E+02  0.26226421524E+02 -0.12971467358E+02  0.40659138768E+02  0.00000000000E+00 0.  1.
         11    1    3    3    0    0 -0.12328633663E+02 -0.14392695809E+02  0.84165127250E+01  0.20736021493E+02  0.51100000000E-03 0. -1.
        -11    1    3    3    0    0 -0.13874585682E+02  0.20694836111E+01 -0.22056608861E+01  0.14200416560E+02  0.51100000000E-03 0.  1.
        -12    1    3    3    0    0 -0.20294109609E+01 -0.13903209326E+02  0.67606155186E+01  0.15592423179E+02  0.00000000000E+00 0.  1.
</event>
<event>
 7    1  0.1545354E-012  0.5052886E+02  0.7816164E-02  0.1300439E+00
        -11   -1    0    0    0    0  0.00000000000E+00  0.00000000000E+00  0.45593999997E+02  0.45594000000E+02  0.51100000000E-03 0. -1.
         11   -1    0    0    0    0 -0.00000000000E+00 -0.00000000000E+00 -0.45593999997E+02  0.45594000000E+02  0.51100000000E-03 0.  1.
    9900012    2    1    2    0    0 -0.10789269198E+02  0.31223153202E+02  0.23703840622E+02  0.50528859750E+02  0.29999999695E+02 0.  0.
        -12    1    1    2    0    0  0.10789269198E+02 -0.31223153202E+02 -0.23703840622E+02  0.40659140250E+02  0.00000000000E+00 0.  1.
         11    1    3    3    0    0 -0.57399412521E+01  0.21190709594E+02  0.26597514995E+02  0.34487982006E+02  0.51100000000E-03 0. -1.
        -11    1    3    3    0    0  0.26856034610E+01  0.44808113596E+01 -0.38246999893E+01  0.64744472088E+01  0.51100000000E-03 0.  1.
        -12    1    3    3    0    0 -0.77349314065E+01  0.55516322480E+01  0.93102561612E+00  0.95664305349E+01  0.00000000000E+00 0.  1.
</event>
<event>
 7    1  0.1024956E-012  0.5052884E+02  0.7816164E-02  0.1300439E+00
        -11   -1    0    0    0    0  0.00000000000E+00  0.00000000000E+00  0.45593999997E+02  0.45594000000E+02  0.51100000000E-03 0. -1.
         11   -1    0    0    0    0 -0.00000000000E+00 -0.00000000000E+00 -0.45593999997E+02  0.45594000000E+02  0.51100000000E-03 0.  1.
    9900012    2    1    2    0    0  0.40141899110E+02  0.10706506424E+01  0.63756777175E+01  0.50528835924E+02  0.29999927276E+02 0.  0.
        -12    1    1    2    0    0 -0.40141899110E+02 -0.10706506424E+01 -0.63756777175E+01  0.40659164076E+02  0.00000000000E+00 0.  1.
         11    1    3    3    0    0  0.23788266145E+02  0.19882621528E+01 -0.15078064548E+01  0.23918784943E+02  0.51100000000E-03 0. -1.
        -11    1    3    3    0    0  0.24127430836E+01  0.13274278648E+01  0.11670130657E+02  0.11990635669E+02  0.51100000000E-03 0.  1.
        -12    1    3    3    0    0  0.13940889881E+02 -0.22450393753E+01 -0.37866464849E+01  0.14619415313E+02  0.00000000000E+00 0.  1.
</event>
<event>
 7    1  0.1024956E-012  0.5052888E+02  0.7816164E-02  0.1300439E+00
        -11   -1    0    0    0    0  0.00000000000E+00  0.00000000000E+00  0.45593999997E+02  0.45594000000E+02  0.51100000000E-03 0.  1.
         11   -1    0    0    0    0 -0.00000000000E+00 -0.00000000000E+00 -0.45593999997E+02  0.45594000000E+02  0.51100000000E-03 0. -1.
    9900012    2    1    2    0    0 -0.16809325351E+02  0.26096470446E+02 -0.26259946574E+02  0.50528880696E+02  0.30000063364E+02 0.  0.
        -12    1    1    2    0    0  0.16809325351E+02 -0.26096470446E+02  0.26259946574E+02  0.40659119304E+02  0.00000000000E+00 0.  1.
         11    1    3    3    0    0  0.29484354144E+01 -0.29871998156E+01 -0.29875085807E+01  0.51518775133E+01  0.51100000000E-03 0. -1.
        -11    1    3    3    0    0 -0.11436626596E+02  0.85308061568E+01 -0.17277952000E+02  0.22407559152E+02  0.51100000000E-03 0.  1.
        -12    1    3    3    0    0 -0.83211341699E+01  0.20552864104E+02 -0.59944859938E+01  0.22969444031E+02  0.00000000000E+00 0.  1.
</event>
<event>
 7    1  0.1024956E-012  0.5052887E+02  0.7816164E-02  0.1300439E+00
        -11   -1    0    0    0    0  0.00000000000E+00  0.00000000000E+00  0.45593999997E+02  0.45594000000E+02  0.51100000000E-03 0.  1.
         11   -1    0    0    0    0 -0.00000000000E+00 -0.00000000000E+00 -0.45593999997E+02  0.45594000000E+02  0.51100000000E-03 0. -1.
    9900012    2    1    2    0    0  0.81574434132E+01 -0.39627237087E+02 -0.40377073859E+01  0.50528869621E+02  0.30000029701E+02 0.  0.
        -12    1    1    2    0    0 -0.81574434132E+01  0.39627237087E+02  0.40377073859E+01  0.40659130379E+02  0.00000000000E+00 0.  1.
         11    1    3    3    0    0  0.10306873859E+02 -0.30413174453E+02 -0.68977609363E+01  0.32844663726E+02  0.51100000000E-03 0. -1.
        -11    1    3    3    0    0 -0.83510634328E+01 -0.55093932991E+01  0.26456837136E+00  0.10008180238E+02  0.51100000000E-03 0.  1.
         12    1    3    3    0    0  0.62016329870E+01 -0.37046693349E+01  0.25954851791E+01  0.76760256579E+01  0.00000000000E+00 0. -1.
</event>
<event>
 7    1  0.1024956E-012  0.5052886E+02  0.7816164E-02  0.1300439E+00
        -11   -1    0    0    0    0  0.00000000000E+00  0.00000000000E+00  0.45593999997E+02  0.45594000000E+02  0.51100000000E-03 0.  1.
         11   -1    0    0    0    0 -0.00000000000E+00 -0.00000000000E+00 -0.45593999997E+02  0.45594000000E+02  0.51100000000E-03 0. -1.
    9900012    2    1    2    0    0  0.94163154799E+01 -0.11635886606E+02 -0.37803499307E+02  0.50528863091E+02  0.30000009853E+02 0.  0.
        -12    1    1    2    0    0 -0.94163154799E+01  0.11635886606E+02  0.37803499307E+02  0.40659136909E+02  0.00000000000E+00 0.  1.
         11    1    3    3    0    0  0.53724172990E+01  0.40924200414E+01 -0.35962662916E+01  0.76513986259E+01  0.51100000000E-03 0.  1.
        -11    1    3    3    0    0 -0.57795412113E+01 -0.75010478717E+01 -0.25975211460E+02  0.27647430738E+02  0.51100000000E-03 0. -1.
        -12    1    3    3    0    0  0.98234393921E+01 -0.82272587756E+01 -0.82320215553E+01  0.15230033727E+02  0.00000000000E+00 0.  1.
</event>
<event>
 7    1  0.1024956E-012  0.5052887E+02  0.7816164E-02  0.1300439E+00
        -11   -1    0    0    0    0  0.00000000000E+00  0.00000000000E+00  0.45593999997E+02  0.45594000000E+02  0.51100000000E-03 0.  1.
         11   -1    0    0    0    0 -0.00000000000E+00 -0.00000000000E+00 -0.45593999997E+02  0.45594000000E+02  0.51100000000E-03 0. -1.
    9900012    2    1    2    0    0 -0.30468219730E+02  0.24079010875E+02 -0.12043835578E+02  0.50528866295E+02  0.30000019589E+02 0.  0.
        -12    1    1    2    0    0  0.30468219730E+02 -0.24079010875E+02  0.12043835578E+02  0.40659133705E+02  0.00000000000E+00 0.  1.
         11    1    3    3    0    0 -0.14076322975E+02  0.94926846457E+01 -0.19853991622E+02  0.26123455244E+02  0.51100000000E-03 0. -1.
        -11    1    3    3    0    0 -0.17788282376E+01  0.14590202176E+01  0.36681805924E+01  0.43299560060E+01  0.51100000000E-03 0.  1.
         12    1    3    3    0    0 -0.14613068518E+02  0.13127306011E+02  0.41419754517E+01  0.20075455045E+02  0.00000000000E+00 0. -1.
</event>
<event>
 7    1  0.1024956E-012  0.5052886E+02  0.7816164E-02  0.1300439E+00
        -11   -1    0    0    0    0  0.00000000000E+00  0.00000000000E+00  0.45593999997E+02  0.45594000000E+02  0.51100000000E-03 0.  1.
         11   -1    0    0    0    0 -0.00000000000E+00 -0.00000000000E+00 -0.45593999997E+02  0.45594000000E+02  0.51100000000E-03 0. -1.
    9900012    2    1    2    0    0  0.20762576661E+02 -0.21348617014E+02 -0.27682437278E+02  0.50528863614E+02  0.30000011442E+02 0.  0.
        -12    1    1    2    0    0 -0.20762576661E+02  0.21348617014E+02  0.27682437278E+02  0.40659136386E+02  0.00000000000E+00 0.  1.
         11    1    3    3    0    0  0.13835960480E+02 -0.19866989122E+02 -0.18835083425E+02  0.30673953561E+02  0.51100000000E-03 0. -1.
        -11    1    3    3    0    0  0.33587633873E+01  0.60409218760E+01 -0.92172603249E+01  0.11520933849E+02  0.51100000000E-03 0.  1.
        -12    1    3    3    0    0  0.35678527935E+01 -0.75225497680E+01  0.36990647203E+00  0.83339762039E+01  0.00000000000E+00 0.  1.
</event>
<event>
 7    1  0.1024956E-012  0.5052891E+02  0.7816164E-02  0.1300439E+00
        -11   -1    0    0    0    0  0.00000000000E+00  0.00000000000E+00  0.45593999997E+02  0.45594000000E+02  0.51100000000E-03 0.  1.
         11   -1    0    0    0    0 -0.00000000000E+00 -0.00000000000E+00 -0.45593999997E+02  0.45594000000E+02  0.51100000000E-03 0. -1.
    9900012    2    1    2    0    0 -0.13154310099E+02  0.37793622290E+02 -0.71949906333E+01  0.50528909378E+02  0.30000150546E+02 0.  0.
        -12    1    1    2    0    0  0.13154310099E+02 -0.37793622290E+02  0.71949906333E+01  0.40659090622E+02  0.00000000000E+00 0.  1.
         11    1    3    3    0    0  0.48990333512E+01  0.40814309722E+01 -0.87369012040E+01  0.10816286307E+02  0.51100000000E-03 0. -1.
        -11    1    3    3    0    0 -0.53036686796E+01  0.27175359917E+01 -0.12254478917E+01  0.60840468543E+01  0.51100000000E-03 0.  1.
         12    1    3    3    0    0 -0.12749674770E+02  0.30994655326E+02  0.27673584624E+01  0.33628576217E+02  0.00000000000E+00 0. -1.
</event>
<event>
 7    1  0.1024956E-012  0.5052886E+02  0.7816164E-02  0.1300439E+00
        -11   -1    0    0    0    0  0.00000000000E+00  0.00000000000E+00  0.45593999997E+02  0.45594000000E+02  0.51100000000E-03 0. -1.
         11   -1    0    0    0    0 -0.00000000000E+00 -0.00000000000E+00 -0.45593999997E+02  0.45594000000E+02  0.51100000000E-03 0.  1.
    9900012    2    1    2    0    0  0.14544681713E+02  0.34647798103E+02  0.15528940937E+02  0.50528859746E+02  0.29999999685E+02 0.  0.
        -12    1    1    2    0    0 -0.14544681713E+02 -0.34647798103E+02 -0.15528940937E+02  0.40659140254E+02  0.00000000000E+00 0.  1.
         11    1    3    3    0    0  0.37454704062E+01  0.17771830257E+02  0.19591540833E+02  0.26715070124E+02  0.51100000000E-03 0. -1.
        -11    1    3    3    0    0  0.68623204947E+01  0.11332529855E+02 -0.84576284637E+01  0.15717797396E+02  0.51100000000E-03 0.  1.
        -12    1    3    3    0    0  0.39368908121E+01  0.55434379912E+01  0.43950285675E+01  0.80959922269E+01  0.00000000000E+00 0.  1.
</event>
<event>
 7    1  0.1024956E-012  0.5052886E+02  0.7816164E-02  0.1300439E+00
        -11   -1    0    0    0    0  0.00000000000E+00  0.00000000000E+00  0.45593999997E+02  0.45594000000E+02  0.51100000000E-03 0.  1.
         11   -1    0    0    0    0 -0.00000000000E+00 -0.00000000000E+00 -0.45593999997E+02  0.45594000000E+02  0.51100000000E-03 0. -1.
    9900012    2    1    2    0    0 -0.32507398735E+02  0.67362190030E+01 -0.23474631292E+02  0.50528856708E+02  0.29999990448E+02 0.  0.
        -12    1    1    2    0    0  0.32507398735E+02 -0.67362190030E+01  0.23474631292E+02  0.40659143292E+02  0.00000000000E+00 0.  1.
         11    1    3    3    0    0  0.89171703548E+00  0.90300909729E+01 -0.86206962348E+01  0.12516153806E+02  0.51100000000E-03 0. -1.
        -11    1    3    3    0    0 -0.32973861337E+02 -0.35477417195E+01 -0.15418787007E+02  0.36573227856E+02  0.51100000000E-03 0.  1.
        -12    1    3    3    0    0 -0.42525443382E+00  0.12538697496E+01  0.56485195019E+00  0.14394750460E+01  0.00000000000E+00 0.  1.
</event>
<event>
 7    1  0.1024956E-012  0.5052890E+02  0.7816164E-02  0.1300439E+00
        -11   -1    0    0    0    0  0.00000000000E+00  0.00000000000E+00  0.45593999997E+02  0.45594000000E+02  0.51100000000E-03 0. -1.
         11   -1    0    0    0    0 -0.00000000000E+00 -0.00000000000E+00 -0.45593999997E+02  0.45594000000E+02  0.51100000000E-03 0.  1.
    9900012    2    1    2    0    0 -0.12021771325E+02 -0.35235432467E+02  0.16343308818E+02  0.50528899788E+02  0.30000121394E+02 0.  0.
        -12    1    1    2    0    0  0.12021771325E+02  0.35235432467E+02 -0.16343308818E+02  0.40659100212E+02  0.00000000000E+00 0.  1.
         11    1    3    3    0    0  0.20911081068E+01 -0.27778528213E+02  0.18472131907E+02  0.33425125583E+02  0.51100000000E-03 0. -1.
        -11    1    3    3    0    0 -0.41989499370E+01  0.45213397817E+00  0.11397156873E+00  0.42247598142E+01  0.51100000000E-03 0.  1.
         12    1    3    3    0    0 -0.99139294946E+01 -0.79090382323E+01 -0.22427946576E+01  0.12879014390E+02  0.00000000000E+00 0. -1.
</event>
<event>
 7    1  0.1024956E-012  0.5052885E+02  0.7816164E-02  0.1300439E+00
        -11   -1    0    0    0    0  0.00000000000E+00  0.00000000000E+00  0.45593999997E+02  0.45594000000E+02  0.51100000000E-03 0. -1.
         11   -1    0    0    0    0 -0.00000000000E+00 -0.00000000000E+00 -0.45593999997E+02  0.45594000000E+02  0.51100000000E-03 0.  1.
    9900012    2    1    2    0    0 -0.14719623763E+02  0.32845438429E+02  0.18912325438E+02  0.50528853393E+02  0.29999980374E+02 0.  0.
        -12    1    1    2    0    0  0.14719623763E+02 -0.32845438429E+02 -0.18912325438E+02  0.40659146607E+02  0.00000000000E+00 0.  1.
         11    1    3    3    0    0  0.16732458686E+01  0.40815833357E+01  0.13643166651E+02  0.14338586778E+02  0.51100000000E-03 0. -1.
        -11    1    3    3    0    0 -0.13668482445E+02  0.12596379297E+02 -0.10549701198E+01  0.18617441982E+02  0.51100000000E-03 0.  1.
        -12    1    3    3    0    0 -0.27243871872E+01  0.16167475796E+02  0.63241289072E+01  0.17572824634E+02  0.00000000000E+00 0.  1.
</event>
<event>
 7    1  0.1024956E-012  0.5052885E+02  0.7816164E-02  0.1300439E+00
        -11   -1    0    0    0    0  0.00000000000E+00  0.00000000000E+00  0.45593999997E+02  0.45594000000E+02  0.51100000000E-03 0.  1.
         11   -1    0    0    0    0 -0.00000000000E+00 -0.00000000000E+00 -0.45593999997E+02  0.45594000000E+02  0.51100000000E-03 0. -1.
    9900012    2    1    2    0    0  0.34698957531E+02  0.19283231410E+02 -0.87923755398E+01  0.50528849308E+02  0.29999967956E+02 0.  0.
        -12    1    1    2    0    0 -0.34698957531E+02 -0.19283231410E+02  0.87923755398E+01  0.40659150692E+02  0.00000000000E+00 0.  1.
         11    1    3    3    0    0  0.31757552252E+02  0.26037486102E+02 -0.50582882904E+01  0.41377277439E+02  0.51100000000E-03 0. -1.
        -11    1    3    3    0    0  0.66493128125E+00 -0.21705023129E+01 -0.33133248174E+01  0.40163833863E+01  0.51100000000E-03 0.  1.
         12    1    3    3    0    0  0.22764739981E+01 -0.45837523784E+01 -0.42076243196E+00  0.51351884829E+01  0.00000000000E+00 0. -1.
</event>
<event>
 7    1  0.1024956E-012  0.5052886E+02  0.7816164E-02  0.1300439E+00
        -11   -1    0    0    0    0  0.00000000000E+00  0.00000000000E+00  0.45593999997E+02  0.45594000000E+02  0.51100000000E-03 0. -1.
         11   -1    0    0    0    0 -0.00000000000E+00 -0.00000000000E+00 -0.45593999997E+02  0.45594000000E+02  0.51100000000E-03 0.  1.
    9900012    2    1    2    0    0 -0.25047799221E+02  0.10657345690E+02  0.30202553199E+02  0.50528862248E+02  0.30000007290E+02 0.  0.
        -12    1    1    2    0    0  0.25047799221E+02 -0.10657345690E+02 -0.30202553199E+02  0.40659137752E+02  0.00000000000E+00 0.  1.
         11    1    3    3    0    0 -0.17437664742E+02 -0.61832430327E+01  0.15902186822E+02  0.24396397112E+02  0.51100000000E-03 0.  1.
        -11    1    3    3    0    0 -0.70633385468E+01  0.18142892671E+02  0.14979697953E+02  0.24565151270E+02  0.51100000000E-03 0. -1.
         12    1    3    3    0    0 -0.54679593246E+00 -0.13023039483E+01 -0.67933157639E+00  0.15673138665E+01  0.00000000000E+00 0. -1.
</event>
<event>
 7    1  0.1024956E-012  0.5052885E+02  0.7816164E-02  0.1300439E+00
        -11   -1    0    0    0    0  0.00000000000E+00  0.00000000000E+00  0.45593999997E+02  0.45594000000E+02  0.51100000000E-03 0.  1.
         11   -1    0    0    0    0 -0.00000000000E+00 -0.00000000000E+00 -0.45593999997E+02  0.45594000000E+02  0.51100000000E-03 0. -1.
    9900012    2    1    2    0    0  0.23169337005E+02 -0.30986719637E+01 -0.33267797894E+02  0.50528851929E+02  0.29999975922E+02 0.  0.
        -12    1    1    2    0    0 -0.23169337005E+02  0.30986719637E+01  0.33267797894E+02  0.40659148071E+02  0.00000000000E+00 0.  1.
         11    1    3    3    0    0  0.82541883562E+01  0.59668890122E+01 -0.23958481219E+02  0.26033520939E+02  0.51100000000E-03 0. -1.
        -11    1    3    3    0    0 -0.34088505752E+00 -0.12495263128E+01  0.30825590343E+01  0.33436042066E+01  0.51100000000E-03 0.  1.
         12    1    3    3    0    0  0.15256033706E+02 -0.78160346632E+01 -0.12391875709E+02  0.21151726783E+02  0.00000000000E+00 0. -1.
</event>
<event>
 7    1  0.1024956E-012  0.5052886E+02  0.7816164E-02  0.1300439E+00
        -11   -1    0    0    0    0  0.00000000000E+00  0.00000000000E+00  0.45593999997E+02  0.45594000000E+02  0.51100000000E-03 0.  1.
         11   -1    0    0    0    0 -0.00000000000E+00 -0.00000000000E+00 -0.45593999997E+02  0.45594000000E+02  0.51100000000E-03 0. -1.
    9900012    2    1    2    0    0 -0.28786549327E+02 -0.25928110384E+02 -0.12338272531E+02  0.50528864503E+02  0.30000014144E+02 0.  0.
        -12    1    1    2    0    0  0.28786549327E+02  0.25928110384E+02  0.12338272531E+02  0.40659135497E+02  0.00000000000E+00 0.  1.
         11    1    3    3    0    0 -0.24502638245E+00 -0.18420458489E+02 -0.11725266882E+01  0.18459364777E+02  0.51100000000E-03 0. -1.
        -11    1    3    3    0    0 -0.14149355006E+02 -0.36434021377E+01 -0.85830936307E+01  0.16945445487E+02  0.51100000000E-03 0.  1.
         12    1    3    3    0    0 -0.14392167939E+02 -0.38642497573E+01 -0.25826522124E+01  0.15124054239E+02  0.00000000000E+00 0. -1.
</event>
<event>
 7    1  0.1393175E-012  0.5052892E+02  0.7816164E-02  0.1300439E+00
        -11   -1    0    0    0    0  0.00000000000E+00  0.00000000000E+00  0.45593999997E+02  0.45594000000E+02  0.51100000000E-03 0.  1.
         11   -1    0    0    0    0 -0.00000000000E+00 -0.00000000000E+00 -0.45593999997E+02  0.45594000000E+02  0.51100000000E-03 0. -1.
    9900012    2    1    2    0    0  0.30889119616E+02 -0.13059762964E+02 -0.22988374923E+02  0.50528923512E+02  0.30000193506E+02 0.  0.
        -12    1    1    2    0    0 -0.30889119616E+02  0.13059762964E+02  0.22988374923E+02  0.40659076488E+02  0.00000000000E+00 0.  1.
         11    1    3    3    0    0  0.48533743819E+01 -0.33799125631E+01 -0.12863769856E+02  0.14158235307E+02  0.51100000000E-03 0. -1.
        -11    1    3    3    0    0  0.17691029151E+02 -0.11288173025E+02  0.25192287558E+01  0.21136269218E+02  0.51100000000E-03 0.  1.
        -12    1    3    3    0    0  0.83447160827E+01  0.16083226237E+01 -0.12643833822E+02  0.15234418988E+02  0.00000000000E+00 0.  1.
</event>
<event>
 7    1  0.1024956E-012  0.5052886E+02  0.7816164E-02  0.1300439E+00
        -11   -1    0    0    0    0  0.00000000000E+00  0.00000000000E+00  0.45593999997E+02  0.45594000000E+02  0.51100000000E-03 0.  1.
         11   -1    0    0    0    0 -0.00000000000E+00 -0.00000000000E+00 -0.45593999997E+02  0.45594000000E+02  0.51100000000E-03 0. -1.
    9900012    2    1    2    0    0  0.14160835433E+02  0.21754616493E+02 -0.31294935373E+02  0.50528861066E+02  0.30000003695E+02 0.  0.
        -12    1    1    2    0    0 -0.14160835433E+02 -0.21754616493E+02  0.31294935373E+02  0.40659138934E+02  0.00000000000E+00 0.  1.
         11    1    3    3    0    0 -0.35602601779E+01  0.82144126431E+01 -0.22223213445E+02  0.23958782183E+02  0.51100000000E-03 0. -1.
        -11    1    3    3    0    0  0.15589382955E+02  0.15567664057E+02 -0.80352809774E+01  0.23450943814E+02  0.51100000000E-03 0.  1.
        -12    1    3    3    0    0  0.21317126550E+01 -0.20274602070E+01 -0.10364409506E+01  0.31191350690E+01  0.00000000000E+00 0.  1.
</event>
<event>
 7    1  0.1024956E-012  0.5052886E+02  0.7816164E-02  0.1300439E+00
        -11   -1    0    0    0    0  0.00000000000E+00  0.00000000000E+00  0.45593999997E+02  0.45594000000E+02  0.51100000000E-03 0.  1.
         11   -1    0    0    0    0 -0.00000000000E+00 -0.00000000000E+00 -0.45593999997E+02  0.45594000000E+02  0.51100000000E-03 0. -1.
    9900012    2    1    2    0    0  0.11455392857E+02  0.30426549829E+02 -0.24416481733E+02  0.50528861541E+02  0.30000005140E+02 0.  0.
        -12    1    1    2    0    0 -0.11455392857E+02 -0.30426549829E+02  0.24416481733E+02  0.40659138459E+02  0.00000000000E+00 0.  1.
         11    1    3    3    0    0  0.90587265131E+01 -0.84237875168E+00 -0.13106107953E+02  0.15954315840E+02  0.51100000000E-03 0. -1.
        -11    1    3    3    0    0  0.59180374530E+01  0.20896663373E+02 -0.75239248184E+01  0.22984846146E+02  0.51100000000E-03 0.  1.
         12    1    3    3    0    0 -0.35213711093E+01  0.10372265208E+02 -0.37864489617E+01  0.11589699555E+02  0.00000000000E+00 0. -1.
</event>
<event>
 7    1  0.1024956E-012  0.5052878E+02  0.7816164E-02  0.1300439E+00
        -11   -1    0    0    0    0  0.00000000000E+00  0.00000000000E+00  0.45593999997E+02  0.45594000000E+02  0.51100000000E-03 0.  1.
         11   -1    0    0    0    0 -0.00000000000E+00 -0.00000000000E+00 -0.45593999997E+02  0.45594000000E+02  0.51100000000E-03 0. -1.
    9900012    2    1    2    0    0 -0.67808934026E+01  0.38763614050E+02  0.10226131381E+02  0.50528781457E+02  0.29999761715E+02 0.  0.
        -12    1    1    2    0    0  0.67808934026E+01 -0.38763614050E+02 -0.10226131381E+02  0.40659218543E+02  0.00000000000E+00 0.  1.
         11    1    3    3    0    0 -0.49718784759E+00  0.21017548866E+02 -0.16440811239E+01  0.21087616249E+02  0.51100000000E-03 0.  1.
        -11    1    3    3    0    0  0.16404419620E+01 -0.36567994617E+01  0.27655296489E+01  0.48694339131E+01  0.51100000000E-03 0. -1.
        -12    1    3    3    0    0 -0.79241475170E+01  0.21402864646E+02  0.91046828557E+01  0.24571731295E+02  0.00000000000E+00 0.  1.
</event>
<event>
 7    1  0.1024956E-012  0.5052885E+02  0.7816164E-02  0.1300439E+00
        -11   -1    0    0    0    0  0.00000000000E+00  0.00000000000E+00  0.45593999997E+02  0.45594000000E+02  0.51100000000E-03 0.  1.
         11   -1    0    0    0    0 -0.00000000000E+00 -0.00000000000E+00 -0.45593999997E+02  0.45594000000E+02  0.51100000000E-03 0. -1.
    9900012    2    1    2    0    0 -0.38329540575E+02 -0.13995567787E+01 -0.13492729700E+02  0.50528853494E+02  0.29999980679E+02 0.  0.
        -12    1    1    2    0    0  0.38329540575E+02  0.13995567787E+01  0.13492729700E+02  0.40659146506E+02  0.00000000000E+00 0.  1.
         11    1    3    3    0    0 -0.30961960005E+02 -0.15648496295E+01 -0.22728023725E+02  0.38440275551E+02  0.51100000000E-03 0. -1.
        -11    1    3    3    0    0 -0.78678638845E+00  0.60339131116E+00  0.23674897375E+01  0.25667336858E+01  0.51100000000E-03 0.  1.
         12    1    3    3    0    0 -0.65807941820E+01 -0.43809846039E+00  0.68678042875E+01  0.95218442572E+01  0.00000000000E+00 0. -1.
</event>
<event>
 7    1  0.1024956E-012  0.5052889E+02  0.7816164E-02  0.1300439E+00
        -11   -1    0    0    0    0  0.00000000000E+00  0.00000000000E+00  0.45593999997E+02  0.45594000000E+02  0.51100000000E-03 0.  1.
         11   -1    0    0    0    0 -0.00000000000E+00 -0.00000000000E+00 -0.45593999997E+02  0.45594000000E+02  0.51100000000E-03 0. -1.
    9900012    2    1    2    0    0 -0.38169022826E+02  0.62062469039E+01 -0.12560720030E+02  0.50528886731E+02  0.30000081709E+02 0.  0.
        -12    1    1    2    0    0  0.38169022826E+02 -0.62062469039E+01  0.12560720030E+02  0.40659113269E+02  0.00000000000E+00 0.  1.
         11    1    3    3    0    0 -0.16553352126E+02  0.75569136979E+01 -0.21581806346E+01  0.18324250466E+02  0.51100000000E-03 0. -1.
        -11    1    3    3    0    0 -0.42354722316E+01 -0.90146169902E+01 -0.85375009056E+01  0.13118363712E+02  0.51100000000E-03 0.  1.
        -12    1    3    3    0    0 -0.17380198469E+02  0.76639501962E+01 -0.18650384902E+01  0.19086272553E+02  0.00000000000E+00 0.  1.
</event>
<event>
 7    1  0.1024956E-012  0.5052886E+02  0.7816164E-02  0.1300439E+00
        -11   -1    0    0    0    0  0.00000000000E+00  0.00000000000E+00  0.45593999997E+02  0.45594000000E+02  0.51100000000E-03 0.  1.
         11   -1    0    0    0    0 -0.00000000000E+00 -0.00000000000E+00 -0.45593999997E+02  0.45594000000E+02  0.51100000000E-03 0. -1.
    9900012    2    1    2    0    0 -0.16277595203E+01  0.74202866619E+01 -0.39943150143E+02  0.50528862054E+02  0.30000006699E+02 0.  0.
        -12    1    1    2    0    0  0.16277595203E+01 -0.74202866619E+01  0.39943150143E+02  0.40659137946E+02  0.00000000000E+00 0.  1.
         11    1    3    3    0    0 -0.16821664160E+01  0.88502949149E+01 -0.15239986181E+02  0.17703518944E+02  0.51100000000E-03 0. -1.
        -11    1    3    3    0    0 -0.71632448538E+01 -0.78155317803E+01 -0.71079600228E+01  0.12763922195E+02  0.51100000000E-03 0.  1.
        -12    1    3    3    0    0  0.72176517495E+01  0.63855235273E+01 -0.17595203939E+02  0.20061420915E+02  0.00000000000E+00 0.  1.
</event>
<event>
 7    1  0.1024956E-012  0.5052887E+02  0.7816164E-02  0.1300439E+00
        -11   -1    0    0    0    0  0.00000000000E+00  0.00000000000E+00  0.45593999997E+02  0.45594000000E+02  0.51100000000E-03 0. -1.
         11   -1    0    0    0    0 -0.00000000000E+00 -0.00000000000E+00 -0.45593999997E+02  0.45594000000E+02  0.51100000000E-03 0.  1.
    9900012    2    1    2    0    0  0.14283153421E+02 -0.36598400487E+02  0.10474416934E+02  0.50528870645E+02  0.30000032812E+02 0.  0.
        -12    1    1    2    0    0 -0.14283153421E+02  0.36598400487E+02 -0.10474416934E+02  0.40659129355E+02  0.00000000000E+00 0.  1.
         11    1    3    3    0    0  0.18761162379E+02 -0.18133376664E+02  0.58802920141E+01  0.26746558610E+02  0.51100000000E-03 0. -1.
        -11    1    3    3    0    0 -0.73897927300E+01 -0.13189120235E+02  0.77401249442E+01  0.16984447697E+02  0.51100000000E-03 0.  1.
        -12    1    3    3    0    0  0.29117837719E+01 -0.52759035878E+01 -0.31460000240E+01  0.67978643376E+01  0.00000000000E+00 0.  1.
</event>
<event>
 7    1  0.1024956E-012  0.5052886E+02  0.7816164E-02  0.1300439E+00
        -11   -1    0    0    0    0  0.00000000000E+00  0.00000000000E+00  0.45593999997E+02  0.45594000000E+02  0.51100000000E-03 0.  1.
         11   -1    0    0    0    0 -0.00000000000E+00 -0.00000000000E+00 -0.45593999997E+02  0.45594000000E+02  0.51100000000E-03 0. -1.
    9900012    2    1    2    0    0 -0.29293152267E+02 -0.28175590989E+02 -0.11013742311E+01  0.50528859300E+02  0.29999998328E+02 0.  0.
        -12    1    1    2    0    0  0.29293152267E+02  0.28175590989E+02  0.11013742311E+01  0.40659140700E+02  0.00000000000E+00 0.  1.
         11    1    3    3    0    0  0.77541475002E+00 -0.30346643909E+01  0.82327003844E+01  0.88083943985E+01  0.51100000000E-03 0.  1.
        -11    1    3    3    0    0 -0.23690515724E+02 -0.14703155248E+02 -0.32876435926E+01  0.28075468120E+02  0.51100000000E-03 0. -1.
         12    1    3    3    0    0 -0.63780512930E+01 -0.10437771350E+02 -0.60464310229E+01  0.13644996781E+02  0.00000000000E+00 0. -1.
</event>
<event>
 7    1  0.1024956E-012  0.5052884E+02  0.7816164E-02  0.1300439E+00
        -11   -1    0    0    0    0  0.00000000000E+00  0.00000000000E+00  0.45593999997E+02  0.45594000000E+02  0.51100000000E-03 0. -1.
         11   -1    0    0    0    0 -0.00000000000E+00 -0.00000000000E+00 -0.45593999997E+02  0.45594000000E+02  0.51100000000E-03 0.  1.
    9900012    2    1    2    0    0  0.26578073867E+02 -0.28598184423E+02 -0.11354153203E+02  0.50528844109E+02  0.29999952155E+02 0.  0.
        -12    1    1    2    0    0 -0.26578073867E+02  0.28598184423E+02  0.11354153203E+02  0.40659155891E+02  0.00000000000E+00 0.  1.
         11    1    3    3    0    0  0.83740913576E+01 -0.44925030297E+01  0.76427573802E+01  0.12195069913E+02  0.51100000000E-03 0. -1.
        -11    1    3    3    0    0  0.26562720415E+01 -0.15032074241E+02 -0.95142005386E+01  0.17987191257E+02  0.51100000000E-03 0.  1.
         12    1    3    3    0    0  0.15547710468E+02 -0.90736071523E+01 -0.94827100446E+01  0.20346582940E+02  0.00000000000E+00 0. -1.
</event>
<event>
 7    1  0.1024956E-012  0.5052886E+02  0.7816164E-02  0.1300439E+00
        -11   -1    0    0    0    0  0.00000000000E+00  0.00000000000E+00  0.45593999997E+02  0.45594000000E+02  0.51100000000E-03 0.  1.
         11   -1    0    0    0    0 -0.00000000000E+00 -0.00000000000E+00 -0.45593999997E+02  0.45594000000E+02  0.51100000000E-03 0. -1.
    9900012    2    1    2    0    0  0.26029242726E+02 -0.29465223444E+02 -0.10365547467E+02  0.50528862727E+02  0.30000008746E+02 0.  0.
        -12    1    1    2    0    0 -0.26029242726E+02  0.29465223444E+02  0.10365547467E+02  0.40659137273E+02  0.00000000000E+00 0.  1.
         11    1    3    3    0    0  0.18589949327E+01 -0.17989905509E+02  0.30371618140E+01  0.18338945295E+02  0.51100000000E-03 0. -1.
        -11    1    3    3    0    0  0.10713232631E+02  0.86027281807E+00 -0.70823346927E+01  0.12871398048E+02  0.51100000000E-03 0.  1.
         12    1    3    3    0    0  0.13457015162E+02 -0.12335590753E+02 -0.63203745883E+01  0.19318519385E+02  0.00000000000E+00 0. -1.
</event>
<event>
 7    1  0.1024956E-012  0.5052886E+02  0.7816164E-02  0.1300439E+00
        -11   -1    0    0    0    0  0.00000000000E+00  0.00000000000E+00  0.45593999997E+02  0.45594000000E+02  0.51100000000E-03 0.  1.
         11   -1    0    0    0    0 -0.00000000000E+00 -0.00000000000E+00 -0.45593999997E+02  0.45594000000E+02  0.51100000000E-03 0. -1.
    9900012    2    1    2    0    0  0.13740843152E+02  0.35001888096E+02 -0.15466821176E+02  0.50528862059E+02  0.30000006713E+02 0.  0.
        -12    1    1    2    0    0 -0.13740843152E+02 -0.35001888096E+02  0.15466821176E+02  0.40659137941E+02  0.00000000000E+00 0.  1.
         11    1    3    3    0    0 -0.23571453694E+01  0.90231681984E+00 -0.69922754720E+01  0.74338567698E+01  0.51100000000E-03 0. -1.
        -11    1    3    3    0    0  0.18632534583E+02  0.17839297981E+02 -0.50065481254E+01  0.26276937071E+02  0.51100000000E-03 0.  1.
        -12    1    3    3    0    0 -0.25345460606E+01  0.16260273296E+02 -0.34679975786E+01  0.16818068218E+02  0.00000000000E+00 0.  1.
</event>
<event>
 7    1  0.1024956E-012  0.5052884E+02  0.7816164E-02  0.1300439E+00
        -11   -1    0    0    0    0  0.00000000000E+00  0.00000000000E+00  0.45593999997E+02  0.45594000000E+02  0.51100000000E-03 0. -1.
         11   -1    0    0    0    0 -0.00000000000E+00 -0.00000000000E+00 -0.45593999997E+02  0.45594000000E+02  0.51100000000E-03 0.  1.
    9900012    2    1    2    0    0  0.80419903012E+01 -0.17175571145E+02  0.35965172718E+02  0.50528837431E+02  0.29999931857E+02 0.  0.
        -12    1    1    2    0    0 -0.80419903012E+01  0.17175571145E+02 -0.35965172718E+02  0.40659162569E+02  0.00000000000E+00 0.  1.
         11    1    3    3    0    0  0.33366512776E+01 -0.21402041152E+02  0.10946832338E+02  0.24269605388E+02  0.51100000000E-03 0.  1.
        -11    1    3    3    0    0  0.50271764167E+01  0.50123060034E+01  0.21583893942E+02  0.22721359822E+02  0.51100000000E-03 0. -1.
        -12    1    3    3    0    0 -0.32183739309E+00 -0.78583599687E+00  0.34344464370E+01  0.35378722207E+01  0.00000000000E+00 0.  1.
</event>
<event>
 7    1  0.1024956E-012  0.5052876E+02  0.7816164E-02  0.1300439E+00
        -11   -1    0    0    0    0  0.00000000000E+00  0.00000000000E+00  0.45593999997E+02  0.45594000000E+02  0.51100000000E-03 0. -1.
         11   -1    0    0    0    0 -0.00000000000E+00 -0.00000000000E+00 -0.45593999997E+02  0.45594000000E+02  0.51100000000E-03 0.  1.
    9900012    2    1    2    0    0 -0.75808650963E+01  0.31326657961E+02  0.24785972673E+02  0.50528764199E+02  0.29999709257E+02 0.  0.
        -12    1    1    2    0    0  0.75808650963E+01 -0.31326657961E+02 -0.24785972673E+02  0.40659235801E+02  0.00000000000E+00 0.  1.
         11    1    3    3    0    0 -0.84046032394E+01  0.15141879576E+02  0.27958038291E+02  0.32887167377E+02  0.51100000000E-03 0. -1.
        -11    1    3    3    0    0 -0.21486222512E+01  0.95159489855E+01 -0.19702416261E+00  0.97574936052E+01  0.51100000000E-03 0.  1.
         12    1    3    3    0    0  0.29723603943E+01  0.66688293993E+01 -0.29750414557E+01  0.78841032169E+01  0.00000000000E+00 0. -1.
</event>
<event>
 7    1  0.1024956E-012  0.5052886E+02  0.7816164E-02  0.1300439E+00
        -11   -1    0    0    0    0  0.00000000000E+00  0.00000000000E+00  0.45593999997E+02  0.45594000000E+02  0.51100000000E-03 0.  1.
         11   -1    0    0    0    0 -0.00000000000E+00 -0.00000000000E+00 -0.45593999997E+02  0.45594000000E+02  0.51100000000E-03 0. -1.
    9900012    2    1    2    0    0  0.10801730408E+02 -0.17883824579E+02 -0.34880609122E+02  0.50528862600E+02  0.30000008359E+02 0.  0.
        -12    1    1    2    0    0 -0.10801730408E+02  0.17883824579E+02  0.34880609122E+02  0.40659137400E+02  0.00000000000E+00 0.  1.
         11    1    3    3    0    0  0.43100880672E+01  0.29483192046E+01 -0.26488196396E+02  0.26998036852E+02  0.51100000000E-03 0. -1.
        -11    1    3    3    0    0  0.58926966410E+01 -0.16012852686E+02 -0.72671119053E+01  0.18545787677E+02  0.51100000000E-03 0.  1.
         12    1    3    3    0    0  0.59894569968E+00 -0.48192910975E+01 -0.11253008205E+01  0.49850380710E+01  0.00000000000E+00 0. -1.
</event>
<event>
 7    1  0.1024956E-012  0.5052885E+02  0.7816164E-02  0.1300439E+00
        -11   -1    0    0    0    0  0.00000000000E+00  0.00000000000E+00  0.45593999997E+02  0.45594000000E+02  0.51100000000E-03 0. -1.
         11   -1    0    0    0    0 -0.00000000000E+00 -0.00000000000E+00 -0.45593999997E+02  0.45594000000E+02  0.51100000000E-03 0.  1.
    9900012    2    1    2    0    0 -0.31781568257E+01  0.32405274997E+02  0.24350854211E+02  0.50528848150E+02  0.29999964435E+02 0.  0.
        -12    1    1    2    0    0  0.31781568257E+01 -0.32405274997E+02 -0.24350854211E+02  0.40659151850E+02  0.00000000000E+00 0.  1.
         11    1    3    3    0    0 -0.67383039717E+01  0.93426529955E+01 -0.10453930188E+00  0.11519584807E+02  0.51100000000E-03 0. -1.
        -11    1    3    3    0    0  0.57501767040E+01  0.25036875912E+01  0.15031841277E+02  0.16287701990E+02  0.51100000000E-03 0.  1.
         12    1    3    3    0    0 -0.21900295579E+01  0.20558934410E+02  0.94235522355E+01  0.22721561352E+02  0.00000000000E+00 0. -1.
</event>
<event>
 7    1  0.1024956E-012  0.5052885E+02  0.7816164E-02  0.1300439E+00
        -11   -1    0    0    0    0  0.00000000000E+00  0.00000000000E+00  0.45593999997E+02  0.45594000000E+02  0.51100000000E-03 0. -1.
         11   -1    0    0    0    0 -0.00000000000E+00 -0.00000000000E+00 -0.45593999997E+02  0.45594000000E+02  0.51100000000E-03 0.  1.
    9900012    2    1    2    0    0 -0.86643960410E+01  0.25309113204E+02  0.30619327408E+02  0.50528853663E+02  0.29999981193E+02 0.  0.
        -12    1    1    2    0    0  0.86643960410E+01 -0.25309113204E+02 -0.30619327408E+02  0.40659146337E+02  0.00000000000E+00 0.  1.
         11    1    3    3    0    0 -0.37338604579E-02  0.17685996821E+02  0.25902290072E+01  0.17874668782E+02  0.51100000000E-03 0. -1.
        -11    1    3    3    0    0 -0.12315174367E+01 -0.32938263774E+01  0.51078828495E+01  0.62013220258E+01  0.51100000000E-03 0.  1.
         12    1    3    3    0    0 -0.74291447439E+01  0.10916942761E+02  0.22921215551E+02  0.26452862855E+02  0.00000000000E+00 0. -1.
</event>
<event>
 7    1  0.1024956E-012  0.5052886E+02  0.7816164E-02  0.1300439E+00
        -11   -1    0    0    0    0  0.00000000000E+00  0.00000000000E+00  0.45593999997E+02  0.45594000000E+02  0.51100000000E-03 0.  1.
         11   -1    0    0    0    0 -0.00000000000E+00 -0.00000000000E+00 -0.45593999997E+02  0.45594000000E+02  0.51100000000E-03 0. -1.
    9900012    2    1    2    0    0 -0.78668564209E+01  0.31776150153E+02 -0.24115440786E+02  0.50528860402E+02  0.30000001679E+02 0.  0.
        -12    1    1    2    0    0  0.78668564209E+01 -0.31776150153E+02  0.24115440786E+02  0.40659139598E+02  0.00000000000E+00 0.  1.
         11    1    3    3    0    0 -0.73657631414E+00  0.11917029300E+01 -0.17349882308E+02  0.17406352775E+02  0.51100000000E-03 0. -1.
        -11    1    3    3    0    0 -0.24121813697E+01  0.10543573702E+02 -0.63238028878E+01  0.12529008284E+02  0.51100000000E-03 0.  1.
         12    1    3    3    0    0 -0.47180987370E+01  0.20040873522E+02 -0.44175558996E+00  0.20593499343E+02  0.00000000000E+00 0. -1.
</event>
<event>
 7    1  0.1024956E-012  0.5052886E+02  0.7816164E-02  0.1300439E+00
        -11   -1    0    0    0    0  0.00000000000E+00  0.00000000000E+00  0.45593999997E+02  0.45594000000E+02  0.51100000000E-03 0.  1.
         11   -1    0    0    0    0 -0.00000000000E+00 -0.00000000000E+00 -0.45593999997E+02  0.45594000000E+02  0.51100000000E-03 0. -1.
    9900012    2    1    2    0    0 -0.35458128938E+01  0.83086201454E+01 -0.39642899559E+02  0.50528862734E+02  0.30000008765E+02 0.  0.
        -12    1    1    2    0    0  0.35458128938E+01 -0.83086201454E+01  0.39642899559E+02  0.40659137266E+02  0.00000000000E+00 0.  1.
         11    1    3    3    0    0 -0.26448132356E+01  0.76330339998E+00 -0.32975837551E+02  0.33090535378E+02  0.51100000000E-03 0. -1.
        -11    1    3    3    0    0  0.16118386447E+01 -0.11773072244E+01  0.33628868044E+01  0.39106372930E+01  0.51100000000E-03 0.  1.
         12    1    3    3    0    0 -0.25128383029E+01  0.87226239699E+01 -0.10029948813E+02  0.13527690063E+02  0.00000000000E+00 0. -1.
</event>
<event>
 7    1  0.1024956E-012  0.5052880E+02  0.7816164E-02  0.1300439E+00
        -11   -1    0    0    0    0  0.00000000000E+00  0.00000000000E+00  0.45593999997E+02  0.45594000000E+02  0.51100000000E-03 0. -1.
         11   -1    0    0    0    0 -0.00000000000E+00 -0.00000000000E+00 -0.45593999997E+02  0.45594000000E+02  0.51100000000E-03 0.  1.
    9900012    2    1    2    0    0 -0.27493826771E+01 -0.34459233829E+02  0.21404973638E+02  0.50528796889E+02  0.29999808624E+02 0.  0.
        -12    1    1    2    0    0  0.27493826771E+01  0.34459233829E+02 -0.21404973638E+02  0.40659203111E+02  0.00000000000E+00 0.  1.
         11    1    3    3    0    0 -0.76323127858E+01 -0.27871280537E+01  0.14435954971E+02  0.16565538851E+02  0.51100000000E-03 0. -1.
        -11    1    3    3    0    0 -0.24102132992E+01 -0.59655422870E+01  0.39949407853E+00  0.64464268169E+01  0.51100000000E-03 0.  1.
         12    1    3    3    0    0  0.72931434079E+01 -0.25706563488E+02  0.65695245879E+01  0.27516831221E+02  0.00000000000E+00 0. -1.
</event>
<event>
 7    1  0.1024956E-012  0.5052886E+02  0.7816164E-02  0.1300439E+00
        -11   -1    0    0    0    0  0.00000000000E+00  0.00000000000E+00  0.45593999997E+02  0.45594000000E+02  0.51100000000E-03 0.  1.
         11   -1    0    0    0    0 -0.00000000000E+00 -0.00000000000E+00 -0.45593999997E+02  0.45594000000E+02  0.51100000000E-03 0. -1.
    9900012    2    1    2    0    0 -0.38964204968E+02  0.37601653375E+01 -0.10991699553E+02  0.50528861160E+02  0.30000003983E+02 0.  0.
        -12    1    1    2    0    0  0.38964204968E+02 -0.37601653375E+01  0.10991699553E+02  0.40659138840E+02  0.00000000000E+00 0.  1.
         11    1    3    3    0    0 -0.32773424330E+02  0.24291801125E+01 -0.11453982264E+02  0.34802183384E+02  0.51100000000E-03 0. -1.
        -11    1    3    3    0    0  0.58173858881E+00  0.16420155897E+01  0.64502007725E+01  0.66812966742E+01  0.51100000000E-03 0.  1.
        -12    1    3    3    0    0 -0.67725192260E+01 -0.31103036470E+00 -0.59879180622E+01  0.90453811017E+01  0.00000000000E+00 0.  1.
</event>
<event>
 7    1  0.1035604E-012  0.5052886E+02  0.7816164E-02  0.1300439E+00
        -11   -1    0    0    0    0  0.00000000000E+00  0.00000000000E+00  0.45593999997E+02  0.45594000000E+02  0.51100000000E-03 0. -1.
         11   -1    0    0    0    0 -0.00000000000E+00 -0.00000000000E+00 -0.45593999997E+02  0.45594000000E+02  0.51100000000E-03 0.  1.
    9900012    2    1    2    0    0  0.35962731011E+02 -0.14705772014E+02 -0.11982814466E+02  0.50528860870E+02  0.30000003100E+02 0.  0.
        -12    1    1    2    0    0 -0.35962731011E+02  0.14705772014E+02  0.11982814466E+02  0.40659139130E+02  0.00000000000E+00 0.  1.
         11    1    3    3    0    0  0.22788088252E+02  0.12473110129E+01 -0.49285712531E+01  0.23348309699E+02  0.51100000000E-03 0. -1.
        -11    1    3    3    0    0  0.93910174197E+01 -0.14117113741E+02 -0.11937353089E+02  0.20736067795E+02  0.51100000000E-03 0.  1.
        -12    1    3    3    0    0  0.37836253390E+01 -0.18359692858E+01  0.48831098758E+01  0.64444833760E+01  0.00000000000E+00 0.  1.
</event>
<event>
 7    1  0.1024956E-012  0.5052887E+02  0.7816164E-02  0.1300439E+00
        -11   -1    0    0    0    0  0.00000000000E+00  0.00000000000E+00  0.45593999997E+02  0.45594000000E+02  0.51100000000E-03 0.  1.
         11   -1    0    0    0    0 -0.00000000000E+00 -0.00000000000E+00 -0.45593999997E+02  0.45594000000E+02  0.51100000000E-03 0. -1.
    9900012    2    1    2    0    0 -0.36582606400E+02 -0.13252960413E+02 -0.11799880958E+02  0.50528865216E+02  0.30000016312E+02 0.  0.
        -12    1    1    2    0    0  0.36582606400E+02  0.13252960413E+02  0.11799880958E+02  0.40659134784E+02  0.00000000000E+00 0.  1.
         11    1    3    3    0    0 -0.34408519382E+02 -0.59988605942E+01 -0.12549605287E+02  0.37113678443E+02  0.51100000000E-03 0. -1.
        -11    1    3    3    0    0 -0.52793686607E+01 -0.69266224533E+01  0.33704748551E+01  0.93386258666E+01  0.51100000000E-03 0.  1.
         12    1    3    3    0    0  0.31052816425E+01 -0.32747736533E+00 -0.26207505262E+01  0.40765609065E+01  0.00000000000E+00 0. -1.
</event>
<event>
 7    1  0.1024956E-012  0.5052885E+02  0.7816164E-02  0.1300439E+00
        -11   -1    0    0    0    0  0.00000000000E+00  0.00000000000E+00  0.45593999997E+02  0.45594000000E+02  0.51100000000E-03 0. -1.
         11   -1    0    0    0    0 -0.00000000000E+00 -0.00000000000E+00 -0.45593999997E+02  0.45594000000E+02  0.51100000000E-03 0.  1.
    9900012    2    1    2    0    0  0.37018657609E+02  0.14531390175E+02  0.84630943688E+01  0.50528852469E+02  0.29999977566E+02 0.  0.
        -12    1    1    2    0    0 -0.37018657609E+02 -0.14531390175E+02 -0.84630943688E+01  0.40659147531E+02  0.00000000000E+00 0.  1.
         11    1    3    3    0    0  0.31830209669E+02  0.18918549332E+02  0.12518634833E+02  0.39086954022E+02  0.51100000000E-03 0. -1.
        -11    1    3    3    0    0  0.51878524647E+01 -0.66124640358E+01 -0.37212006745E+01  0.91916172974E+01  0.51100000000E-03 0.  1.
         12    1    3    3    0    0  0.59547583564E-03  0.22253048788E+01 -0.33433978958E+00  0.22502811498E+01  0.00000000000E+00 0. -1.
</event>
<event>
 7    1  0.1024956E-012  0.5052891E+02  0.7816164E-02  0.1300439E+00
        -11   -1    0    0    0    0  0.00000000000E+00  0.00000000000E+00  0.45593999997E+02  0.45594000000E+02  0.51100000000E-03 0.  1.
         11   -1    0    0    0    0 -0.00000000000E+00 -0.00000000000E+00 -0.45593999997E+02  0.45594000000E+02  0.51100000000E-03 0. -1.
    9900012    2    1    2    0    0 -0.28412640483E+02 -0.27894570295E+02 -0.82326266424E+01  0.50528913284E+02  0.30000162417E+02 0.  0.
        -12    1    1    2    0    0  0.28412640483E+02  0.27894570295E+02  0.82326266424E+01  0.40659086716E+02  0.00000000000E+00 0.  1.
         11    1    3    3    0    0 -0.93253334439E+01 -0.22012187559E+02  0.43937850105E+01  0.24306451653E+02  0.51100000000E-03 0. -1.
        -11    1    3    3    0    0 -0.36474192152E+01  0.16353566889E+01  0.12020012461E+01  0.41740706376E+01  0.51100000000E-03 0.  1.
         12    1    3    3    0    0 -0.15439887824E+02 -0.75177394249E+01 -0.13828412899E+02  0.22048390993E+02  0.00000000000E+00 0. -1.
</event>
<event>
 7    1  0.1024956E-012  0.5052889E+02  0.7816164E-02  0.1300439E+00
        -11   -1    0    0    0    0  0.00000000000E+00  0.00000000000E+00  0.45593999997E+02  0.45594000000E+02  0.51100000000E-03 0.  1.
         11   -1    0    0    0    0 -0.00000000000E+00 -0.00000000000E+00 -0.45593999997E+02  0.45594000000E+02  0.51100000000E-03 0. -1.
    9900012    2    1    2    0    0  0.31197916791E+02 -0.12314756653E+02 -0.22982603890E+02  0.50528888781E+02  0.30000087940E+02 0.  0.
        -12    1    1    2    0    0 -0.31197916791E+02  0.12314756653E+02  0.22982603890E+02  0.40659111219E+02  0.00000000000E+00 0.  1.
         11    1    3    3    0    0 -0.33321248819E+01  0.39025384450E+00  0.22386396022E+01  0.40332197834E+01  0.51100000000E-03 0. -1.
        -11    1    3    3    0    0  0.61742419034E+01 -0.73777356817E+01 -0.99942316328E+01  0.13872163244E+02  0.51100000000E-03 0.  1.
         12    1    3    3    0    0  0.28355799769E+02 -0.53272748154E+01 -0.15227011860E+02  0.32623505754E+02  0.00000000000E+00 0. -1.
</event>
<event>
 7    1  0.1024956E-012  0.5052885E+02  0.7816164E-02  0.1300439E+00
        -11   -1    0    0    0    0  0.00000000000E+00  0.00000000000E+00  0.45593999997E+02  0.45594000000E+02  0.51100000000E-03 0.  1.
         11   -1    0    0    0    0 -0.00000000000E+00 -0.00000000000E+00 -0.45593999997E+02  0.45594000000E+02  0.51100000000E-03 0. -1.
    9900012    2    1    2    0    0 -0.24529444044E+02 -0.71500456104E+01 -0.31628309406E+02  0.50528846870E+02  0.29999960547E+02 0.  0.
        -12    1    1    2    0    0  0.24529444044E+02  0.71500456104E+01  0.31628309406E+02  0.40659153130E+02  0.00000000000E+00 0.  1.
         11    1    3    3    0    0  0.54906015706E+01  0.41521399348E+01 -0.45061763512E+01  0.82275511068E+01  0.51100000000E-03 0.  1.
        -11    1    3    3    0    0 -0.18862656212E+02 -0.44959545293E+01 -0.15999158064E+02  0.25139340992E+02  0.51100000000E-03 0. -1.
        -12    1    3    3    0    0 -0.11157389402E+02 -0.68062310159E+01 -0.11122974991E+02  0.17161954771E+02  0.00000000000E+00 0.  1.
</event>
<event>
 7    1  0.1024956E-012  0.5052886E+02  0.7816164E-02  0.1300439E+00
        -11   -1    0    0    0    0  0.00000000000E+00  0.00000000000E+00  0.45593999997E+02  0.45594000000E+02  0.51100000000E-03 0. -1.
         11   -1    0    0    0    0 -0.00000000000E+00 -0.00000000000E+00 -0.45593999997E+02  0.45594000000E+02  0.51100000000E-03 0.  1.
    9900012    2    1    2    0    0 -0.66688117779E+01 -0.34449534002E+02  0.20540753726E+02  0.50528855799E+02  0.29999987687E+02 0.  0.
        -12    1    1    2    0    0  0.66688117779E+01  0.34449534002E+02 -0.20540753726E+02  0.40659144201E+02  0.00000000000E+00 0.  1.
         11    1    3    3    0    0 -0.14642499494E+02 -0.62950535058E+01  0.46751913841E+01  0.16609873714E+02  0.51100000000E-03 0. -1.
        -11    1    3    3    0    0  0.36509417136E+01 -0.39525077969E+01  0.32517682394E+01  0.62869460173E+01  0.51100000000E-03 0.  1.
         12    1    3    3    0    0  0.43227460024E+01 -0.24201972700E+02  0.12613794103E+02  0.27632036067E+02  0.00000000000E+00 0. -1.
</event>
<event>
 7    1  0.1024956E-012  0.5052890E+02  0.7816164E-02  0.1300439E+00
        -11   -1    0    0    0    0  0.00000000000E+00  0.00000000000E+00  0.45593999997E+02  0.45594000000E+02  0.51100000000E-03 0.  1.
         11   -1    0    0    0    0 -0.00000000000E+00 -0.00000000000E+00 -0.45593999997E+02  0.45594000000E+02  0.51100000000E-03 0. -1.
    9900012    2    1    2    0    0 -0.28059611033E+02 -0.24223413751E+02 -0.16704692562E+02  0.50528901404E+02  0.30000126307E+02 0.  0.
        -12    1    1    2    0    0  0.28059611033E+02  0.24223413751E+02  0.16704692562E+02  0.40659098596E+02  0.00000000000E+00 0.  1.
         11    1    3    3    0    0 -0.12099435659E+02 -0.68114698520E+00 -0.25011518258E+01  0.12374007645E+02  0.51100000000E-03 0. -1.
        -11    1    3    3    0    0 -0.11636813583E+02 -0.27280973171E+02 -0.11249505633E+02  0.31720944260E+02  0.51100000000E-03 0.  1.
        -12    1    3    3    0    0 -0.43233617908E+01  0.37387064053E+01 -0.29540351031E+01  0.64339494985E+01  0.00000000000E+00 0.  1.
</event>
<event>
 7    1  0.1024956E-012  0.5052886E+02  0.7816164E-02  0.1300439E+00
        -11   -1    0    0    0    0  0.00000000000E+00  0.00000000000E+00  0.45593999997E+02  0.45594000000E+02  0.51100000000E-03 0. -1.
         11   -1    0    0    0    0 -0.00000000000E+00 -0.00000000000E+00 -0.45593999997E+02  0.45594000000E+02  0.51100000000E-03 0.  1.
    9900012    2    1    2    0    0 -0.16751442419E+02 -0.13115428062E+02  0.34648815162E+02  0.50528859963E+02  0.30000000345E+02 0.  0.
        -12    1    1    2    0    0  0.16751442419E+02  0.13115428062E+02 -0.34648815162E+02  0.40659140037E+02  0.00000000000E+00 0.  1.
         11    1    3    3    0    0 -0.92533037994E+01  0.54150825923E+01  0.26783706722E+02  0.28849847430E+02  0.51100000000E-03 0. -1.
        -11    1    3    3    0    0 -0.29258970965E+01 -0.78878412089E+01  0.17979506189E+01  0.86029959576E+01  0.51100000000E-03 0.  1.
         12    1    3    3    0    0 -0.45722415233E+01 -0.10642669445E+02  0.60671578209E+01  0.13076016576E+02  0.00000000000E+00 0. -1.
</event>
<event>
 7    1  0.1024956E-012  0.5052886E+02  0.7816164E-02  0.1300439E+00
        -11   -1    0    0    0    0  0.00000000000E+00  0.00000000000E+00  0.45593999997E+02  0.45594000000E+02  0.51100000000E-03 0.  1.
         11   -1    0    0    0    0 -0.00000000000E+00 -0.00000000000E+00 -0.45593999997E+02  0.45594000000E+02  0.51100000000E-03 0. -1.
    9900012    2    1    2    0    0  0.83035239128E+01  0.15795326196E+02 -0.36533883973E+02  0.50528861825E+02  0.30000006003E+02 0.  0.
        -12    1    1    2    0    0 -0.83035239128E+01 -0.15795326196E+02  0.36533883973E+02  0.40659138175E+02  0.00000000000E+00 0.  1.
         11    1    3    3    0    0 -0.39995699874E+01  0.19593617396E+02 -0.24951024109E+02  0.31975928557E+02  0.51100000000E-03 0. -1.
        -11    1    3    3    0    0  0.86150675957E+01 -0.30709176192E+01 -0.37888328236E+01  0.98997565186E+01  0.51100000000E-03 0.  1.
         12    1    3    3    0    0  0.36880263046E+01 -0.72737358055E+00 -0.77940270399E+01  0.86531767489E+01  0.00000000000E+00 0. -1.
</event>
<event>
 7    1  0.1024956E-012  0.5052888E+02  0.7816164E-02  0.1300439E+00
        -11   -1    0    0    0    0  0.00000000000E+00  0.00000000000E+00  0.45593999997E+02  0.45594000000E+02  0.51100000000E-03 0.  1.
         11   -1    0    0    0    0 -0.00000000000E+00 -0.00000000000E+00 -0.45593999997E+02  0.45594000000E+02  0.51100000000E-03 0. -1.
    9900012    2    1    2    0    0  0.40209057191E+02 -0.25856656911E+01 -0.54506903489E+01  0.50528880819E+02  0.30000063738E+02 0.  0.
        -12    1    1    2    0    0 -0.40209057191E+02  0.25856656911E+01  0.54506903489E+01  0.40659119181E+02  0.00000000000E+00 0.  1.
         11    1    3    3    0    0  0.20254969456E+02  0.50434682745E+01 -0.14797473629E+02  0.25586433631E+02  0.51100000000E-03 0. -1.
        -11    1    3    3    0    0  0.16846196324E+02 -0.41714166963E+01  0.39120094455E+01  0.17790415004E+02  0.51100000000E-03 0.  1.
        -12    1    3    3    0    0  0.31078914117E+01 -0.34577172693E+01  0.54347738345E+01  0.71520321849E+01  0.00000000000E+00 0.  1.
</event>
<event>
 7    1  0.1024956E-012  0.5052886E+02  0.7816164E-02  0.1300439E+00
        -11   -1    0    0    0    0  0.00000000000E+00  0.00000000000E+00  0.45593999997E+02  0.45594000000E+02  0.51100000000E-03 0. -1.
         11   -1    0    0    0    0 -0.00000000000E+00 -0.00000000000E+00 -0.45593999997E+02  0.45594000000E+02  0.51100000000E-03 0.  1.
    9900012    2    1    2    0    0  0.24537081133E+02 -0.22391229599E+02 -0.23446326091E+02  0.50528859322E+02  0.29999998396E+02 0.  0.
        -12    1    1    2    0    0 -0.24537081133E+02  0.22391229599E+02  0.23446326091E+02  0.40659140678E+02  0.00000000000E+00 0.  1.
         11    1    3    3    0    0  0.57905020762E+00 -0.61550582382E+01  0.59148084975E+01  0.85559921038E+01  0.51100000000E-03 0. -1.
        -11    1    3    3    0    0  0.17982286395E+02 -0.15906043821E+02 -0.23676306749E+02  0.33718427537E+02  0.51100000000E-03 0.  1.
         12    1    3    3    0    0  0.59757445307E+01 -0.33012753969E+00 -0.56848278392E+01  0.82544396812E+01  0.00000000000E+00 0. -1.
</event>
<event>
 7    1  0.1024956E-012  0.5052886E+02  0.7816164E-02  0.1300439E+00
        -11   -1    0    0    0    0  0.00000000000E+00  0.00000000000E+00  0.45593999997E+02  0.45594000000E+02  0.51100000000E-03 0.  1.
         11   -1    0    0    0    0 -0.00000000000E+00 -0.00000000000E+00 -0.45593999997E+02  0.45594000000E+02  0.51100000000E-03 0. -1.
    9900012    2    1    2    0    0 -0.45271926399E+01  0.24815589173E+02 -0.31888194287E+02  0.50528857436E+02  0.29999992662E+02 0.  0.
        -12    1    1    2    0    0  0.45271926399E+01 -0.24815589173E+02  0.31888194287E+02  0.40659142564E+02  0.00000000000E+00 0.  1.
         11    1    3    3    0    0  0.85203076086E+01  0.21325176556E+02 -0.17317123662E+02  0.28761807473E+02  0.51100000000E-03 0. -1.
        -11    1    3    3    0    0 -0.75728268766E+01 -0.43469706760E+00 -0.12670912143E+02  0.14767825948E+02  0.51100000000E-03 0.  1.
        -12    1    3    3    0    0 -0.54746733718E+01  0.39251096839E+01 -0.19001584822E+01  0.69992240153E+01  0.00000000000E+00 0.  1.
</event>
<event>
 7    1  0.1024956E-012  0.5052889E+02  0.7816164E-02  0.1300439E+00
        -11   -1    0    0    0    0  0.00000000000E+00  0.00000000000E+00  0.45593999997E+02  0.45594000000E+02  0.51100000000E-03 0. -1.
         11   -1    0    0    0    0 -0.00000000000E+00 -0.00000000000E+00 -0.45593999997E+02  0.45594000000E+02  0.51100000000E-03 0.  1.
    9900012    2    1    2    0    0  0.26213293759E+02 -0.17924186987E+02  0.25391925534E+02  0.50528891167E+02  0.30000095190E+02 0.  0.
        -12    1    1    2    0    0 -0.26213293759E+02  0.17924186987E+02 -0.25391925534E+02  0.40659108833E+02  0.00000000000E+00 0.  1.
         11    1    3    3    0    0  0.15722556345E+02 -0.76906242360E+00  0.99467004704E+01  0.18620609162E+02  0.51100000000E-03 0. -1.
        -11    1    3    3    0    0 -0.54509066401E+01 -0.72623225248E+01  0.61763497735E+01  0.10981849045E+02  0.51100000000E-03 0.  1.
        -12    1    3    3    0    0  0.15941644053E+02 -0.98928020382E+01  0.92688752900E+01  0.20926432960E+02  0.00000000000E+00 0.  1.
</event>
<event>
 7    1  0.1024956E-012  0.5052886E+02  0.7816164E-02  0.1300439E+00
        -11   -1    0    0    0    0  0.00000000000E+00  0.00000000000E+00  0.45593999997E+02  0.45594000000E+02  0.51100000000E-03 0.  1.
         11   -1    0    0    0    0 -0.00000000000E+00 -0.00000000000E+00 -0.45593999997E+02  0.45594000000E+02  0.51100000000E-03 0. -1.
    9900012    2    1    2    0    0 -0.30171161699E+02 -0.20117935923E+02 -0.18388466864E+02  0.50528855177E+02  0.29999985797E+02 0.  0.
        -12    1    1    2    0    0  0.30171161699E+02  0.20117935923E+02  0.18388466864E+02  0.40659144823E+02  0.00000000000E+00 0.  1.
         11    1    3    3    0    0 -0.26953373856E+02 -0.66837967221E+01 -0.14826529568E+02  0.31479890091E+02  0.51100000000E-03 0. -1.
        -11    1    3    3    0    0  0.25405391351E-02 -0.14961777390E+02 -0.17898617251E+01  0.15068456934E+02  0.51100000000E-03 0.  1.
         12    1    3    3    0    0 -0.32203283824E+01  0.15276381881E+01 -0.17720755711E+01  0.39805081528E+01  0.00000000000E+00 0. -1.
</event>
<event>
 7    1  0.1024956E-012  0.5052886E+02  0.7816164E-02  0.1300439E+00
        -11   -1    0    0    0    0  0.00000000000E+00  0.00000000000E+00  0.45593999997E+02  0.45594000000E+02  0.51100000000E-03 0.  1.
         11   -1    0    0    0    0 -0.00000000000E+00 -0.00000000000E+00 -0.45593999997E+02  0.45594000000E+02  0.51100000000E-03 0. -1.
    9900012    2    1    2    0    0  0.28458193507E+02 -0.20999591209E+01 -0.28963550912E+02  0.50528857272E+02  0.29999992163E+02 0.  0.
        -12    1    1    2    0    0 -0.28458193507E+02  0.20999591209E+01  0.28963550912E+02  0.40659142728E+02  0.00000000000E+00 0.  1.
         11    1    3    3    0    0  0.20547795004E+02 -0.49081246228E+01 -0.11170366062E+02  0.23897251831E+02  0.51100000000E-03 0. -1.
        -11    1    3    3    0    0 -0.12013536177E+01 -0.58829164478E+01 -0.10457458153E+02  0.12058622962E+02  0.51100000000E-03 0.  1.
        -12    1    3    3    0    0  0.91117521206E+01  0.86910819496E+01 -0.73357266967E+01  0.14572982479E+02  0.00000000000E+00 0.  1.
</event>
<event>
 7    1  0.1024956E-012  0.5052885E+02  0.7816164E-02  0.1300439E+00
        -11   -1    0    0    0    0  0.00000000000E+00  0.00000000000E+00  0.45593999997E+02  0.45594000000E+02  0.51100000000E-03 0. -1.
         11   -1    0    0    0    0 -0.00000000000E+00 -0.00000000000E+00 -0.45593999997E+02  0.45594000000E+02  0.51100000000E-03 0.  1.
    9900012    2    1    2    0    0  0.21831318252E+02 -0.33732507163E+02  0.62191356339E+01  0.50528854114E+02  0.29999982566E+02 0.  0.
        -12    1    1    2    0    0 -0.21831318252E+02  0.33732507163E+02 -0.62191356339E+01  0.40659145886E+02  0.00000000000E+00 0.  1.
         11    1    3    3    0    0  0.11863605698E+02 -0.12980578833E+02 -0.92415355791E+01  0.19865712852E+02  0.51100000000E-03 0. -1.
        -11    1    3    3    0    0  0.13204490959E+02 -0.16570973130E+02  0.12586798458E+02  0.24645146128E+02  0.51100000000E-03 0.  1.
        -12    1    3    3    0    0 -0.32367784052E+01 -0.41809552004E+01  0.28738727546E+01  0.60179951347E+01  0.00000000000E+00 0.  1.
</event>
<event>
 7    1  0.1024956E-012  0.5052885E+02  0.7816164E-02  0.1300439E+00
        -11   -1    0    0    0    0  0.00000000000E+00  0.00000000000E+00  0.45593999997E+02  0.45594000000E+02  0.51100000000E-03 0.  1.
         11   -1    0    0    0    0 -0.00000000000E+00 -0.00000000000E+00 -0.45593999997E+02  0.45594000000E+02  0.51100000000E-03 0. -1.
    9900012    2    1    2    0    0  0.16944434451E+02 -0.18842364447E+02 -0.31796501847E+02  0.50528854823E+02  0.29999984721E+02 0.  0.
        -12    1    1    2    0    0 -0.16944434451E+02  0.18842364447E+02  0.31796501847E+02  0.40659145177E+02  0.00000000000E+00 0.  1.
         11    1    3    3    0    0  0.18929180756E+02 -0.19967120190E+02 -0.35683731050E+02  0.45059165934E+02  0.51100000000E-03 0. -1.
        -11    1    3    3    0    0 -0.89637928459E+00  0.13431886193E+01  0.20983089221E+00  0.16283982171E+01  0.51100000000E-03 0.  1.
         12    1    3    3    0    0 -0.10883670198E+01 -0.21843287640E+00  0.36773983110E+01  0.38412906723E+01  0.00000000000E+00 0. -1.
</event>
<event>
 7    1  0.1024956E-012  0.5052886E+02  0.7816164E-02  0.1300439E+00
        -11   -1    0    0    0    0  0.00000000000E+00  0.00000000000E+00  0.45593999997E+02  0.45594000000E+02  0.51100000000E-03 0.  1.
         11   -1    0    0    0    0 -0.00000000000E+00 -0.00000000000E+00 -0.45593999997E+02  0.45594000000E+02  0.51100000000E-03 0. -1.
    9900012    2    1    2    0    0  0.17823608657E+02 -0.35112834288E+02 -0.10127855596E+02  0.50528860606E+02  0.30000002298E+02 0.  0.
        -12    1    1    2    0    0 -0.17823608657E+02  0.35112834288E+02  0.10127855596E+02  0.40659139394E+02  0.00000000000E+00 0.  1.
         11    1    3    3    0    0  0.10411671250E+02 -0.36741414663E+02 -0.42474956346E+01  0.38423634252E+02  0.51100000000E-03 0. -1.
        -11    1    3    3    0    0  0.73517821765E+01  0.33207610524E+01 -0.27081963797E+01  0.85094349419E+01  0.51100000000E-03 0.  1.
         12    1    3    3    0    0  0.60155231337E-01 -0.16921806770E+01 -0.31721635812E+01  0.35957914123E+01  0.00000000000E+00 0. -1.
</event>
<event>
 7    1  0.1024956E-012  0.5052886E+02  0.7816164E-02  0.1300439E+00
        -11   -1    0    0    0    0  0.00000000000E+00  0.00000000000E+00  0.45593999997E+02  0.45594000000E+02  0.51100000000E-03 0. -1.
         11   -1    0    0    0    0 -0.00000000000E+00 -0.00000000000E+00 -0.45593999997E+02  0.45594000000E+02  0.51100000000E-03 0.  1.
    9900012    2    1    2    0    0 -0.14968408803E+02  0.27425070834E+02 -0.26018791238E+02  0.50528864866E+02  0.30000015247E+02 0.  0.
        -12    1    1    2    0    0  0.14968408803E+02 -0.27425070834E+02  0.26018791238E+02  0.40659135134E+02  0.00000000000E+00 0.  1.
         11    1    3    3    0    0 -0.19441626364E+02  0.17417014624E+02 -0.10879671676E+02  0.28278905391E+02  0.51100000000E-03 0. -1.
        -11    1    3    3    0    0  0.81896488705E+01  0.38665123500E+01 -0.74112668929E+01  0.11702441779E+02  0.51100000000E-03 0.  1.
         12    1    3    3    0    0 -0.37164313087E+01  0.61415438604E+01 -0.77278526692E+01  0.10547517696E+02  0.00000000000E+00 0. -1.
</event>
<event>
 7    1  0.1024956E-012  0.5052886E+02  0.7816164E-02  0.1300439E+00
        -11   -1    0    0    0    0  0.00000000000E+00  0.00000000000E+00  0.45593999997E+02  0.45594000000E+02  0.51100000000E-03 0.  1.
         11   -1    0    0    0    0 -0.00000000000E+00 -0.00000000000E+00 -0.45593999997E+02  0.45594000000E+02  0.51100000000E-03 0. -1.
    9900012    2    1    2    0    0  0.29921936382E+02  0.80401439242E+01 -0.26328687634E+02  0.50528856087E+02  0.29999988562E+02 0.  0.
        -12    1    1    2    0    0 -0.29921936382E+02 -0.80401439242E+01  0.26328687634E+02  0.40659143913E+02  0.00000000000E+00 0.  1.
         11    1    3    3    0    0  0.17794452652E+02 -0.68961532318E+01 -0.13287247347E+02  0.23254040872E+02  0.51100000000E-03 0. -1.
        -11    1    3    3    0    0  0.12521871372E+02  0.14605855283E+02 -0.15535570540E+02  0.24728166602E+02  0.51100000000E-03 0.  1.
        -12    1    3    3    0    0 -0.39438764219E+00  0.33044187259E+00  0.24941302520E+01  0.25466486129E+01  0.00000000000E+00 0.  1.
</event>
<event>
 7    1  0.1024956E-012  0.5052887E+02  0.7816164E-02  0.1300439E+00
        -11   -1    0    0    0    0  0.00000000000E+00  0.00000000000E+00  0.45593999997E+02  0.45594000000E+02  0.51100000000E-03 0.  1.
         11   -1    0    0    0    0 -0.00000000000E+00 -0.00000000000E+00 -0.45593999997E+02  0.45594000000E+02  0.51100000000E-03 0. -1.
    9900012    2    1    2    0    0 -0.81933773689E+01 -0.36340574215E+02 -0.16290990738E+02  0.50528866386E+02  0.30000019868E+02 0.  0.
        -12    1    1    2    0    0  0.81933773689E+01  0.36340574215E+02  0.16290990738E+02  0.40659133614E+02  0.00000000000E+00 0.  1.
         11    1    3    3    0    0 -0.94025249354E+00  0.25646555085E+01  0.22748828659E+01  0.35548030808E+01  0.51100000000E-03 0.  1.
        -11    1    3    3    0    0 -0.45295840984E+01 -0.28090003304E+02 -0.41597886343E+01  0.28755334452E+02  0.51100000000E-03 0. -1.
         12    1    3    3    0    0 -0.27235407770E+01 -0.10815226420E+02 -0.14406084969E+02  0.18218728853E+02  0.00000000000E+00 0. -1.
</event>
<event>
 7    1  0.1024956E-012  0.5052886E+02  0.7816164E-02  0.1300439E+00
        -11   -1    0    0    0    0  0.00000000000E+00  0.00000000000E+00  0.45593999997E+02  0.45594000000E+02  0.51100000000E-03 0.  1.
         11   -1    0    0    0    0 -0.00000000000E+00 -0.00000000000E+00 -0.45593999997E+02  0.45594000000E+02  0.51100000000E-03 0. -1.
    9900012    2    1    2    0    0  0.25703281702E+02 -0.71555297979E+01 -0.30680696815E+02  0.50528862601E+02  0.30000008362E+02 0.  0.
        -12    1    1    2    0    0 -0.25703281702E+02  0.71555297979E+01  0.30680696815E+02  0.40659137399E+02  0.00000000000E+00 0.  1.
         11    1    3    3    0    0  0.53443472332E+01  0.40894110781E+01 -0.81426524395E+01  0.10563527788E+02  0.51100000000E-03 0.  1.
        -11    1    3    3    0    0  0.13559406988E+02 -0.16796644068E+02 -0.22509021663E+02  0.31187190099E+02  0.51100000000E-03 0. -1.
        -12    1    3    3    0    0  0.67995274813E+01  0.55517031918E+01 -0.29022713089E-01  0.87781447138E+01  0.00000000000E+00 0.  1.
</event>
<event>
 7    1  0.1024956E-012  0.5052886E+02  0.7816164E-02  0.1300439E+00
        -11   -1    0    0    0    0  0.00000000000E+00  0.00000000000E+00  0.45593999997E+02  0.45594000000E+02  0.51100000000E-03 0. -1.
         11   -1    0    0    0    0 -0.00000000000E+00 -0.00000000000E+00 -0.45593999997E+02  0.45594000000E+02  0.51100000000E-03 0.  1.
    9900012    2    1    2    0    0 -0.27499030480E+02  0.28725544346E+02  0.84742016218E+01  0.50528859964E+02  0.30000000348E+02 0.  0.
        -12    1    1    2    0    0  0.27499030480E+02 -0.28725544346E+02 -0.84742016218E+01  0.40659140036E+02  0.00000000000E+00 0.  1.
         11    1    3    3    0    0 -0.53065738650E+01  0.21182972204E+01  0.87535265211E+01  0.10453283509E+02  0.51100000000E-03 0. -1.
        -11    1    3    3    0    0 -0.13767022144E+02  0.57044854771E+01 -0.71306494559E+01  0.16520236535E+02  0.51100000000E-03 0.  1.
         12    1    3    3    0    0 -0.84254344709E+01  0.20902761649E+02  0.68513245565E+01  0.23555339920E+02  0.00000000000E+00 0. -1.
</event>
<event>
 7    1  0.1024956E-012  0.5052886E+02  0.7816164E-02  0.1300439E+00
        -11   -1    0    0    0    0  0.00000000000E+00  0.00000000000E+00  0.45593999997E+02  0.45594000000E+02  0.51100000000E-03 0.  1.
         11   -1    0    0    0    0 -0.00000000000E+00 -0.00000000000E+00 -0.45593999997E+02  0.45594000000E+02  0.51100000000E-03 0. -1.
    9900012    2    1    2    0    0 -0.39863723241E+02  0.79394062664E+01  0.10074616789E+01  0.50528861033E+02  0.30000003596E+02 0.  0.
        -12    1    1    2    0    0  0.39863723241E+02 -0.79394062664E+01 -0.10074616789E+01  0.40659138967E+02  0.00000000000E+00 0.  1.
         11    1    3    3    0    0  0.27318445144E+00  0.52843377378E+01 -0.30900331736E+01  0.61275737733E+01  0.51100000000E-03 0. -1.
        -11    1    3    3    0    0 -0.11624873159E+02  0.34967973582E+01  0.94437086148E+01  0.15380146306E+02  0.51100000000E-03 0.  1.
        -12    1    3    3    0    0 -0.28512034533E+02 -0.84172882961E+00 -0.53462137623E+01  0.29021140954E+02  0.00000000000E+00 0.  1.
</event>
<event>
 7    1  0.1024956E-012  0.5052887E+02  0.7816164E-02  0.1300439E+00
        -11   -1    0    0    0    0  0.00000000000E+00  0.00000000000E+00  0.45593999997E+02  0.45594000000E+02  0.51100000000E-03 0. -1.
         11   -1    0    0    0    0 -0.00000000000E+00 -0.00000000000E+00 -0.45593999997E+02  0.45594000000E+02  0.51100000000E-03 0.  1.
    9900012    2    1    2    0    0  0.27579970807E+02 -0.25301278855E+02  0.15885689469E+02  0.50528872718E+02  0.30000039115E+02 0.  0.
        -12    1    1    2    0    0 -0.27579970807E+02  0.25301278855E+02 -0.15885689469E+02  0.40659127282E+02  0.00000000000E+00 0.  1.
         11    1    3    3    0    0  0.16810901532E+02 -0.21350314188E+02  0.36053836267E+01  0.27412426336E+02  0.51100000000E-03 0. -1.
        -11    1    3    3    0    0  0.10539548448E+01  0.43804438516E+01 -0.10613026583E+01  0.46287657907E+01  0.51100000000E-03 0.  1.
         12    1    3    3    0    0  0.97151144295E+01 -0.83314085181E+01  0.13341608501E+02  0.18487680592E+02  0.00000000000E+00 0. -1.
</event>
<event>
 7    1  0.1024956E-012  0.5052877E+02  0.7816164E-02  0.1300439E+00
        -11   -1    0    0    0    0  0.00000000000E+00  0.00000000000E+00  0.45593999997E+02  0.45594000000E+02  0.51100000000E-03 0.  1.
         11   -1    0    0    0    0 -0.00000000000E+00 -0.00000000000E+00 -0.45593999997E+02  0.45594000000E+02  0.51100000000E-03 0. -1.
    9900012    2    1    2    0    0  0.17559710411E+02 -0.30493236508E+02 -0.20371349691E+02  0.50528772380E+02  0.29999734126E+02 0.  0.
        -12    1    1    2    0    0 -0.17559710411E+02  0.30493236508E+02  0.20371349691E+02  0.40659227620E+02  0.00000000000E+00 0.  1.
         11    1    3    3    0    0  0.21842900748E+02 -0.30096884832E+02 -0.22216122129E+02  0.43318481880E+02  0.51100000000E-03 0. -1.
        -11    1    3    3    0    0 -0.36415624720E+01 -0.13319768250E+01  0.34866514742E+01  0.52145832301E+01  0.51100000000E-03 0.  1.
         12    1    3    3    0    0 -0.64162786577E+00  0.93562514933E+00 -0.16418790361E+01  0.19957072700E+01  0.00000000000E+00 0. -1.
</event>
<event>
 7    1  0.1024956E-012  0.5052886E+02  0.7816164E-02  0.1300439E+00
        -11   -1    0    0    0    0  0.00000000000E+00  0.00000000000E+00  0.45593999997E+02  0.45594000000E+02  0.51100000000E-03 0.  1.
         11   -1    0    0    0    0 -0.00000000000E+00 -0.00000000000E+00 -0.45593999997E+02  0.45594000000E+02  0.51100000000E-03 0. -1.
    9900012    2    1    2    0    0 -0.91060045191E+01 -0.11925921619E+02 -0.37789131195E+02  0.50528863742E+02  0.30000011831E+02 0.  0.
        -12    1    1    2    0    0  0.91060045191E+01  0.11925921619E+02  0.37789131195E+02  0.40659136258E+02  0.00000000000E+00 0.  1.
         11    1    3    3    0    0 -0.98950207814E+01 -0.12559804089E+02 -0.34097680053E+02  0.37660481945E+02  0.51100000000E-03 0. -1.
        -11    1    3    3    0    0 -0.22869250164E+01  0.58000553367E+01 -0.11453947285E+01  0.63389744664E+01  0.51100000000E-03 0.  1.
         12    1    3    3    0    0  0.30759412787E+01 -0.51661728671E+01 -0.25460564129E+01  0.65294073314E+01  0.00000000000E+00 0. -1.
</event>
<event>
 7    1  0.1024956E-012  0.5052887E+02  0.7816164E-02  0.1300439E+00
        -11   -1    0    0    0    0  0.00000000000E+00  0.00000000000E+00  0.45593999997E+02  0.45594000000E+02  0.51100000000E-03 0. -1.
         11   -1    0    0    0    0 -0.00000000000E+00 -0.00000000000E+00 -0.45593999997E+02  0.45594000000E+02  0.51100000000E-03 0.  1.
    9900012    2    1    2    0    0 -0.11084985613E+02 -0.37074943262E+02  0.12479453677E+02  0.50528867103E+02  0.30000022046E+02 0.  0.
        -12    1    1    2    0    0  0.11084985613E+02  0.37074943262E+02 -0.12479453677E+02  0.40659132897E+02  0.00000000000E+00 0.  1.
         11    1    3    3    0    0 -0.12262486812E+02 -0.16004176326E+02  0.98304241089E+01  0.22430770854E+02  0.51100000000E-03 0. -1.
        -11    1    3    3    0    0  0.28014448918E+01  0.28490166031E+01  0.50946157373E+00  0.40279697668E+01  0.51100000000E-03 0.  1.
         12    1    3    3    0    0 -0.16239436928E+01 -0.23919783539E+02  0.21395679938E+01  0.24070126482E+02  0.00000000000E+00 0. -1.
</event>
<event>
 7    1  0.1024956E-012  0.5052889E+02  0.7816164E-02  0.1300439E+00
        -11   -1    0    0    0    0  0.00000000000E+00  0.00000000000E+00  0.45593999997E+02  0.45594000000E+02  0.51100000000E-03 0.  1.
         11   -1    0    0    0    0 -0.00000000000E+00 -0.00000000000E+00 -0.45593999997E+02  0.45594000000E+02  0.51100000000E-03 0. -1.
    9900012    2    1    2    0    0 -0.24499850588E+01  0.39625063753E+02 -0.87758391762E+01  0.50528887153E+02  0.30000082991E+02 0.  0.
        -12    1    1    2    0    0  0.24499850588E+01 -0.39625063753E+02  0.87758391762E+01  0.40659112847E+02  0.00000000000E+00 0.  1.
         11    1    3    3    0    0  0.62832313928E+01  0.11350857294E+02 -0.11373145513E+02  0.17253098190E+02  0.51100000000E-03 0. -1.
        -11    1    3    3    0    0 -0.42741233619E+01  0.62026141877E+01  0.70558350469E+01  0.10321112428E+02  0.51100000000E-03 0.  1.
         12    1    3    3    0    0 -0.44590930896E+01  0.22071592272E+02 -0.44585287097E+01  0.22954676535E+02  0.00000000000E+00 0. -1.
</event>
<event>
 7    1  0.1024956E-012  0.5052886E+02  0.7816164E-02  0.1300439E+00
        -11   -1    0    0    0    0  0.00000000000E+00  0.00000000000E+00  0.45593999997E+02  0.45594000000E+02  0.51100000000E-03 0.  1.
         11   -1    0    0    0    0 -0.00000000000E+00 -0.00000000000E+00 -0.45593999997E+02  0.45594000000E+02  0.51100000000E-03 0. -1.
    9900012    2    1    2    0    0 -0.26632697803E+02 -0.26505332054E+02 -0.15534878788E+02  0.50528859840E+02  0.29999999969E+02 0.  0.
        -12    1    1    2    0    0  0.26632697803E+02  0.26505332054E+02  0.15534878788E+02  0.40659140160E+02  0.00000000000E+00 0.  1.
         11    1    3    3    0    0 -0.10828752447E+02 -0.20940232051E+02 -0.40819627265E+01  0.23925250633E+02  0.51100000000E-03 0. -1.
        -11    1    3    3    0    0 -0.18995664119E+02 -0.18067772835E+01 -0.91130001187E+01  0.21145838146E+02  0.51100000000E-03 0.  1.
        -12    1    3    3    0    0  0.31917187626E+01 -0.37583227203E+01 -0.23399159432E+01  0.54577710607E+01  0.00000000000E+00 0.  1.
</event>
<event>
 7    1  0.1024956E-012  0.5052889E+02  0.7816164E-02  0.1300439E+00
        -11   -1    0    0    0    0  0.00000000000E+00  0.00000000000E+00  0.45593999997E+02  0.45594000000E+02  0.51100000000E-03 0.  1.
         11   -1    0    0    0    0 -0.00000000000E+00 -0.00000000000E+00 -0.45593999997E+02  0.45594000000E+02  0.51100000000E-03 0. -1.
    9900012    2    1    2    0    0 -0.14918897008E+01 -0.29716503680E+02  0.27710416722E+02  0.50528886375E+02  0.30000080625E+02 0.  0.
        -12    1    1    2    0    0  0.14918897008E+01  0.29716503680E+02 -0.27710416722E+02  0.40659113625E+02  0.00000000000E+00 0.  1.
         11    1    3    3    0    0  0.40402647579E+01 -0.42701033848E+01 -0.42233936413E+01  0.72384097937E+01  0.51100000000E-03 0. -1.
        -11    1    3    3    0    0  0.50868540640E-01 -0.38309881544E+01  0.14406721063E+02  0.14907470272E+02  0.51100000000E-03 0.  1.
         12    1    3    3    0    0 -0.55830229993E+01 -0.21615412141E+02  0.17527089301E+02  0.28383006310E+02  0.00000000000E+00 0. -1.
</event>
<event>
 7    1  0.1530867E-012  0.5052889E+02  0.7816164E-02  0.1300439E+00
        -11   -1    0    0    0    0  0.00000000000E+00  0.00000000000E+00  0.45593999997E+02  0.45594000000E+02  0.51100000000E-03 0. -1.
         11   -1    0    0    0    0 -0.00000000000E+00 -0.00000000000E+00 -0.45593999997E+02  0.45594000000E+02  0.51100000000E-03 0.  1.
    9900012    2    1    2    0    0 -0.21793526105E+02 -0.39528279860E+01  0.34096632349E+02  0.50528893188E+02  0.30000101335E+02 0.  0.
        -12    1    1    2    0    0  0.21793526105E+02  0.39528279860E+01 -0.34096632349E+02  0.40659106812E+02  0.00000000000E+00 0.  1.
         11    1    3    3    0    0 -0.18147997001E+02 -0.73254277240E+01  0.22990467736E+02  0.30192272082E+02  0.51100000000E-03 0. -1.
        -11    1    3    3    0    0  0.32910645889E+01  0.16348451773E+01  0.12519212217E+02  0.13047394364E+02  0.51100000000E-03 0.  1.
        -12    1    3    3    0    0 -0.69365936932E+01  0.17377545606E+01 -0.14130476042E+01  0.72892267429E+01  0.00000000000E+00 0.  1.
</event>
<event>
 7    1  0.1024956E-012  0.5052885E+02  0.7816164E-02  0.1300439E+00
        -11   -1    0    0    0    0  0.00000000000E+00  0.00000000000E+00  0.45593999997E+02  0.45594000000E+02  0.51100000000E-03 0.  1.
         11   -1    0    0    0    0 -0.00000000000E+00 -0.00000000000E+00 -0.45593999997E+02  0.45594000000E+02  0.51100000000E-03 0. -1.
    9900012    2    1    2    0    0  0.11074499188E+02 -0.26582284349E+00 -0.39120981351E+02  0.50528851264E+02  0.29999973902E+02 0.  0.
        -12    1    1    2    0    0 -0.11074499188E+02  0.26582284349E+00  0.39120981351E+02  0.40659148736E+02  0.00000000000E+00 0.  1.
         11    1    3    3    0    0  0.93773463328E+01  0.74220752620E+01 -0.16010954084E+02  0.19984305752E+02  0.51100000000E-03 0. -1.
        -11    1    3    3    0    0 -0.39148245477E+01 -0.24912057850E+01 -0.22385958464E+02  0.22861826132E+02  0.51100000000E-03 0.  1.
         12    1    3    3    0    0  0.56119774025E+01 -0.51966923205E+01 -0.72406880391E+00  0.76827193800E+01  0.00000000000E+00 0. -1.
</event>
<event>
 7    1  0.1024956E-012  0.5052884E+02  0.7816164E-02  0.1300439E+00
        -11   -1    0    0    0    0  0.00000000000E+00  0.00000000000E+00  0.45593999997E+02  0.45594000000E+02  0.51100000000E-03 0.  1.
         11   -1    0    0    0    0 -0.00000000000E+00 -0.00000000000E+00 -0.45593999997E+02  0.45594000000E+02  0.51100000000E-03 0. -1.
    9900012    2    1    2    0    0  0.36713219917E+02 -0.15162423306E+02 -0.86837681171E+01  0.50528838352E+02  0.29999934656E+02 0.  0.
        -12    1    1    2    0    0 -0.36713219917E+02  0.15162423306E+02  0.86837681171E+01  0.40659161648E+02  0.00000000000E+00 0.  1.
         11    1    3    3    0    0  0.97118518206E+00  0.56047440540E+01 -0.37641847496E+01  0.68209562130E+01  0.51100000000E-03 0. -1.
        -11    1    3    3    0    0  0.11526783433E+02 -0.11320792973E+02  0.32131054083E+01  0.16472739191E+02  0.51100000000E-03 0.  1.
         12    1    3    3    0    0  0.24215251302E+02 -0.94463743866E+01 -0.81326887758E+01  0.27235142948E+02  0.00000000000E+00 0. -1.
</event>
<event>
 7    1  0.1024956E-012  0.5052887E+02  0.7816164E-02  0.1300439E+00
        -11   -1    0    0    0    0  0.00000000000E+00  0.00000000000E+00  0.45593999997E+02  0.45594000000E+02  0.51100000000E-03 0.  1.
         11   -1    0    0    0    0 -0.00000000000E+00 -0.00000000000E+00 -0.45593999997E+02  0.45594000000E+02  0.51100000000E-03 0. -1.
    9900012    2    1    2    0    0  0.18902468711E+02  0.41610197619E+01 -0.35756785594E+02  0.50528866649E+02  0.30000020667E+02 0.  0.
        -12    1    1    2    0    0 -0.18902468711E+02 -0.41610197619E+01  0.35756785594E+02  0.40659133351E+02  0.00000000000E+00 0.  1.
         11    1    3    3    0    0  0.10347989718E+00 -0.46341329190E+01 -0.16836599644E+02  0.17463017604E+02  0.51100000000E-03 0.  1.
        -11    1    3    3    0    0  0.48116019084E+01  0.82850021479E+00  0.31044730324E+01  0.57858170210E+01  0.51100000000E-03 0. -1.
        -12    1    3    3    0    0  0.13987386906E+02  0.79666524661E+01 -0.22024658982E+02  0.27280032024E+02  0.00000000000E+00 0.  1.
</event>
<event>
 7    1  0.1024956E-012  0.5052886E+02  0.7816164E-02  0.1300439E+00
        -11   -1    0    0    0    0  0.00000000000E+00  0.00000000000E+00  0.45593999997E+02  0.45594000000E+02  0.51100000000E-03 0.  1.
         11   -1    0    0    0    0 -0.00000000000E+00 -0.00000000000E+00 -0.45593999997E+02  0.45594000000E+02  0.51100000000E-03 0. -1.
    9900012    2    1    2    0    0 -0.36784283298E+02 -0.10851989710E+02 -0.13502460963E+02  0.50528860432E+02  0.30000001768E+02 0.  0.
        -12    1    1    2    0    0  0.36784283298E+02  0.10851989710E+02  0.13502460963E+02  0.40659139568E+02  0.00000000000E+00 0.  1.
         11    1    3    3    0    0 -0.23738663442E+02 -0.53852925723E+01 -0.13180988141E+02  0.27681473348E+02  0.51100000000E-03 0. -1.
        -11    1    3    3    0    0 -0.31418658383E+01 -0.10976049374E+02  0.88067066344E+00  0.11450788702E+02  0.51100000000E-03 0.  1.
        -12    1    3    3    0    0 -0.99037540175E+01  0.55093522369E+01 -0.12021434860E+01  0.11396598382E+02  0.00000000000E+00 0.  1.
</event>
<event>
 7    1  0.1024956E-012  0.5052889E+02  0.7816164E-02  0.1300439E+00
        -11   -1    0    0    0    0  0.00000000000E+00  0.00000000000E+00  0.45593999997E+02  0.45594000000E+02  0.51100000000E-03 0. -1.
         11   -1    0    0    0    0 -0.00000000000E+00 -0.00000000000E+00 -0.45593999997E+02  0.45594000000E+02  0.51100000000E-03 0.  1.
    9900012    2    1    2    0    0  0.40102031254E+02  0.46617918801E+01  0.48226512408E+01  0.50528890576E+02  0.30000093394E+02 0.  0.
        -12    1    1    2    0    0 -0.40102031254E+02 -0.46617918801E+01 -0.48226512408E+01  0.40659109424E+02  0.00000000000E+00 0.  1.
         11    1    3    3    0    0  0.42833063317E+01  0.37671597329E+01  0.81801892581E+01  0.99726476998E+01  0.51100000000E-03 0. -1.
        -11    1    3    3    0    0  0.37754104077E+02  0.61524627577E+00 -0.48865273471E+01  0.38073994437E+02  0.51100000000E-03 0.  1.
        -12    1    3    3    0    0 -0.19353791552E+01  0.27938587138E+00  0.15289893298E+01  0.24822484385E+01  0.00000000000E+00 0.  1.
</event>
<event>
 7    1  0.1024956E-012  0.5052886E+02  0.7816164E-02  0.1300439E+00
        -11   -1    0    0    0    0  0.00000000000E+00  0.00000000000E+00  0.45593999997E+02  0.45594000000E+02  0.51100000000E-03 0.  1.
         11   -1    0    0    0    0 -0.00000000000E+00 -0.00000000000E+00 -0.45593999997E+02  0.45594000000E+02  0.51100000000E-03 0. -1.
    9900012    2    1    2    0    0  0.14688744728E+02 -0.97468648737E+01 -0.36638846857E+02  0.50528859631E+02  0.29999999333E+02 0.  0.
        -12    1    1    2    0    0 -0.14688744728E+02  0.97468648737E+01  0.36638846857E+02  0.40659140369E+02  0.00000000000E+00 0.  1.
         11    1    3    3    0    0  0.10176149415E+02 -0.14812908603E+02 -0.13813524867E+02  0.22666930708E+02  0.51100000000E-03 0. -1.
        -11    1    3    3    0    0  0.84881726453E+00  0.65163287931E+01 -0.23007041558E+01  0.69624903276E+01  0.51100000000E-03 0.  1.
        -12    1    3    3    0    0  0.36637780490E+01 -0.14502850638E+01 -0.20524617834E+02  0.20899438595E+02  0.00000000000E+00 0.  1.
</event>
<event>
 7    1  0.1024956E-012  0.5052888E+02  0.7816164E-02  0.1300439E+00
        -11   -1    0    0    0    0  0.00000000000E+00  0.00000000000E+00  0.45593999997E+02  0.45594000000E+02  0.51100000000E-03 0.  1.
         11   -1    0    0    0    0 -0.00000000000E+00 -0.00000000000E+00 -0.45593999997E+02  0.45594000000E+02  0.51100000000E-03 0. -1.
    9900012    2    1    2    0    0  0.23824619170E+02  0.32716212008E+02 -0.38988335918E+01  0.50528881587E+02  0.30000066070E+02 0.  0.
        -12    1    1    2    0    0 -0.23824619170E+02 -0.32716212008E+02  0.38988335918E+01  0.40659118413E+02  0.00000000000E+00 0.  1.
         11    1    3    3    0    0 -0.30725326264E+01  0.16403051464E+02 -0.49030224460E+01  0.17393682285E+02  0.51100000000E-03 0. -1.
        -11    1    3    3    0    0  0.15902723420E+02  0.13630778265E+02  0.42291522381E+01  0.21367743381E+02  0.51100000000E-03 0.  1.
         12    1    3    3    0    0  0.10994428376E+02  0.26823822801E+01 -0.32249633839E+01  0.11767455921E+02  0.00000000000E+00 0. -1.
</event>
<event>
 7    1  0.1024956E-012  0.5052887E+02  0.7816164E-02  0.1300439E+00
        -11   -1    0    0    0    0  0.00000000000E+00  0.00000000000E+00  0.45593999997E+02  0.45594000000E+02  0.51100000000E-03 0.  1.
         11   -1    0    0    0    0 -0.00000000000E+00 -0.00000000000E+00 -0.45593999997E+02  0.45594000000E+02  0.51100000000E-03 0. -1.
    9900012    2    1    2    0    0 -0.10364809133E+02  0.27059044333E+02 -0.28522687658E+02  0.50528869909E+02  0.30000030575E+02 0.  0.
        -12    1    1    2    0    0  0.10364809133E+02 -0.27059044333E+02  0.28522687658E+02  0.40659130091E+02  0.00000000000E+00 0.  1.
         11    1    3    3    0    0 -0.11338805607E+02  0.22656586544E+02 -0.24368594589E+02  0.35152778395E+02  0.51100000000E-03 0. -1.
        -11    1    3    3    0    0  0.69241707905E+01  0.87266712611E+00  0.56456139536E+00  0.70017439884E+01  0.51100000000E-03 0.  1.
        -12    1    3    3    0    0 -0.59501743165E+01  0.35297906630E+01 -0.47186544641E+01  0.83743475252E+01  0.00000000000E+00 0.  1.
</event>
<event>
 7    1  0.1024956E-012  0.5052886E+02  0.7816164E-02  0.1300439E+00
        -11   -1    0    0    0    0  0.00000000000E+00  0.00000000000E+00  0.45593999997E+02  0.45594000000E+02  0.51100000000E-03 0. -1.
         11   -1    0    0    0    0 -0.00000000000E+00 -0.00000000000E+00 -0.45593999997E+02  0.45594000000E+02  0.51100000000E-03 0.  1.
    9900012    2    1    2    0    0 -0.24521219001E+02  0.13379256019E+02  0.29544391821E+02  0.50528858826E+02  0.29999996888E+02 0.  0.
        -12    1    1    2    0    0  0.24521219001E+02 -0.13379256019E+02 -0.29544391821E+02  0.40659141174E+02  0.00000000000E+00 0.  1.
         11    1    3    3    0    0 -0.10746321833E+02  0.10719920667E+02  0.62789472147E+01  0.16426360231E+02  0.51100000000E-03 0. -1.
        -11    1    3    3    0    0  0.33750153802E+01 -0.38967184154E+01  0.10631255948E+02  0.11815191345E+02  0.51100000000E-03 0.  1.
        -12    1    3    3    0    0 -0.17149912549E+02  0.65560537670E+01  0.12634188658E+02  0.22287307251E+02  0.00000000000E+00 0.  1.
</event>
<event>
 7    1  0.1024956E-012  0.5052885E+02  0.7816164E-02  0.1300439E+00
        -11   -1    0    0    0    0  0.00000000000E+00  0.00000000000E+00  0.45593999997E+02  0.45594000000E+02  0.51100000000E-03 0. -1.
         11   -1    0    0    0    0 -0.00000000000E+00 -0.00000000000E+00 -0.45593999997E+02  0.45594000000E+02  0.51100000000E-03 0.  1.
    9900012    2    1    2    0    0 -0.40142732094E+02  0.46560973489E+01  0.44775436115E+01  0.50528848763E+02  0.29999966301E+02 0.  0.
        -12    1    1    2    0    0  0.40142732094E+02 -0.46560973489E+01 -0.44775436115E+01  0.40659151237E+02  0.00000000000E+00 0.  1.
         11    1    3    3    0    0 -0.27261511833E+02 -0.51734508479E+01  0.10280038680E+02  0.29591110432E+02  0.51100000000E-03 0. -1.
        -11    1    3    3    0    0  0.15513634811E+01 -0.31166063711E+00 -0.25500881879E+01  0.30011349571E+01  0.51100000000E-03 0.  1.
         12    1    3    3    0    0 -0.14432583742E+02  0.10141208834E+02 -0.32524068802E+01  0.17936603374E+02  0.00000000000E+00 0. -1.
</event>
<event>
 7    1  0.1024956E-012  0.5052888E+02  0.7816164E-02  0.1300439E+00
        -11   -1    0    0    0    0  0.00000000000E+00  0.00000000000E+00  0.45593999997E+02  0.45594000000E+02  0.51100000000E-03 0.  1.
         11   -1    0    0    0    0 -0.00000000000E+00 -0.00000000000E+00 -0.45593999997E+02  0.45594000000E+02  0.51100000000E-03 0. -1.
    9900012    2    1    2    0    0 -0.27589009276E+02  0.28656841929E+02 -0.84140202848E+01  0.50528883439E+02  0.30000071700E+02 0.  0.
        -12    1    1    2    0    0  0.27589009276E+02 -0.28656841929E+02  0.84140202848E+01  0.40659116561E+02  0.00000000000E+00 0.  1.
         11    1    3    3    0    0 -0.20614190522E+02  0.26389863713E+01 -0.60969357639E+01  0.21658294622E+02  0.51100000000E-03 0. -1.
        -11    1    3    3    0    0 -0.88368375098E+01  0.21305578358E+02 -0.42384732186E+01  0.23451695500E+02  0.51100000000E-03 0.  1.
        -12    1    3    3    0    0  0.18620187557E+01  0.47122772003E+01  0.19213886977E+01  0.54188933175E+01  0.00000000000E+00 0.  1.
</event>
<event>
 7    1  0.1024956E-012  0.5052886E+02  0.7816164E-02  0.1300439E+00
        -11   -1    0    0    0    0  0.00000000000E+00  0.00000000000E+00  0.45593999997E+02  0.45594000000E+02  0.51100000000E-03 0.  1.
         11   -1    0    0    0    0 -0.00000000000E+00 -0.00000000000E+00 -0.45593999997E+02  0.45594000000E+02  0.51100000000E-03 0. -1.
    9900012    2    1    2    0    0  0.21052598821E+02  0.19478486080E+02 -0.28819129897E+02  0.50528860989E+02  0.30000003461E+02 0.  0.
        -12    1    1    2    0    0 -0.21052598821E+02 -0.19478486080E+02  0.28819129897E+02  0.40659139011E+02  0.00000000000E+00 0.  1.
         11    1    3    3    0    0  0.19460531634E+02  0.33141222328E+01 -0.12308973893E+02  0.23263846118E+02  0.51100000000E-03 0. -1.
        -11    1    3    3    0    0 -0.11818064948E+01  0.88595475397E+01  0.67377524065E-01  0.89382766343E+01  0.51100000000E-03 0.  1.
        -12    1    3    3    0    0  0.27738736823E+01  0.73048163073E+01 -0.16577533528E+02  0.18326738236E+02  0.00000000000E+00 0.  1.
</event>
<event>
 7    1  0.1024956E-012  0.5052890E+02  0.7816164E-02  0.1300439E+00
        -11   -1    0    0    0    0  0.00000000000E+00  0.00000000000E+00  0.45593999997E+02  0.45594000000E+02  0.51100000000E-03 0.  1.
         11   -1    0    0    0    0 -0.00000000000E+00 -0.00000000000E+00 -0.45593999997E+02  0.45594000000E+02  0.51100000000E-03 0. -1.
    9900012    2    1    2    0    0 -0.34558326916E+02  0.64511533280E+01 -0.20427119806E+02  0.50528898165E+02  0.30000116462E+02 0.  0.
        -12    1    1    2    0    0  0.34558326916E+02 -0.64511533280E+01  0.20427119806E+02  0.40659101835E+02  0.00000000000E+00 0.  1.
         11    1    3    3    0    0 -0.25965927116E+02  0.10201633788E+02 -0.85968750072E+01  0.29192618298E+02  0.51100000000E-03 0. -1.
        -11    1    3    3    0    0 -0.35524464713E+01 -0.82555707915E+01 -0.16832506113E+01  0.91437223222E+01  0.51100000000E-03 0.  1.
        -12    1    3    3    0    0 -0.50399533289E+01  0.45050903317E+01 -0.10146994187E+02  0.12192557545E+02  0.00000000000E+00 0.  1.
</event>
<event>
 7    1  0.1024956E-012  0.5052886E+02  0.7816164E-02  0.1300439E+00
        -11   -1    0    0    0    0  0.00000000000E+00  0.00000000000E+00  0.45593999997E+02  0.45594000000E+02  0.51100000000E-03 0.  1.
         11   -1    0    0    0    0 -0.00000000000E+00 -0.00000000000E+00 -0.45593999997E+02  0.45594000000E+02  0.51100000000E-03 0. -1.
    9900012    2    1    2    0    0 -0.22235566237E+02  0.16203718391E+02 -0.29936349957E+02  0.50528856571E+02  0.29999990034E+02 0.  0.
        -12    1    1    2    0    0  0.22235566237E+02 -0.16203718391E+02  0.29936349957E+02  0.40659143429E+02  0.00000000000E+00 0.  1.
         11    1    3    3    0    0  0.50073873177E+01  0.38676229807E+01 -0.20540628048E+00  0.63304523749E+01  0.51100000000E-03 0.  1.
        -11    1    3    3    0    0 -0.21118847108E+02  0.79889025733E+01 -0.13482831940E+02  0.26298574579E+02  0.51100000000E-03 0. -1.
         12    1    3    3    0    0 -0.61241064470E+01  0.43471928374E+01 -0.16248111737E+02  0.17899829618E+02  0.00000000000E+00 0. -1.
</event>
<event>
 7    1  0.1024956E-012  0.5052886E+02  0.7816164E-02  0.1300439E+00
        -11   -1    0    0    0    0  0.00000000000E+00  0.00000000000E+00  0.45593999997E+02  0.45594000000E+02  0.51100000000E-03 0.  1.
         11   -1    0    0    0    0 -0.00000000000E+00 -0.00000000000E+00 -0.45593999997E+02  0.45594000000E+02  0.51100000000E-03 0. -1.
    9900012    2    1    2    0    0  0.63743331520E+01 -0.55496152177E+01 -0.39771036782E+02  0.50528859343E+02  0.29999998460E+02 0.  0.
        -12    1    1    2    0    0 -0.63743331520E+01  0.55496152177E+01  0.39771036782E+02  0.40659140657E+02  0.00000000000E+00 0.  1.
         11    1    3    3    0    0  0.54355726439E+01 -0.83821524562E+01 -0.38012120884E+02  0.39303018512E+02  0.51100000000E-03 0. -1.
        -11    1    3    3    0    0 -0.21857709837E+01 -0.32813416778E+01 -0.18592627246E+01  0.43590889116E+01  0.51100000000E-03 0.  1.
         12    1    3    3    0    0  0.31245314918E+01  0.61138789162E+01  0.10034682611E+00  0.68667519200E+01  0.00000000000E+00 0. -1.
</event>
<event>
 7    1  0.1024956E-012  0.5052888E+02  0.7816164E-02  0.1300439E+00
        -11   -1    0    0    0    0  0.00000000000E+00  0.00000000000E+00  0.45593999997E+02  0.45594000000E+02  0.51100000000E-03 0.  1.
         11   -1    0    0    0    0 -0.00000000000E+00 -0.00000000000E+00 -0.45593999997E+02  0.45594000000E+02  0.51100000000E-03 0. -1.
    9900012    2    1    2    0    0  0.29230520171E+02 -0.22015111828E+02 -0.17722183992E+02  0.50528877239E+02  0.30000052855E+02 0.  0.
        -12    1    1    2    0    0 -0.29230520171E+02  0.22015111828E+02  0.17722183992E+02  0.40659122761E+02  0.00000000000E+00 0.  1.
         11    1    3    3    0    0  0.28194600111E+02 -0.25511599850E+02 -0.17704901149E+02  0.41943303724E+02  0.51100000000E-03 0. -1.
        -11    1    3    3    0    0 -0.17810966453E+01  0.12350473102E+01  0.31213786174E+01  0.38000857691E+01  0.51100000000E-03 0.  1.
         12    1    3    3    0    0  0.28170167055E+01  0.22614407113E+01 -0.31386614595E+01  0.47854877460E+01  0.00000000000E+00 0. -1.
</event>
<event>
 7    1  0.1024956E-012  0.5052885E+02  0.7816164E-02  0.1300439E+00
        -11   -1    0    0    0    0  0.00000000000E+00  0.00000000000E+00  0.45593999997E+02  0.45594000000E+02  0.51100000000E-03 0. -1.
         11   -1    0    0    0    0 -0.00000000000E+00 -0.00000000000E+00 -0.45593999997E+02  0.45594000000E+02  0.51100000000E-03 0.  1.
    9900012    2    1    2    0    0 -0.37954541325E+02 -0.61581068228E+00  0.14568449826E+02  0.50528853915E+02  0.29999981961E+02 0.  0.
        -12    1    1    2    0    0  0.37954541325E+02  0.61581068228E+00 -0.14568449826E+02  0.40659146085E+02  0.00000000000E+00 0.  1.
         11    1    3    3    0    0 -0.29011201531E+02 -0.78918545774E+01  0.27302985837E+01  0.30189165499E+02  0.51100000000E-03 0. -1.
        -11    1    3    3    0    0 -0.86865708792E+01  0.97461048956E+01  0.12153001602E+02  0.17836438055E+02  0.51100000000E-03 0.  1.
        -12    1    3    3    0    0 -0.25676891545E+00 -0.24700610006E+01 -0.31485035985E+00  0.25032503613E+01  0.00000000000E+00 0.  1.
</event>
<event>
 7    1  0.1024956E-012  0.5052889E+02  0.7816164E-02  0.1300439E+00
        -11   -1    0    0    0    0  0.00000000000E+00  0.00000000000E+00  0.45593999997E+02  0.45594000000E+02  0.51100000000E-03 0.  1.
         11   -1    0    0    0    0 -0.00000000000E+00 -0.00000000000E+00 -0.45593999997E+02  0.45594000000E+02  0.51100000000E-03 0. -1.
    9900012    2    1    2    0    0  0.92979451252E+01  0.35446190778E+02 -0.17614739394E+02  0.50528889482E+02  0.30000090068E+02 0.  0.
        -12    1    1    2    0    0 -0.92979451252E+01 -0.35446190778E+02  0.17614739394E+02  0.40659110518E+02  0.00000000000E+00 0.  1.
         11    1    3    3    0    0 -0.91215618944E+01  0.50721971498E+01  0.44102965872E+00  0.10446271236E+02  0.51100000000E-03 0. -1.
        -11    1    3    3    0    0  0.93779135190E+01  0.11704746788E+02 -0.85595157811E+01  0.17268806270E+02  0.51100000000E-03 0.  1.
         12    1    3    3    0    0  0.90415935007E+01  0.18669246841E+02 -0.94962532715E+01  0.22813811975E+02  0.00000000000E+00 0. -1.
</event>
<event>
 7    1  0.1024956E-012  0.5052891E+02  0.7816164E-02  0.1300439E+00
        -11   -1    0    0    0    0  0.00000000000E+00  0.00000000000E+00  0.45593999997E+02  0.45594000000E+02  0.51100000000E-03 0.  1.
         11   -1    0    0    0    0 -0.00000000000E+00 -0.00000000000E+00 -0.45593999997E+02  0.45594000000E+02  0.51100000000E-03 0. -1.
    9900012    2    1    2    0    0 -0.19726843094E+02  0.34738841854E+02 -0.75647822646E+01  0.50528912424E+02  0.30000159804E+02 0.  0.
        -12    1    1    2    0    0  0.19726843094E+02 -0.34738841854E+02  0.75647822646E+01  0.40659087576E+02  0.00000000000E+00 0.  1.
         11    1    3    3    0    0 -0.16484496584E+02  0.20834547950E+02  0.41410897462E+01  0.26888020389E+02  0.51100000000E-03 0. -1.
        -11    1    3    3    0    0 -0.43582773384E+01  0.15431523501E+02 -0.13554205994E+02  0.20996261556E+02  0.51100000000E-03 0.  1.
         12    1    3    3    0    0  0.11159308283E+01 -0.15272295974E+01  0.18483339837E+01  0.26446304793E+01  0.00000000000E+00 0. -1.
</event>
<event>
 7    1  0.1024956E-012  0.5052885E+02  0.7816164E-02  0.1300439E+00
        -11   -1    0    0    0    0  0.00000000000E+00  0.00000000000E+00  0.45593999997E+02  0.45594000000E+02  0.51100000000E-03 0.  1.
         11   -1    0    0    0    0 -0.00000000000E+00 -0.00000000000E+00 -0.45593999997E+02  0.45594000000E+02  0.51100000000E-03 0. -1.
    9900012    2    1    2    0    0 -0.26880971545E+02  0.86136636686E+01 -0.29264045349E+02  0.50528853634E+02  0.29999981107E+02 0.  0.
        -12    1    1    2    0    0  0.26880971545E+02 -0.86136636686E+01  0.29264045349E+02  0.40659146366E+02  0.00000000000E+00 0.  1.
         11    1    3    3    0    0 -0.19204517261E+02 -0.23773721422E+01 -0.20142766725E+02  0.27931996583E+02  0.51100000000E-03 0. -1.
        -11    1    3    3    0    0 -0.11298731047E+02  0.10113937607E+02 -0.30423370829E+01  0.15466378774E+02  0.51100000000E-03 0.  1.
        -12    1    3    3    0    0  0.36222767625E+01  0.87709820378E+00 -0.60789415413E+01  0.71304782775E+01  0.00000000000E+00 0.  1.
</event>
<event>
 7    1  0.1024956E-012  0.5052884E+02  0.7816164E-02  0.1300439E+00
        -11   -1    0    0    0    0  0.00000000000E+00  0.00000000000E+00  0.45593999997E+02  0.45594000000E+02  0.51100000000E-03 0. -1.
         11   -1    0    0    0    0 -0.00000000000E+00 -0.00000000000E+00 -0.45593999997E+02  0.45594000000E+02  0.51100000000E-03 0.  1.
    9900012    2    1    2    0    0  0.17360049135E+02  0.29494637874E+02  0.21951364468E+02  0.50528839023E+02  0.29999936696E+02 0.  0.
        -12    1    1    2    0    0 -0.17360049135E+02 -0.29494637874E+02 -0.21951364468E+02  0.40659160977E+02  0.00000000000E+00 0.  1.
         11    1    3    3    0    0  0.22147288458E+02  0.13404374066E+02  0.19686335771E+02  0.32522783499E+02  0.51100000000E-03 0. -1.
        -11    1    3    3    0    0 -0.27182091625E+01  0.97086118427E+01 -0.16836301168E+01  0.10221566201E+02  0.51100000000E-03 0.  1.
         12    1    3    3    0    0 -0.20690301601E+01  0.63816519653E+01  0.39486588133E+01  0.77844893239E+01  0.00000000000E+00 0. -1.
</event>
<event>
 7    1  0.1024956E-012  0.5052882E+02  0.7816164E-02  0.1300439E+00
        -11   -1    0    0    0    0  0.00000000000E+00  0.00000000000E+00  0.45593999997E+02  0.45594000000E+02  0.51100000000E-03 0. -1.
         11   -1    0    0    0    0 -0.00000000000E+00 -0.00000000000E+00 -0.45593999997E+02  0.45594000000E+02  0.51100000000E-03 0.  1.
    9900012    2    1    2    0    0 -0.26749388829E+02  0.28085907295E+02  0.12199227192E+02  0.50528817330E+02  0.29999870755E+02 0.  0.
        -12    1    1    2    0    0  0.26749388829E+02 -0.28085907295E+02 -0.12199227192E+02  0.40659182670E+02  0.00000000000E+00 0.  1.
         11    1    3    3    0    0 -0.48361933003E+01  0.20988563100E+02  0.21158185806E+01  0.21642209572E+02  0.51100000000E-03 0. -1.
        -11    1    3    3    0    0 -0.71105789314E+01 -0.39479379466E+01  0.68044522365E+00  0.81614675600E+01  0.51100000000E-03 0.  1.
         12    1    3    3    0    0 -0.14802616597E+02  0.11045282142E+02  0.94029633880E+01  0.20725140197E+02  0.00000000000E+00 0. -1.
</event>
<event>
 7    1  0.1024956E-012  0.5052887E+02  0.7816164E-02  0.1300439E+00
        -11   -1    0    0    0    0  0.00000000000E+00  0.00000000000E+00  0.45593999997E+02  0.45594000000E+02  0.51100000000E-03 0.  1.
         11   -1    0    0    0    0 -0.00000000000E+00 -0.00000000000E+00 -0.45593999997E+02  0.45594000000E+02  0.51100000000E-03 0. -1.
    9900012    2    1    2    0    0  0.98600297377E+01  0.39226229272E+02  0.41530281077E+01  0.50528869515E+02  0.30000029377E+02 0.  0.
        -12    1    1    2    0    0 -0.98600297377E+01 -0.39226229272E+02 -0.41530281077E+01  0.40659130485E+02  0.00000000000E+00 0.  1.
         11    1    3    3    0    0  0.30212576500E+01 -0.31976263214E+01 -0.15413104704E+01  0.46613785629E+01  0.51100000000E-03 0. -1.
        -11    1    3    3    0    0 -0.30870216873E+01  0.23083158781E+02 -0.39408439215E+00  0.23291999163E+02  0.51100000000E-03 0.  1.
        -12    1    3    3    0    0  0.99257937751E+01  0.19340696813E+02  0.60884229702E+01  0.22575491789E+02  0.00000000000E+00 0.  1.
</event>
<event>
 7    1  0.1024956E-012  0.5052888E+02  0.7816164E-02  0.1300439E+00
        -11   -1    0    0    0    0  0.00000000000E+00  0.00000000000E+00  0.45593999997E+02  0.45594000000E+02  0.51100000000E-03 0.  1.
         11   -1    0    0    0    0 -0.00000000000E+00 -0.00000000000E+00 -0.45593999997E+02  0.45594000000E+02  0.51100000000E-03 0. -1.
    9900012    2    1    2    0    0 -0.17890652550E+02  0.98154795547E+01 -0.35167382250E+02  0.50528882180E+02  0.30000067875E+02 0.  0.
        -12    1    1    2    0    0  0.17890652550E+02 -0.98154795547E+01  0.35167382250E+02  0.40659117820E+02  0.00000000000E+00 0.  1.
         11    1    3    3    0    0 -0.24731591410E+01 -0.64226452986E+01 -0.24658108560E+02  0.25600570439E+02  0.51100000000E-03 0. -1.
        -11    1    3    3    0    0 -0.11712751656E+02  0.12951642792E+02 -0.94815599142E+01  0.19870419750E+02  0.51100000000E-03 0.  1.
         12    1    3    3    0    0 -0.37047417531E+01  0.32864820609E+01 -0.10277137757E+01  0.50578919916E+01  0.00000000000E+00 0. -1.
</event>
<event>
 7    1  0.1024956E-012  0.5052886E+02  0.7816164E-02  0.1300439E+00
        -11   -1    0    0    0    0  0.00000000000E+00  0.00000000000E+00  0.45593999997E+02  0.45594000000E+02  0.51100000000E-03 0. -1.
         11   -1    0    0    0    0 -0.00000000000E+00 -0.00000000000E+00 -0.45593999997E+02  0.45594000000E+02  0.51100000000E-03 0.  1.
    9900012    2    1    2    0    0 -0.28633061907E+02 -0.14248449502E+02  0.25105677608E+02  0.50528860861E+02  0.30000003073E+02 0.  0.
        -12    1    1    2    0    0  0.28633061907E+02  0.14248449502E+02 -0.25105677608E+02  0.40659139139E+02  0.00000000000E+00 0.  1.
         11    1    3    3    0    0 -0.16516873998E+02 -0.39546429071E+01  0.16694288961E+02  0.23814819155E+02  0.51100000000E-03 0. -1.
        -11    1    3    3    0    0  0.62978001699E+00 -0.10801577075E+02 -0.99390511558E+00  0.10865474579E+02  0.51100000000E-03 0.  1.
        -12    1    3    3    0    0 -0.12745967925E+02  0.50777048045E+00  0.94052937623E+01  0.15848567127E+02  0.00000000000E+00 0.  1.
</event>
